Generated by trjconv : CNT in water t= 348.00000
33518
    1C        C    1   2.845   2.771   4.745
    1C        C    2   2.899   2.721   4.865
    1C        C    3   2.852   2.784   4.982
    1C        C    4   2.847   2.775   4.259
    1C        C    5   2.897   2.726   4.381
    1C        C    6   2.843   2.770   4.504
    1C        C    7   3.014   2.641   4.623
    1C        C    8   2.896   2.718   4.624
    1C        C    9   3.075   2.606   4.746
    1C        C   10   3.004   2.627   4.866
    1C        C   11   3.181   2.490   4.974
    1C        C   12   3.057   2.554   4.973
    1C        C   13   2.849   2.771   3.770
    1C        C   14   2.900   2.723   3.893
    1C        C   15   2.849   2.772   4.016
    1C        C   16   3.019   2.646   4.139
    1C        C   17   2.902   2.726   4.138
    1C        C   18   3.082   2.612   4.261
    1C        C   19   3.017   2.651   4.380
    1C        C   20   3.208   2.557   4.503
    1C        C   21   3.077   2.610   4.501
    1C        C   22   3.279   2.539   4.624
    1C        C   23   3.208   2.553   4.745
    1C        C   24   3.412   2.483   4.863
    1C        C   25   3.271   2.506   4.864
    1C        C   26   3.487   2.471   4.981
    1C        C   27   2.851   2.765   3.281
    1C        C   28   2.904   2.726   3.405
    1C        C   29   2.851   2.772   3.527
    1C        C   30   3.018   2.640   3.649
    1C        C   31   2.905   2.726   3.649
    1C        C   32   3.075   2.604   3.773
    1C        C   33   3.013   2.638   3.895
    1C        C   34   3.204   2.546   4.015
    1C        C   35   3.075   2.604   4.016
    1C        C   36   3.276   2.528   4.136
    1C        C   37   3.211   2.554   4.259
    1C        C   38   3.417   2.511   4.381
    1C        C   39   3.278   2.536   4.382
    1C        C   40   3.486   2.502   4.503
    1C        C   41   3.415   2.502   4.625
    1C        C   42   3.631   2.480   4.742
    1C        C   43   3.489   2.480   4.743
    1C        C   44   3.706   2.484   4.862
    1C        C   45   3.626   2.471   4.976
    1C        C   46   2.839   2.754   2.794
    1C        C   47   2.895   2.710   2.916
    1C        C   48   2.842   2.758   3.038
    1C        C   49   3.010   2.628   3.161
    1C        C   50   2.895   2.709   3.159
    1C        C   51   3.072   2.594   3.284
    1C        C   52   3.012   2.635   3.406
    1C        C   53   3.209   2.549   3.528
    1C        C   54   3.078   2.602   3.527
    1C        C   55   3.278   2.531   3.650
    1C        C   56   3.208   2.556   3.770
    1C        C   57   3.413   2.508   3.894
    1C        C   58   3.273   2.531   3.893
    1C        C   59   3.485   2.505   4.016
    1C        C   60   3.415   2.507   4.139
    1C        C   61   3.629   2.502   4.261
    1C        C   62   3.488   2.499   4.260
    1C        C   63   3.702   2.511   4.381
    1C        C   64   3.628   2.506   4.501
    1C        C   65   3.837   2.543   4.620
    1C        C   66   3.701   2.506   4.622
    1C        C   67   3.910   2.556   4.741
    1C        C   68   3.843   2.516   4.859
    1C        C   69   4.050   2.588   4.977
    1C        C   70   3.921   2.532   4.974
    1C        C   71   2.825   2.735   2.308
    1C        C   72   2.882   2.691   2.430
    1C        C   73   2.832   2.745   2.550
    1C        C   74   3.007   2.626   2.675
    1C        C   75   2.889   2.703   2.672
    1C        C   76   3.070   2.588   2.796
    1C        C   77   3.010   2.628   2.917
    1C        C   78   3.201   2.534   3.038
    1C        C   79   3.072   2.592   3.039
    1C        C   80   3.270   2.521   3.160
    1C        C   81   3.203   2.542   3.283
    1C        C   82   3.413   2.502   3.403
    1C        C   83   3.273   2.525   3.405
    1C        C   84   3.484   2.496   3.525
    1C        C   85   3.417   2.507   3.649
    1C        C   86   3.626   2.503   3.771
    1C        C   87   3.485   2.499   3.773
    1C        C   88   3.695   2.510   3.894
    1C        C   89   3.626   2.505   4.017
    1C        C   90   3.836   2.546   4.134
    1C        C   91   3.699   2.512   4.138
    1C        C   92   3.904   2.567   4.256
    1C        C   93   3.841   2.539   4.379
    1C        C   94   4.034   2.630   4.498
    1C        C   95   3.909   2.565   4.500
    1C        C   96   4.092   2.673   4.619
    1C        C   97   4.033   2.627   4.739
    1C        C   98   4.184   2.770   4.864
    1C        C   99   4.101   2.654   4.861
    1C        C  100   4.204   2.848   4.979
    1C        C  101   2.825   2.733   2.069
    1C        C  102   2.989   2.591   2.191
    1C        C  103   2.879   2.682   2.188
    1C        C  104   3.063   2.574   2.311
    1C        C  105   3.000   2.614   2.432
    1C        C  106   3.199   2.537   2.550
    1C        C  107   3.066   2.586   2.553
    1C        C  108   3.270   2.520   2.671
    1C        C  109   3.203   2.540   2.794
    1C        C  110   3.411   2.497   2.914
    1C        C  111   3.271   2.520   2.916
    1C        C  112   3.481   2.491   3.036
    1C        C  113   3.410   2.503   3.158
    1C        C  114   3.623   2.498   3.279
    1C        C  115   3.482   2.498   3.279
    1C        C  116   3.694   2.511   3.401
    1C        C  117   3.625   2.503   3.524
    1C        C  118   3.831   2.545   3.644
    1C        C  119   3.693   2.513   3.647
    1C        C  120   3.897   2.570   3.766
    1C        C  121   3.831   2.547   3.889
    1C        C  122   4.023   2.639   4.011
    1C        C  123   3.899   2.571   4.010
    1C        C  124   4.084   2.680   4.132
    1C        C  125   4.027   2.638   4.254
    1C        C  126   4.198   2.764   4.376
    1C        C  127   4.090   2.673   4.376
    1C        C  128   4.242   2.821   4.498
    1C        C  129   4.197   2.768   4.621
    1C        C  130   4.323   2.936   4.743
    1C        C  131   4.243   2.819   4.744
    1C        C  132   4.356   3.006   4.862
    1C        C  133   4.287   2.959   4.974
    1C        C  134   3.172   2.471   2.081
    1C        C  135   3.036   2.504   2.087
    1C        C  136   3.260   2.483   2.189
    1C        C  137   3.194   2.520   2.308
    1C        C  138   3.405   2.481   2.427
    1C        C  139   3.267   2.509   2.429
    1C        C  140   3.479   2.487   2.548
    1C        C  141   3.409   2.498   2.670
    1C        C  142   3.623   2.489   2.789
    1C        C  143   3.481   2.491   2.791
    1C        C  144   3.691   2.505   2.911
    1C        C  145   3.622   2.499   3.034
    1C        C  146   3.829   2.542   3.156
    1C        C  147   3.693   2.505   3.157
    1C        C  148   3.898   2.564   3.277
    1C        C  149   3.832   2.540   3.400
    1C        C  150   4.025   2.629   3.522
    1C        C  151   3.899   2.565   3.522
    1C        C  152   4.082   2.671   3.644
    1C        C  153   4.020   2.639   3.768
    1C        C  154   4.194   2.764   3.888
    1C        C  155   4.081   2.680   3.889
    1C        C  156   4.247   2.814   4.009
    1C        C  157   4.196   2.766   4.132
    1C        C  158   4.342   2.919   4.255
    1C        C  159   4.252   2.810   4.254
    1C        C  160   4.378   2.984   4.375
    1C        C  161   4.333   2.929   4.498
    1C        C  162   4.435   3.114   4.618
    1C        C  163   4.368   2.990   4.621
    1C        C  164   4.468   3.185   4.736
    1C        C  165   4.431   3.126   4.859
    1C        C  166   4.512   3.321   4.973
    1C        C  167   4.476   3.187   4.977
    1C        C  168   3.476   2.440   2.073
    1C        C  169   3.399   2.456   2.188
    1C        C  170   3.618   2.466   2.306
    1C        C  171   3.476   2.459   2.307
    1C        C  172   3.690   2.490   2.425
    1C        C  173   3.620   2.490   2.547
    1C        C  174   3.828   2.545   2.666
    1C        C  175   3.693   2.502   2.667
    1C        C  176   3.891   2.565   2.790
    1C        C  177   3.828   2.540   2.914
    1C        C  178   4.024   2.627   3.031
    1C        C  179   3.897   2.565   3.034
    1C        C  180   4.086   2.661   3.153
    1C        C  181   4.025   2.625   3.275
    1C        C  182   4.194   2.753   3.400
    1C        C  183   4.083   2.664   3.398
    1C        C  184   4.249   2.801   3.521
    1C        C  185   4.196   2.754   3.643
    1C        C  186   4.344   2.909   3.764
    1C        C  187   4.248   2.805   3.764
    1C        C  188   4.381   2.972   3.885
    1C        C  189   4.337   2.923   4.009
    1C        C  190   4.448   3.101   4.130
    1C        C  191   4.378   2.978   4.132
    1C        C  192   4.473   3.172   4.250
    1C        C  193   4.433   3.114   4.372
    1C        C  194   4.503   3.313   4.490
    1C        C  195   4.460   3.179   4.495
    1C        C  196   4.521   3.388   4.609
    1C        C  197   4.507   3.321   4.732
    1C        C  198   4.550   3.534   4.849
    1C        C  199   4.528   3.392   4.854
    1C        C  200   4.575   3.618   4.962
    1C        C  201   3.616   2.424   2.072
    1C        C  202   3.828   2.506   2.178
    1C        C  203   3.694   2.456   2.187
    1C        C  204   3.895   2.541   2.299
    1C        C  205   3.828   2.523   2.421
    1C        C  206   4.020   2.620   2.539
    1C        C  207   3.895   2.556   2.541
    1C        C  208   4.080   2.656   2.662
    1C        C  209   4.020   2.624   2.786
    1C        C  210   4.196   2.745   2.906
    1C        C  211   4.084   2.659   2.907
    1C        C  212   4.249   2.792   3.029
    1C        C  213   4.197   2.749   3.153
    1C        C  214   4.338   2.904   3.272
    1C        C  215   4.244   2.798   3.276
    1C        C  216   4.374   2.966   3.394
    1C        C  217   4.337   2.912   3.519
    1C        C  218   4.432   3.100   3.639
    1C        C  219   4.379   2.969   3.641
    1C        C  220   4.463   3.166   3.761
    1C        C  221   4.440   3.101   3.884
    1C        C  222   4.503   3.303   4.002
    1C        C  223   4.469   3.166   4.006
    1C        C  224   4.512   3.378   4.121
    1C        C  225   4.504   3.310   4.245
    1C        C  226   4.522   3.521   4.363
    1C        C  227   4.517   3.380   4.367
    1C        C  228   4.517   3.597   4.482
    1C        C  229   4.529   3.529   4.605
    1C        C  230   4.502   3.741   4.723
    1C        C  231   4.534   3.602   4.726
    1C        C  232   4.496   3.820   4.840
    1C        C  233   4.538   3.753   4.955
    1C        C  234   4.021   2.600   2.064
    1C        C  235   3.898   2.536   2.061
    1C        C  236   4.085   2.650   2.179
    1C        C  237   4.020   2.610   2.298
    1C        C  238   4.201   2.733   2.420
    1C        C  239   4.081   2.655   2.417
    1C        C  240   4.252   2.781   2.543
    1C        C  241   4.198   2.735   2.665
    1C        C  242   4.338   2.901   2.783
    1C        C  243   4.250   2.791   2.784
    1C        C  244   4.377   2.959   2.906
    1C        C  245   4.337   2.903   3.029
    1C        C  246   4.438   3.090   3.147
    1C        C  247   4.377   2.963   3.150
    1C        C  248   4.456   3.157   3.271
    1C        C  249   4.433   3.094   3.395
    1C        C  250   4.495   3.300   3.512
    1C        C  251   4.457   3.164   3.516
    1C        C  252   4.503   3.371   3.633
    1C        C  253   4.496   3.303   3.757
    1C        C  254   4.518   3.513   3.878
    1C        C  255   4.514   3.372   3.879
    1C        C  256   4.513   3.588   3.997
    1C        C  257   4.514   3.519   4.121
    1C        C  258   4.483   3.730   4.239
    1C        C  259   4.515   3.593   4.241
    1C        C  260   4.466   3.802   4.359
    1C        C  261   4.484   3.734   4.482
    1C        C  262   4.425   3.941   4.601
    1C        C  263   4.472   3.808   4.602
    1C        C  264   4.399   4.011   4.721
    1C        C  265   4.434   3.947   4.842
    1C        C  266   4.317   4.128   4.956
    1C        C  267   4.396   4.013   4.959
    1C        C  268   4.260   2.776   2.060
    1C        C  269   4.205   2.723   2.177
    1C        C  270   4.348   2.885   2.296
    1C        C  271   4.255   2.777   2.298
    1C        C  272   4.387   2.946   2.417
    1C        C  273   4.341   2.891   2.539
    1C        C  274   4.441   3.081   2.658
    1C        C  275   4.379   2.955   2.659
    1C        C  276   4.468   3.147   2.779
    1C        C  277   4.447   3.082   2.903
    1C        C  278   4.502   3.289   3.022
    1C        C  279   4.470   3.151   3.024
    1C        C  280   4.509   3.359   3.145
    1C        C  281   4.500   3.291   3.268
    1C        C  282   4.514   3.507   3.389
    1C        C  283   4.510   3.366   3.388
    1C        C  284   4.509   3.580   3.510
    1C        C  285   4.507   3.513   3.634
    1C        C  286   4.486   3.724   3.752
    1C        C  287   4.508   3.584   3.756
    1C        C  288   4.466   3.793   3.873
    1C        C  289   4.485   3.726   3.996
    1C        C  290   4.421   3.932   4.117
    1C        C  291   4.468   3.799   4.116
    1C        C  292   4.393   4.002   4.236
    1C        C  293   4.421   3.936   4.358
    1C        C  294   4.325   4.127   4.477
    1C        C  295   4.393   4.003   4.479
    1C        C  296   4.278   4.187   4.597
    1C        C  297   4.324   4.132   4.718
    1C        C  298   4.204   4.315   4.839
    1C        C  299   4.277   4.192   4.839
    1C        C  300   4.167   4.399   4.949
    1C        C  301   4.347   2.884   2.060
    1C        C  302   4.467   3.069   2.176
    1C        C  303   4.398   2.944   2.177
    1C        C  304   4.477   3.144   2.296
    1C        C  305   4.449   3.073   2.415
    1C        C  306   4.502   3.282   2.535
    1C        C  307   4.470   3.145   2.535
    1C        C  308   4.513   3.355   2.656
    1C        C  309   4.501   3.285   2.778
    1C        C  310   4.521   3.498   2.897
    1C        C  311   4.518   3.356   2.899
    1C        C  312   4.512   3.569   3.019
    1C        C  313   4.511   3.500   3.142
    1C        C  314   4.483   3.712   3.262
    1C        C  315   4.502   3.572   3.264
    1C        C  316   4.472   3.784   3.383
    1C        C  317   4.489   3.720   3.508
    1C        C  318   4.423   3.924   3.628
    1C        C  319   4.473   3.792   3.628
    1C        C  320   4.390   3.988   3.749
    1C        C  321   4.412   3.924   3.874
    1C        C  322   4.313   4.114   3.991
    1C        C  323   4.387   3.994   3.994
    1C        C  324   4.277   4.177   4.112
    1C        C  325   4.323   4.125   4.235
    1C        C  326   4.186   4.288   4.356
    1C        C  327   4.285   4.187   4.356
    1C        C  328   4.129   4.337   4.475
    1C        C  329   4.182   4.291   4.597
    1C        C  330   4.027   4.438   4.714
    1C        C  331   4.141   4.352   4.718
    1C        C  332   3.971   4.494   4.831
    1C        C  333   4.054   4.483   4.943
    1C        C  334   4.556   3.269   2.060
    1C        C  335   4.533   3.130   2.064
    1C        C  336   4.536   3.351   2.171
    1C        C  337   4.509   3.283   2.292
    1C        C  338   4.521   3.495   2.411
    1C        C  339   4.515   3.353   2.414
    1C        C  340   4.516   3.567   2.532
    1C        C  341   4.525   3.496   2.654
    1C        C  342   4.486   3.706   2.772
    1C        C  343   4.514   3.568   2.775
    1C        C  344   4.470   3.776   2.894
    1C        C  345   4.483   3.707   3.016
    1C        C  346   4.417   3.909   3.138
    1C        C  347   4.467   3.777   3.138
    1C        C  348   4.386   3.977   3.258
    1C        C  349   4.421   3.916   3.380
    1C        C  350   4.315   4.099   3.502
    1C        C  351   4.394   3.982   3.502
    1C        C  352   4.275   4.162   3.622
    1C        C  353   4.318   4.109   3.746
    1C        C  354   4.181   4.274   3.866
    1C        C  355   4.277   4.170   3.866
    1C        C  356   4.125   4.323   3.986
    1C        C  357   4.177   4.276   4.109
    1C        C  358   4.011   4.404   4.230
    1C        C  359   4.129   4.327   4.232
    1C        C  360   3.955   4.452   4.350
    1C        C  361   4.015   4.421   4.474
    1C        C  362   3.826   4.519   4.595
    1C        C  363   3.956   4.465   4.595
    1C        C  364   3.760   4.549   4.717
    1C        C  365   3.838   4.542   4.834
    1C        C  366   3.628   4.593   4.952
    1C        C  367   3.765   4.571   4.950
    1C        C  368   4.507   3.563   2.052
    1C        C  369   4.530   3.492   2.171
    1C        C  370   4.505   3.709   2.285
    1C        C  371   4.521   3.568   2.290
    1C        C  372   4.492   3.779   2.407
    1C        C  373   4.499   3.707   2.528
    1C        C  374   4.424   3.908   2.648
    1C        C  375   4.470   3.774   2.649
    1C        C  376   4.393   3.973   2.770
    1C        C  377   4.423   3.909   2.892
    1C        C  378   4.314   4.091   3.015
    1C        C  379   4.391   3.972   3.014
    1C        C  380   4.270   4.152   3.134
    1C        C  381   4.316   4.100   3.258
    1C        C  382   4.176   4.259   3.377
    1C        C  383   4.273   4.156   3.380
    1C        C  384   4.124   4.309   3.499
    1C        C  385   4.179   4.265   3.622
    1C        C  386   4.009   4.395   3.742
    1C        C  387   4.126   4.316   3.743
    1C        C  388   3.944   4.429   3.863
    1C        C  389   4.006   4.398   3.986
    1C        C  390   3.817   4.493   4.106
    1C        C  391   3.947   4.438   4.108
    1C        C  392   3.752   4.521   4.229
    1C        C  393   3.823   4.502   4.350
    1C        C  394   3.619   4.554   4.473
    1C        C  395   3.758   4.529   4.472
    1C        C  396   3.547   4.566   4.594
    1C        C  397   3.620   4.568   4.715
    1C        C  398   3.409   4.560   4.838
    1C        C  399   3.549   4.578   4.837
    1C        C  400   3.341   4.522   4.954
    1C        C  401   4.505   3.702   2.053
    1C        C  402   4.450   3.918   2.163
    1C        C  403   4.490   3.782   2.166
    1C        C  404   4.413   3.977   2.286
    1C        C  405   4.438   3.910   2.408
    1C        C  406   4.320   4.092   2.525
    1C        C  407   4.398   3.975   2.527
    1C        C  408   4.274   4.149   2.646
    1C        C  409   4.315   4.091   2.768
    1C        C  410   4.178   4.251   2.889
    1C        C  411   4.272   4.145   2.891
    1C        C  412   4.125   4.303   3.010
    1C        C  413   4.176   4.257   3.133
    1C        C  414   4.003   4.380   3.253
    1C        C  415   4.123   4.306   3.255
    1C        C  416   3.942   4.414   3.376
    1C        C  417   4.005   4.385   3.499
    1C        C  418   3.814   4.478   3.619
    1C        C  419   3.945   4.425   3.620
    1C        C  420   3.746   4.507   3.740
    1C        C  421   3.815   4.485   3.861
    1C        C  422   3.611   4.538   3.987
    1C        C  423   3.749   4.511   3.984
    1C        C  424   3.542   4.544   4.110
    1C        C  425   3.614   4.546   4.232
    1C        C  426   3.401   4.548   4.355
    1C        C  427   3.543   4.552   4.354
    1C        C  428   3.332   4.545   4.478
    1C        C  429   3.406   4.559   4.597
    1C        C  430   3.196   4.517   4.721
    1C        C  431   3.335   4.549   4.719
    1C        C  432   3.127   4.490   4.842
    1C        C  433   3.205   4.494   4.958
    1C        C  434   4.382   4.122   2.053
    1C        C  435   4.442   3.995   2.046
    1C        C  436   4.298   4.159   2.162
    1C        C  437   4.342   4.100   2.284
    1C        C  438   4.185   4.253   2.403
    1C        C  439   4.283   4.150   2.402
    1C        C  440   4.130   4.302   2.523
    1C        C  441   4.180   4.255   2.646
    1C        C  442   4.005   4.376   2.764
    1C        C  443   4.124   4.299   2.768
    1C        C  444   3.946   4.418   2.885
    1C        C  445   4.010   4.385   3.007
    1C        C  446   3.815   4.470   3.130
    1C        C  447   3.945   4.415   3.129
    1C        C  448   3.749   4.496   3.252
    1C        C  449   3.815   4.475   3.375
    1C        C  450   3.608   4.527   3.493
    1C        C  451   3.747   4.500   3.496
    1C        C  452   3.542   4.535   3.617
    1C        C  453   3.608   4.539   3.742
    1C        C  454   3.399   4.539   3.866
    1C        C  455   3.540   4.548   3.865
    1C        C  456   3.332   4.527   3.989
    1C        C  457   3.401   4.538   4.112
    1C        C  458   3.192   4.501   4.237
    1C        C  459   3.331   4.529   4.234
    1C        C  460   3.125   4.486   4.360
    1C        C  461   3.195   4.512   4.480
    1C        C  462   2.997   4.432   4.602
    1C        C  463   3.125   4.490   4.602
    1C        C  464   2.931   4.401   4.723
    1C        C  465   2.990   4.448   4.844
    1C        C  466   2.802   4.338   4.962
    1C        C  467   2.905   4.432   4.958
    1C        C  468   4.129   4.288   2.040
    1C        C  469   4.186   4.249   2.162
    1C        C  470   4.009   4.374   2.280
    1C        C  471   4.131   4.300   2.282
    1C        C  472   3.942   4.405   2.400
    1C        C  473   4.009   4.375   2.521
    1C        C  474   3.817   4.470   2.642
    1C        C  475   3.944   4.410   2.641
    1C        C  476   3.747   4.493   2.763
    1C        C  477   3.815   4.471   2.885
    1C        C  478   3.610   4.520   3.006
    1C        C  479   3.750   4.497   3.007
    1C        C  480   3.539   4.529   3.128
    1C        C  481   3.610   4.520   3.250
    1C        C  482   3.396   4.533   3.374
    1C        C  483   3.537   4.534   3.371
    1C        C  484   3.329   4.526   3.498
    1C        C  485   3.401   4.532   3.619
    1C        C  486   3.192   4.501   3.744
    1C        C  487   3.331   4.527   3.742
    1C        C  488   3.129   4.474   3.867
    1C        C  489   3.195   4.492   3.991
    1C        C  490   3.001   4.415   4.113
    1C        C  491   3.126   4.481   4.114
    1C        C  492   2.941   4.383   4.237
    1C        C  493   2.999   4.423   4.359
    1C        C  494   2.832   4.294   4.481
    1C        C  495   2.938   4.387   4.482
    1C        C  496   2.772   4.259   4.604
    1C        C  497   2.820   4.312   4.726
    1C        C  498   2.671   4.161   4.846
    1C        C  499   2.757   4.273   4.846
    1C        C  500   2.596   4.118   4.956
    1C        C  501   4.005   4.351   2.042
    1C        C  502   3.816   4.461   2.156
    1C        C  503   3.944   4.403   2.158
    1C        C  504   3.746   4.486   2.276
    1C        C  505   3.810   4.456   2.398
    1C        C  506   3.606   4.507   2.518
    1C        C  507   3.746   4.484   2.521
    1C        C  508   3.536   4.514   2.640
    1C        C  509   3.608   4.516   2.762
    1C        C  510   3.397   4.523   2.888
    1C        C  511   3.538   4.522   2.885
    1C        C  512   3.322   4.524   3.008
    1C        C  513   3.398   4.526   3.127
    1C        C  514   3.191   4.489   3.255
    1C        C  515   3.328   4.520   3.250
    1C        C  516   3.125   4.463   3.377
    1C        C  517   3.191   4.496   3.498
    1C        C  518   3.002   4.408   3.624
    1C        C  519   3.126   4.474   3.621
    1C        C  520   2.942   4.372   3.747
    1C        C  521   3.005   4.407   3.869
    1C        C  522   2.831   4.286   3.992
    1C        C  523   2.944   4.371   3.991
    1C        C  524   2.784   4.238   4.116
    1C        C  525   2.832   4.293   4.237
    1C        C  526   2.694   4.133   4.364
    1C        C  527   2.780   4.246   4.360
    1C        C  528   2.655   4.075   4.486
    1C        C  529   2.687   4.146   4.604
    1C        C  530   2.584   3.962   4.730
    1C        C  531   2.642   4.092   4.726
    1C        C  532   2.548   3.900   4.853
    1C        C  533   2.528   3.995   4.959
    1C        C  534   3.620   4.555   2.038
    1C        C  535   3.753   4.512   2.041
    1C        C  536   3.536   4.535   2.152
    1C        C  537   3.606   4.514   2.274
    1C        C  538   3.395   4.519   2.400
    1C        C  539   3.536   4.520   2.396
    1C        C  540   3.325   4.505   2.522
    1C        C  541   3.395   4.504   2.645
    1C        C  542   3.186   4.479   2.765
    1C        C  543   3.325   4.504   2.768
    1C        C  544   3.119   4.457   2.887
    1C        C  545   3.185   4.490   3.008
    1C        C  546   2.998   4.400   3.136
    1C        C  547   3.123   4.467   3.133
    1C        C  548   2.938   4.361   3.258
    1C        C  549   2.997   4.403   3.379
    1C        C  550   2.827   4.282   3.506
    1C        C  551   2.939   4.368   3.504
    1C        C  552   2.777   4.235   3.629
    1C        C  553   2.831   4.285   3.750
    1C        C  554   2.704   4.115   3.876
    1C        C  555   2.783   4.232   3.871
    1C        C  556   2.665   4.057   3.999
    1C        C  557   2.698   4.126   4.118
    1C        C  558   2.598   3.943   4.247
    1C        C  559   2.662   4.069   4.242
    1C        C  560   2.564   3.880   4.369
    1C        C  561   2.591   3.949   4.489
    1C        C  562   2.528   3.750   4.614
    1C        C  563   2.561   3.888   4.612
    1C        C  564   2.517   3.681   4.737
    1C        C  565   2.524   3.759   4.856
    1C        C  566   2.531   3.545   4.974
    1C        C  567   2.521   3.683   4.974
    1C        C  568   3.328   4.474   2.045
    1C        C  569   3.395   4.516   2.160
    1C        C  570   3.181   4.477   2.280
    1C        C  571   3.320   4.508   2.281
    1C        C  572   3.116   4.454   2.403
    1C        C  573   3.186   4.482   2.523
    1C        C  574   2.987   4.403   2.645
    1C        C  575   3.115   4.464   2.644
    1C        C  576   2.929   4.364   2.768
    1C        C  577   2.992   4.396   2.890
    1C        C  578   2.825   4.274   3.014
    1C        C  579   2.937   4.360   3.015
    1C        C  580   2.776   4.224   3.137
    1C        C  581   2.829   4.272   3.259
    1C        C  582   2.697   4.114   3.384
    1C        C  583   2.778   4.229   3.384
    1C        C  584   2.661   4.058   3.509
    1C        C  585   2.694   4.120   3.631
    1C        C  586   2.594   3.934   3.756
    1C        C  587   2.661   4.058   3.753
    1C        C  588   2.571   3.871   3.880
    1C        C  589   2.599   3.933   4.004
    1C        C  590   2.538   3.734   4.127
    1C        C  591   2.571   3.872   4.128
    1C        C  592   2.519   3.670   4.252
    1C        C  593   2.529   3.743   4.372
    1C        C  594   2.511   3.534   4.497
    1C        C  595   2.517   3.675   4.496
    1C        C  596   2.517   3.463   4.619
    1C        C  597   2.519   3.539   4.738
    1C        C  598   2.534   3.325   4.864
    1C        C  599   2.525   3.466   4.859
    1C        C  600   2.532   3.248   4.981
    1C        C  601   3.195   4.437   2.044
    1C        C  602   2.982   4.390   2.159
    1C        C  603   3.115   4.445   2.158
    1C        C  604   2.923   4.357   2.284
    1C        C  605   2.990   4.390   2.404
    1C        C  606   2.821   4.264   2.528
    1C        C  607   2.925   4.360   2.526
    1C        C  608   2.770   4.219   2.652
    1C        C  609   2.818   4.276   2.772
    1C        C  610   2.682   4.113   2.895
    1C        C  611   2.770   4.223   2.894
    1C        C  612   2.645   4.056   3.019
    1C        C  613   2.687   4.114   3.140
    1C        C  614   2.589   3.928   3.268
    1C        C  615   2.653   4.054   3.264
    1C        C  616   2.566   3.865   3.392
    1C        C  617   2.600   3.931   3.513
    1C        C  618   2.533   3.729   3.640
    1C        C  619   2.570   3.866   3.635
    1C        C  620   2.520   3.663   3.764
    1C        C  621   2.532   3.735   3.885
    1C        C  622   2.503   3.523   4.010
    1C        C  623   2.520   3.664   4.006
    1C        C  624   2.515   3.452   4.131
    1C        C  625   2.519   3.528   4.251
    1C        C  626   2.536   3.322   4.376
    1C        C  627   2.516   3.462   4.375
    1C        C  628   2.560   3.254   4.497
    1C        C  629   2.539   3.323   4.619
    1C        C  630   2.596   3.121   4.742
    1C        C  631   2.550   3.255   4.742
    1C        C  632   2.618   3.050   4.864
    1C        C  633   2.555   3.110   4.977
    1C        C  634   2.778   4.306   2.052
    1C        C  635   2.894   4.385   2.046
    1C        C  636   2.747   4.231   2.165
    1C        C  637   2.808   4.274   2.285
    1C        C  638   2.667   4.116   2.408
    1C        C  639   2.760   4.222   2.408
    1C        C  640   2.633   4.054   2.530
    1C        C  641   2.682   4.109   2.651
    1C        C  642   2.586   3.922   2.776
    1C        C  643   2.645   4.050   2.774
    1C        C  644   2.560   3.859   2.900
    1C        C  645   2.584   3.928   3.021
    1C        C  646   2.532   3.726   3.148
    1C        C  647   2.567   3.862   3.145
    1C        C  648   2.520   3.657   3.271
    1C        C  649   2.535   3.727   3.392
    1C        C  650   2.514   3.521   3.517
    1C        C  651   2.518   3.662   3.517
    1C        C  652   2.520   3.455   3.642
    1C        C  653   2.507   3.522   3.766
    1C        C  654   2.525   3.312   3.887
    1C        C  655   2.503   3.452   3.888
    1C        C  656   2.540   3.244   4.010
    1C        C  657   2.530   3.312   4.134
    1C        C  658   2.583   3.109   4.257
    1C        C  659   2.543   3.245   4.258
    1C        C  660   2.628   3.052   4.378
    1C        C  661   2.605   3.120   4.500
    1C        C  662   2.709   2.937   4.623
    1C        C  663   2.630   3.055   4.622
    1C        C  664   2.756   2.882   4.744
    1C        C  665   2.706   2.937   4.865
    1C        C  666   2.742   2.869   4.982
    1C        C  667   2.673   4.026   2.051
    1C        C  668   2.677   4.108   2.165
    1C        C  669   2.581   3.919   2.291
    1C        C  670   2.638   4.049   2.287
    1C        C  671   2.557   3.853   2.413
    1C        C  672   2.577   3.925   2.533
    1C        C  673   2.512   3.721   2.658
    1C        C  674   2.554   3.856   2.655
    1C        C  675   2.509   3.652   2.781
    1C        C  676   2.529   3.721   2.903
    1C        C  677   2.505   3.513   3.029
    1C        C  678   2.517   3.654   3.026
    1C        C  679   2.507   3.444   3.152
    1C        C  680   2.508   3.516   3.274
    1C        C  681   2.536   3.307   3.399
    1C        C  682   2.513   3.447   3.397
    1C        C  683   2.554   3.240   3.522
    1C        C  684   2.541   3.315   3.641
    1C        C  685   2.608   3.117   3.769
    1C        C  686   2.554   3.248   3.765
    1C        C  687   2.636   3.053   3.891
    1C        C  688   2.595   3.114   4.012
    1C        C  689   2.708   2.936   4.136
    1C        C  690   2.622   3.049   4.135
    1C        C  691   2.753   2.881   4.258
    1C        C  692   2.712   2.939   4.380
    1C        C  693   2.751   2.877   4.502
    1C        C  694   2.623   3.895   2.055
    1C        C  695   2.531   3.706   2.174
    1C        C  696   2.574   3.840   2.174
    1C        C  697   2.507   3.640   2.297
    1C        C  698   2.521   3.716   2.415
    1C        C  699   2.495   3.507   2.541
    1C        C  700   2.504   3.648   2.537
    1C        C  701   2.510   3.438   2.663
    1C        C  702   2.506   3.511   2.784
    1C        C  703   2.532   3.302   2.910
    1C        C  704   2.509   3.442   2.908
    1C        C  705   2.547   3.234   3.033
    1C        C  706   2.529   3.304   3.154
    1C        C  707   2.602   3.106   3.277
    1C        C  708   2.551   3.238   3.277
    1C        C  709   2.631   3.044   3.400
    1C        C  710   2.605   3.109   3.524
    1C        C  711   2.712   2.931   3.649
    1C        C  712   2.634   3.048   3.648
    1C        C  713   2.757   2.879   3.773
    1C        C  714   2.712   2.934   3.895
    1C        C  715   2.755   2.877   4.017
    1C        C  716   2.455   3.501   2.059
    1C        C  717   2.493   3.636   2.059
    1C        C  718   2.466   3.424   2.180
    1C        C  719   2.483   3.500   2.299
    1C        C  720   2.517   3.292   2.423
    1C        C  721   2.489   3.431   2.422
    1C        C  722   2.541   3.227   2.546
    1C        C  723   2.530   3.298   2.667
    1C        C  724   2.595   3.098   2.789
    1C        C  725   2.548   3.231   2.790
    1C        C  726   2.625   3.036   2.912
    1C        C  727   2.592   3.100   3.034
    1C        C  728   2.710   2.923   3.159
    1C        C  729   2.630   3.039   3.156
    1C        C  730   2.758   2.872   3.282
    1C        C  731   2.711   2.928   3.403
    1C        C  732   2.752   2.874   3.526
    1C        C  733   2.492   3.200   2.072
    1C        C  734   2.490   3.283   2.184
    1C        C  735   2.592   3.089   2.302
    1C        C  736   2.534   3.219   2.304
    1C        C  737   2.618   3.025   2.425
    1C        C  738   2.593   3.095   2.545
    1C        C  739   2.699   2.912   2.669
    1C        C  740   2.623   3.031   2.667
    1C        C  741   2.740   2.856   2.792
    1C        C  742   2.701   2.917   2.913
    1C        C  743   2.750   2.866   3.036
    1C        C  744   2.550   3.073   2.068
    1C        C  745   2.689   2.900   2.184
    1C        C  746   2.614   3.020   2.181
    1C        C  747   2.732   2.843   2.306
    1C        C  748   2.691   2.904   2.426
    1C        C  749   2.736   2.850   2.548
    1C        C  750   2.736   2.840   2.067
    1C        C  751   3.654   2.335   1.960
    1C        O  752   3.631   2.211   1.967
    1C        O  753   3.663   2.388   1.830
    1C        C  754   4.621   3.051   1.976
    1C        O  755   4.599   3.031   1.853
    1C        O  756   4.758   3.074   1.992
    1C        C  757   4.453   4.227   1.976
    1C        O  758   4.530   4.304   2.039
    1C        O  759   4.418   4.249   1.842
    1C        C  760   3.600   4.666   1.941
    1C        O  761   3.626   4.785   1.974
    1C        O  762   3.609   4.648   1.803
    1C        C  763   2.877   4.495   1.949
    1C        O  764   2.926   4.474   1.835
    1C        O  765   2.883   4.628   1.992
    1C        C  766   2.358   3.479   1.950
    1C        O  767   2.388   3.508   1.831
    1C        O  768   2.218   3.484   1.959
    1C        C  769   4.646   3.581   5.087
    1C        O  770   4.594   3.590   5.201
    1C        O  771   4.785   3.593   5.099
    1C        C  772   4.253   4.439   5.062
    1C        O  773   4.218   4.417   5.181
    1C        O  774   4.356   4.535   5.062
    1C        C  775   4.134   2.525   5.082
    1C        O  776   4.218   2.437   5.051
    1C        O  777   4.165   2.590   5.202
    1C        C  778   2.884   4.551   5.044
    1C        O  779   2.923   4.667   5.016
    1C        O  780   2.901   4.525   5.181
    1C        C  781   2.474   3.019   5.063
    1C        O  782   2.367   2.965   5.025
    1C        O  783   2.474   3.010   5.202
    1C        C  784   2.391   4.014   5.011
    1C        O  785   2.291   4.068   4.956
    1C        O  786   2.356   4.006   5.146
    1C        C  787   2.952   2.438   1.985
    1C        O  788   2.934   2.488   1.871
    1C        O  789   2.892   2.316   2.014
    1C        C  790   3.183   2.368   5.058
    1C        O  791   3.118   2.269   5.016
    1C        O  792   3.208   2.380   5.195
    1C        H  793   4.290   3.015   5.066
    1C        H  794   4.138   2.842   5.063
    1C        H  795   4.530   3.127   5.048
    1C        H  796   4.505   3.376   5.064
    1C        H  797   4.502   3.777   5.054
    1C        H  798   4.446   3.990   5.051
    1C        H  799   4.275   4.157   5.050
    1C        H  800   4.035   4.553   5.021
    1C        H  801   3.818   4.587   5.041
    1C        H  802   3.592   4.646   5.037
    1C        H  803   3.393   4.503   5.045
    1C        H  804   3.181   4.430   5.041
    1C        H  805   3.872   2.527   5.069
    1C        H  806   3.670   2.435   5.067
    1C        H  807   3.025   2.577   5.072
    1C        H  808   3.443   2.431   5.069
    1C        H  809   2.925   2.795   5.060
    1C        H  810   2.724   2.926   5.070
    1C        H  811   2.503   3.299   5.070
    1C        H  812   2.577   3.499   5.059
    1C        H  813   2.550   3.735   5.063
    1C        H  814   2.595   4.174   5.047
    1C        H  815   2.731   4.342   5.042
    1C        H  816   2.723   2.885   1.971
    1C        H  817   2.903   2.740   1.996
    1C        H  818   3.212   2.440   1.987
    1C        H  819   3.426   2.403   1.986
    1C        H  820   3.842   2.553   1.971
    1C        H  821   4.069   2.617   1.970
    1C        H  822   4.221   2.750   1.964
    1C        H  823   4.359   2.932   1.965
    1C        H  824   4.592   3.308   1.968
    1C        H  825   4.429   3.527   1.988
    1C        H  826   4.517   3.747   1.956
    1C        H  827   3.823   4.571   1.987
    1C        H  828   3.943   4.330   1.958
    1C        H  829   4.199   4.328   1.970
    1C        H  830   4.506   3.973   1.964
    1C        H  831   2.631   3.843   1.962
    1C        H  832   2.682   4.072   1.955
    1C        H  833   2.705   4.302   1.973
    1C        H  834   3.360   4.520   1.954
    1C        H  835   3.156   4.399   1.952
    1C        H  836   2.504   3.008   1.997
    1C        H  837   2.408   3.212   2.006
    1C        H  838   2.458   3.699   1.980
    2V3OU   H29  839   2.811   3.549   3.732
    2V3OU   C27  840   2.793   3.502   3.832
    2V3OU   H27  841   2.733   3.568   3.899
    2V3OU   H28  842   2.743   3.402   3.823
    2V3OU   O11  843   2.919   3.475   3.895
    2V3OU   C15  844   2.926   3.398   4.009
    2V3OU   C13  845   3.051   3.378   4.072
    2V3OU   C14  846   3.079   3.275   4.162
    2V3OU   C16  847   2.980   3.188   4.204
    2V3OU    H6  848   2.994   3.104   4.274
    2V3OU   C12  849   3.214   3.234   4.208
    2V3OU    O2  850   3.234   3.135   4.281
    2V3OU   C10  851   3.329   3.309   4.157
    2V3OU    C8  852   3.456   3.268   4.194
    2V3OU   O10  853   3.490   3.156   4.264
    2V3OU   H26  854   3.403   3.114   4.270
    2V3OU    C6  855   3.562   3.351   4.147
    2V3OU    C5  856   3.538   3.468   4.075
    2V3OU    C4  857   3.700   3.295   4.143
    2V3OU    H4  858   3.724   3.227   4.230
    2V3OU    H5  859   3.712   3.224   4.056
    2V3OU    C2  860   3.813   3.398   4.139
    2V3OU    O6  861   3.810   3.475   4.260
    2V3OU   H21  862   3.758   3.555   4.242
    2V3OU    C3  863   3.779   3.493   4.024
    2V3OU    H2  864   3.859   3.569   4.011
    2V3OU    H3  865   3.776   3.438   3.926
    2V3OU   C25  866   3.949   3.329   4.127
    2V3OU    O7  867   4.000   3.300   4.019
    2V3OU   C26  868   4.032   3.292   4.250
    2V3OU   H22  869   4.063   3.388   4.298
    2V3OU   H23  870   4.117   3.226   4.221
    2V3OU    O8  871   3.963   3.214   4.344
    2V3OU   H24  872   3.919   3.262   4.416
    2V3OU    C1  873   3.645   3.565   4.034
    2V3OU    H1  874   3.626   3.622   3.939
    2V3OU    O3  875   3.663   3.653   4.145
    2V3OU   C19  876   3.624   3.790   4.128
    2V3OU    H9  877   3.528   3.798   4.068
    2V3OU    O4  878   3.720   3.845   4.040
    2V3OU   C20  879   3.846   3.873   4.101
    2V3OU   H10  880   3.893   3.771   4.115
    2V3OU   C24  881   3.608   3.858   4.264
    2V3OU   H16  882   3.544   3.793   4.328
    2V3OU   H17  883   3.556   3.955   4.245
    2V3OU   C23  884   3.747   3.873   4.328
    2V3OU   H15  885   3.791   3.768   4.337
    2V3OU    N1  886   3.735   3.954   4.447
    2V3OU   H19  887   3.810   3.923   4.505
    2V3OU   H20  888   3.647   3.933   4.489
    2V3OU   C21  889   3.849   3.946   4.235
    2V3OU   H11  890   3.957   3.932   4.263
    2V3OU    O5  891   3.827   4.086   4.250
    2V3OU   H18  892   3.773   4.094   4.330
    2V3OU   C22  893   3.913   3.952   3.990
    2V3OU   H12  894   3.863   4.052   3.983
    2V3OU   H13  895   3.911   3.892   3.895
    2V3OU   H14  896   4.020   3.970   4.016
    2V3OU   C11  897   3.159   3.475   4.047
    2V3OU    O1  898   3.137   3.580   3.983
    2V3OU    C9  899   3.294   3.424   4.081
    2V3OU    C7  900   3.403   3.501   4.042
    2V3OU    O9  901   3.389   3.620   3.974
    2V3OU   H25  902   3.292   3.624   3.963
    2V3OU   C17  903   2.828   3.313   4.064
    2V3OU    H7  904   2.733   3.351   4.027
    2V3OU   C18  905   2.851   3.216   4.161
    2V3OU    H8  906   2.788   3.175   4.242
    3SOL     OW  907   2.904   4.337   5.738
    3SOL    HW1  908   2.933   4.427   5.705
    3SOL    HW2  909   2.808   4.321   5.712
    4SOL     OW  910   6.896   7.017   6.862
    4SOL    HW1  911   6.841   0.078   6.862
    4SOL    HW2  912   6.951   7.014   6.778
    5SOL     OW  913   5.198   1.441   3.025
    5SOL    HW1  914   5.166   1.366   3.082
    5SOL    HW2  915   5.136   1.453   2.948
    6SOL     OW  916   5.288   2.139   2.993
    6SOL    HW1  917   5.271   2.109   3.087
    6SOL    HW2  918   5.386   2.151   2.978
    7SOL     OW  919   0.817   4.104   4.374
    7SOL    HW1  920   0.759   4.027   4.349
    7SOL    HW2  921   0.775   4.189   4.342
    8SOL     OW  922   2.870   1.978   5.146
    8SOL    HW1  923   2.966   1.984   5.117
    8SOL    HW2  924   2.854   2.041   5.222
    9SOL     OW  925   6.277   1.473   5.796
    9SOL    HW1  926   6.241   1.381   5.813
    9SOL    HW2  927   6.364   1.466   5.747
   10SOL     OW  928   3.729   4.964   4.266
   10SOL    HW1  929   3.755   5.060   4.252
   10SOL    HW2  930   3.738   4.915   4.179
   11SOL     OW  931   1.824   1.538   6.996
   11SOL    HW1  932   1.866   1.623   0.005
   11SOL    HW2  933   1.828   1.534   6.896
   12SOL     OW  934   2.664   4.640   4.206
   12SOL    HW1  935   2.654   4.586   4.123
   12SOL    HW2  936   2.610   4.599   4.279
   13SOL     OW  937   3.370   6.148   2.880
   13SOL    HW1  938   3.422   6.107   2.805
   13SOL    HW2  939   3.328   6.233   2.850
   14SOL     OW  940   4.245   4.418   6.538
   14SOL    HW1  941   4.294   4.365   6.469
   14SOL    HW2  942   4.309   4.479   6.586
   15SOL     OW  943   0.540   6.600   6.266
   15SOL    HW1  944   0.608   6.535   6.233
   15SOL    HW2  945   0.454   6.587   6.216
   16SOL     OW  946   5.623   2.408   6.382
   16SOL    HW1  947   5.695   2.477   6.378
   16SOL    HW2  948   5.534   2.452   6.392
   17SOL     OW  949   5.511   0.542   6.385
   17SOL    HW1  950   5.516   0.443   6.375
   17SOL    HW2  951   5.587   0.574   6.442
   18SOL     OW  952   3.876   1.388   5.128
   18SOL    HW1  953   3.873   1.472   5.182
   18SOL    HW2  954   3.859   1.309   5.187
   19SOL     OW  955   0.463   1.911   2.785
   19SOL    HW1  956   0.413   1.981   2.837
   19SOL    HW2  957   0.561   1.925   2.797
   20SOL     OW  958   5.355   1.924   5.506
   20SOL    HW1  959   5.280   1.985   5.478
   20SOL    HW2  960   5.421   1.916   5.432
   21SOL     OW  961   3.042   0.049   3.006
   21SOL    HW1  962   3.004   0.050   3.099
   21SOL    HW2  963   3.037   0.141   2.967
   22SOL     OW  964   0.843   6.223   6.181
   22SOL    HW1  965   0.882   6.249   6.269
   22SOL    HW2  966   0.820   6.126   6.181
   23SOL     OW  967   4.120   5.540   2.525
   23SOL    HW1  968   4.155   5.559   2.617
   23SOL    HW2  969   4.196   5.512   2.465
   24SOL     OW  970   3.785   0.030   2.230
   24SOL    HW1  971   3.688   0.056   2.237
   24SOL    HW2  972   3.823   0.067   2.146
   25SOL     OW  973   2.675   6.994   4.491
   25SOL    HW1  974   2.695   0.044   4.557
   25SOL    HW2  975   2.748   6.926   4.493
   26SOL     OW  976   0.700   2.048   6.743
   26SOL    HW1  977   0.745   2.114   6.682
   26SOL    HW2  978   0.745   1.959   6.735
   27SOL     OW  979   1.267   1.364   2.174
   27SOL    HW1  980   1.290   1.396   2.082
   27SOL    HW2  981   1.343   1.310   2.211
   28SOL     OW  982   1.038   0.707   4.518
   28SOL    HW1  983   0.976   0.671   4.588
   28SOL    HW2  984   1.111   0.759   4.562
   29SOL     OW  985   6.132   1.196   1.093
   29SOL    HW1  986   6.205   1.184   1.161
   29SOL    HW2  987   6.085   1.283   1.111
   30SOL     OW  988   3.230   0.483   5.087
   30SOL    HW1  989   3.162   0.445   5.148
   30SOL    HW2  990   3.264   0.570   5.124
   31SOL     OW  991   0.284   2.400   5.115
   31SOL    HW1  992   0.337   2.362   5.040
   31SOL    HW2  993   0.312   2.495   5.132
   32SOL     OW  994   1.245   1.561   2.655
   32SOL    HW1  995   1.168   1.561   2.719
   32SOL    HW2  996   1.329   1.539   2.703
   33SOL     OW  997   0.552   4.157   5.222
   33SOL    HW1  998   0.487   4.097   5.269
   33SOL    HW2  999   0.550   4.137   5.123
   34SOL     OW 1000   2.297   5.599   4.923
   34SOL    HW1 1001   2.246   5.684   4.937
   34SOL    HW2 1002   2.310   5.554   5.012
   35SOL     OW 1003   4.697   1.628   5.379
   35SOL    HW1 1004   4.783   1.612   5.332
   35SOL    HW2 1005   4.626   1.653   5.313
   36SOL     OW 1006   5.507   1.079   3.980
   36SOL    HW1 1007   5.541   1.168   3.951
   36SOL    HW2 1008   5.473   1.086   4.074
   37SOL     OW 1009   1.905   1.547   4.461
   37SOL    HW1 1010   1.844   1.602   4.518
   37SOL    HW2 1011   1.851   1.478   4.412
   38SOL     OW 1012   2.211   4.128   1.525
   38SOL    HW1 1013   2.214   4.228   1.532
   38SOL    HW2 1014   2.167   4.090   1.606
   39SOL     OW 1015   6.519   4.781   6.526
   39SOL    HW1 1016   6.561   4.752   6.612
   39SOL    HW2 1017   6.577   4.755   6.449
   40SOL     OW 1018   3.028   1.178   6.519
   40SOL    HW1 1019   3.113   1.218   6.554
   40SOL    HW2 1020   3.045   1.135   6.430
   41SOL     OW 1021   6.825   3.824   2.532
   41SOL    HW1 1022   6.814   3.918   2.563
   41SOL    HW2 1023   6.738   3.791   2.494
   42SOL     OW 1024   3.398   6.518   3.974
   42SOL    HW1 1025   3.485   6.512   4.023
   42SOL    HW2 1026   3.342   6.591   4.012
   43SOL     OW 1027   4.011   6.923   5.286
   43SOL    HW1 1028   3.997   6.979   5.367
   43SOL    HW2 1029   4.100   6.944   5.246
   44SOL     OW 1030   6.018   2.900   4.984
   44SOL    HW1 1031   5.939   2.846   4.958
   44SOL    HW2 1032   6.086   2.898   4.910
   45SOL     OW 1033   4.296   5.752   1.561
   45SOL    HW1 1034   4.307   5.796   1.650
   45SOL    HW2 1035   4.199   5.750   1.537
   46SOL     OW 1036   0.385   2.754   3.956
   46SOL    HW1 1037   0.381   2.754   4.056
   46SOL    HW2 1038   0.423   2.668   3.924
   47SOL     OW 1039   5.060   3.907   1.459
   47SOL    HW1 1040   5.114   3.906   1.543
   47SOL    HW2 1041   5.116   3.872   1.384
   48SOL     OW 1042   7.000   2.136   6.251
   48SOL    HW1 1043   6.949   2.211   6.210
   48SOL    HW2 1044   0.050   2.173   6.309
   49SOL     OW 1045   5.261   2.825   1.447
   49SOL    HW1 1046   5.334   2.893   1.434
   49SOL    HW2 1047   5.192   2.836   1.375
   50SOL     OW 1048   6.055   1.864   5.715
   50SOL    HW1 1049   5.978   1.858   5.779
   50SOL    HW2 1050   6.074   1.961   5.696
   51SOL     OW 1051   2.145   5.920   2.612
   51SOL    HW1 1052   2.150   5.874   2.524
   51SOL    HW2 1053   2.237   5.949   2.640
   52SOL     OW 1054   5.365   2.588   1.933
   52SOL    HW1 1055   5.347   2.573   2.030
   52SOL    HW2 1056   5.292   2.643   1.894
   53SOL     OW 1057   4.934   0.062   3.556
   53SOL    HW1 1058   5.021   0.032   3.517
   53SOL    HW2 1059   4.859   0.011   3.513
   54SOL     OW 1060   5.157   6.472   0.013
   54SOL    HW1 1061   5.082   6.408   0.001
   54SOL    HW2 1062   5.217   6.468   6.955
   55SOL     OW 1063   2.242   2.238   5.584
   55SOL    HW1 1064   2.209   2.328   5.611
   55SOL    HW2 1065   2.338   2.245   5.557
   56SOL     OW 1066   1.374   1.685   1.395
   56SOL    HW1 1067   1.280   1.654   1.411
   56SOL    HW2 1068   1.409   1.643   1.311
   57SOL     OW 1069   3.887   1.192   6.932
   57SOL    HW1 1070   3.947   1.254   6.984
   57SOL    HW2 1071   3.870   1.231   6.842
   58SOL     OW 1072   0.584   0.285   6.135
   58SOL    HW1 1073   0.533   0.341   6.070
   58SOL    HW2 1074   0.556   0.190   6.127
   59SOL     OW 1075   6.506   3.436   6.404
   59SOL    HW1 1076   6.437   3.466   6.338
   59SOL    HW2 1077   6.464   3.425   6.494
   60SOL     OW 1078   5.473   1.730   3.702
   60SOL    HW1 1079   5.571   1.752   3.705
   60SOL    HW2 1080   5.432   1.750   3.791
   61SOL     OW 1081   0.241   0.642   4.088
   61SOL    HW1 1082   0.149   0.631   4.051
   61SOL    HW2 1083   0.308   0.631   4.015
   62SOL     OW 1084   1.147   1.308   1.328
   62SOL    HW1 1085   1.053   1.297   1.297
   62SOL    HW2 1086   1.152   1.383   1.393
   63SOL     OW 1087   3.729   0.720   4.486
   63SOL    HW1 1088   3.749   0.622   4.486
   63SOL    HW2 1089   3.707   0.750   4.579
   64SOL     OW 1090   0.936   3.556   6.494
   64SOL    HW1 1091   0.951   3.655   6.497
   64SOL    HW2 1092   0.839   3.538   6.482
   65SOL     OW 1093   1.047   6.541   5.778
   65SOL    HW1 1094   0.954   6.556   5.811
   65SOL    HW2 1095   1.072   6.445   5.790
   66SOL     OW 1096   3.592   0.331   3.242
   66SOL    HW1 1097   3.588   0.283   3.330
   66SOL    HW2 1098   3.686   0.330   3.208
   67SOL     OW 1099   0.190   2.388   6.124
   67SOL    HW1 1100   0.194   2.303   6.177
   67SOL    HW2 1101   0.246   2.457   6.169
   68SOL     OW 1102   6.702   1.483   6.041
   68SOL    HW1 1103   6.663   1.447   5.957
   68SOL    HW2 1104   6.644   1.558   6.075
   69SOL     OW 1105   1.818   3.516   6.176
   69SOL    HW1 1106   1.899   3.566   6.147
   69SOL    HW2 1107   1.748   3.520   6.104
   70SOL     OW 1108   5.276   4.384   5.188
   70SOL    HW1 1109   5.210   4.413   5.257
   70SOL    HW2 1110   5.334   4.461   5.164
   71SOL     OW 1111   4.809   1.539   3.492
   71SOL    HW1 1112   4.829   1.448   3.528
   71SOL    HW2 1113   4.879   1.564   3.425
   72SOL     OW 1114   0.758   1.144   2.747
   72SOL    HW1 1115   0.778   1.090   2.665
   72SOL    HW2 1116   0.674   1.195   2.734
   73SOL     OW 1117   3.009   0.226   0.682
   73SOL    HW1 1118   2.953   0.165   0.627
   73SOL    HW2 1119   3.019   0.188   0.774
   74SOL     OW 1120   2.553   1.915   6.571
   74SOL    HW1 1121   2.543   1.875   6.480
   74SOL    HW2 1122   2.645   1.952   6.581
   75SOL     OW 1123   3.784   1.234   1.454
   75SOL    HW1 1124   3.705   1.214   1.511
   75SOL    HW2 1125   3.848   1.157   1.457
   76SOL     OW 1126   2.011   4.081   5.873
   76SOL    HW1 1127   1.937   4.038   5.924
   76SOL    HW2 1128   2.069   4.011   5.831
   77SOL     OW 1129   2.202   5.695   3.968
   77SOL    HW1 1130   2.149   5.626   3.919
   77SOL    HW2 1131   2.242   5.759   3.903
   78SOL     OW 1132   4.355   1.374   1.286
   78SOL    HW1 1133   4.312   1.356   1.375
   78SOL    HW2 1134   4.286   1.411   1.223
   79SOL     OW 1135   2.464   5.995   2.268
   79SOL    HW1 1136   2.425   6.087   2.271
   79SOL    HW2 1137   2.443   5.946   2.353
   80SOL     OW 1138   4.672   1.882   4.852
   80SOL    HW1 1139   4.768   1.899   4.875
   80SOL    HW2 1140   4.615   1.895   4.934
   81SOL     OW 1141   1.758   0.284   0.218
   81SOL    HW1 1142   1.839   0.340   0.236
   81SOL    HW2 1143   1.717   0.311   0.131
   82SOL     OW 1144   0.553   6.201   1.639
   82SOL    HW1 1145   0.617   6.173   1.711
   82SOL    HW2 1146   0.549   6.301   1.636
   83SOL     OW 1147   0.007   1.442   6.042
   83SOL    HW1 1148   0.040   1.362   6.092
   83SOL    HW2 1149   6.943   1.419   5.996
   84SOL     OW 1150   6.210   4.024   3.118
   84SOL    HW1 1151   6.235   4.050   3.211
   84SOL    HW2 1152   6.144   3.949   3.120
   85SOL     OW 1153   2.074   0.499   3.359
   85SOL    HW1 1154   2.107   0.565   3.292
   85SOL    HW2 1155   2.134   0.501   3.439
   86SOL     OW 1156   6.216   1.003   6.466
   86SOL    HW1 1157   6.188   0.927   6.408
   86SOL    HW2 1158   6.241   1.081   6.409
   87SOL     OW 1159   4.253   4.294   0.744
   87SOL    HW1 1160   4.255   4.394   0.736
   87SOL    HW2 1161   4.337   4.263   0.788
   88SOL     OW 1162   2.991   2.054   5.957
   88SOL    HW1 1163   2.955   2.065   6.049
   88SOL    HW2 1164   2.945   1.977   5.912
   89SOL     OW 1165   2.983   3.521   1.274
   89SOL    HW1 1166   2.935   3.434   1.282
   89SOL    HW2 1167   2.966   3.560   1.183
   90SOL     OW 1168   5.011   4.505   2.039
   90SOL    HW1 1169   5.072   4.427   2.022
   90SOL    HW2 1170   4.972   4.497   2.130
   91SOL     OW 1171   6.183   5.717   6.779
   91SOL    HW1 1172   6.136   5.657   6.714
   91SOL    HW2 1173   6.255   5.665   6.826
   92SOL     OW 1174   4.955   3.435   1.213
   92SOL    HW1 1175   4.946   3.440   1.313
   92SOL    HW2 1176   4.958   3.339   1.185
   93SOL     OW 1177   2.937   3.542   0.491
   93SOL    HW1 1178   2.929   3.471   0.560
   93SOL    HW2 1179   3.033   3.566   0.478
   94SOL     OW 1180   2.578   6.143   0.571
   94SOL    HW1 1181   2.552   6.237   0.589
   94SOL    HW2 1182   2.549   6.117   0.479
   95SOL     OW 1183   1.434   0.821   3.922
   95SOL    HW1 1184   1.437   0.743   3.985
   95SOL    HW2 1185   1.345   0.866   3.928
   96SOL     OW 1186   4.645   5.810   6.953
   96SOL    HW1 1187   4.694   5.807   6.865
   96SOL    HW2 1188   4.623   5.905   6.975
   97SOL     OW 1189   2.084   4.448   5.092
   97SOL    HW1 1190   2.096   4.522   5.026
   97SOL    HW2 1191   2.157   4.381   5.080
   98SOL     OW 1192   0.873   2.151   0.990
   98SOL    HW1 1193   0.885   2.208   1.071
   98SOL    HW2 1194   0.775   2.146   0.967
   99SOL     OW 1195   3.566   4.109   3.092
   99SOL    HW1 1196   3.658   4.097   3.130
   99SOL    HW2 1197   3.511   4.028   3.113
  100SOL     OW 1198   6.607   0.049   4.373
  100SOL    HW1 1199   6.583   0.143   4.398
  100SOL    HW2 1200   6.549   0.019   4.297
  101SOL     OW 1201   0.686   5.372   2.106
  101SOL    HW1 1202   0.628   5.453   2.113
  101SOL    HW2 1203   0.739   5.376   2.021
  102SOL     OW 1204   2.876   6.462   2.132
  102SOL    HW1 1205   2.900   6.457   2.229
  102SOL    HW2 1206   2.831   6.377   2.105
  103SOL     OW 1207   1.525   1.537   2.276
  103SOL    HW1 1208   1.556   1.615   2.331
  103SOL    HW2 1209   1.495   1.464   2.337
  104SOL     OW 1210   1.791   5.361   2.335
  104SOL    HW1 1211   1.891   5.368   2.335
  104SOL    HW2 1212   1.757   5.366   2.429
  105SOL     OW 1213   5.064   1.571   6.570
  105SOL    HW1 1214   5.096   1.618   6.652
  105SOL    HW2 1215   5.143   1.537   6.518
  106SOL     OW 1216   4.860   4.937   1.727
  106SOL    HW1 1217   4.922   5.004   1.767
  106SOL    HW2 1218   4.895   4.845   1.744
  107SOL     OW 1219   6.525   0.489   6.804
  107SOL    HW1 1220   6.467   0.561   6.766
  107SOL    HW2 1221   6.544   0.510   6.900
  108SOL     OW 1222   2.926   0.030   5.372
  108SOL    HW1 1223   2.874   6.968   5.358
  108SOL    HW2 1224   2.899   0.071   5.460
  109SOL     OW 1225   3.175   0.613   2.623
  109SOL    HW1 1226   3.243   0.679   2.656
  109SOL    HW2 1227   3.090   0.625   2.674
  110SOL     OW 1228   2.535   5.317   4.770
  110SOL    HW1 1229   2.541   5.409   4.730
  110SOL    HW2 1230   2.539   5.324   4.870
  111SOL     OW 1231   0.459   1.545   2.572
  111SOL    HW1 1232   0.397   1.467   2.563
  111SOL    HW2 1233   0.409   1.624   2.608
  112SOL     OW 1234   4.796   6.785   6.286
  112SOL    HW1 1235   4.778   6.817   6.379
  112SOL    HW2 1236   4.711   6.782   6.234
  113SOL     OW 1237   6.445   5.417   2.796
  113SOL    HW1 1238   6.479   5.362   2.871
  113SOL    HW2 1239   6.477   5.380   2.709
  114SOL     OW 1240   0.677   5.133   2.879
  114SOL    HW1 1241   0.672   5.230   2.858
  114SOL    HW2 1242   0.696   5.081   2.795
  115SOL     OW 1243   5.714   0.874   3.365
  115SOL    HW1 1244   5.762   0.882   3.277
  115SOL    HW2 1245   5.630   0.928   3.362
  116SOL     OW 1246   6.757   6.201   1.163
  116SOL    HW1 1247   6.716   6.111   1.178
  116SOL    HW2 1248   6.849   6.202   1.201
  117SOL     OW 1249   2.132   0.877   0.133
  117SOL    HW1 1250   2.097   0.947   0.071
  117SOL    HW2 1251   2.152   0.794   0.082
  118SOL     OW 1252   1.653   1.514   3.570
  118SOL    HW1 1253   1.748   1.546   3.580
  118SOL    HW2 1254   1.595   1.566   3.632
  119SOL     OW 1255   0.519   6.375   7.006
  119SOL    HW1 1256   0.554   6.341   6.918
  119SOL    HW2 1257   0.539   6.473   7.013
  120SOL     OW 1258   4.724   0.220   4.550
  120SOL    HW1 1259   4.647   0.162   4.524
  120SOL    HW2 1260   4.710   0.312   4.513
  121SOL     OW 1261   1.842   3.851   0.146
  121SOL    HW1 1262   1.845   3.808   0.236
  121SOL    HW2 1263   1.934   3.859   0.109
  122SOL     OW 1264   1.759   3.690   0.392
  122SOL    HW1 1265   1.805   3.620   0.338
  122SOL    HW2 1266   1.708   3.647   0.467
  123SOL     OW 1267   1.111   0.759   1.001
  123SOL    HW1 1268   1.168   0.766   0.919
  123SOL    HW2 1269   1.015   0.773   0.975
  124SOL     OW 1270   3.139   2.138   0.422
  124SOL    HW1 1271   3.052   2.177   0.393
  124SOL    HW2 1272   3.179   2.196   0.493
  125SOL     OW 1273   3.964   2.666   0.219
  125SOL    HW1 1274   3.940   2.647   0.314
  125SOL    HW2 1275   4.016   2.751   0.213
  126SOL     OW 1276   3.101   3.194   3.588
  126SOL    HW1 1277   3.136   3.115   3.537
  126SOL    HW2 1278   3.019   3.229   3.543
  127SOL     OW 1279   6.827   6.128   5.823
  127SOL    HW1 1280   6.774   6.153   5.742
  127SOL    HW2 1281   6.818   6.199   5.892
  128SOL     OW 1282   5.147   3.085   2.682
  128SOL    HW1 1283   5.171   3.064   2.588
  128SOL    HW2 1284   5.190   3.171   2.710
  129SOL     OW 1285   2.718   4.839   0.914
  129SOL    HW1 1286   2.627   4.866   0.947
  129SOL    HW2 1287   2.709   4.787   0.830
  130SOL     OW 1288   6.402   0.704   4.733
  130SOL    HW1 1289   6.364   0.702   4.640
  130SOL    HW2 1290   6.362   0.781   4.783
  131SOL     OW 1291   5.816   0.340   4.308
  131SOL    HW1 1292   5.722   0.307   4.321
  131SOL    HW2 1293   5.829   0.425   4.358
  132SOL     OW 1294   3.843   3.362   1.180
  132SOL    HW1 1295   3.912   3.340   1.249
  132SOL    HW2 1296   3.756   3.320   1.205
  133SOL     OW 1297   5.486   1.043   3.577
  133SOL    HW1 1298   5.414   1.103   3.612
  133SOL    HW2 1299   5.498   0.965   3.639
  134SOL     OW 1300   0.498   0.738   2.507
  134SOL    HW1 1301   0.536   0.738   2.600
  134SOL    HW2 1302   0.398   0.736   2.512
  135SOL     OW 1303   5.194   3.332   4.217
  135SOL    HW1 1304   5.130   3.397   4.174
  135SOL    HW2 1305   5.151   3.292   4.297
  136SOL     OW 1306   2.725   6.017   4.567
  136SOL    HW1 1307   2.770   6.040   4.481
  136SOL    HW2 1308   2.626   6.022   4.555
  137SOL     OW 1309   4.239   1.088   4.255
  137SOL    HW1 1310   4.244   1.159   4.325
  137SOL    HW2 1311   4.157   1.033   4.268
  138SOL     OW 1312   0.788   5.064   3.397
  138SOL    HW1 1313   0.717   5.133   3.380
  138SOL    HW2 1314   0.817   5.024   3.310
  139SOL     OW 1315   2.468   5.660   6.493
  139SOL    HW1 1316   2.399   5.666   6.565
  139SOL    HW2 1317   2.428   5.618   6.412
  140SOL     OW 1318   1.869   6.525   2.645
  140SOL    HW1 1319   1.918   6.568   2.720
  140SOL    HW2 1320   1.896   6.428   2.639
  141SOL     OW 1321   6.696   3.621   6.861
  141SOL    HW1 1322   6.744   3.546   6.816
  141SOL    HW2 1323   6.648   3.675   6.793
  142SOL     OW 1324   1.883   3.968   1.295
  142SOL    HW1 1325   1.834   3.974   1.382
  142SOL    HW2 1326   1.944   3.888   1.296
  143SOL     OW 1327   5.572   6.080   1.196
  143SOL    HW1 1328   5.642   6.137   1.238
  143SOL    HW2 1329   5.616   6.013   1.136
  144SOL     OW 1330   3.036   4.880   3.716
  144SOL    HW1 1331   3.005   4.915   3.804
  144SOL    HW2 1332   3.131   4.906   3.701
  145SOL     OW 1333   0.790   5.102   2.613
  145SOL    HW1 1334   0.889   5.095   2.619
  145SOL    HW2 1335   0.753   5.021   2.569
  146SOL     OW 1336   5.416   0.688   5.194
  146SOL    HW1 1337   5.505   0.709   5.234
  146SOL    HW2 1338   5.383   0.600   5.230
  147SOL     OW 1339   5.255   1.418   5.010
  147SOL    HW1 1340   5.196   1.496   4.991
  147SOL    HW2 1341   5.264   1.361   4.928
  148SOL     OW 1342   1.052   5.092   1.572
  148SOL    HW1 1343   1.081   5.057   1.483
  148SOL    HW2 1344   1.122   5.071   1.641
  149SOL     OW 1345   2.944   2.396   5.345
  149SOL    HW1 1346   3.010   2.385   5.271
  149SOL    HW2 1347   2.911   2.491   5.346
  150SOL     OW 1348   4.461   1.026   5.931
  150SOL    HW1 1349   4.447   1.066   5.841
  150SOL    HW2 1350   4.547   0.974   5.931
  151SOL     OW 1351   4.287   0.985   1.476
  151SOL    HW1 1352   4.248   0.920   1.410
  151SOL    HW2 1353   4.248   0.968   1.566
  152SOL     OW 1354   6.786   1.317   0.165
  152SOL    HW1 1355   6.882   1.343   0.158
  152SOL    HW2 1356   6.734   1.394   0.201
  153SOL     OW 1357   3.003   0.605   3.647
  153SOL    HW1 1358   2.922   0.549   3.666
  153SOL    HW2 1359   3.011   0.677   3.716
  154SOL     OW 1360   6.723   2.527   0.521
  154SOL    HW1 1361   6.777   2.484   0.449
  154SOL    HW2 1362   6.639   2.475   0.536
  155SOL     OW 1363   0.694   7.008   1.569
  155SOL    HW1 1364   0.793   7.002   1.556
  155SOL    HW2 1365   0.667   6.955   1.650
  156SOL     OW 1366   6.490   1.331   0.307
  156SOL    HW1 1367   6.430   1.310   0.383
  156SOL    HW2 1368   6.559   1.398   0.336
  157SOL     OW 1369   5.842   2.843   0.128
  157SOL    HW1 1370   5.892   2.797   0.202
  157SOL    HW2 1371   5.814   2.934   0.158
  158SOL     OW 1372   1.593   2.462   1.804
  158SOL    HW1 1373   1.677   2.410   1.789
  158SOL    HW2 1374   1.586   2.487   1.900
  159SOL     OW 1375   4.476   4.721   1.373
  159SOL    HW1 1376   4.560   4.667   1.368
  159SOL    HW2 1377   4.407   4.680   1.313
  160SOL     OW 1378   6.551   0.445   1.598
  160SOL    HW1 1379   6.650   0.446   1.615
  160SOL    HW2 1380   6.532   0.486   1.509
  161SOL     OW 1381   1.072   6.638   1.201
  161SOL    HW1 1382   0.986   6.687   1.189
  161SOL    HW2 1383   1.129   6.687   1.267
  162SOL     OW 1384   2.982   6.454   0.483
  162SOL    HW1 1385   2.894   6.500   0.498
  162SOL    HW2 1386   2.966   6.366   0.438
  163SOL     OW 1387   0.088   5.381   3.086
  163SOL    HW1 1388   0.169   5.437   3.104
  163SOL    HW2 1389   0.114   5.302   3.030
  164SOL     OW 1390   0.980   1.959   2.667
  164SOL    HW1 1391   1.065   2.011   2.652
  164SOL    HW2 1392   0.969   1.891   2.594
  165SOL     OW 1393   6.375   5.656   1.987
  165SOL    HW1 1394   6.343   5.563   1.971
  165SOL    HW2 1395   6.474   5.656   2.001
  166SOL     OW 1396   6.603   3.890   1.448
  166SOL    HW1 1397   6.560   3.903   1.537
  166SOL    HW2 1398   6.613   3.792   1.430
  167SOL     OW 1399   5.384   1.750   6.858
  167SOL    HW1 1400   5.343   1.661   6.881
  167SOL    HW2 1401   5.325   1.796   6.791
  168SOL     OW 1402   3.889   2.549   1.359
  168SOL    HW1 1403   3.803   2.499   1.371
  168SOL    HW2 1404   3.879   2.641   1.397
  169SOL     OW 1405   6.209   2.738   0.034
  169SOL    HW1 1406   6.172   2.828   0.058
  169SOL    HW2 1407   6.193   2.674   0.110
  170SOL     OW 1408   0.342   5.945   3.692
  170SOL    HW1 1409   0.330   6.004   3.772
  170SOL    HW2 1410   0.278   5.973   3.620
  171SOL     OW 1411   1.683   3.675   6.548
  171SOL    HW1 1412   1.601   3.665   6.491
  171SOL    HW2 1413   1.684   3.605   6.619
  172SOL     OW 1414   6.038   2.756   2.342
  172SOL    HW1 1415   6.036   2.831   2.408
  172SOL    HW2 1416   5.986   2.679   2.378
  173SOL     OW 1417   5.770   1.085   4.285
  173SOL    HW1 1418   5.823   1.061   4.366
  173SOL    HW2 1419   5.739   1.001   4.240
  174SOL     OW 1420   5.167   5.133   5.147
  174SOL    HW1 1421   5.171   5.068   5.070
  174SOL    HW2 1422   5.230   5.208   5.130
  175SOL     OW 1423   2.903   0.511   1.106
  175SOL    HW1 1424   2.986   0.527   1.159
  175SOL    HW2 1425   2.829   0.482   1.167
  176SOL     OW 1426   4.855   4.521   3.280
  176SOL    HW1 1427   4.919   4.583   3.326
  176SOL    HW2 1428   4.900   4.433   3.264
  177SOL     OW 1429   5.258   2.560   5.534
  177SOL    HW1 1430   5.310   2.481   5.565
  177SOL    HW2 1431   5.226   2.613   5.612
  178SOL     OW 1432   3.074   4.881   4.357
  178SOL    HW1 1433   2.998   4.816   4.348
  178SOL    HW2 1434   3.058   4.940   4.436
  179SOL     OW 1435   4.019   6.258   0.117
  179SOL    HW1 1436   4.005   6.301   0.028
  179SOL    HW2 1437   4.107   6.287   0.155
  180SOL     OW 1438   2.692   6.216   0.159
  180SOL    HW1 1439   2.594   6.201   0.156
  180SOL    HW2 1440   2.712   6.312   0.142
  181SOL     OW 1441   3.008   2.346   5.608
  181SOL    HW1 1442   3.105   2.329   5.593
  181SOL    HW2 1443   2.966   2.377   5.523
  182SOL     OW 1444   4.799   3.340   6.971
  182SOL    HW1 1445   4.797   3.287   0.034
  182SOL    HW2 1446   4.718   3.318   6.917
  183SOL     OW 1447   4.244   1.831   3.745
  183SOL    HW1 1448   4.263   1.844   3.842
  183SOL    HW2 1449   4.145   1.828   3.730
  184SOL     OW 1450   0.867   6.791   3.218
  184SOL    HW1 1451   0.792   6.754   3.272
  184SOL    HW2 1452   0.930   6.841   3.278
  185SOL     OW 1453   1.134   1.751   3.911
  185SOL    HW1 1454   1.229   1.768   3.939
  185SOL    HW2 1455   1.072   1.804   3.969
  186SOL     OW 1456   5.808   6.254   4.023
  186SOL    HW1 1457   5.727   6.198   4.041
  186SOL    HW2 1458   5.803   6.290   3.929
  187SOL     OW 1459   4.360   5.773   2.258
  187SOL    HW1 1460   4.271   5.814   2.240
  187SOL    HW2 1461   4.375   5.697   2.195
  188SOL     OW 1462   1.000   1.823   2.972
  188SOL    HW1 1463   1.076   1.844   2.911
  188SOL    HW2 1464   0.950   1.907   2.995
  189SOL     OW 1465   6.765   4.481   6.782
  189SOL    HW1 1466   6.752   4.384   6.799
  189SOL    HW2 1467   6.806   4.524   6.862
  190SOL     OW 1468   5.884   4.828   6.833
  190SOL    HW1 1469   5.956   4.831   6.764
  190SOL    HW2 1470   5.840   4.918   6.839
  191SOL     OW 1471   6.544   1.282   5.852
  191SOL    HW1 1472   6.581   1.189   5.845
  191SOL    HW2 1473   6.560   1.330   5.765
  192SOL     OW 1474   0.634   4.754   1.661
  192SOL    HW1 1475   0.633   4.851   1.682
  192SOL    HW2 1476   0.638   4.741   1.562
  193SOL     OW 1477   4.521   5.040   5.579
  193SOL    HW1 1478   4.562   4.960   5.623
  193SOL    HW2 1479   4.437   5.065   5.627
  194SOL     OW 1480   4.261   6.810   1.494
  194SOL    HW1 1481   4.317   6.763   1.426
  194SOL    HW2 1482   4.316   6.879   1.541
  195SOL     OW 1483   2.770   0.471   3.700
  195SOL    HW1 1484   2.694   0.520   3.657
  195SOL    HW2 1485   2.756   0.470   3.799
  196SOL     OW 1486   3.097   0.192   6.789
  196SOL    HW1 1487   3.148   0.186   6.703
  196SOL    HW2 1488   3.116   0.279   6.834
  197SOL     OW 1489   3.024   5.787   6.602
  197SOL    HW1 1490   2.964   5.837   6.540
  197SOL    HW2 1491   2.975   5.709   6.641
  198SOL     OW 1492   4.041   6.308   0.894
  198SOL    HW1 1493   3.983   6.333   0.816
  198SOL    HW2 1494   4.122   6.366   0.894
  199SOL     OW 1495   6.773   0.879   2.263
  199SOL    HW1 1496   6.712   0.817   2.312
  199SOL    HW2 1497   6.794   0.841   2.173
  200SOL     OW 1498   1.001   3.362   2.416
  200SOL    HW1 1499   1.010   3.341   2.318
  200SOL    HW2 1500   1.063   3.304   2.468
  201SOL     OW 1501   2.997   6.528   5.910
  201SOL    HW1 1502   2.926   6.566   5.851
  201SOL    HW2 1503   3.086   6.539   5.867
  202SOL     OW 1504   5.018   0.214   5.120
  202SOL    HW1 1505   5.059   0.304   5.137
  202SOL    HW2 1506   4.930   0.227   5.074
  203SOL     OW 1507   4.626   2.539   5.640
  203SOL    HW1 1508   4.693   2.471   5.669
  203SOL    HW2 1509   4.632   2.619   5.700
  204SOL     OW 1510   0.924   0.027   6.980
  204SOL    HW1 1511   0.842   0.083   6.967
  204SOL    HW2 1512   1.002   0.072   6.936
  205SOL     OW 1513   0.909   1.604   1.614
  205SOL    HW1 1514   0.816   1.569   1.610
  205SOL    HW2 1515   0.927   1.643   1.705
  206SOL     OW 1516   0.053   5.156   2.145
  206SOL    HW1 1517   0.036   5.246   2.184
  206SOL    HW2 1518   0.142   5.123   2.175
  207SOL     OW 1519   4.233   0.827   5.491
  207SOL    HW1 1520   4.196   0.739   5.461
  207SOL    HW2 1521   4.160   0.883   5.529
  208SOL     OW 1522   5.671   4.046   5.788
  208SOL    HW1 1523   5.626   4.043   5.878
  208SOL    HW2 1524   5.618   4.106   5.727
  209SOL     OW 1525   0.734   5.879   5.606
  209SOL    HW1 1526   0.718   5.780   5.605
  209SOL    HW2 1527   0.726   5.912   5.700
  210SOL     OW 1528   4.127   2.204   2.418
  210SOL    HW1 1529   4.175   2.227   2.503
  210SOL    HW2 1530   4.163   2.118   2.383
  211SOL     OW 1531   1.224   6.750   3.466
  211SOL    HW1 1532   1.288   6.748   3.389
  211SOL    HW2 1533   1.234   6.837   3.514
  212SOL     OW 1534   2.003   4.779   1.968
  212SOL    HW1 1535   1.907   4.753   1.973
  212SOL    HW2 1536   2.040   4.757   1.878
  213SOL     OW 1537   4.637   0.899   6.595
  213SOL    HW1 1538   4.718   0.841   6.601
  213SOL    HW2 1539   4.641   0.953   6.511
  214SOL     OW 1540   2.207   5.810   2.346
  214SOL    HW1 1541   2.260   5.737   2.390
  214SOL    HW2 1542   2.152   5.772   2.272
  215SOL     OW 1543   3.605   4.121   2.235
  215SOL    HW1 1544   3.615   4.128   2.136
  215SOL    HW2 1545   3.522   4.169   2.264
  216SOL     OW 1546   1.504   0.219   4.842
  216SOL    HW1 1547   1.478   0.127   4.869
  216SOL    HW2 1548   1.583   0.216   4.781
  217SOL     OW 1549   1.911   2.979   4.661
  217SOL    HW1 1550   1.881   2.928   4.580
  217SOL    HW2 1551   2.010   2.989   4.658
  218SOL     OW 1552   1.103   2.812   5.003
  218SOL    HW1 1553   1.119   2.876   4.929
  218SOL    HW2 1554   1.181   2.750   5.012
  219SOL     OW 1555   3.931   4.996   5.765
  219SOL    HW1 1556   4.004   5.014   5.700
  219SOL    HW2 1557   3.969   4.951   5.846
  220SOL     OW 1558   3.316   5.207   0.105
  220SOL    HW1 1559   3.390   5.205   0.037
  220SOL    HW2 1560   3.278   5.115   0.115
  221SOL     OW 1561   5.553   4.083   2.582
  221SOL    HW1 1562   5.474   4.029   2.554
  221SOL    HW2 1563   5.635   4.026   2.582
  222SOL     OW 1564   1.665   4.909   5.256
  222SOL    HW1 1565   1.721   4.876   5.331
  222SOL    HW2 1566   1.619   4.831   5.212
  223SOL     OW 1567   0.798   3.164   0.712
  223SOL    HW1 1568   0.880   3.107   0.718
  223SOL    HW2 1569   0.739   3.130   0.639
  224SOL     OW 1570   2.668   2.406   3.387
  224SOL    HW1 1571   2.651   2.483   3.448
  224SOL    HW2 1572   2.640   2.321   3.433
  225SOL     OW 1573   5.444   1.087   6.418
  225SOL    HW1 1574   5.454   0.993   6.450
  225SOL    HW2 1575   5.375   1.134   6.473
  226SOL     OW 1576   0.731   6.353   6.735
  226SOL    HW1 1577   0.731   6.452   6.747
  226SOL    HW2 1578   0.775   6.329   6.649
  227SOL     OW 1579   1.062   4.695   3.144
  227SOL    HW1 1580   1.017   4.707   3.055
  227SOL    HW2 1581   1.156   4.728   3.139
  228SOL     OW 1582   3.246   0.549   4.161
  228SOL    HW1 1583   3.329   0.510   4.120
  228SOL    HW2 1584   3.167   0.526   4.104
  229SOL     OW 1585   6.550   5.505   1.138
  229SOL    HW1 1586   6.521   5.409   1.145
  229SOL    HW2 1587   6.643   5.508   1.099
  230SOL     OW 1588   2.378   4.893   3.364
  230SOL    HW1 1589   2.430   4.873   3.447
  230SOL    HW2 1590   2.280   4.897   3.386
  231SOL     OW 1591   6.150   2.842   6.156
  231SOL    HW1 1592   6.199   2.756   6.165
  231SOL    HW2 1593   6.088   2.837   6.078
  232SOL     OW 1594   0.639   4.300   6.107
  232SOL    HW1 1595   0.701   4.246   6.164
  232SOL    HW2 1596   0.681   4.315   6.017
  233SOL     OW 1597   2.334   1.154   4.644
  233SOL    HW1 1598   2.289   1.230   4.689
  233SOL    HW2 1599   2.434   1.166   4.647
  234SOL     OW 1600   2.632   5.265   5.424
  234SOL    HW1 1601   2.683   5.207   5.488
  234SOL    HW2 1602   2.672   5.356   5.424
  235SOL     OW 1603   4.170   3.343   2.207
  235SOL    HW1 1604   4.264   3.313   2.196
  235SOL    HW2 1605   4.109   3.280   2.159
  236SOL     OW 1606   6.017   3.154   6.532
  236SOL    HW1 1607   6.053   3.061   6.522
  236SOL    HW2 1608   5.918   3.153   6.516
  237SOL     OW 1609   0.850   6.498   0.795
  237SOL    HW1 1610   0.920   6.426   0.794
  237SOL    HW2 1611   0.801   6.499   0.708
  238SOL     OW 1612   6.625   3.085   0.657
  238SOL    HW1 1613   6.637   3.185   0.658
  238SOL    HW2 1614   6.681   3.046   0.585
  239SOL     OW 1615   6.537   4.882   0.280
  239SOL    HW1 1616   6.521   4.868   0.182
  239SOL    HW2 1617   6.486   4.814   0.332
  240SOL     OW 1618   0.521   3.370   6.041
  240SOL    HW1 1619   0.549   3.290   6.095
  240SOL    HW2 1620   0.586   3.444   6.054
  241SOL     OW 1621   0.768   0.415   3.738
  241SOL    HW1 1622   0.687   0.435   3.682
  241SOL    HW2 1623   0.833   0.362   3.685
  242SOL     OW 1624   0.896   2.478   5.981
  242SOL    HW1 1625   0.912   2.576   5.968
  242SOL    HW2 1626   0.799   2.461   5.994
  243SOL     OW 1627   4.516   0.655   5.786
  243SOL    HW1 1628   4.455   0.687   5.858
  243SOL    HW2 1629   4.466   0.651   5.699
  244SOL     OW 1630   4.820   3.036   4.099
  244SOL    HW1 1631   4.772   3.018   4.185
  244SOL    HW2 1632   4.764   3.097   4.042
  245SOL     OW 1633   6.697   2.364   4.006
  245SOL    HW1 1634   6.661   2.285   3.957
  245SOL    HW2 1635   6.743   2.334   4.089
  246SOL     OW 1636   5.263   3.660   3.747
  246SOL    HW1 1637   5.248   3.649   3.648
  246SOL    HW2 1638   5.361   3.663   3.766
  247SOL     OW 1639   2.833   1.385   3.098
  247SOL    HW1 1640   2.892   1.344   3.029
  247SOL    HW2 1641   2.786   1.464   3.059
  248SOL     OW 1642   4.879   2.042   4.651
  248SOL    HW1 1643   4.901   2.050   4.553
  248SOL    HW2 1644   4.876   2.133   4.692
  249SOL     OW 1645   3.197   6.822   5.028
  249SOL    HW1 1646   3.118   6.838   4.969
  249SOL    HW2 1647   3.185   6.872   5.114
  250SOL     OW 1648   5.336   1.585   5.885
  250SOL    HW1 1649   5.363   1.657   5.821
  250SOL    HW2 1650   5.413   1.525   5.902
  251SOL     OW 1651   4.653   3.511   6.104
  251SOL    HW1 1652   4.704   3.562   6.036
  251SOL    HW2 1653   4.705   3.506   6.189
  252SOL     OW 1654   6.862   1.299   5.876
  252SOL    HW1 1655   6.792   1.236   5.910
  252SOL    HW2 1656   6.934   1.247   5.830
  253SOL     OW 1657   2.531   4.356   0.275
  253SOL    HW1 1658   2.596   4.281   0.288
  253SOL    HW2 1659   2.444   4.334   0.320
  254SOL     OW 1660   6.158   2.575   3.839
  254SOL    HW1 1661   6.223   2.528   3.899
  254SOL    HW2 1662   6.201   2.657   3.800
  255SOL     OW 1663   2.985   1.971   3.905
  255SOL    HW1 1664   3.007   2.062   3.938
  255SOL    HW2 1665   3.069   1.923   3.881
  256SOL     OW 1666   6.808   4.957   0.195
  256SOL    HW1 1667   6.827   5.007   0.280
  256SOL    HW2 1668   6.710   4.935   0.191
  257SOL     OW 1669   3.399   5.587   5.380
  257SOL    HW1 1670   3.370   5.549   5.292
  257SOL    HW2 1671   3.499   5.591   5.383
  258SOL     OW 1672   5.225   3.752   5.041
  258SOL    HW1 1673   5.239   3.743   5.140
  258SOL    HW2 1674   5.269   3.676   4.994
  259SOL     OW 1675   1.585   3.201   2.942
  259SOL    HW1 1676   1.500   3.150   2.957
  259SOL    HW2 1677   1.569   3.298   2.958
  260SOL     OW 1678   4.825   0.238   0.637
  260SOL    HW1 1679   4.734   0.278   0.646
  260SOL    HW2 1680   4.818   0.146   0.597
  261SOL     OW 1681   0.849   3.640   1.140
  261SOL    HW1 1682   0.924   3.664   1.078
  261SOL    HW2 1683   0.774   3.600   1.088
  262SOL     OW 1684   0.718   4.608   2.457
  262SOL    HW1 1685   0.638   4.618   2.516
  262SOL    HW2 1686   0.693   4.552   2.377
  263SOL     OW 1687   6.742   1.771   4.563
  263SOL    HW1 1688   6.751   1.780   4.662
  263SOL    HW2 1689   6.650   1.799   4.534
  264SOL     OW 1690   0.144   3.586   5.868
  264SOL    HW1 1691   0.158   3.603   5.771
  264SOL    HW2 1692   0.200   3.648   5.922
  265SOL     OW 1693   5.177   3.973   3.524
  265SOL    HW1 1694   5.256   4.031   3.545
  265SOL    HW2 1695   5.204   3.901   3.461
  266SOL     OW 1696   3.203   2.238   0.023
  266SOL    HW1 1697   3.233   2.168   0.088
  266SOL    HW2 1698   3.277   2.256   6.980
  267SOL     OW 1699   1.177   2.799   0.034
  267SOL    HW1 1700   1.172   2.849   6.970
  267SOL    HW2 1701   1.120   2.717   0.028
  268SOL     OW 1702   4.846   5.378   4.957
  268SOL    HW1 1703   4.752   5.399   4.983
  268SOL    HW2 1704   4.909   5.427   5.017
  269SOL     OW 1705   1.795   2.042   6.872
  269SOL    HW1 1706   1.705   1.999   6.882
  269SOL    HW2 1707   1.864   1.972   6.853
  270SOL     OW 1708   4.781   1.067   2.335
  270SOL    HW1 1709   4.769   0.970   2.315
  270SOL    HW2 1710   4.826   1.112   2.258
  271SOL     OW 1711   2.116   1.995   0.787
  271SOL    HW1 1712   2.196   2.044   0.754
  271SOL    HW2 1713   2.137   1.950   0.873
  272SOL     OW 1714   3.896   5.632   4.081
  272SOL    HW1 1715   3.914   5.729   4.067
  272SOL    HW2 1716   3.976   5.589   4.123
  273SOL     OW 1717   1.431   5.452   5.003
  273SOL    HW1 1718   1.404   5.545   5.027
  273SOL    HW2 1719   1.523   5.452   4.963
  274SOL     OW 1720   5.118   2.908   3.610
  274SOL    HW1 1721   5.070   2.966   3.543
  274SOL    HW2 1722   5.097   2.812   3.591
  275SOL     OW 1723   0.757   5.379   6.058
  275SOL    HW1 1724   0.752   5.395   6.157
  275SOL    HW2 1725   0.670   5.342   6.027
  276SOL     OW 1726   6.547   5.687   3.969
  276SOL    HW1 1727   6.518   5.766   4.023
  276SOL    HW2 1728   6.471   5.624   3.958
  277SOL     OW 1729   2.804   0.787   6.112
  277SOL    HW1 1730   2.739   0.719   6.079
  277SOL    HW2 1731   2.755   0.871   6.136
  278SOL     OW 1732   5.218   3.436   2.535
  278SOL    HW1 1733   5.282   3.511   2.515
  278SOL    HW2 1734   5.204   3.430   2.633
  279SOL     OW 1735   6.588   2.988   4.014
  279SOL    HW1 1736   6.525   2.913   3.991
  279SOL    HW2 1737   6.678   2.969   3.974
  280SOL     OW 1738   4.945   6.610   4.213
  280SOL    HW1 1739   4.912   6.564   4.295
  280SOL    HW2 1740   4.875   6.605   4.142
  281SOL     OW 1741   3.530   5.179   3.824
  281SOL    HW1 1742   3.624   5.179   3.859
  281SOL    HW2 1743   3.491   5.087   3.834
  282SOL     OW 1744   3.714   1.942   5.821
  282SOL    HW1 1745   3.759   1.980   5.901
  282SOL    HW2 1746   3.693   2.016   5.757
  283SOL     OW 1747   6.098   6.824   5.026
  283SOL    HW1 1748   6.116   6.843   5.122
  283SOL    HW2 1749   6.165   6.872   4.970
  284SOL     OW 1750   0.576   4.618   4.112
  284SOL    HW1 1751   0.500   4.560   4.081
  284SOL    HW2 1752   0.540   4.700   4.156
  285SOL     OW 1753   5.172   6.458   0.361
  285SOL    HW1 1754   5.137   6.386   0.300
  285SOL    HW2 1755   5.127   6.545   0.340
  286SOL     OW 1756   3.854   4.988   5.431
  286SOL    HW1 1757   3.922   4.988   5.504
  286SOL    HW2 1758   3.894   4.950   5.348
  287SOL     OW 1759   1.622   5.535   6.288
  287SOL    HW1 1760   1.615   5.436   6.272
  287SOL    HW2 1761   1.644   5.581   6.202
  288SOL     OW 1762   3.914   0.658   1.283
  288SOL    HW1 1763   3.836   0.716   1.261
  288SOL    HW2 1764   3.895   0.564   1.254
  289SOL     OW 1765   1.324   5.544   6.026
  289SOL    HW1 1766   1.346   5.454   5.989
  289SOL    HW2 1767   1.256   5.588   5.968
  290SOL     OW 1768   4.468   0.232   2.966
  290SOL    HW1 1769   4.518   0.146   2.979
  290SOL    HW2 1770   4.507   0.302   3.025
  291SOL     OW 1771   4.141   1.214   3.718
  291SOL    HW1 1772   4.043   1.201   3.705
  291SOL    HW2 1773   4.171   1.160   3.797
  292SOL     OW 1774   4.027   0.560   3.605
  292SOL    HW1 1775   4.050   0.639   3.662
  292SOL    HW2 1776   3.936   0.526   3.629
  293SOL     OW 1777   4.410   6.101   1.853
  293SOL    HW1 1778   4.387   6.122   1.757
  293SOL    HW2 1779   4.487   6.158   1.881
  294SOL     OW 1780   5.843   6.064   6.088
  294SOL    HW1 1781   5.832   6.064   6.187
  294SOL    HW2 1782   5.811   5.977   6.050
  295SOL     OW 1783   1.322   2.759   5.780
  295SOL    HW1 1784   1.290   2.837   5.725
  295SOL    HW2 1785   1.418   2.743   5.761
  296SOL     OW 1786   6.287   1.967   1.159
  296SOL    HW1 1787   6.305   2.057   1.198
  296SOL    HW2 1788   6.369   1.934   1.112
  297SOL     OW 1789   4.904   5.025   3.293
  297SOL    HW1 1790   4.871   5.116   3.268
  297SOL    HW2 1791   4.946   4.982   3.214
  298SOL     OW 1792   3.879   0.909   0.572
  298SOL    HW1 1793   3.871   0.951   0.663
  298SOL    HW2 1794   3.976   0.901   0.548
  299SOL     OW 1795   3.321   1.689   0.442
  299SOL    HW1 1796   3.308   1.720   0.348
  299SOL    HW2 1797   3.346   1.766   0.500
  300SOL     OW 1798   3.562   0.795   2.560
  300SOL    HW1 1799   3.547   0.845   2.474
  300SOL    HW2 1800   3.586   0.700   2.540
  301SOL     OW 1801   4.676   0.369   1.826
  301SOL    HW1 1802   4.627   0.406   1.748
  301SOL    HW2 1803   4.677   0.269   1.821
  302SOL     OW 1804   0.649   0.216   1.949
  302SOL    HW1 1805   0.653   0.209   2.049
  302SOL    HW2 1806   0.742   0.229   1.913
  303SOL     OW 1807   5.915   5.871   1.621
  303SOL    HW1 1808   5.948   5.957   1.660
  303SOL    HW2 1809   5.870   5.817   1.692
  304SOL     OW 1810   1.999   6.425   5.990
  304SOL    HW1 1811   1.914   6.453   5.945
  304SOL    HW2 1812   2.015   6.483   6.070
  305SOL     OW 1813   1.523   2.866   0.913
  305SOL    HW1 1814   1.436   2.899   0.876
  305SOL    HW2 1815   1.543   2.914   0.999
  306SOL     OW 1816   0.333   1.065   2.528
  306SOL    HW1 1817   0.340   1.005   2.609
  306SOL    HW2 1818   0.408   1.044   2.465
  307SOL     OW 1819   3.253   3.791   0.720
  307SOL    HW1 1820   3.305   3.807   0.804
  307SOL    HW2 1821   3.248   3.692   0.703
  308SOL     OW 1822   6.110   2.671   4.283
  308SOL    HW1 1823   6.105   2.604   4.209
  308SOL    HW2 1824   6.205   2.696   4.299
  309SOL     OW 1825   1.676   6.318   0.117
  309SOL    HW1 1826   1.733   6.333   0.036
  309SOL    HW2 1827   1.703   6.381   0.190
  310SOL     OW 1828   6.000   6.063   3.995
  310SOL    HW1 1829   5.911   6.110   3.994
  310SOL    HW2 1830   5.994   5.980   3.940
  311SOL     OW 1831   2.608   4.591   2.388
  311SOL    HW1 1832   2.694   4.541   2.397
  311SOL    HW2 1833   2.570   4.609   2.478
  312SOL     OW 1834   4.250   2.308   4.229
  312SOL    HW1 1835   4.157   2.310   4.191
  312SOL    HW2 1836   4.254   2.239   4.302
  313SOL     OW 1837   2.985   3.544   2.834
  313SOL    HW1 1838   2.968   3.630   2.785
  313SOL    HW2 1839   3.041   3.484   2.777
  314SOL     OW 1840   1.980   5.118   5.266
  314SOL    HW1 1841   1.905   5.106   5.200
  314SOL    HW2 1842   2.028   5.031   5.278
  315SOL     OW 1843   0.248   1.891   3.653
  315SOL    HW1 1844   0.322   1.826   3.669
  315SOL    HW2 1845   0.197   1.905   3.738
  316SOL     OW 1846   3.898   1.565   4.379
  316SOL    HW1 1847   3.801   1.544   4.364
  316SOL    HW2 1848   3.925   1.639   4.317
  317SOL     OW 1849   1.364   1.431   1.571
  317SOL    HW1 1850   1.382   1.511   1.515
  317SOL    HW2 1851   1.266   1.428   1.593
  318SOL     OW 1852   5.956   0.605   6.495
  318SOL    HW1 1853   6.016   0.664   6.550
  318SOL    HW2 1854   5.872   0.655   6.473
  319SOL     OW 1855   6.705   1.943   3.473
  319SOL    HW1 1856   6.677   1.986   3.559
  319SOL    HW2 1857   6.684   1.846   3.475
  320SOL     OW 1858   6.380   2.964   6.904
  320SOL    HW1 1859   6.382   2.930   6.998
  320SOL    HW2 1860   6.289   3.000   6.883
  321SOL     OW 1861   4.128   2.453   0.771
  321SOL    HW1 1862   4.184   2.487   0.695
  321SOL    HW2 1863   4.107   2.356   0.756
  322SOL     OW 1864   3.812   2.982   4.390
  322SOL    HW1 1865   3.876   3.051   4.421
  322SOL    HW2 1866   3.722   2.997   4.433
  323SOL     OW 1867   1.240   2.350   4.466
  323SOL    HW1 1868   1.327   2.366   4.513
  323SOL    HW2 1869   1.241   2.398   4.378
  324SOL     OW 1870   2.390   6.659   3.501
  324SOL    HW1 1871   2.307   6.699   3.542
  324SOL    HW2 1872   2.373   6.641   3.404
  325SOL     OW 1873   1.396   3.931   2.548
  325SOL    HW1 1874   1.374   3.895   2.639
  325SOL    HW2 1875   1.468   3.875   2.506
  326SOL     OW 1876   1.247   4.216   5.518
  326SOL    HW1 1877   1.245   4.297   5.460
  326SOL    HW2 1878   1.332   4.165   5.501
  327SOL     OW 1879   2.501   4.700   2.622
  327SOL    HW1 1880   2.534   4.742   2.707
  327SOL    HW2 1881   2.407   4.729   2.605
  328SOL     OW 1882   1.938   4.970   1.336
  328SOL    HW1 1883   2.016   4.961   1.398
  328SOL    HW2 1884   1.892   4.882   1.327
  329SOL     OW 1885   2.726   3.989   6.025
  329SOL    HW1 1886   2.740   3.991   6.124
  329SOL    HW2 1887   2.803   3.942   5.982
  330SOL     OW 1888   3.706   6.564   0.061
  330SOL    HW1 1889   3.673   6.529   6.996
  330SOL    HW2 1890   3.654   6.523   0.135
  331SOL     OW 1891   5.847   4.989   1.155
  331SOL    HW1 1892   5.823   4.983   1.251
  331SOL    HW2 1893   5.834   5.083   1.123
  332SOL     OW 1894   5.564   2.008   3.864
  332SOL    HW1 1895   5.480   1.981   3.911
  332SOL    HW2 1896   5.544   2.025   3.768
  333SOL     OW 1897   4.357   0.822   5.251
  333SOL    HW1 1898   4.313   0.831   5.341
  333SOL    HW2 1899   4.399   0.909   5.225
  334SOL     OW 1900   3.713   2.521   0.822
  334SOL    HW1 1901   3.784   2.468   0.868
  334SOL    HW2 1902   3.742   2.616   0.815
  335SOL     OW 1903   4.446   0.225   6.519
  335SOL    HW1 1904   4.516   0.180   6.574
  335SOL    HW2 1905   4.390   0.284   6.577
  336SOL     OW 1906   3.014   1.314   2.913
  336SOL    HW1 1907   3.089   1.289   2.975
  336SOL    HW2 1908   3.052   1.352   2.829
  337SOL     OW 1909   0.997   2.741   6.014
  337SOL    HW1 1910   1.092   2.722   6.040
  337SOL    HW2 1911   0.989   2.736   5.915
  338SOL     OW 1912   3.561   3.265   1.362
  338SOL    HW1 1913   3.488   3.273   1.430
  338SOL    HW2 1914   3.520   3.246   1.273
  339SOL     OW 1915   4.110   5.292   4.467
  339SOL    HW1 1916   4.050   5.372   4.460
  339SOL    HW2 1917   4.077   5.221   4.405
  340SOL     OW 1918   4.922   3.408   4.983
  340SOL    HW1 1919   4.866   3.470   5.037
  340SOL    HW2 1920   4.981   3.354   5.044
  341SOL     OW 1921   5.578   6.640   4.155
  341SOL    HW1 1922   5.650   6.659   4.088
  341SOL    HW2 1923   5.507   6.584   4.112
  342SOL     OW 1924   4.747   3.103   0.330
  342SOL    HW1 1925   4.832   3.156   0.327
  342SOL    HW2 1926   4.683   3.138   0.261
  343SOL     OW 1927   0.299   6.492   2.535
  343SOL    HW1 1928   0.312   6.540   2.622
  343SOL    HW2 1929   0.322   6.553   2.459
  344SOL     OW 1930   1.049   2.425   1.734
  344SOL    HW1 1931   0.968   2.460   1.781
  344SOL    HW2 1932   1.086   2.348   1.785
  345SOL     OW 1933   6.095   1.960   4.154
  345SOL    HW1 1934   5.997   1.938   4.144
  345SOL    HW2 1935   6.105   2.049   4.197
  346SOL     OW 1936   1.437   0.110   2.388
  346SOL    HW1 1937   1.478   0.124   2.477
  346SOL    HW2 1938   1.440   0.013   2.364
  347SOL     OW 1939   3.118   5.748   7.021
  347SOL    HW1 1940   3.070   5.799   6.950
  347SOL    HW2 1941   3.099   5.650   7.011
  348SOL     OW 1942   4.978   4.924   3.053
  348SOL    HW1 1943   4.899   4.900   2.996
  348SOL    HW2 1944   5.043   4.976   2.999
  349SOL     OW 1945   6.633   4.649   2.232
  349SOL    HW1 1946   6.724   4.634   2.193
  349SOL    HW2 1947   6.597   4.563   2.268
  350SOL     OW 1948   2.900   3.173   0.745
  350SOL    HW1 1949   2.827   3.109   0.771
  350SOL    HW2 1950   2.982   3.152   0.798
  351SOL     OW 1951   2.689   3.246   0.525
  351SOL    HW1 1952   2.768   3.242   0.587
  351SOL    HW2 1953   2.635   3.163   0.534
  352SOL     OW 1954   3.613   6.585   3.455
  352SOL    HW1 1955   3.596   6.514   3.523
  352SOL    HW2 1956   3.527   6.610   3.411
  353SOL     OW 1957   2.742   0.336   6.446
  353SOL    HW1 1958   2.772   0.280   6.523
  353SOL    HW2 1959   2.756   0.286   6.361
  354SOL     OW 1960   4.770   2.418   1.360
  354SOL    HW1 1961   4.845   2.419   1.295
  354SOL    HW2 1962   4.744   2.324   1.381
  355SOL     OW 1963   1.859   3.849   2.413
  355SOL    HW1 1964   1.785   3.917   2.413
  355SOL    HW2 1965   1.862   3.804   2.502
  356SOL     OW 1966   2.348   1.130   5.039
  356SOL    HW1 1967   2.355   1.032   5.019
  356SOL    HW2 1968   2.435   1.163   5.076
  357SOL     OW 1969   6.831   5.980   4.490
  357SOL    HW1 1970   6.734   5.999   4.501
  357SOL    HW2 1971   6.843   5.892   4.444
  358SOL     OW 1972   4.450   6.769   0.592
  358SOL    HW1 1973   4.394   6.851   0.603
  358SOL    HW2 1974   4.487   6.766   0.499
  359SOL     OW 1975   2.990   0.935   2.067
  359SOL    HW1 1976   2.893   0.923   2.049
  359SOL    HW2 1977   3.035   0.846   2.067
  360SOL     OW 1978   1.818   3.925   4.671
  360SOL    HW1 1979   1.867   3.983   4.736
  360SOL    HW2 1980   1.846   3.946   4.578
  361SOL     OW 1981   6.480   5.732   2.727
  361SOL    HW1 1982   6.551   5.774   2.671
  361SOL    HW2 1983   6.457   5.642   2.691
  362SOL     OW 1984   3.561   2.982   1.493
  362SOL    HW1 1985   3.511   3.044   1.432
  362SOL    HW2 1986   3.541   2.888   1.468
  363SOL     OW 1987   5.291   4.656   2.942
  363SOL    HW1 1988   5.251   4.580   2.890
  363SOL    HW2 1989   5.256   4.654   3.036
  364SOL     OW 1990   6.786   5.141   0.001
  364SOL    HW1 1991   6.764   5.088   6.941
  364SOL    HW2 1992   6.812   5.079   0.075
  365SOL     OW 1993   4.086   0.215   0.982
  365SOL    HW1 1994   4.068   0.313   0.983
  365SOL    HW2 1995   4.072   0.178   1.073
  366SOL     OW 1996   5.786   2.292   6.581
  366SOL    HW1 1997   5.817   2.328   6.669
  366SOL    HW2 1998   5.720   2.354   6.540
  367SOL     OW 1999   6.021   2.427   6.249
  367SOL    HW1 2000   6.034   2.341   6.297
  367SOL    HW2 2001   5.975   2.492   6.310
  368SOL     OW 2002   6.903   2.690   5.387
  368SOL    HW1 2003   6.990   2.691   5.338
  368SOL    HW2 2004   6.829   2.709   5.322
  369SOL     OW 2005   5.668   4.605   3.143
  369SOL    HW1 2006   5.688   4.687   3.088
  369SOL    HW2 2007   5.732   4.532   3.118
  370SOL     OW 2008   0.918   2.372   4.211
  370SOL    HW1 2009   0.969   2.422   4.141
  370SOL    HW2 2010   0.876   2.437   4.274
  371SOL     OW 2011   1.698   4.255   6.763
  371SOL    HW1 2012   1.612   4.255   6.712
  371SOL    HW2 2013   1.686   4.202   6.847
  372SOL     OW 2014   1.892   6.785   5.448
  372SOL    HW1 2015   1.940   6.776   5.535
  372SOL    HW2 2016   1.906   6.877   5.411
  373SOL     OW 2017   5.514   6.146   5.488
  373SOL    HW1 2018   5.511   6.129   5.586
  373SOL    HW2 2019   5.605   6.125   5.453
  374SOL     OW 2020   2.493   2.561   3.198
  374SOL    HW1 2021   2.495   2.540   3.100
  374SOL    HW2 2022   2.581   2.538   3.239
  375SOL     OW 2023   0.994   4.418   4.331
  375SOL    HW1 2024   0.993   4.497   4.269
  375SOL    HW2 2025   1.047   4.441   4.413
  376SOL     OW 2026   1.789   1.738   5.212
  376SOL    HW1 2027   1.803   1.821   5.266
  376SOL    HW2 2028   1.799   1.760   5.115
  377SOL     OW 2029   1.634   2.294   6.878
  377SOL    HW1 2030   1.732   2.312   6.874
  377SOL    HW2 2031   1.617   2.198   6.855
  378SOL     OW 2032   4.069   1.650   0.711
  378SOL    HW1 2033   4.155   1.690   0.742
  378SOL    HW2 2034   4.077   1.550   0.711
  379SOL     OW 2035   5.416   2.518   0.038
  379SOL    HW1 2036   5.317   2.527   0.049
  379SOL    HW2 2037   5.459   2.608   0.049
  380SOL     OW 2038   3.058   1.351   1.516
  380SOL    HW1 2039   3.104   1.340   1.604
  380SOL    HW2 2040   3.068   1.266   1.463
  381SOL     OW 2041   1.702   3.875   3.743
  381SOL    HW1 2042   1.613   3.914   3.767
  381SOL    HW2 2043   1.713   3.876   3.644
  382SOL     OW 2044   6.052   0.939   6.939
  382SOL    HW1 2045   6.027   0.844   6.919
  382SOL    HW2 2046   6.099   0.943   0.005
  383SOL     OW 2047   3.957   3.398   0.035
  383SOL    HW1 2048   4.037   3.426   7.004
  383SOL    HW2 2049   3.953   3.449   0.120
  384SOL     OW 2050   6.916   5.054   5.017
  384SOL    HW1 2051   6.835   5.010   4.978
  384SOL    HW2 2052   6.998   5.010   4.981
  385SOL     OW 2053   3.203   5.446   5.524
  385SOL    HW1 2054   3.118   5.498   5.521
  385SOL    HW2 2055   3.277   5.500   5.485
  386SOL     OW 2056   3.116   6.736   4.379
  386SOL    HW1 2057   3.200   6.744   4.431
  386SOL    HW2 2058   3.071   6.650   4.401
  387SOL     OW 2059   0.578   5.646   2.449
  387SOL    HW1 2060   0.671   5.671   2.422
  387SOL    HW2 2061   0.552   5.696   2.531
  388SOL     OW 2062   1.974   2.321   6.512
  388SOL    HW1 2063   1.941   2.390   6.447
  388SOL    HW2 2064   2.044   2.265   6.468
  389SOL     OW 2065   3.410   3.777   2.839
  389SOL    HW1 2066   3.414   3.792   2.937
  389SOL    HW2 2067   3.367   3.688   2.821
  390SOL     OW 2068   2.731   0.943   3.539
  390SOL    HW1 2069   2.773   1.005   3.473
  390SOL    HW2 2070   2.733   0.850   3.503
  391SOL     OW 2071   2.484   2.460   5.845
  391SOL    HW1 2072   2.546   2.470   5.767
  391SOL    HW2 2073   2.422   2.384   5.828
  392SOL     OW 2074   1.438   4.552   0.752
  392SOL    HW1 2075   1.522   4.499   0.768
  392SOL    HW2 2076   1.460   4.649   0.749
  393SOL     OW 2077   0.552   4.713   6.801
  393SOL    HW1 2078   0.567   4.672   6.711
  393SOL    HW2 2079   0.630   4.772   6.823
  394SOL     OW 2080   6.956   0.956   6.539
  394SOL    HW1 2081   6.982   0.898   6.462
  394SOL    HW2 2082   6.952   0.901   6.622
  395SOL     OW 2083   4.903   3.593   3.453
  395SOL    HW1 2084   4.868   3.519   3.510
  395SOL    HW2 2085   4.860   3.679   3.481
  396SOL     OW 2086   3.778   3.911   2.155
  396SOL    HW1 2087   3.717   3.833   2.166
  396SOL    HW2 2088   3.728   3.995   2.176
  397SOL     OW 2089   4.349   2.050   5.440
  397SOL    HW1 2090   4.394   2.094   5.517
  397SOL    HW2 2091   4.299   2.119   5.386
  398SOL     OW 2092   0.746   6.353   2.345
  398SOL    HW1 2093   0.758   6.350   2.444
  398SOL    HW2 2094   0.723   6.446   2.317
  399SOL     OW 2095   5.360   5.983   2.729
  399SOL    HW1 2096   5.378   5.968   2.826
  399SOL    HW2 2097   5.365   6.080   2.709
  400SOL     OW 2098   6.148   6.682   5.561
  400SOL    HW1 2099   6.242   6.649   5.551
  400SOL    HW2 2100   6.144   6.750   5.634
  401SOL     OW 2101   5.153   0.883   5.476
  401SOL    HW1 2102   5.076   0.847   5.528
  401SOL    HW2 2103   5.231   0.821   5.484
  402SOL     OW 2104   5.881   0.354   3.021
  402SOL    HW1 2105   5.893   0.317   2.929
  402SOL    HW2 2106   5.970   0.362   3.065
  403SOL     OW 2107   4.272   1.829   4.539
  403SOL    HW1 2108   4.304   1.872   4.455
  403SOL    HW2 2109   4.344   1.834   4.608
  404SOL     OW 2110   1.373   6.138   3.805
  404SOL    HW1 2111   1.423   6.092   3.879
  404SOL    HW2 2112   1.420   6.121   3.718
  405SOL     OW 2113   1.896   3.753   2.134
  405SOL    HW1 2114   1.906   3.851   2.150
  405SOL    HW2 2115   1.870   3.707   2.220
  406SOL     OW 2116   1.224   4.140   4.430
  406SOL    HW1 2117   1.316   4.130   4.468
  406SOL    HW2 2118   1.187   4.050   4.408
  407SOL     OW 2119   2.132   0.721   3.225
  407SOL    HW1 2120   2.052   0.766   3.185
  407SOL    HW2 2121   2.193   0.690   3.152
  408SOL     OW 2122   0.952   2.120   2.949
  408SOL    HW1 2123   0.998   2.188   2.892
  408SOL    HW2 2124   0.866   2.157   2.984
  409SOL     OW 2125   6.372   2.672   0.871
  409SOL    HW1 2126   6.401   2.768   0.874
  409SOL    HW2 2127   6.273   2.667   0.883
  410SOL     OW 2128   1.338   0.213   0.698
  410SOL    HW1 2129   1.373   0.294   0.651
  410SOL    HW2 2130   1.245   0.195   0.668
  411SOL     OW 2131   5.345   7.001   0.005
  411SOL    HW1 2132   5.421   6.985   6.965
  411SOL    HW2 2133   5.318   6.915   0.048
  412SOL     OW 2134   5.477   6.668   3.799
  412SOL    HW1 2135   5.463   6.622   3.886
  412SOL    HW2 2136   5.471   6.602   3.724
  413SOL     OW 2137   5.426   5.392   2.129
  413SOL    HW1 2138   5.428   5.486   2.097
  413SOL    HW2 2139   5.341   5.375   2.180
  414SOL     OW 2140   4.000   5.129   3.493
  414SOL    HW1 2141   4.091   5.086   3.490
  414SOL    HW2 2142   3.955   5.106   3.579
  415SOL     OW 2143   1.187   5.788   6.478
  415SOL    HW1 2144   1.257   5.739   6.425
  415SOL    HW2 2145   1.211   5.785   6.575
  416SOL     OW 2146   5.175   5.584   3.957
  416SOL    HW1 2147   5.272   5.566   3.973
  416SOL    HW2 2148   5.151   5.672   3.998
  417SOL     OW 2149   2.732   5.066   0.367
  417SOL    HW1 2150   2.653   5.029   0.319
  417SOL    HW2 2151   2.782   4.993   0.413
  418SOL     OW 2152   4.295   6.031   1.288
  418SOL    HW1 2153   4.225   5.960   1.280
  418SOL    HW2 2154   4.385   5.992   1.267
  419SOL     OW 2155   1.406   0.148   0.958
  419SOL    HW1 2156   1.465   0.223   0.989
  419SOL    HW2 2157   1.368   0.170   0.868
  420SOL     OW 2158   5.972   1.770   6.831
  420SOL    HW1 2159   5.980   1.678   6.869
  420SOL    HW2 2160   5.956   1.764   6.733
  421SOL     OW 2161   0.014   4.410   6.394
  421SOL    HW1 2162   0.044   4.471   6.321
  421SOL    HW2 2163   0.047   4.444   6.482
  422SOL     OW 2164   5.459   4.430   0.244
  422SOL    HW1 2165   5.524   4.500   0.215
  422SOL    HW2 2166   5.373   4.474   0.272
  423SOL     OW 2167   0.788   2.536   0.129
  423SOL    HW1 2168   0.883   2.522   0.159
  423SOL    HW2 2169   0.762   2.464   0.064
  424SOL     OW 2170   2.250   3.650   0.703
  424SOL    HW1 2171   2.196   3.628   0.622
  424SOL    HW2 2172   2.346   3.628   0.686
  425SOL     OW 2173   5.515   1.166   2.259
  425SOL    HW1 2174   5.473   1.082   2.295
  425SOL    HW2 2175   5.461   1.245   2.287
  426SOL     OW 2176   4.684   2.168   3.820
  426SOL    HW1 2177   4.666   2.170   3.722
  426SOL    HW2 2178   4.599   2.155   3.870
  427SOL     OW 2179   5.212   5.700   2.981
  427SOL    HW1 2180   5.258   5.616   2.953
  427SOL    HW2 2181   5.124   5.707   2.933
  428SOL     OW 2182   4.189   0.199   4.416
  428SOL    HW1 2183   4.206   0.137   4.493
  428SOL    HW2 2184   4.274   0.210   4.363
  429SOL     OW 2185   1.884   3.259   1.133
  429SOL    HW1 2186   1.813   3.194   1.160
  429SOL    HW2 2187   1.935   3.288   1.214
  430SOL     OW 2188   6.892   0.144   5.165
  430SOL    HW1 2189   6.868   0.064   5.110
  430SOL    HW2 2190   6.890   0.119   5.262
  431SOL     OW 2191   3.455   6.915   0.261
  431SOL    HW1 2192   3.431   7.009   0.236
  431SOL    HW2 2193   3.411   6.852   0.198
  432SOL     OW 2194   6.623   2.012   1.494
  432SOL    HW1 2195   6.524   2.000   1.499
  432SOL    HW2 2196   6.666   1.965   1.572
  433SOL     OW 2197   3.017   6.354   4.691
  433SOL    HW1 2198   3.049   6.260   4.679
  433SOL    HW2 2199   2.930   6.353   4.741
  434SOL     OW 2200   3.296   6.156   1.932
  434SOL    HW1 2201   3.336   6.137   2.022
  434SOL    HW2 2202   3.241   6.239   1.938
  435SOL     OW 2203   5.085   2.473   5.856
  435SOL    HW1 2204   5.113   2.381   5.830
  435SOL    HW2 2205   5.165   2.532   5.863
  436SOL     OW 2206   3.346   6.115   0.958
  436SOL    HW1 2207   3.367   6.164   0.874
  436SOL    HW2 2208   3.286   6.038   0.939
  437SOL     OW 2209   1.093   0.671   6.679
  437SOL    HW1 2210   1.041   0.744   6.723
  437SOL    HW2 2211   1.060   0.582   6.710
  438SOL     OW 2212   2.173   3.854   2.308
  438SOL    HW1 2213   2.191   3.765   2.266
  438SOL    HW2 2214   2.223   3.925   2.259
  439SOL     OW 2215   6.100   4.260   3.356
  439SOL    HW1 2216   6.082   4.278   3.259
  439SOL    HW2 2217   6.018   4.219   3.397
  440SOL     OW 2218   1.626   1.430   5.021
  440SOL    HW1 2219   1.635   1.433   5.120
  440SOL    HW2 2220   1.671   1.348   4.985
  441SOL     OW 2221   1.058   2.644   4.110
  441SOL    HW1 2222   1.059   2.682   4.203
  441SOL    HW2 2223   1.143   2.671   4.063
  442SOL     OW 2224   2.865   4.790   6.321
  442SOL    HW1 2225   2.841   4.858   6.252
  442SOL    HW2 2226   2.842   4.699   6.287
  443SOL     OW 2227   6.153   4.554   4.673
  443SOL    HW1 2228   6.115   4.632   4.623
  443SOL    HW2 2229   6.214   4.502   4.612
  444SOL     OW 2230   5.175   1.635   6.093
  444SOL    HW1 2231   5.175   1.565   6.165
  444SOL    HW2 2232   5.230   1.604   6.016
  445SOL     OW 2233   0.403   5.383   2.921
  445SOL    HW1 2234   0.378   5.287   2.928
  445SOL    HW2 2235   0.492   5.391   2.876
  446SOL     OW 2236   3.923   4.820   3.266
  446SOL    HW1 2237   3.994   4.797   3.200
  446SOL    HW2 2238   3.834   4.819   3.221
  447SOL     OW 2239   0.428   2.849   6.258
  447SOL    HW1 2240   0.370   2.921   6.219
  447SOL    HW2 2241   0.429   2.857   6.357
  448SOL     OW 2242   2.551   0.658   3.859
  448SOL    HW1 2243   2.616   0.600   3.908
  448SOL    HW2 2244   2.540   0.625   3.766
  449SOL     OW 2245   4.241   1.073   3.952
  449SOL    HW1 2246   4.254   1.113   4.042
  449SOL    HW2 2247   4.213   0.978   3.961
  450SOL     OW 2248   1.466   6.072   3.544
  450SOL    HW1 2249   1.516   5.985   3.541
  450SOL    HW2 2250   1.380   6.063   3.494
  451SOL     OW 2251   2.112   1.366   3.653
  451SOL    HW1 2252   2.070   1.296   3.595
  451SOL    HW2 2253   2.196   1.399   3.610
  452SOL     OW 2254   6.218   5.891   1.084
  452SOL    HW1 2255   6.270   5.952   1.024
  452SOL    HW2 2256   6.132   5.935   1.111
  453SOL     OW 2257   3.711   0.988   5.754
  453SOL    HW1 2258   3.655   1.023   5.829
  453SOL    HW2 2259   3.778   1.057   5.727
  454SOL     OW 2260   0.140   4.623   6.977
  454SOL    HW1 2261   0.126   4.689   6.903
  454SOL    HW2 2262   0.237   4.599   6.983
  455SOL     OW 2263   6.389   2.951   3.181
  455SOL    HW1 2264   6.477   2.921   3.217
  455SOL    HW2 2265   6.384   2.932   3.083
  456SOL     OW 2266   6.073   6.509   3.934
  456SOL    HW1 2267   6.050   6.594   3.982
  456SOL    HW2 2268   5.990   6.460   3.912
  457SOL     OW 2269   2.082   3.151   3.984
  457SOL    HW1 2270   2.003   3.212   3.987
  457SOL    HW2 2271   2.088   3.100   4.070
  458SOL     OW 2272   4.422   5.255   3.309
  458SOL    HW1 2273   4.357   5.301   3.370
  458SOL    HW2 2274   4.389   5.261   3.215
  459SOL     OW 2275   1.945   0.018   5.334
  459SOL    HW1 2276   2.030   0.025   5.281
  459SOL    HW2 2277   1.867   0.027   5.273
  460SOL     OW 2278   1.660   0.088   3.279
  460SOL    HW1 2279   1.591   0.159   3.266
  460SOL    HW2 2280   1.636   0.032   3.358
  461SOL     OW 2281   6.804   0.008   6.001
  461SOL    HW1 2282   6.859   7.012   6.082
  461SOL    HW2 2283   6.815   6.956   5.936
  462SOL     OW 2284   3.298   3.154   6.274
  462SOL    HW1 2285   3.368   3.213   6.234
  462SOL    HW2 2286   3.251   3.203   6.347
  463SOL     OW 2287   6.581   5.800   3.022
  463SOL    HW1 2288   6.588   5.756   2.933
  463SOL    HW2 2289   6.565   5.898   3.010
  464SOL     OW 2290   2.129   2.260   5.234
  464SOL    HW1 2291   2.138   2.338   5.296
  464SOL    HW2 2292   2.220   2.227   5.208
  465SOL     OW 2293   0.426   2.717   5.478
  465SOL    HW1 2294   0.414   2.805   5.432
  465SOL    HW2 2295   0.518   2.683   5.459
  466SOL     OW 2296   0.739   5.778   2.839
  466SOL    HW1 2297   0.661   5.787   2.777
  466SOL    HW2 2298   0.706   5.780   2.933
  467SOL     OW 2299   1.444   1.504   0.603
  467SOL    HW1 2300   1.461   1.525   0.507
  467SOL    HW2 2301   1.373   1.434   0.609
  468SOL     OW 2302   3.275   0.195   6.569
  468SOL    HW1 2303   3.367   0.201   6.609
  468SOL    HW2 2304   3.261   0.103   6.532
  469SOL     OW 2305   2.925   3.550   6.649
  469SOL    HW1 2306   2.877   3.501   6.576
  469SOL    HW2 2307   3.021   3.563   6.624
  470SOL     OW 2308   4.064   6.931   2.004
  470SOL    HW1 2309   3.974   6.948   1.965
  470SOL    HW2 2310   4.078   6.991   2.083
  471SOL     OW 2311   2.422   2.349   3.873
  471SOL    HW1 2312   2.324   2.330   3.880
  471SOL    HW2 2313   2.472   2.263   3.863
  472SOL     OW 2314   5.728   3.426   6.629
  472SOL    HW1 2315   5.735   3.500   6.563
  472SOL    HW2 2316   5.704   3.341   6.582
  473SOL     OW 2317   1.058   2.887   3.002
  473SOL    HW1 2318   1.115   2.911   3.081
  473SOL    HW2 2319   0.977   2.945   3.000
  474SOL     OW 2320   5.319   5.821   4.245
  474SOL    HW1 2321   5.330   5.813   4.344
  474SOL    HW2 2322   5.402   5.789   4.199
  475SOL     OW 2323   5.976   0.872   6.177
  475SOL    HW1 2324   5.879   0.865   6.200
  475SOL    HW2 2325   6.002   0.969   6.175
  476SOL     OW 2326   0.052   3.937   3.353
  476SOL    HW1 2327   0.030   3.867   3.286
  476SOL    HW2 2328   0.151   3.937   3.370
  477SOL     OW 2329   1.558   5.050   3.856
  477SOL    HW1 2330   1.598   4.984   3.919
  477SOL    HW2 2331   1.458   5.043   3.859
  478SOL     OW 2332   3.110   6.644   1.729
  478SOL    HW1 2333   3.025   6.667   1.682
  478SOL    HW2 2334   3.117   6.695   1.814
  479SOL     OW 2335   4.096   1.969   5.865
  479SOL    HW1 2336   4.059   1.898   5.925
  479SOL    HW2 2337   4.023   2.003   5.805
  480SOL     OW 2338   2.089   1.045   6.950
  480SOL    HW1 2339   2.051   1.137   6.941
  480SOL    HW2 2340   2.049   0.985   6.880
  481SOL     OW 2341   1.965   6.928   0.118
  481SOL    HW1 2342   2.019   6.868   0.177
  481SOL    HW2 2343   1.908   6.987   0.174
  482SOL     OW 2344   4.319   4.793   2.726
  482SOL    HW1 2345   4.251   4.782   2.654
  482SOL    HW2 2346   4.294   4.870   2.785
  483SOL     OW 2347   6.571   1.523   1.850
  483SOL    HW1 2348   6.528   1.436   1.873
  483SOL    HW2 2349   6.655   1.507   1.799
  484SOL     OW 2350   1.818   3.703   4.840
  484SOL    HW1 2351   1.783   3.616   4.805
  484SOL    HW2 2352   1.844   3.761   4.763
  485SOL     OW 2353   3.253   5.255   2.400
  485SOL    HW1 2354   3.165   5.239   2.356
  485SOL    HW2 2355   3.266   5.188   2.474
  486SOL     OW 2356   6.399   1.099   0.100
  486SOL    HW1 2357   6.311   1.052   0.102
  486SOL    HW2 2358   6.408   1.156   0.181
  487SOL     OW 2359   1.099   0.517   1.302
  487SOL    HW1 2360   1.104   0.496   1.204
  487SOL    HW2 2361   1.006   0.501   1.335
  488SOL     OW 2362   1.228   1.632   2.260
  488SOL    HW1 2363   1.237   1.538   2.227
  488SOL    HW2 2364   1.226   1.695   2.182
  489SOL     OW 2365   3.901   5.695   6.053
  489SOL    HW1 2366   3.803   5.699   6.071
  489SOL    HW2 2367   3.951   5.728   6.133
  490SOL     OW 2368   6.207   5.829   2.836
  490SOL    HW1 2369   6.273   5.899   2.810
  490SOL    HW2 2370   6.171   5.849   2.927
  491SOL     OW 2371   0.488   2.883   2.873
  491SOL    HW1 2372   0.476   2.950   2.800
  491SOL    HW2 2373   0.402   2.837   2.891
  492SOL     OW 2374   1.888   0.579   5.283
  492SOL    HW1 2375   1.868   0.613   5.191
  492SOL    HW2 2376   1.928   0.652   5.338
  493SOL     OW 2377   4.860   5.525   5.421
  493SOL    HW1 2378   4.930   5.501   5.489
  493SOL    HW2 2379   4.858   5.624   5.408
  494SOL     OW 2380   0.369   6.833   6.747
  494SOL    HW1 2381   0.435   6.767   6.712
  494SOL    HW2 2382   0.280   6.818   6.704
  495SOL     OW 2383   4.944   5.928   3.373
  495SOL    HW1 2384   4.854   5.916   3.414
  495SOL    HW2 2385   4.984   5.838   3.354
  496SOL     OW 2386   5.312   4.038   1.872
  496SOL    HW1 2387   5.321   3.975   1.794
  496SOL    HW2 2388   5.240   4.104   1.853
  497SOL     OW 2389   3.146   1.502   4.687
  497SOL    HW1 2390   3.192   1.522   4.774
  497SOL    HW2 2391   3.165   1.408   4.660
  498SOL     OW 2392   2.089   3.532   1.371
  498SOL    HW1 2393   2.073   3.570   1.462
  498SOL    HW2 2394   2.024   3.459   1.354
  499SOL     OW 2395   2.084   6.667   4.885
  499SOL    HW1 2396   1.993   6.706   4.897
  499SOL    HW2 2397   2.080   6.568   4.892
  500SOL     OW 2398   0.788   3.157   4.430
  500SOL    HW1 2399   0.880   3.174   4.396
  500SOL    HW2 2400   0.725   3.226   4.392
  501SOL     OW 2401   3.203   5.505   1.109
  501SOL    HW1 2402   3.280   5.558   1.143
  501SOL    HW2 2403   3.187   5.528   1.013
  502SOL     OW 2404   0.534   4.174   0.329
  502SOL    HW1 2405   0.590   4.106   0.281
  502SOL    HW2 2406   0.514   4.250   0.267
  503SOL     OW 2407   6.990   5.299   6.953
  503SOL    HW1 2408   6.922   5.229   6.974
  503SOL    HW2 2409   6.951   5.364   6.887
  504SOL     OW 2410   1.222   5.373   2.639
  504SOL    HW1 2411   1.266   5.373   2.729
  504SOL    HW2 2412   1.135   5.423   2.644
  505SOL     OW 2413   3.138   5.880   5.247
  505SOL    HW1 2414   3.184   5.969   5.255
  505SOL    HW2 2415   3.196   5.817   5.196
  506SOL     OW 2416   2.370   4.743   4.129
  506SOL    HW1 2417   2.306   4.667   4.119
  506SOL    HW2 2418   2.457   4.708   4.163
  507SOL     OW 2419   3.198   6.538   3.075
  507SOL    HW1 2420   3.151   6.589   3.003
  507SOL    HW2 2421   3.141   6.461   3.104
  508SOL     OW 2422   0.413   3.929   2.481
  508SOL    HW1 2423   0.337   3.891   2.534
  508SOL    HW2 2424   0.463   3.995   2.537
  509SOL     OW 2425   3.346   1.187   1.728
  509SOL    HW1 2426   3.354   1.273   1.778
  509SOL    HW2 2427   3.428   1.173   1.672
  510SOL     OW 2428   6.277   4.821   0.736
  510SOL    HW1 2429   6.292   4.878   0.655
  510SOL    HW2 2430   6.340   4.743   0.735
  511SOL     OW 2431   0.586   1.609   5.414
  511SOL    HW1 2432   0.616   1.627   5.320
  511SOL    HW2 2433   0.664   1.578   5.468
  512SOL     OW 2434   6.951   3.057   0.226
  512SOL    HW1 2435   0.005   3.105   0.270
  512SOL    HW2 2436   6.875   3.052   0.290
  513SOL     OW 2437   6.157   6.792   3.804
  513SOL    HW1 2438   6.239   6.744   3.838
  513SOL    HW2 2439   6.087   6.791   3.875
  514SOL     OW 2440   6.464   2.136   3.879
  514SOL    HW1 2441   6.501   2.081   3.954
  514SOL    HW2 2442   6.419   2.077   3.812
  515SOL     OW 2443   1.079   0.870   6.284
  515SOL    HW1 2444   0.987   0.833   6.298
  515SOL    HW2 2445   1.144   0.822   6.343
  516SOL     OW 2446   2.662   4.759   1.908
  516SOL    HW1 2447   2.615   4.685   1.955
  516SOL    HW2 2448   2.761   4.751   1.922
  517SOL     OW 2449   4.442   5.841   1.849
  517SOL    HW1 2450   4.345   5.820   1.852
  517SOL    HW2 2451   4.455   5.940   1.863
  518SOL     OW 2452   2.869   2.276   3.267
  518SOL    HW1 2453   2.921   2.240   3.345
  518SOL    HW2 2454   2.789   2.326   3.301
  519SOL     OW 2455   0.483   0.258   4.683
  519SOL    HW1 2456   0.578   0.237   4.659
  519SOL    HW2 2457   0.428   0.175   4.678
  520SOL     OW 2458   6.856   3.950   0.873
  520SOL    HW1 2459   6.915   3.996   0.938
  520SOL    HW2 2460   6.817   4.017   0.810
  521SOL     OW 2461   6.495   4.465   4.743
  521SOL    HW1 2462   6.593   4.485   4.732
  521SOL    HW2 2463   6.458   4.523   4.816
  522SOL     OW 2464   3.610   3.222   4.500
  522SOL    HW1 2465   3.565   3.221   4.411
  522SOL    HW2 2466   3.582   3.143   4.553
  523SOL     OW 2467   0.260   5.133   1.729
  523SOL    HW1 2468   0.297   5.190   1.803
  523SOL    HW2 2469   0.202   5.189   1.670
  524SOL     OW 2470   0.194   1.200   1.714
  524SOL    HW1 2471   0.256   1.146   1.657
  524SOL    HW2 2472   0.243   1.238   1.792
  525SOL     OW 2473   2.517   3.331   5.627
  525SOL    HW1 2474   2.438   3.325   5.566
  525SOL    HW2 2475   2.546   3.426   5.635
  526SOL     OW 2476   4.157   6.643   4.064
  526SOL    HW1 2477   4.084   6.580   4.091
  526SOL    HW2 2478   4.173   6.708   4.139
  527SOL     OW 2479   6.452   2.594   0.008
  527SOL    HW1 2480   6.409   2.505   0.014
  527SOL    HW2 2481   6.383   2.666   0.015
  528SOL     OW 2482   0.732   1.769   3.500
  528SOL    HW1 2483   0.824   1.805   3.518
  528SOL    HW2 2484   0.668   1.845   3.490
  529SOL     OW 2485   2.175   6.900   3.832
  529SOL    HW1 2486   2.130   6.988   3.815
  529SOL    HW2 2487   2.110   6.838   3.877
  530SOL     OW 2488   3.310   3.262   4.543
  530SOL    HW1 2489   3.329   3.175   4.588
  530SOL    HW2 2490   3.287   3.331   4.611
  531SOL     OW 2491   0.508   1.367   3.391
  531SOL    HW1 2492   0.532   1.397   3.483
  531SOL    HW2 2493   0.420   1.319   3.394
  532SOL     OW 2494   0.866   2.595   6.775
  532SOL    HW1 2495   0.808   2.579   6.695
  532SOL    HW2 2496   0.915   2.511   6.798
  533SOL     OW 2497   4.578   6.849   3.950
  533SOL    HW1 2498   4.664   6.864   3.999
  533SOL    HW2 2499   4.521   6.785   4.002
  534SOL     OW 2500   5.122   6.439   2.636
  534SOL    HW1 2501   5.089   6.345   2.625
  534SOL    HW2 2502   5.091   6.495   2.559
  535SOL     OW 2503   0.952   3.479   4.248
  535SOL    HW1 2504   0.917   3.569   4.275
  535SOL    HW2 2505   0.974   3.480   4.150
  536SOL     OW 2506   6.793   5.103   1.424
  536SOL    HW1 2507   6.713   5.154   1.457
  536SOL    HW2 2508   6.840   5.063   1.502
  537SOL     OW 2509   2.950   6.551   4.485
  537SOL    HW1 2510   2.898   6.474   4.448
  537SOL    HW2 2511   2.986   6.528   4.575
  538SOL     OW 2512   1.304   4.496   3.111
  538SOL    HW1 2513   1.404   4.503   3.109
  538SOL    HW2 2514   1.276   4.449   3.195
  539SOL     OW 2515   1.430   6.363   1.162
  539SOL    HW1 2516   1.429   6.322   1.253
  539SOL    HW2 2517   1.337   6.388   1.136
  540SOL     OW 2518   0.935   0.207   3.305
  540SOL    HW1 2519   1.003   0.165   3.245
  540SOL    HW2 2520   0.878   0.137   3.347
  541SOL     OW 2521   4.420   5.821   3.948
  541SOL    HW1 2522   4.392   5.799   4.041
  541SOL    HW2 2523   4.365   5.768   3.883
  542SOL     OW 2524   6.575   0.153   6.407
  542SOL    HW1 2525   6.535   0.098   6.333
  542SOL    HW2 2526   6.641   0.218   6.368
  543SOL     OW 2527   1.369   3.920   5.792
  543SOL    HW1 2528   1.339   4.013   5.811
  543SOL    HW2 2529   1.336   3.859   5.864
  544SOL     OW 2530   2.763   3.722   0.634
  544SOL    HW1 2531   2.820   3.650   0.593
  544SOL    HW2 2532   2.820   3.801   0.655
  545SOL     OW 2533   2.924   1.056   2.709
  545SOL    HW1 2534   2.903   1.072   2.806
  545SOL    HW2 2535   2.872   1.119   2.653
  546SOL     OW 2536   1.920   2.997   0.495
  546SOL    HW1 2537   1.904   3.037   0.405
  546SOL    HW2 2538   1.928   2.897   0.485
  547SOL     OW 2539   3.316   1.385   0.094
  547SOL    HW1 2540   3.304   1.293   0.057
  547SOL    HW2 2541   3.364   1.380   0.181
  548SOL     OW 2542   3.837   3.051   2.558
  548SOL    HW1 2543   3.854   3.053   2.657
  548SOL    HW2 2544   3.922   3.074   2.509
  549SOL     OW 2545   4.629   3.403   0.873
  549SOL    HW1 2546   4.726   3.383   0.861
  549SOL    HW2 2547   4.616   3.501   0.883
  550SOL     OW 2548   6.585   5.106   3.578
  550SOL    HW1 2549   6.663   5.169   3.587
  550SOL    HW2 2550   6.568   5.088   3.481
  551SOL     OW 2551   0.915   0.542   2.112
  551SOL    HW1 2552   0.958   0.609   2.173
  551SOL    HW2 2553   0.986   0.485   2.071
  552SOL     OW 2554   4.810   4.229   0.027
  552SOL    HW1 2555   4.727   4.231   0.083
  552SOL    HW2 2556   4.832   4.135   0.003
  553SOL     OW 2557   1.667   6.143   2.036
  553SOL    HW1 2558   1.744   6.173   2.091
  553SOL    HW2 2559   1.647   6.211   1.965
  554SOL     OW 2560   5.605   6.828   5.808
  554SOL    HW1 2561   5.551   6.825   5.892
  554SOL    HW2 2562   5.661   6.911   5.807
  555SOL     OW 2563   1.526   4.980   3.160
  555SOL    HW1 2564   1.444   4.983   3.104
  555SOL    HW2 2565   1.530   5.062   3.217
  556SOL     OW 2566   5.345   2.314   3.907
  556SOL    HW1 2567   5.354   2.326   3.808
  556SOL    HW2 2568   5.359   2.402   3.953
  557SOL     OW 2569   0.890   4.431   0.485
  557SOL    HW1 2570   0.830   4.429   0.405
  557SOL    HW2 2571   0.965   4.367   0.472
  558SOL     OW 2572   2.985   3.378   4.507
  558SOL    HW1 2573   2.923   3.320   4.454
  558SOL    HW2 2574   2.975   3.357   4.604
  559SOL     OW 2575   6.594   5.619   6.999
  559SOL    HW1 2576   6.693   5.631   7.009
  559SOL    HW2 2577   6.549   5.650   0.060
  560SOL     OW 2578   4.416   4.318   0.132
  560SOL    HW1 2579   4.474   4.250   0.175
  560SOL    HW2 2580   4.472   4.381   0.077
  561SOL     OW 2581   6.436   1.510   0.090
  561SOL    HW1 2582   6.424   1.473   0.182
  561SOL    HW2 2583   6.491   1.447   0.035
  562SOL     OW 2584   5.485   0.898   5.803
  562SOL    HW1 2585   5.528   0.880   5.892
  562SOL    HW2 2586   5.491   0.816   5.746
  563SOL     OW 2587   1.875   0.535   3.105
  563SOL    HW1 2588   1.939   0.476   3.153
  563SOL    HW2 2589   1.790   0.486   3.088
  564SOL     OW 2590   2.482   2.532   6.730
  564SOL    HW1 2591   2.429   2.470   6.672
  564SOL    HW2 2592   2.473   2.505   6.825
  565SOL     OW 2593   3.589   2.515   5.828
  565SOL    HW1 2594   3.682   2.536   5.799
  565SOL    HW2 2595   3.525   2.536   5.754
  566SOL     OW 2596   6.261   5.090   4.485
  566SOL    HW1 2597   6.234   4.999   4.514
  566SOL    HW2 2598   6.329   5.083   4.412
  567SOL     OW 2599   3.849   3.784   2.391
  567SOL    HW1 2600   3.827   3.740   2.304
  567SOL    HW2 2601   3.824   3.881   2.386
  568SOL     OW 2602   4.174   2.005   0.154
  568SOL    HW1 2603   4.142   1.940   0.085
  568SOL    HW2 2604   4.162   1.967   0.245
  569SOL     OW 2605   1.311   4.190   6.407
  569SOL    HW1 2606   1.402   4.176   6.368
  569SOL    HW2 2607   1.306   4.147   6.497
  570SOL     OW 2608   2.934   6.201   6.897
  570SOL    HW1 2609   2.964   6.144   6.821
  570SOL    HW2 2610   2.898   6.288   6.862
  571SOL     OW 2611   3.083   0.658   2.349
  571SOL    HW1 2612   3.096   0.685   2.444
  571SOL    HW2 2613   3.004   0.597   2.342
  572SOL     OW 2614   2.638   4.679   5.601
  572SOL    HW1 2615   2.689   4.676   5.687
  572SOL    HW2 2616   2.701   4.678   5.524
  573SOL     OW 2617   5.378   1.123   5.926
  573SOL    HW1 2618   5.369   1.195   5.857
  573SOL    HW2 2619   5.389   1.035   5.882
  574SOL     OW 2620   3.404   2.058   4.332
  574SOL    HW1 2621   3.387   2.101   4.243
  574SOL    HW2 2622   3.338   1.985   4.347
  575SOL     OW 2623   5.922   3.314   0.201
  575SOL    HW1 2624   5.891   3.382   0.267
  575SOL    HW2 2625   5.880   3.332   0.112
  576SOL     OW 2626   1.075   2.330   2.857
  576SOL    HW1 2627   1.030   2.380   2.783
  576SOL    HW2 2628   1.140   2.390   2.904
  577SOL     OW 2629   2.098   1.384   2.687
  577SOL    HW1 2630   2.049   1.441   2.621
  577SOL    HW2 2631   2.057   1.293   2.690
  578SOL     OW 2632   6.254   5.027   3.472
  578SOL    HW1 2633   6.215   5.081   3.398
  578SOL    HW2 2634   6.353   5.025   3.463
  579SOL     OW 2635   1.587   3.081   2.007
  579SOL    HW1 2636   1.515   3.077   1.938
  579SOL    HW2 2637   1.611   2.988   2.035
  580SOL     OW 2638   6.638   4.740   6.779
  580SOL    HW1 2639   6.601   4.741   6.872
  580SOL    HW2 2640   6.696   4.660   6.767
  581SOL     OW 2641   2.990   3.190   2.639
  581SOL    HW1 2642   3.057   3.264   2.626
  581SOL    HW2 2643   2.899   3.229   2.648
  582SOL     OW 2644   5.615   5.603   2.645
  582SOL    HW1 2645   5.697   5.558   2.680
  582SOL    HW2 2646   5.608   5.587   2.546
  583SOL     OW 2647   2.620   5.311   5.870
  583SOL    HW1 2648   2.540   5.360   5.837
  583SOL    HW2 2649   2.605   5.212   5.862
  584SOL     OW 2650   1.880   3.738   6.747
  584SOL    HW1 2651   1.863   3.702   6.655
  584SOL    HW2 2652   1.970   3.708   6.779
  585SOL     OW 2653   5.467   2.979   6.282
  585SOL    HW1 2654   5.370   2.982   6.305
  585SOL    HW2 2655   5.506   2.892   6.310
  586SOL     OW 2656   3.708   1.549   6.541
  586SOL    HW1 2657   3.742   1.561   6.634
  586SOL    HW2 2658   3.612   1.521   6.544
  587SOL     OW 2659   2.778   1.704   5.142
  587SOL    HW1 2660   2.816   1.641   5.075
  587SOL    HW2 2661   2.821   1.794   5.132
  588SOL     OW 2662   2.403   4.591   0.792
  588SOL    HW1 2663   2.412   4.526   0.867
  588SOL    HW2 2664   2.308   4.596   0.762
  589SOL     OW 2665   3.250   5.260   1.484
  589SOL    HW1 2666   3.175   5.247   1.419
  589SOL    HW2 2667   3.335   5.278   1.435
  590SOL     OW 2668   5.428   2.766   2.170
  590SOL    HW1 2669   5.523   2.737   2.161
  590SOL    HW2 2670   5.404   2.825   2.092
  591SOL     OW 2671   3.956   6.099   3.715
  591SOL    HW1 2672   4.053   6.077   3.725
  591SOL    HW2 2673   3.919   6.049   3.637
  592SOL     OW 2674   3.486   0.500   1.495
  592SOL    HW1 2675   3.526   0.410   1.476
  592SOL    HW2 2676   3.429   0.494   1.577
  593SOL     OW 2677   4.715   2.271   3.550
  593SOL    HW1 2678   4.724   2.175   3.527
  593SOL    HW2 2679   4.782   2.324   3.498
  594SOL     OW 2680   4.985   2.052   6.184
  594SOL    HW1 2681   4.959   1.957   6.205
  594SOL    HW2 2682   5.081   2.066   6.210
  595SOL     OW 2683   5.840   0.370   3.682
  595SOL    HW1 2684   5.783   0.436   3.633
  595SOL    HW2 2685   5.890   0.416   3.755
  596SOL     OW 2686   1.423   4.342   2.474
  596SOL    HW1 2687   1.349   4.294   2.426
  596SOL    HW2 2688   1.384   4.419   2.526
  597SOL     OW 2689   3.807   6.810   6.550
  597SOL    HW1 2690   3.770   6.824   6.459
  597SOL    HW2 2691   3.907   6.804   6.545
  598SOL     OW 2692   3.249   4.184   6.813
  598SOL    HW1 2693   3.179   4.118   6.841
  598SOL    HW2 2694   3.217   4.277   6.831
  599SOL     OW 2695   1.956   6.421   2.412
  599SOL    HW1 2696   1.920   6.483   2.482
  599SOL    HW2 2697   1.976   6.332   2.454
  600SOL     OW 2698   0.704   0.475   1.139
  600SOL    HW1 2699   0.608   0.449   1.144
  600SOL    HW2 2700   0.742   0.478   1.231
  601SOL     OW 2701   2.972   6.281   3.639
  601SOL    HW1 2702   2.935   6.201   3.592
  601SOL    HW2 2703   3.072   6.275   3.642
  602SOL     OW 2704   1.987   2.998   6.616
  602SOL    HW1 2705   1.932   3.042   6.545
  602SOL    HW2 2706   1.988   2.899   6.601
  603SOL     OW 2707   4.184   1.604   3.241
  603SOL    HW1 2708   4.143   1.514   3.256
  603SOL    HW2 2709   4.164   1.634   3.148
  604SOL     OW 2710   0.980   3.913   1.567
  604SOL    HW1 2711   0.967   3.884   1.472
  604SOL    HW2 2712   0.906   3.878   1.624
  605SOL     OW 2713   6.223   6.062   2.189
  605SOL    HW1 2714   6.219   5.967   2.219
  605SOL    HW2 2715   6.251   6.120   2.265
  606SOL     OW 2716   4.840   0.757   6.388
  606SOL    HW1 2717   4.810   0.848   6.360
  606SOL    HW2 2718   4.886   0.713   6.311
  607SOL     OW 2719   5.329   0.669   5.452
  607SOL    HW1 2720   5.400   0.659   5.522
  607SOL    HW2 2721   5.268   0.589   5.456
  608SOL     OW 2722   3.758   6.068   6.876
  608SOL    HW1 2723   3.847   6.052   6.833
  608SOL    HW2 2724   3.737   5.992   6.937
  609SOL     OW 2725   4.001   3.108   3.818
  609SOL    HW1 2726   4.030   3.186   3.873
  609SOL    HW2 2727   3.936   3.052   3.870
  610SOL     OW 2728   5.080   2.328   2.643
  610SOL    HW1 2729   5.080   2.421   2.604
  610SOL    HW2 2730   5.006   2.275   2.602
  611SOL     OW 2731   2.176   0.430   6.811
  611SOL    HW1 2732   2.150   0.344   6.766
  611SOL    HW2 2733   2.239   0.480   6.752
  612SOL     OW 2734   3.897   6.491   6.507
  612SOL    HW1 2735   3.958   6.569   6.493
  612SOL    HW2 2736   3.815   6.503   6.451
  613SOL     OW 2737   4.097   6.918   5.846
  613SOL    HW1 2738   4.187   6.875   5.847
  613SOL    HW2 2739   4.041   6.878   5.773
  614SOL     OW 2740   5.763   3.829   0.950
  614SOL    HW1 2741   5.709   3.745   0.960
  614SOL    HW2 2742   5.703   3.904   0.923
  615SOL     OW 2743   0.422   1.864   1.353
  615SOL    HW1 2744   0.439   1.901   1.261
  615SOL    HW2 2745   0.467   1.776   1.362
  616SOL     OW 2746   0.014   2.254   3.435
  616SOL    HW1 2747   0.079   2.310   3.487
  616SOL    HW2 2748   6.944   2.271   3.469
  617SOL     OW 2749   0.086   3.742   6.973
  617SOL    HW1 2750   0.114   3.693   0.033
  617SOL    HW2 2751   0.120   3.694   6.892
  618SOL     OW 2752   0.233   3.428   0.020
  618SOL    HW1 2753   0.147   3.377   0.022
  618SOL    HW2 2754   0.310   3.364   0.016
  619SOL     OW 2755   5.045   0.174   6.478
  619SOL    HW1 2756   5.032   0.090   6.530
  619SOL    HW2 2757   5.024   0.157   6.382
  620SOL     OW 2758   5.267   2.360   1.613
  620SOL    HW1 2759   5.298   2.355   1.709
  620SOL    HW2 2760   5.309   2.285   1.561
  621SOL     OW 2761   2.221   6.960   5.559
  621SOL    HW1 2762   2.167   6.901   5.619
  621SOL    HW2 2763   2.275   6.904   5.496
  622SOL     OW 2764   0.783   1.769   4.823
  622SOL    HW1 2765   0.759   1.687   4.770
  622SOL    HW2 2766   0.737   1.765   4.912
  623SOL     OW 2767   0.977   6.257   5.944
  623SOL    HW1 2768   1.077   6.266   5.953
  623SOL    HW2 2769   0.935   6.257   6.034
  624SOL     OW 2770   6.869   0.917   0.404
  624SOL    HW1 2771   6.922   0.881   0.328
  624SOL    HW2 2772   6.790   0.967   0.369
  625SOL     OW 2773   1.831   2.219   0.828
  625SOL    HW1 2774   1.832   2.230   0.928
  625SOL    HW2 2775   1.745   2.178   0.800
  626SOL     OW 2776   0.290   5.978   3.219
  626SOL    HW1 2777   0.319   6.069   3.249
  626SOL    HW2 2778   0.293   5.915   3.296
  627SOL     OW 2779   6.248   6.192   0.813
  627SOL    HW1 2780   6.268   6.135   0.733
  627SOL    HW2 2781   6.178   6.147   0.869
  628SOL     OW 2782   5.250   5.247   5.553
  628SOL    HW1 2783   5.265   5.168   5.613
  628SOL    HW2 2784   5.328   5.257   5.491
  629SOL     OW 2785   0.540   0.468   6.382
  629SOL    HW1 2786   0.445   0.470   6.415
  629SOL    HW2 2787   0.548   0.401   6.308
  630SOL     OW 2788   0.299   1.796   0.924
  630SOL    HW1 2789   0.230   1.745   0.874
  630SOL    HW2 2790   0.295   1.773   1.021
  631SOL     OW 2791   4.160   1.052   5.024
  631SOL    HW1 2792   4.229   1.096   4.966
  631SOL    HW2 2793   4.078   1.036   4.970
  632SOL     OW 2794   4.971   2.112   1.349
  632SOL    HW1 2795   5.048   2.174   1.337
  632SOL    HW2 2796   4.951   2.100   1.446
  633SOL     OW 2797   3.030   4.001   6.901
  633SOL    HW1 2798   2.984   4.085   6.872
  633SOL    HW2 2799   3.001   3.925   6.843
  634SOL     OW 2800   3.027   3.952   2.984
  634SOL    HW1 2801   3.115   3.973   2.943
  634SOL    HW2 2802   3.007   4.017   3.057
  635SOL     OW 2803   4.719   6.090   0.823
  635SOL    HW1 2804   4.656   6.014   0.835
  635SOL    HW2 2805   4.676   6.160   0.765
  636SOL     OW 2806   2.724   6.850   5.981
  636SOL    HW1 2807   2.637   6.801   5.990
  636SOL    HW2 2808   2.710   6.931   5.924
  637SOL     OW 2809   0.419   2.911   3.228
  637SOL    HW1 2810   0.390   3.007   3.231
  637SOL    HW2 2811   0.513   2.906   3.194
  638SOL     OW 2812   6.001   3.374   4.172
  638SOL    HW1 2813   5.926   3.310   4.156
  638SOL    HW2 2814   5.982   3.426   4.256
  639SOL     OW 2815   4.884   3.480   2.816
  639SOL    HW1 2816   4.877   3.388   2.775
  639SOL    HW2 2817   4.857   3.476   2.912
  640SOL     OW 2818   0.160   5.248   3.963
  640SOL    HW1 2819   0.209   5.335   3.971
  640SOL    HW2 2820   0.154   5.205   4.053
  641SOL     OW 2821   0.588   4.823   5.011
  641SOL    HW1 2822   0.490   4.812   5.024
  641SOL    HW2 2823   0.623   4.890   5.077
  642SOL     OW 2824   0.452   3.009   3.947
  642SOL    HW1 2825   0.438   2.913   3.969
  642SOL    HW2 2826   0.506   3.018   3.863
  643SOL     OW 2827   6.146   0.175   6.312
  643SOL    HW1 2828   6.207   0.244   6.271
  643SOL    HW2 2829   6.181   0.149   6.402
  644SOL     OW 2830   1.489   7.005   4.170
  644SOL    HW1 2831   1.479   0.040   4.251
  644SOL    HW2 2832   1.419   0.006   4.103
  645SOL     OW 2833   4.258   6.706   4.701
  645SOL    HW1 2834   4.161   6.717   4.681
  645SOL    HW2 2835   4.273   6.711   4.800
  646SOL     OW 2836   3.757   1.252   4.693
  646SOL    HW1 2837   3.810   1.331   4.661
  646SOL    HW2 2838   3.708   1.276   4.777
  647SOL     OW 2839   4.919   2.618   5.090
  647SOL    HW1 2840   4.927   2.617   4.990
  647SOL    HW2 2841   5.010   2.613   5.131
  648SOL     OW 2842   0.309   4.192   4.204
  648SOL    HW1 2843   0.215   4.225   4.217
  648SOL    HW2 2844   0.347   4.230   4.120
  649SOL     OW 2845   2.636   3.857   0.901
  649SOL    HW1 2846   2.663   3.909   0.982
  649SOL    HW2 2847   2.587   3.918   0.838
  650SOL     OW 2848   6.792   4.203   1.100
  650SOL    HW1 2849   6.733   4.168   1.173
  650SOL    HW2 2850   6.737   4.216   1.017
  651SOL     OW 2851   1.450   0.130   5.777
  651SOL    HW1 2852   1.466   0.059   5.709
  651SOL    HW2 2853   1.445   0.089   5.868
  652SOL     OW 2854   4.626   0.011   3.004
  652SOL    HW1 2855   4.602   6.937   3.003
  652SOL    HW2 2856   4.641   0.041   3.099
  653SOL     OW 2857   1.276   5.820   0.018
  653SOL    HW1 2858   1.334   5.744   0.049
  653SOL    HW2 2859   1.211   5.844   0.090
  654SOL     OW 2860   1.126   6.233   7.003
  654SOL    HW1 2861   1.207   6.177   6.981
  654SOL    HW2 2862   1.046   6.194   6.958
  655SOL     OW 2863   0.007   5.618   1.287
  655SOL    HW1 2864   6.959   5.556   1.323
  655SOL    HW2 2865   0.064   5.569   1.221
  656SOL     OW 2866   2.832   6.055   0.524
  656SOL    HW1 2867   2.748   6.083   0.570
  656SOL    HW2 2868   2.854   6.122   0.453
  657SOL     OW 2869   3.625   3.721   1.048
  657SOL    HW1 2870   3.676   3.695   1.129
  657SOL    HW2 2871   3.682   3.706   0.967
  658SOL     OW 2872   1.252   3.385   5.804
  658SOL    HW1 2873   1.324   3.421   5.865
  658SOL    HW2 2874   1.292   3.365   5.715
  659SOL     OW 2875   2.883   5.967   4.303
  659SOL    HW1 2876   2.842   6.015   4.224
  659SOL    HW2 2877   2.963   6.017   4.335
  660SOL     OW 2878   5.279   3.805   2.809
  660SOL    HW1 2879   5.189   3.778   2.843
  660SOL    HW2 2880   5.270   3.880   2.744
  661SOL     OW 2881   4.849   3.932   4.227
  661SOL    HW1 2882   4.810   3.932   4.136
  661SOL    HW2 2883   4.861   3.838   4.258
  662SOL     OW 2884   4.137   0.275   5.540
  662SOL    HW1 2885   4.054   0.302   5.491
  662SOL    HW2 2886   4.171   0.352   5.593
  663SOL     OW 2887   1.480   3.886   0.380
  663SOL    HW1 2888   1.548   3.957   0.400
  663SOL    HW2 2889   1.483   3.815   0.450
  664SOL     OW 2890   1.094   5.432   6.158
  664SOL    HW1 2891   1.164   5.377   6.203
  664SOL    HW2 2892   1.137   5.494   6.092
  665SOL     OW 2893   4.861   5.345   1.323
  665SOL    HW1 2894   4.872   5.444   1.311
  665SOL    HW2 2895   4.766   5.326   1.348
  666SOL     OW 2896   4.307   2.170   1.936
  666SOL    HW1 2897   4.350   2.190   2.024
  666SOL    HW2 2898   4.233   2.235   1.920
  667SOL     OW 2899   6.715   3.934   3.673
  667SOL    HW1 2900   6.692   3.872   3.748
  667SOL    HW2 2901   6.640   3.937   3.608
  668SOL     OW 2902   4.942   5.927   7.006
  668SOL    HW1 2903   4.927   5.893   6.913
  668SOL    HW2 2904   4.886   5.874   0.048
  669SOL     OW 2905   2.938   5.872   2.787
  669SOL    HW1 2906   2.913   5.933   2.862
  669SOL    HW2 2907   2.925   5.920   2.700
  670SOL     OW 2908   2.890   2.961   1.734
  670SOL    HW1 2909   2.903   2.865   1.709
  670SOL    HW2 2910   2.792   2.982   1.734
  671SOL     OW 2911   2.448   6.020   6.465
  671SOL    HW1 2912   2.393   5.963   6.403
  671SOL    HW2 2913   2.504   6.083   6.411
  672SOL     OW 2914   0.989   4.809   1.885
  672SOL    HW1 2915   1.081   4.769   1.882
  672SOL    HW2 2916   0.954   4.804   1.978
  673SOL     OW 2917   6.073   0.334   1.500
  673SOL    HW1 2918   6.144   0.291   1.556
  673SOL    HW2 2919   6.102   0.332   1.404
  674SOL     OW 2920   6.444   3.651   4.708
  674SOL    HW1 2921   6.478   3.562   4.739
  674SOL    HW2 2922   6.381   3.637   4.632
  675SOL     OW 2923   6.902   1.262   5.104
  675SOL    HW1 2924   6.911   1.193   5.032
  675SOL    HW2 2925   6.962   1.340   5.083
  676SOL     OW 2926   3.496   5.516   2.716
  676SOL    HW1 2927   3.408   5.478   2.689
  676SOL    HW2 2928   3.569   5.474   2.661
  677SOL     OW 2929   6.053   1.705   6.581
  677SOL    HW1 2930   6.086   1.758   6.503
  677SOL    HW2 2931   6.130   1.657   6.624
  678SOL     OW 2932   1.047   1.705   5.039
  678SOL    HW1 2933   1.119   1.728   5.103
  678SOL    HW2 2934   1.004   1.789   5.006
  679SOL     OW 2935   4.706   1.044   4.200
  679SOL    HW1 2936   4.706   1.068   4.102
  679SOL    HW2 2937   4.625   0.991   4.221
  680SOL     OW 2938   5.202   5.785   5.863
  680SOL    HW1 2939   5.105   5.761   5.862
  680SOL    HW2 2940   5.256   5.706   5.834
  681SOL     OW 2941   5.481   6.543   1.149
  681SOL    HW1 2942   5.418   6.605   1.103
  681SOL    HW2 2943   5.490   6.568   1.245
  682SOL     OW 2944   1.363   6.975   6.857
  682SOL    HW1 2945   1.407   6.936   6.937
  682SOL    HW2 2946   1.424   6.968   6.778
  683SOL     OW 2947   3.639   1.468   6.976
  683SOL    HW1 2948   3.561   1.529   6.963
  683SOL    HW2 2949   3.710   1.490   6.909
  684SOL     OW 2950   5.879   1.278   6.776
  684SOL    HW1 2951   5.802   1.235   6.729
  684SOL    HW2 2952   5.951   1.299   6.710
  685SOL     OW 2953   4.951   0.567   5.009
  685SOL    HW1 2954   4.872   0.619   5.040
  685SOL    HW2 2955   4.964   0.582   4.911
  686SOL     OW 2956   5.988   2.976   3.525
  686SOL    HW1 2957   5.980   2.881   3.498
  686SOL    HW2 2958   5.897   3.018   3.528
  687SOL     OW 2959   6.762   2.312   4.621
  687SOL    HW1 2960   6.722   2.238   4.567
  687SOL    HW2 2961   6.729   2.400   4.587
  688SOL     OW 2962   1.810   3.020   0.215
  688SOL    HW1 2963   1.742   3.044   0.146
  688SOL    HW2 2964   1.770   2.957   0.281
  689SOL     OW 2965   0.440   4.373   5.538
  689SOL    HW1 2966   0.492   4.439   5.483
  689SOL    HW2 2967   0.350   4.359   5.498
  690SOL     OW 2968   0.739   3.958   3.611
  690SOL    HW1 2969   0.770   3.908   3.530
  690SOL    HW2 2970   0.803   3.942   3.686
  691SOL     OW 2971   2.408   1.537   6.471
  691SOL    HW1 2972   2.433   1.590   6.552
  691SOL    HW2 2973   2.364   1.452   6.500
  692SOL     OW 2974   3.855   6.411   3.196
  692SOL    HW1 2975   3.761   6.414   3.162
  692SOL    HW2 2976   3.878   6.498   3.238
  693SOL     OW 2977   6.405   1.587   2.805
  693SOL    HW1 2978   6.343   1.651   2.850
  693SOL    HW2 2979   6.377   1.574   2.710
  694SOL     OW 2980   3.526   6.604   2.647
  694SOL    HW1 2981   3.538   6.539   2.721
  694SOL    HW2 2982   3.611   6.612   2.594
  695SOL     OW 2983   4.470   4.651   5.981
  695SOL    HW1 2984   4.418   4.729   6.016
  695SOL    HW2 2985   4.409   4.590   5.930
  696SOL     OW 2986   2.830   5.313   2.110
  696SOL    HW1 2987   2.759   5.374   2.074
  696SOL    HW2 2988   2.914   5.366   2.128
  697SOL     OW 2989   1.459   2.952   4.636
  697SOL    HW1 2990   1.487   3.037   4.679
  697SOL    HW2 2991   1.415   2.972   4.548
  698SOL     OW 2992   5.460   6.986   6.763
  698SOL    HW1 2993   5.474   6.991   6.664
  698SOL    HW2 2994   5.540   6.947   6.807
  699SOL     OW 2995   1.080   3.952   0.030
  699SOL    HW1 2996   1.019   3.873   0.039
  699SOL    HW2 2997   1.173   3.926   0.057
  700SOL     OW 2998   2.867   1.493   4.156
  700SOL    HW1 2999   2.855   1.457   4.248
  700SOL    HW2 3000   2.881   1.418   4.092
  701SOL     OW 3001   0.206   4.274   5.447
  701SOL    HW1 3002   0.195   4.192   5.390
  701SOL    HW2 3003   0.163   4.259   5.536
  702SOL     OW 3004   6.105   5.977   6.417
  702SOL    HW1 3005   6.022   6.004   6.466
  702SOL    HW2 3006   6.181   6.036   6.446
  703SOL     OW 3007   4.099   3.751   6.614
  703SOL    HW1 3008   4.022   3.776   6.673
  703SOL    HW2 3009   4.068   3.748   6.519
  704SOL     OW 3010   1.750   1.544   6.365
  704SOL    HW1 3011   1.729   1.456   6.407
  704SOL    HW2 3012   1.849   1.558   6.363
  705SOL     OW 3013   5.439   0.074   3.514
  705SOL    HW1 3014   5.454   0.010   3.438
  705SOL    HW2 3015   5.444   0.025   3.601
  706SOL     OW 3016   4.378   2.410   3.681
  706SOL    HW1 3017   4.354   2.313   3.688
  706SOL    HW2 3018   4.297   2.465   3.703
  707SOL     OW 3019   4.575   0.017   2.408
  707SOL    HW1 3020   4.574   7.013   2.504
  707SOL    HW2 3021   4.590   6.958   2.351
  708SOL     OW 3022   3.882   0.619   1.709
  708SOL    HW1 3023   3.810   0.665   1.657
  708SOL    HW2 3024   3.884   0.522   1.685
  709SOL     OW 3025   1.431   5.266   0.202
  709SOL    HW1 3026   1.417   5.252   0.104
  709SOL    HW2 3027   1.349   5.307   0.242
  710SOL     OW 3028   3.525   3.376   2.263
  710SOL    HW1 3029   3.547   3.295   2.317
  710SOL    HW2 3030   3.610   3.423   2.237
  711SOL     OW 3031   0.102   1.854   5.755
  711SOL    HW1 3032   0.040   1.827   5.828
  711SOL    HW2 3033   0.174   1.785   5.744
  712SOL     OW 3034   3.199   3.506   0.756
  712SOL    HW1 3035   3.102   3.495   0.734
  712SOL    HW2 3036   3.210   3.527   0.853
  713SOL     OW 3037   3.676   3.024   0.043
  713SOL    HW1 3038   3.642   2.991   0.131
  713SOL    HW2 3039   3.688   2.947   7.004
  714SOL     OW 3040   6.747   4.806   4.863
  714SOL    HW1 3041   6.685   4.792   4.941
  714SOL    HW2 3042   6.714   4.883   4.808
  715SOL     OW 3043   5.113   6.513   0.614
  715SOL    HW1 3044   5.150   6.446   0.679
  715SOL    HW2 3045   5.133   6.484   0.521
  716SOL     OW 3046   1.230   6.515   0.984
  716SOL    HW1 3047   1.209   6.418   0.988
  716SOL    HW2 3048   1.148   6.568   1.008
  717SOL     OW 3049   5.986   5.201   6.686
  717SOL    HW1 3050   5.914   5.161   6.743
  717SOL    HW2 3051   6.069   5.146   6.695
  718SOL     OW 3052   4.469   2.175   5.650
  718SOL    HW1 3053   4.507   2.107   5.712
  718SOL    HW2 3054   4.399   2.228   5.696
  719SOL     OW 3055   6.467   2.506   0.666
  719SOL    HW1 3056   6.490   2.420   0.713
  719SOL    HW2 3057   6.425   2.569   0.731
  720SOL     OW 3058   3.412   0.958   6.302
  720SOL    HW1 3059   3.425   1.047   6.345
  720SOL    HW2 3060   3.387   0.970   6.206
  721SOL     OW 3061   1.968   0.325   4.084
  721SOL    HW1 3062   1.995   0.232   4.060
  721SOL    HW2 3063   2.042   0.370   4.134
  722SOL     OW 3064   2.236   6.890   4.969
  722SOL    HW1 3065   2.188   6.968   5.009
  722SOL    HW2 3066   2.170   6.822   4.939
  723SOL     OW 3067   1.858   3.809   2.970
  723SOL    HW1 3068   1.823   3.744   3.037
  723SOL    HW2 3069   1.805   3.802   2.886
  724SOL     OW 3070   1.452   2.432   4.647
  724SOL    HW1 3071   1.433   2.366   4.720
  724SOL    HW2 3072   1.457   2.524   4.685
  725SOL     OW 3073   3.476   5.447   0.519
  725SOL    HW1 3074   3.425   5.397   0.449
  725SOL    HW2 3075   3.573   5.426   0.512
  726SOL     OW 3076   4.097   4.927   0.746
  726SOL    HW1 3077   4.052   4.841   0.720
  726SOL    HW2 3078   4.193   4.924   0.716
  727SOL     OW 3079   5.021   5.477   6.148
  727SOL    HW1 3080   5.033   5.509   6.242
  727SOL    HW2 3081   4.938   5.516   6.110
  728SOL     OW 3082   6.801   2.992   4.554
  728SOL    HW1 3083   6.719   3.018   4.501
  728SOL    HW2 3084   6.780   2.997   4.651
  729SOL     OW 3085   2.112   1.879   0.101
  729SOL    HW1 3086   2.018   1.846   0.095
  729SOL    HW2 3087   2.175   1.804   0.079
  730SOL     OW 3088   4.988   0.954   3.020
  730SOL    HW1 3089   4.984   1.000   2.931
  730SOL    HW2 3090   5.078   0.911   3.031
  731SOL     OW 3091   5.935   4.631   5.822
  731SOL    HW1 3092   5.871   4.642   5.898
  731SOL    HW2 3093   6.027   4.617   5.858
  732SOL     OW 3094   0.836   2.950   1.126
  732SOL    HW1 3095   0.903   2.877   1.130
  732SOL    HW2 3096   0.796   2.964   1.217
  733SOL     OW 3097   5.560   5.141   5.364
  733SOL    HW1 3098   5.577   5.189   5.278
  733SOL    HW2 3099   5.567   5.205   5.440
  734SOL     OW 3100   6.514   4.441   2.746
  734SOL    HW1 3101   6.595   4.393   2.713
  734SOL    HW2 3102   6.470   4.489   2.670
  735SOL     OW 3103   4.426   3.096   0.354
  735SOL    HW1 3104   4.440   3.144   0.268
  735SOL    HW2 3105   4.479   3.011   0.353
  736SOL     OW 3106   0.202   7.009   2.910
  736SOL    HW1 3107   0.275   0.032   2.961
  736SOL    HW2 3108   0.175   0.043   2.832
  737SOL     OW 3109   4.537   2.063   6.305
  737SOL    HW1 3110   4.562   1.982   6.359
  737SOL    HW2 3111   4.619   2.118   6.288
  738SOL     OW 3112   2.264   4.160   2.455
  738SOL    HW1 3113   2.319   4.154   2.538
  738SOL    HW2 3114   2.303   4.229   2.394
  739SOL     OW 3115   3.698   0.375   4.784
  739SOL    HW1 3116   3.618   0.315   4.773
  739SOL    HW2 3117   3.782   0.321   4.776
  740SOL     OW 3118   4.341   6.971   0.269
  740SOL    HW1 3119   4.299   6.881   0.257
  740SOL    HW2 3120   4.319   0.006   0.190
  741SOL     OW 3121   2.380   5.921   2.985
  741SOL    HW1 3122   2.336   5.842   2.942
  741SOL    HW2 3123   2.387   5.995   2.918
  742SOL     OW 3124   1.562   6.693   1.423
  742SOL    HW1 3125   1.526   6.779   1.458
  742SOL    HW2 3126   1.533   6.681   1.328
  743SOL     OW 3127   0.820   4.657   5.053
  743SOL    HW1 3128   0.757   4.721   5.009
  743SOL    HW2 3129   0.901   4.706   5.085
  744SOL     OW 3130   5.481   6.982   6.488
  744SOL    HW1 3131   5.404   6.940   6.441
  744SOL    HW2 3132   5.566   6.940   6.457
  745SOL     OW 3133   0.879   5.175   4.139
  745SOL    HW1 3134   0.968   5.186   4.183
  745SOL    HW2 3135   0.851   5.263   4.099
  746SOL     OW 3136   0.912   5.535   5.867
  746SOL    HW1 3137   0.876   5.481   5.942
  746SOL    HW2 3138   0.985   5.484   5.821
  747SOL     OW 3139   4.345   6.442   4.713
  747SOL    HW1 3140   4.303   6.390   4.787
  747SOL    HW2 3141   4.308   6.535   4.712
  748SOL     OW 3142   3.052   4.882   2.378
  748SOL    HW1 3143   3.147   4.884   2.408
  748SOL    HW2 3144   3.048   4.853   2.282
  749SOL     OW 3145   6.581   4.251   5.073
  749SOL    HW1 3146   6.573   4.223   4.977
  749SOL    HW2 3147   6.490   4.273   5.108
  750SOL     OW 3148   2.062   2.686   1.125
  750SOL    HW1 3149   2.027   2.741   1.200
  750SOL    HW2 3150   2.073   2.742   1.044
  751SOL     OW 3151   4.312   2.756   5.723
  751SOL    HW1 3152   4.251   2.684   5.756
  751SOL    HW2 3153   4.259   2.838   5.702
  752SOL     OW 3154   3.801   1.857   2.154
  752SOL    HW1 3155   3.830   1.795   2.081
  752SOL    HW2 3156   3.808   1.952   2.121
  753SOL     OW 3157   1.563   2.826   4.282
  753SOL    HW1 3158   1.639   2.880   4.318
  753SOL    HW2 3159   1.589   2.729   4.282
  754SOL     OW 3160   5.245   2.745   6.344
  754SOL    HW1 3161   5.215   2.839   6.327
  754SOL    HW2 3162   5.285   2.707   6.261
  755SOL     OW 3163   1.567   4.927   5.808
  755SOL    HW1 3164   1.615   5.008   5.774
  755SOL    HW2 3165   1.506   4.893   5.736
  756SOL     OW 3166   3.295   0.479   1.700
  756SOL    HW1 3167   3.209   0.473   1.750
  756SOL    HW2 3168   3.313   0.574   1.674
  757SOL     OW 3169   0.624   6.643   3.301
  757SOL    HW1 3170   0.614   6.549   3.334
  757SOL    HW2 3171   0.534   6.687   3.298
  758SOL     OW 3172   3.815   0.028   1.923
  758SOL    HW1 3173   3.786   0.123   1.916
  758SOL    HW2 3174   3.767   6.995   1.854
  759SOL     OW 3175   0.688   0.838   0.710
  759SOL    HW1 3176   0.660   0.799   0.623
  759SOL    HW2 3177   0.608   0.858   0.765
  760SOL     OW 3178   4.899   0.140   5.704
  760SOL    HW1 3179   4.927   0.235   5.696
  760SOL    HW2 3180   4.970   0.081   5.664
  761SOL     OW 3181   5.458   3.523   5.454
  761SOL    HW1 3182   5.555   3.520   5.479
  761SOL    HW2 3183   5.440   3.456   5.382
  762SOL     OW 3184   1.885   0.219   4.922
  762SOL    HW1 3185   1.874   0.257   4.830
  762SOL    HW2 3186   1.961   0.264   4.968
  763SOL     OW 3187   4.420   4.540   6.706
  763SOL    HW1 3188   4.474   4.471   6.755
  763SOL    HW2 3189   4.420   4.625   6.758
  764SOL     OW 3190   4.348   0.771   4.009
  764SOL    HW1 3191   4.408   0.819   4.073
  764SOL    HW2 3192   4.283   0.715   4.060
  765SOL     OW 3193   1.341   6.014   1.205
  765SOL    HW1 3194   1.371   5.919   1.202
  765SOL    HW2 3195   1.279   6.026   1.283
  766SOL     OW 3196   1.698   3.545   0.052
  766SOL    HW1 3197   1.627   3.478   0.030
  766SOL    HW2 3198   1.682   3.628   7.021
  767SOL     OW 3199   5.714   5.568   2.378
  767SOL    HW1 3200   5.791   5.556   2.441
  767SOL    HW2 3201   5.711   5.491   2.315
  768SOL     OW 3202   1.592   6.337   1.781
  768SOL    HW1 3203   1.687   6.368   1.778
  768SOL    HW2 3204   1.545   6.380   1.858
  769SOL     OW 3205   3.433   0.545   4.488
  769SOL    HW1 3206   3.410   0.533   4.585
  769SOL    HW2 3207   3.504   0.615   4.479
  770SOL     OW 3208   1.991   3.874   3.337
  770SOL    HW1 3209   2.029   3.830   3.256
  770SOL    HW2 3210   1.969   3.969   3.316
  771SOL     OW 3211   2.268   5.416   2.225
  771SOL    HW1 3212   2.258   5.458   2.134
  771SOL    HW2 3213   2.341   5.348   2.222
  772SOL     OW 3214   6.507   5.348   0.866
  772SOL    HW1 3215   6.533   5.340   0.962
  772SOL    HW2 3216   6.577   5.398   0.816
  773SOL     OW 3217   0.098   3.596   4.099
  773SOL    HW1 3218   0.007   3.585   4.058
  773SOL    HW2 3219   0.120   3.693   4.107
  774SOL     OW 3220   1.545   1.967   1.693
  774SOL    HW1 3221   1.463   2.024   1.699
  774SOL    HW2 3222   1.597   1.975   1.778
  775SOL     OW 3223   0.851   2.200   2.692
  775SOL    HW1 3224   0.887   2.111   2.720
  775SOL    HW2 3225   0.771   2.223   2.747
  776SOL     OW 3226   0.521   0.344   5.435
  776SOL    HW1 3227   0.606   0.395   5.448
  776SOL    HW2 3228   0.541   0.246   5.433
  777SOL     OW 3229   3.167   5.064   1.228
  777SOL    HW1 3230   3.166   5.133   1.156
  777SOL    HW2 3231   3.255   5.017   1.228
  778SOL     OW 3232   3.470   1.702   2.969
  778SOL    HW1 3233   3.565   1.732   2.962
  778SOL    HW2 3234   3.468   1.607   3.001
  779SOL     OW 3235   0.371   2.116   2.931
  779SOL    HW1 3236   0.387   2.115   3.030
  779SOL    HW2 3237   0.288   2.169   2.911
  780SOL     OW 3238   5.971   3.999   3.926
  780SOL    HW1 3239   6.022   3.914   3.912
  780SOL    HW2 3240   6.027   4.076   3.897
  781SOL     OW 3241   5.476   1.044   0.031
  781SOL    HW1 3242   5.397   1.062   0.091
  781SOL    HW2 3243   5.560   1.062   0.081
  782SOL     OW 3244   1.668   3.798   6.936
  782SOL    HW1 3245   1.714   3.786   6.848
  782SOL    HW2 3246   1.734   3.827   7.005
  783SOL     OW 3247   4.174   5.096   1.347
  783SOL    HW1 3248   4.112   5.026   1.383
  783SOL    HW2 3249   4.130   5.144   1.271
  784SOL     OW 3250   4.826   6.497   6.985
  784SOL    HW1 3251   4.906   6.557   6.978
  784SOL    HW2 3252   4.843   6.413   6.934
  785SOL     OW 3253   0.150   2.960   2.878
  785SOL    HW1 3254   0.108   3.046   2.849
  785SOL    HW2 3255   0.081   2.902   2.921
  786SOL     OW 3256   1.182   0.459   1.051
  786SOL    HW1 3257   1.193   0.555   1.027
  786SOL    HW2 3258   1.271   0.414   1.050
  787SOL     OW 3259   2.785   0.742   6.611
  787SOL    HW1 3260   2.693   0.782   6.607
  787SOL    HW2 3261   2.811   0.729   6.706
  788SOL     OW 3262   3.220   2.427   6.133
  788SOL    HW1 3263   3.203   2.523   6.109
  788SOL    HW2 3264   3.277   2.422   6.214
  789SOL     OW 3265   5.099   3.591   1.039
  789SOL    HW1 3266   5.084   3.539   0.955
  789SOL    HW2 3267   5.047   3.548   1.114
  790SOL     OW 3268   2.487   0.707   4.250
  790SOL    HW1 3269   2.511   0.611   4.261
  790SOL    HW2 3270   2.569   0.764   4.259
  791SOL     OW 3271   3.851   5.897   3.528
  791SOL    HW1 3272   3.809   5.922   3.440
  791SOL    HW2 3273   3.780   5.869   3.592
  792SOL     OW 3274   0.506   0.629   1.295
  792SOL    HW1 3275   0.467   0.719   1.314
  792SOL    HW2 3276   0.496   0.571   1.376
  793SOL     OW 3277   5.357   5.908   3.015
  793SOL    HW1 3278   5.301   5.991   3.021
  793SOL    HW2 3279   5.297   5.828   3.016
  794SOL     OW 3280   2.995   3.933   5.446
  794SOL    HW1 3281   2.946   3.886   5.519
  794SOL    HW2 3282   2.946   3.922   5.360
  795SOL     OW 3283   3.805   6.957   5.091
  795SOL    HW1 3284   3.882   6.902   5.123
  795SOL    HW2 3285   3.732   6.955   5.159
  796SOL     OW 3286   1.159   1.886   6.389
  796SOL    HW1 3287   1.113   1.970   6.362
  796SOL    HW2 3288   1.103   1.839   6.459
  797SOL     OW 3289   5.134   2.725   1.869
  797SOL    HW1 3290   5.091   2.680   1.947
  797SOL    HW2 3291   5.074   2.718   1.790
  798SOL     OW 3292   5.143   6.789   1.631
  798SOL    HW1 3293   5.239   6.788   1.605
  798SOL    HW2 3294   5.135   6.791   1.731
  799SOL     OW 3295   6.521   1.152   5.371
  799SOL    HW1 3296   6.576   1.139   5.454
  799SOL    HW2 3297   6.439   1.204   5.393
  800SOL     OW 3298   5.325   1.800   2.572
  800SOL    HW1 3299   5.252   1.760   2.517
  800SOL    HW2 3300   5.293   1.813   2.666
  801SOL     OW 3301   2.140   3.304   4.341
  801SOL    HW1 3302   2.119   3.263   4.430
  801SOL    HW2 3303   2.110   3.399   4.341
  802SOL     OW 3304   4.537   0.607   0.799
  802SOL    HW1 3305   4.588   0.539   0.748
  802SOL    HW2 3306   4.566   0.606   0.895
  803SOL     OW 3307   0.321   6.028   5.011
  803SOL    HW1 3308   0.361   6.087   5.081
  803SOL    HW2 3309   0.284   5.945   5.055
  804SOL     OW 3310   5.528   6.087   0.160
  804SOL    HW1 3311   5.498   6.151   0.089
  804SOL    HW2 3312   5.599   6.028   0.124
  805SOL     OW 3313   3.742   1.269   5.643
  805SOL    HW1 3314   3.662   1.249   5.585
  805SOL    HW2 3315   3.715   1.267   5.739
  806SOL     OW 3316   5.088   1.069   3.966
  806SOL    HW1 3317   5.069   0.989   3.909
  806SOL    HW2 3318   5.009   1.130   3.966
  807SOL     OW 3319   0.963   1.975   4.902
  807SOL    HW1 3320   0.914   2.062   4.906
  807SOL    HW2 3321   0.897   1.901   4.887
  808SOL     OW 3322   4.791   3.210   6.199
  808SOL    HW1 3323   4.856   3.147   6.157
  808SOL    HW2 3324   4.710   3.159   6.229
  809SOL     OW 3325   0.410   4.618   1.853
  809SOL    HW1 3326   0.506   4.635   1.828
  809SOL    HW2 3327   0.375   4.539   1.803
  810SOL     OW 3328   3.492   2.883   0.706
  810SOL    HW1 3329   3.573   2.835   0.672
  810SOL    HW2 3330   3.419   2.878   0.638
  811SOL     OW 3331   3.655   5.747   4.259
  811SOL    HW1 3332   3.607   5.789   4.182
  811SOL    HW2 3333   3.754   5.755   4.244
  812SOL     OW 3334   0.430   1.733   1.616
  812SOL    HW1 3335   0.380   1.784   1.546
  812SOL    HW2 3336   0.365   1.681   1.672
  813SOL     OW 3337   3.590   5.747   4.909
  813SOL    HW1 3338   3.504   5.738   4.858
  813SOL    HW2 3339   3.665   5.711   4.854
  814SOL     OW 3340   5.963   6.103   2.483
  814SOL    HW1 3341   5.996   6.012   2.509
  814SOL    HW2 3342   5.864   6.108   2.498
  815SOL     OW 3343   0.454   3.864   3.075
  815SOL    HW1 3344   0.523   3.933   3.052
  815SOL    HW2 3345   0.365   3.891   3.037
  816SOL     OW 3346   6.353   6.630   0.208
  816SOL    HW1 3347   6.334   6.718   0.164
  816SOL    HW2 3348   6.308   6.557   0.158
  817SOL     OW 3349   2.028   3.598   1.626
  817SOL    HW1 3350   2.101   3.656   1.662
  817SOL    HW2 3351   2.016   3.519   1.686
  818SOL     OW 3352   6.699   2.758   1.557
  818SOL    HW1 3353   6.670   2.719   1.469
  818SOL    HW2 3354   6.650   2.844   1.573
  819SOL     OW 3355   5.221   3.024   3.122
  819SOL    HW1 3356   5.312   2.992   3.095
  819SOL    HW2 3357   5.159   2.946   3.127
  820SOL     OW 3358   2.554   2.924   5.684
  820SOL    HW1 3359   2.602   2.856   5.740
  820SOL    HW2 3360   2.617   2.997   5.659
  821SOL     OW 3361   1.964   4.295   0.070
  821SOL    HW1 3362   1.961   4.395   0.063
  821SOL    HW2 3363   1.997   4.269   0.160
  822SOL     OW 3364   1.791   4.277   4.514
  822SOL    HW1 3365   1.845   4.328   4.582
  822SOL    HW2 3366   1.853   4.228   4.453
  823SOL     OW 3367   4.650   4.165   6.089
  823SOL    HW1 3368   4.683   4.170   6.184
  823SOL    HW2 3369   4.710   4.105   6.037
  824SOL     OW 3370   5.179   0.880   5.206
  824SOL    HW1 3371   5.258   0.818   5.201
  824SOL    HW2 3372   5.169   0.913   5.299
  825SOL     OW 3373   1.407   4.067   1.123
  825SOL    HW1 3374   1.339   4.141   1.117
  825SOL    HW2 3375   1.497   4.106   1.139
  826SOL     OW 3376   5.149   3.262   6.154
  826SOL    HW1 3377   5.248   3.246   6.164
  826SOL    HW2 3378   5.130   3.291   6.060
  827SOL     OW 3379   3.137   4.946   6.234
  827SOL    HW1 3380   3.055   4.918   6.284
  827SOL    HW2 3381   3.218   4.914   6.282
  828SOL     OW 3382   5.056   6.200   5.863
  828SOL    HW1 3383   5.010   6.211   5.952
  828SOL    HW2 3384   5.046   6.283   5.809
  829SOL     OW 3385   3.157   3.534   3.621
  829SOL    HW1 3386   3.125   3.618   3.664
  829SOL    HW2 3387   3.175   3.465   3.691
  830SOL     OW 3388   4.668   4.654   6.820
  830SOL    HW1 3389   4.688   4.589   6.746
  830SOL    HW2 3390   4.712   4.741   6.800
  831SOL     OW 3391   5.686   1.118   6.093
  831SOL    HW1 3392   5.599   1.158   6.123
  831SOL    HW2 3393   5.714   1.048   6.158
  832SOL     OW 3394   2.801   0.755   0.898
  832SOL    HW1 3395   2.777   0.678   0.956
  832SOL    HW2 3396   2.770   0.738   0.805
  833SOL     OW 3397   0.170   4.180   6.355
  833SOL    HW1 3398   0.176   4.166   6.256
  833SOL    HW2 3399   0.084   4.226   6.376
  834SOL     OW 3400   2.898   3.625   1.033
  834SOL    HW1 3401   2.911   3.723   1.023
  834SOL    HW2 3402   2.837   3.591   0.961
  835SOL     OW 3403   3.327   0.550   4.730
  835SOL    HW1 3404   3.330   0.466   4.783
  835SOL    HW2 3405   3.236   0.591   4.737
  836SOL     OW 3406   3.579   6.395   6.578
  836SOL    HW1 3407   3.585   6.416   6.675
  836SOL    HW2 3408   3.608   6.301   6.562
  837SOL     OW 3409   5.451   6.212   6.934
  837SOL    HW1 3410   5.403   6.125   6.943
  837SOL    HW2 3411   5.385   6.286   6.923
  838SOL     OW 3412   2.014   0.042   4.026
  838SOL    HW1 3413   2.072   6.992   4.060
  838SOL    HW2 3414   1.918   0.013   4.031
  839SOL     OW 3415   2.445   2.593   2.118
  839SOL    HW1 3416   2.494   2.526   2.062
  839SOL    HW2 3417   2.510   2.657   2.159
  840SOL     OW 3418   5.820   0.020   6.979
  840SOL    HW1 3419   5.853   0.105   7.020
  840SOL    HW2 3420   5.865   0.006   6.891
  841SOL     OW 3421   4.521   5.115   0.618
  841SOL    HW1 3422   4.503   5.096   0.522
  841SOL    HW2 3423   4.491   5.037   0.674
  842SOL     OW 3424   4.327   5.801   4.741
  842SOL    HW1 3425   4.280   5.722   4.702
  842SOL    HW2 3426   4.425   5.782   4.746
  843SOL     OW 3427   2.496   1.708   0.030
  843SOL    HW1 3428   2.531   1.685   6.961
  843SOL    HW2 3429   2.531   1.797   0.057
  844SOL     OW 3430   5.853   0.041   1.302
  844SOL    HW1 3431   5.853   0.101   1.222
  844SOL    HW2 3432   5.802   0.085   1.376
  845SOL     OW 3433   5.806   3.729   5.505
  845SOL    HW1 3434   5.882   3.786   5.536
  845SOL    HW2 3435   5.842   3.653   5.451
  846SOL     OW 3436   2.718   1.462   0.191
  846SOL    HW1 3437   2.697   1.372   0.229
  846SOL    HW2 3438   2.717   1.530   0.264
  847SOL     OW 3439   0.928   4.017   0.571
  847SOL    HW1 3440   0.845   4.065   0.598
  847SOL    HW2 3441   0.987   4.079   0.518
  848SOL     OW 3442   6.126   0.776   6.595
  848SOL    HW1 3443   6.155   0.749   6.503
  848SOL    HW2 3444   6.107   0.874   6.596
  849SOL     OW 3445   0.804   4.539   6.044
  849SOL    HW1 3446   0.826   4.590   5.961
  849SOL    HW2 3447   0.714   4.497   6.035
  850SOL     OW 3448   5.613   0.852   4.104
  850SOL    HW1 3449   5.691   0.821   4.050
  850SOL    HW2 3450   5.559   0.916   4.051
  851SOL     OW 3451   0.371   0.745   1.612
  851SOL    HW1 3452   0.292   0.721   1.668
  851SOL    HW2 3453   0.439   0.672   1.617
  852SOL     OW 3454   1.385   1.971   0.334
  852SOL    HW1 3455   1.422   1.998   0.245
  852SOL    HW2 3456   1.365   2.054   0.387
  853SOL     OW 3457   1.791   4.540   2.504
  853SOL    HW1 3458   1.764   4.498   2.590
  853SOL    HW2 3459   1.751   4.488   2.428
  854SOL     OW 3460   4.830   5.984   2.030
  854SOL    HW1 3461   4.835   5.911   2.097
  854SOL    HW2 3462   4.771   6.057   2.065
  855SOL     OW 3463   7.015   0.289   1.026
  855SOL    HW1 3464   0.018   0.307   1.122
  855SOL    HW2 3465   6.938   0.225   1.024
  856SOL     OW 3466   1.387   1.968   4.948
  856SOL    HW1 3467   1.313   2.020   4.991
  856SOL    HW2 3468   1.475   1.998   4.987
  857SOL     OW 3469   6.134   4.173   2.284
  857SOL    HW1 3470   6.073   4.153   2.361
  857SOL    HW2 3471   6.084   4.162   2.198
  858SOL     OW 3472   2.593   4.212   1.319
  858SOL    HW1 3473   2.506   4.253   1.289
  858SOL    HW2 3474   2.669   4.264   1.281
  859SOL     OW 3475   4.767   5.902   6.652
  859SOL    HW1 3476   4.695   5.929   6.588
  859SOL    HW2 3477   4.838   5.972   6.654
  860SOL     OW 3478   3.685   4.338   0.516
  860SOL    HW1 3479   3.778   4.346   0.552
  860SOL    HW2 3480   3.635   4.423   0.535
  861SOL     OW 3481   2.512   0.438   4.385
  861SOL    HW1 3482   2.422   0.399   4.406
  861SOL    HW2 3483   2.578   0.364   4.372
  862SOL     OW 3484   0.195   4.244   5.716
  862SOL    HW1 3485   0.109   4.267   5.764
  862SOL    HW2 3486   0.270   4.295   5.758
  863SOL     OW 3487   0.553   0.497   0.358
  863SOL    HW1 3488   0.493   0.481   0.436
  863SOL    HW2 3489   0.545   0.422   0.293
  864SOL     OW 3490   5.140   4.523   3.936
  864SOL    HW1 3491   5.228   4.482   3.960
  864SOL    HW2 3492   5.073   4.450   3.920
  865SOL     OW 3493   2.149   6.490   5.438
  865SOL    HW1 3494   2.205   6.515   5.359
  865SOL    HW2 3495   2.065   6.448   5.407
  866SOL     OW 3496   1.831   2.898   2.074
  866SOL    HW1 3497   1.905   2.958   2.045
  866SOL    HW2 3498   1.794   2.931   2.161
  867SOL     OW 3499   4.104   2.818   1.005
  867SOL    HW1 3500   4.064   2.909   1.008
  867SOL    HW2 3501   4.040   2.751   1.044
  868SOL     OW 3502   5.990   6.819   1.264
  868SOL    HW1 3503   5.962   6.784   1.175
  868SOL    HW2 3504   5.947   6.908   1.280
  869SOL     OW 3505   6.567   5.424   3.278
  869SOL    HW1 3506   6.598   5.413   3.372
  869SOL    HW2 3507   6.566   5.522   3.254
  870SOL     OW 3508   5.540   3.605   0.449
  870SOL    HW1 3509   5.466   3.605   0.381
  870SOL    HW2 3510   5.501   3.616   0.540
  871SOL     OW 3511   5.397   3.550   2.731
  871SOL    HW1 3512   5.336   3.629   2.733
  871SOL    HW2 3513   5.492   3.582   2.733
  872SOL     OW 3514   5.999   4.240   4.244
  872SOL    HW1 3515   5.911   4.202   4.214
  872SOL    HW2 3516   5.995   4.340   4.240
  873SOL     OW 3517   5.868   6.927   3.764
  873SOL    HW1 3518   5.823   7.000   3.713
  873SOL    HW2 3519   5.920   6.869   3.702
  874SOL     OW 3520   1.181   4.869   4.805
  874SOL    HW1 3521   1.195   4.967   4.821
  874SOL    HW2 3522   1.145   4.856   4.713
  875SOL     OW 3523   4.177   2.864   0.286
  875SOL    HW1 3524   4.205   2.843   0.380
  875SOL    HW2 3525   4.256   2.853   0.225
  876SOL     OW 3526   0.582   6.013   3.560
  876SOL    HW1 3527   0.659   6.003   3.623
  876SOL    HW2 3528   0.502   5.966   3.598
  877SOL     OW 3529   3.225   4.695   1.152
  877SOL    HW1 3530   3.269   4.765   1.095
  877SOL    HW2 3531   3.271   4.691   1.241
  878SOL     OW 3532   4.621   6.418   5.444
  878SOL    HW1 3533   4.663   6.373   5.522
  878SOL    HW2 3534   4.572   6.500   5.475
  879SOL     OW 3535   3.055   2.125   2.101
  879SOL    HW1 3536   3.008   2.037   2.096
  879SOL    HW2 3537   2.989   2.199   2.089
  880SOL     OW 3538   2.847   4.470   6.857
  880SOL    HW1 3539   2.811   4.517   6.937
  880SOL    HW2 3540   2.802   4.505   6.775
  881SOL     OW 3541   4.566   4.685   5.251
  881SOL    HW1 3542   4.627   4.718   5.323
  881SOL    HW2 3543   4.527   4.762   5.202
  882SOL     OW 3544   1.398   1.622   4.249
  882SOL    HW1 3545   1.390   1.543   4.188
  882SOL    HW2 3546   1.341   1.608   4.330
  883SOL     OW 3547   4.928   5.165   5.907
  883SOL    HW1 3548   4.970   5.099   5.845
  883SOL    HW2 3549   4.920   5.254   5.862
  884SOL     OW 3550   6.969   3.315   0.986
  884SOL    HW1 3551   6.967   3.219   0.962
  884SOL    HW2 3552   6.953   3.371   0.905
  885SOL     OW 3553   4.848   6.242   6.712
  885SOL    HW1 3554   4.792   6.313   6.669
  885SOL    HW2 3555   4.878   6.177   6.643
  886SOL     OW 3556   3.355   0.168   0.916
  886SOL    HW1 3557   3.360   0.097   0.846
  886SOL    HW2 3558   3.381   0.130   1.004
  887SOL     OW 3559   4.499   0.071   4.490
  887SOL    HW1 3560   4.493   0.041   4.395
  887SOL    HW2 3561   4.426   0.030   4.544
  888SOL     OW 3562   6.132   6.864   3.076
  888SOL    HW1 3563   6.130   6.769   3.108
  888SOL    HW2 3564   6.155   6.924   3.153
  889SOL     OW 3565   1.458   6.573   5.322
  889SOL    HW1 3566   1.514   6.656   5.314
  889SOL    HW2 3567   1.415   6.553   5.235
  890SOL     OW 3568   2.810   5.043   2.121
  890SOL    HW1 3569   2.719   5.002   2.110
  890SOL    HW2 3570   2.809   5.136   2.084
  891SOL     OW 3571   5.603   3.866   1.695
  891SOL    HW1 3572   5.664   3.788   1.710
  891SOL    HW2 3573   5.656   3.951   1.693
  892SOL     OW 3574   4.123   3.878   0.462
  892SOL    HW1 3575   4.184   3.957   0.463
  892SOL    HW2 3576   4.108   3.846   0.555
  893SOL     OW 3577   2.128   1.024   2.337
  893SOL    HW1 3578   2.160   1.050   2.428
  893SOL    HW2 3579   2.201   1.041   2.270
  894SOL     OW 3580   1.841   2.887   4.336
  894SOL    HW1 3581   1.830   2.884   4.237
  894SOL    HW2 3582   1.933   2.856   4.361
  895SOL     OW 3583   2.085   5.979   4.664
  895SOL    HW1 3584   2.040   6.062   4.632
  895SOL    HW2 3585   2.168   6.005   4.714
  896SOL     OW 3586   5.315   6.969   2.413
  896SOL    HW1 3587   5.291   6.969   2.510
  896SOL    HW2 3588   5.300   0.037   2.374
  897SOL     OW 3589   5.745   0.409   0.153
  897SOL    HW1 3590   5.655   0.436   0.187
  897SOL    HW2 3591   5.791   0.488   0.113
  898SOL     OW 3592   3.954   5.624   2.869
  898SOL    HW1 3593   3.863   5.604   2.905
  898SOL    HW2 3594   3.991   5.704   2.918
  899SOL     OW 3595   0.207   5.040   0.337
  899SOL    HW1 3596   0.185   5.138   0.331
  899SOL    HW2 3597   0.130   4.987   0.301
  900SOL     OW 3598   5.135   6.425   1.427
  900SOL    HW1 3599   5.184   6.449   1.511
  900SOL    HW2 3600   5.176   6.343   1.386
  901SOL     OW 3601   0.777   1.307   5.165
  901SOL    HW1 3602   0.866   1.318   5.209
  901SOL    HW2 3603   0.774   1.363   5.082
  902SOL     OW 3604   6.980   1.848   6.270
  902SOL    HW1 3605   6.933   1.851   6.358
  902SOL    HW2 3606   7.017   1.939   6.248
  903SOL     OW 3607   6.670   3.861   6.686
  903SOL    HW1 3608   6.578   3.895   6.704
  903SOL    HW2 3609   6.737   3.933   6.705
  904SOL     OW 3610   1.386   1.795   4.032
  904SOL    HW1 3611   1.356   1.889   4.049
  904SOL    HW2 3612   1.372   1.740   4.114
  905SOL     OW 3613   4.610   3.072   5.977
  905SOL    HW1 3614   4.627   3.007   6.051
  905SOL    HW2 3615   4.609   3.024   5.889
  906SOL     OW 3616   0.240   3.568   6.801
  906SOL    HW1 3617   0.241   3.526   6.891
  906SOL    HW2 3618   0.199   3.504   6.735
  907SOL     OW 3619   5.762   3.103   3.573
  907SOL    HW1 3620   5.784   3.142   3.483
  907SOL    HW2 3621   5.786   3.168   3.645
  908SOL     OW 3622   2.131   6.753   3.601
  908SOL    HW1 3623   2.069   6.681   3.632
  908SOL    HW2 3624   2.158   6.809   3.680
  909SOL     OW 3625   1.927   6.550   1.242
  909SOL    HW1 3626   1.928   6.499   1.155
  909SOL    HW2 3627   1.841   6.530   1.290
  910SOL     OW 3628   2.463   0.059   0.646
  910SOL    HW1 3629   2.560   0.058   0.669
  910SOL    HW2 3630   2.452   0.045   0.548
  911SOL     OW 3631   6.611   5.977   1.222
  911SOL    HW1 3632   6.580   5.882   1.220
  911SOL    HW2 3633   6.550   6.033   1.165
  912SOL     OW 3634   6.403   1.293   4.791
  912SOL    HW1 3635   6.431   1.306   4.695
  912SOL    HW2 3636   6.329   1.357   4.812
  913SOL     OW 3637   2.600   0.475   3.314
  913SOL    HW1 3638   2.602   0.558   3.257
  913SOL    HW2 3639   2.677   0.417   3.289
  914SOL     OW 3640   2.949   5.528   5.391
  914SOL    HW1 3641   3.005   5.447   5.372
  914SOL    HW2 3642   2.884   5.542   5.316
  915SOL     OW 3643   1.365   3.246   0.531
  915SOL    HW1 3644   1.331   3.328   0.485
  915SOL    HW2 3645   1.456   3.224   0.497
  916SOL     OW 3646   1.416   2.310   2.641
  916SOL    HW1 3647   1.371   2.238   2.695
  916SOL    HW2 3648   1.502   2.275   2.605
  917SOL     OW 3649   5.122   0.453   1.696
  917SOL    HW1 3650   5.147   0.459   1.599
  917SOL    HW2 3651   5.105   0.357   1.720
  918SOL     OW 3652   2.651   5.786   7.002
  918SOL    HW1 3653   2.692   5.859   0.033
  918SOL    HW2 3654   2.636   5.817   6.908
  919SOL     OW 3655   6.869   5.375   2.448
  919SOL    HW1 3656   6.787   5.319   2.462
  919SOL    HW2 3657   6.897   5.416   2.535
  920SOL     OW 3658   1.591   0.003   3.026
  920SOL    HW1 3659   1.618   0.015   3.122
  920SOL    HW2 3660   1.668   0.027   2.967
  921SOL     OW 3661   5.305   4.485   4.406
  921SOL    HW1 3662   5.214   4.514   4.437
  921SOL    HW2 3663   5.318   4.388   4.430
  922SOL     OW 3664   3.262   2.859   6.823
  922SOL    HW1 3665   3.185   2.909   6.862
  922SOL    HW2 3666   3.340   2.921   6.812
  923SOL     OW 3667   3.099   5.070   6.977
  923SOL    HW1 3668   3.072   5.148   0.010
  923SOL    HW2 3669   3.038   4.993   6.996
  924SOL     OW 3670   6.263   3.026   1.945
  924SOL    HW1 3671   6.190   2.957   1.946
  924SOL    HW2 3672   6.343   2.989   1.898
  925SOL     OW 3673   6.366   1.713   5.383
  925SOL    HW1 3674   6.291   1.688   5.444
  925SOL    HW2 3675   6.450   1.726   5.437
  926SOL     OW 3676   5.980   1.380   0.278
  926SOL    HW1 3677   5.957   1.377   0.180
  926SOL    HW2 3678   6.019   1.292   0.305
  927SOL     OW 3679   5.206   4.130   4.032
  927SOL    HW1 3680   5.294   4.150   3.989
  927SOL    HW2 3681   5.167   4.048   3.991
  928SOL     OW 3682   1.858   0.573   0.680
  928SOL    HW1 3683   1.766   0.536   0.666
  928SOL    HW2 3684   1.908   0.572   0.594
  929SOL     OW 3685   0.128   1.732   1.191
  929SOL    HW1 3686   0.038   1.770   1.210
  929SOL    HW2 3687   0.152   1.665   1.262
  930SOL     OW 3688   5.876   5.704   4.871
  930SOL    HW1 3689   5.973   5.723   4.885
  930SOL    HW2 3690   5.861   5.670   4.779
  931SOL     OW 3691   6.573   3.653   3.305
  931SOL    HW1 3692   6.566   3.648   3.405
  931SOL    HW2 3693   6.597   3.747   3.278
  932SOL     OW 3694   1.825   6.776   1.533
  932SOL    HW1 3695   1.742   6.724   1.551
  932SOL    HW2 3696   1.805   6.851   1.470
  933SOL     OW 3697   0.297   5.562   2.420
  933SOL    HW1 3698   0.275   5.566   2.518
  933SOL    HW2 3699   0.393   5.584   2.407
  934SOL     OW 3700   2.091   0.762   4.451
  934SOL    HW1 3701   2.066   0.735   4.358
  934SOL    HW2 3702   2.009   0.765   4.508
  935SOL     OW 3703   5.039   4.052   5.194
  935SOL    HW1 3704   5.065   4.094   5.107
  935SOL    HW2 3705   5.015   3.956   5.180
  936SOL     OW 3706   1.281   0.958   6.072
  936SOL    HW1 3707   1.208   0.989   6.011
  936SOL    HW2 3708   1.242   0.919   6.155
  937SOL     OW 3709   4.919   1.945   5.224
  937SOL    HW1 3710   4.962   1.901   5.302
  937SOL    HW2 3711   4.916   1.881   5.147
  938SOL     OW 3712   0.204   5.172   6.302
  938SOL    HW1 3713   0.238   5.205   6.390
  938SOL    HW2 3714   0.251   5.220   6.228
  939SOL     OW 3715   5.003   1.590   5.008
  939SOL    HW1 3716   4.956   1.533   4.940
  939SOL    HW2 3717   4.974   1.562   5.099
  940SOL     OW 3718   0.261   3.201   3.014
  940SOL    HW1 3719   0.259   3.111   2.971
  940SOL    HW2 3720   0.344   3.210   3.069
  941SOL     OW 3721   6.515   0.590   4.357
  941SOL    HW1 3722   6.547   0.503   4.322
  941SOL    HW2 3723   6.568   0.614   4.439
  942SOL     OW 3724   5.332   0.729   3.783
  942SOL    HW1 3725   5.372   0.637   3.790
  942SOL    HW2 3726   5.406   0.797   3.787
  943SOL     OW 3727   1.131   3.246   3.570
  943SOL    HW1 3728   1.153   3.236   3.667
  943SOL    HW2 3729   1.206   3.208   3.515
  944SOL     OW 3730   5.855   3.217   6.254
  944SOL    HW1 3731   5.827   3.305   6.216
  944SOL    HW2 3732   5.950   3.199   6.229
  945SOL     OW 3733   6.622   4.228   5.891
  945SOL    HW1 3734   6.637   4.295   5.964
  945SOL    HW2 3735   6.672   4.144   5.912
  946SOL     OW 3736   4.998   2.734   6.037
  946SOL    HW1 3737   5.068   2.772   5.976
  946SOL    HW2 3738   5.014   2.637   6.050
  947SOL     OW 3739   3.115   3.098   4.896
  947SOL    HW1 3740   3.154   3.160   4.964
  947SOL    HW2 3741   3.170   3.015   4.892
  948SOL     OW 3742   4.353   0.807   0.849
  948SOL    HW1 3743   4.391   0.836   0.937
  948SOL    HW2 3744   4.415   0.740   0.807
  949SOL     OW 3745   0.106   6.277   6.466
  949SOL    HW1 3746   0.118   6.208   6.395
  949SOL    HW2 3747   0.102   6.368   6.424
  950SOL     OW 3748   4.261   5.259   2.188
  950SOL    HW1 3749   4.172   5.296   2.160
  950SOL    HW2 3750   4.319   5.247   2.107
  951SOL     OW 3751   1.831   0.402   2.333
  951SOL    HW1 3752   1.741   0.382   2.371
  951SOL    HW2 3753   1.844   0.352   2.248
  952SOL     OW 3754   5.675   1.281   2.049
  952SOL    HW1 3755   5.605   1.262   2.118
  952SOL    HW2 3756   5.722   1.197   2.024
  953SOL     OW 3757   5.273   5.552   5.342
  953SOL    HW1 3758   5.216   5.501   5.406
  953SOL    HW2 3759   5.246   5.648   5.342
  954SOL     OW 3760   5.121   6.199   0.630
  954SOL    HW1 3761   5.198   6.234   0.683
  954SOL    HW2 3762   5.149   6.188   0.534
  955SOL     OW 3763   0.152   4.970   3.178
  955SOL    HW1 3764   0.147   4.876   3.145
  955SOL    HW2 3765   0.112   4.974   3.270
  956SOL     OW 3766   0.734   2.164   2.442
  956SOL    HW1 3767   0.698   2.072   2.427
  956SOL    HW2 3768   0.768   2.171   2.536
  957SOL     OW 3769   1.224   4.860   4.371
  957SOL    HW1 3770   1.306   4.804   4.368
  957SOL    HW2 3771   1.156   4.816   4.430
  958SOL     OW 3772   4.541   2.401   1.906
  958SOL    HW1 3773   4.470   2.425   1.839
  958SOL    HW2 3774   4.600   2.329   1.868
  959SOL     OW 3775   2.502   4.820   3.123
  959SOL    HW1 3776   2.464   4.846   3.212
  959SOL    HW2 3777   2.531   4.725   3.125
  960SOL     OW 3778   0.054   5.978   3.875
  960SOL    HW1 3779   7.008   5.974   3.801
  960SOL    HW2 3780   0.089   6.071   3.883
  961SOL     OW 3781   4.908   6.934   3.150
  961SOL    HW1 3782   4.931   6.925   3.247
  961SOL    HW2 3783   4.911   6.843   3.107
  962SOL     OW 3784   1.648   1.272   4.367
  962SOL    HW1 3785   1.565   1.224   4.339
  962SOL    HW2 3786   1.656   1.358   4.316
  963SOL     OW 3787   6.333   0.964   5.917
  963SOL    HW1 3788   6.397   0.933   5.847
  963SOL    HW2 3789   6.273   0.888   5.942
  964SOL     OW 3790   6.667   3.516   0.415
  964SOL    HW1 3791   6.616   3.602   0.421
  964SOL    HW2 3792   6.742   3.526   0.350
  965SOL     OW 3793   5.784   1.800   1.184
  965SOL    HW1 3794   5.692   1.839   1.181
  965SOL    HW2 3795   5.847   1.858   1.133
  966SOL     OW 3796   5.754   1.319   2.598
  966SOL    HW1 3797   5.689   1.384   2.637
  966SOL    HW2 3798   5.769   1.341   2.501
  967SOL     OW 3799   2.350   5.356   1.485
  967SOL    HW1 3800   2.270   5.363   1.545
  967SOL    HW2 3801   2.342   5.274   1.428
  968SOL     OW 3802   4.574   2.593   2.309
  968SOL    HW1 3803   4.577   2.651   2.228
  968SOL    HW2 3804   4.617   2.640   2.386
  969SOL     OW 3805   4.585   6.031   6.488
  969SOL    HW1 3806   4.514   6.046   6.557
  969SOL    HW2 3807   4.630   6.118   6.467
  970SOL     OW 3808   4.779   1.083   5.154
  970SOL    HW1 3809   4.868   1.128   5.147
  970SOL    HW2 3810   4.793   0.986   5.173
  971SOL     OW 3811   0.226   1.868   3.169
  971SOL    HW1 3812   0.179   1.905   3.249
  971SOL    HW2 3813   0.304   1.926   3.145
  972SOL     OW 3814   5.917   3.906   1.178
  972SOL    HW1 3815   5.895   3.898   1.080
  972SOL    HW2 3816   5.872   3.832   1.228
  973SOL     OW 3817   6.801   4.197   0.364
  973SOL    HW1 3818   6.720   4.159   0.321
  973SOL    HW2 3819   6.865   4.124   0.386
  974SOL     OW 3820   4.300   0.314   2.553
  974SOL    HW1 3821   4.238   0.386   2.522
  974SOL    HW2 3822   4.249   0.244   2.602
  975SOL     OW 3823   2.238   5.680   6.121
  975SOL    HW1 3824   2.201   5.648   6.034
  975SOL    HW2 3825   2.260   5.602   6.179
  976SOL     OW 3826   6.263   2.939   2.477
  976SOL    HW1 3827   6.308   2.946   2.388
  976SOL    HW2 3828   6.170   2.977   2.470
  977SOL     OW 3829   2.376   0.812   4.012
  977SOL    HW1 3830   2.441   0.773   3.947
  977SOL    HW2 3831   2.402   0.786   4.105
  978SOL     OW 3832   4.382   4.258   5.571
  978SOL    HW1 3833   4.354   4.182   5.513
  978SOL    HW2 3834   4.363   4.236   5.667
  979SOL     OW 3835   6.813   2.090   1.728
  979SOL    HW1 3836   6.727   2.140   1.724
  979SOL    HW2 3837   6.853   2.085   1.636
  980SOL     OW 3838   4.716   1.930   4.142
  980SOL    HW1 3839   4.626   1.888   4.131
  980SOL    HW2 3840   4.783   1.858   4.162
  981SOL     OW 3841   1.589   1.665   4.888
  981SOL    HW1 3842   1.503   1.658   4.838
  981SOL    HW2 3843   1.612   1.575   4.928
  982SOL     OW 3844   2.470   1.984   3.301
  982SOL    HW1 3845   2.443   2.023   3.389
  982SOL    HW2 3846   2.447   1.886   3.299
  983SOL     OW 3847   5.539   2.408   3.609
  983SOL    HW1 3848   5.575   2.445   3.524
  983SOL    HW2 3849   5.487   2.479   3.656
  984SOL     OW 3850   3.168   1.185   3.819
  984SOL    HW1 3851   3.247   1.153   3.872
  984SOL    HW2 3852   3.198   1.256   3.755
  985SOL     OW 3853   5.139   5.196   6.716
  985SOL    HW1 3854   5.182   5.232   6.798
  985SOL    HW2 3855   5.198   5.126   6.675
  986SOL     OW 3856   5.172   4.822   0.003
  986SOL    HW1 3857   5.145   4.817   0.099
  986SOL    HW2 3858   5.165   4.732   6.984
  987SOL     OW 3859   4.284   6.282   1.182
  987SOL    HW1 3860   4.281   6.205   1.245
  987SOL    HW2 3861   4.197   6.331   1.185
  988SOL     OW 3862   3.527   3.118   1.715
  988SOL    HW1 3863   3.522   3.058   1.795
  988SOL    HW2 3864   3.568   3.068   1.639
  989SOL     OW 3865   6.708   1.035   5.863
  989SOL    HW1 3866   6.655   0.953   5.841
  989SOL    HW2 3867   6.762   1.019   5.945
  990SOL     OW 3868   4.414   0.779   2.135
  990SOL    HW1 3869   4.489   0.801   2.073
  990SOL    HW2 3870   4.430   0.822   2.224
  991SOL     OW 3871   1.935   2.658   5.403
  991SOL    HW1 3872   1.999   2.630   5.331
  991SOL    HW2 3873   1.860   2.710   5.363
  992SOL     OW 3874   0.972   3.642   0.871
  992SOL    HW1 3875   1.007   3.564   0.819
  992SOL    HW2 3876   1.046   3.705   0.892
  993SOL     OW 3877   1.281   4.867   2.424
  993SOL    HW1 3878   1.325   4.822   2.502
  993SOL    HW2 3879   1.336   4.944   2.394
  994SOL     OW 3880   3.197   3.434   2.675
  994SOL    HW1 3881   3.280   3.447   2.730
  994SOL    HW2 3882   3.222   3.430   2.578
  995SOL     OW 3883   2.900   2.686   6.007
  995SOL    HW1 3884   2.937   2.605   6.054
  995SOL    HW2 3885   2.958   2.708   5.929
  996SOL     OW 3886   2.055   4.644   4.896
  996SOL    HW1 3887   2.127   4.676   4.833
  996SOL    HW2 3888   1.968   4.641   4.848
  997SOL     OW 3889   0.007   0.542   2.275
  997SOL    HW1 3890   0.015   0.639   2.295
  997SOL    HW2 3891   0.048   0.522   2.186
  998SOL     OW 3892   4.743   6.497   4.032
  998SOL    HW1 3893   4.745   6.526   3.937
  998SOL    HW2 3894   4.750   6.397   4.037
  999SOL     OW 3895   5.723   5.047   1.964
  999SOL    HW1 3896   5.748   5.136   2.000
  999SOL    HW2 3897   5.646   5.010   2.017
 1000SOL     OW 3898   1.458   0.869   2.181
 1000SOL    HW1 3899   1.555   0.874   2.161
 1000SOL    HW2 3900   1.412   0.951   2.145
 1001SOL     OW 3901   5.953   6.733   0.628
 1001SOL    HW1 3902   5.949   6.720   0.727
 1001SOL    HW2 3903   5.979   6.647   0.584
 1002SOL     OW 3904   6.012   2.184   6.906
 1002SOL    HW1 3905   5.963   2.114   6.956
 1002SOL    HW2 3906   6.065   2.142   6.832
 1003SOL     OW 3907   2.180   6.399   1.799
 1003SOL    HW1 3908   2.240   6.448   1.735
 1003SOL    HW2 3909   2.193   6.300   1.786
 1004SOL     OW 3910   0.257   0.567   1.177
 1004SOL    HW1 3911   0.356   0.573   1.168
 1004SOL    HW2 3912   0.232   0.578   1.274
 1005SOL     OW 3913   0.584   1.416   2.776
 1005SOL    HW1 3914   0.533   1.448   2.696
 1005SOL    HW2 3915   0.589   1.490   2.843
 1006SOL     OW 3916   1.182   5.523   1.252
 1006SOL    HW1 3917   1.210   5.618   1.239
 1006SOL    HW2 3918   1.099   5.519   1.308
 1007SOL     OW 3919   5.547   0.116   4.324
 1007SOL    HW1 3920   5.556   0.022   4.355
 1007SOL    HW2 3921   5.544   0.177   4.403
 1008SOL     OW 3922   2.320   3.210   5.295
 1008SOL    HW1 3923   2.258   3.231   5.219
 1008SOL    HW2 3924   2.388   3.143   5.265
 1009SOL     OW 3925   0.455   6.258   4.619
 1009SOL    HW1 3926   0.549   6.247   4.653
 1009SOL    HW2 3927   0.396   6.190   4.662
 1010SOL     OW 3928   3.552   2.269   6.556
 1010SOL    HW1 3929   3.489   2.192   6.566
 1010SOL    HW2 3930   3.580   2.278   6.460
 1011SOL     OW 3931   2.685   5.421   2.479
 1011SOL    HW1 3932   2.715   5.488   2.412
 1011SOL    HW2 3933   2.621   5.357   2.436
 1012SOL     OW 3934   6.680   0.228   0.105
 1012SOL    HW1 3935   6.780   0.223   0.111
 1012SOL    HW2 3936   6.641   0.241   0.196
 1013SOL     OW 3937   0.603   1.083   5.983
 1013SOL    HW1 3938   0.576   1.172   6.020
 1013SOL    HW2 3939   0.536   1.053   5.916
 1014SOL     OW 3940   4.910   5.707   6.792
 1014SOL    HW1 3941   4.885   5.767   6.716
 1014SOL    HW2 3942   4.967   5.633   6.757
 1015SOL     OW 3943   2.392   6.601   5.558
 1015SOL    HW1 3944   2.304   6.559   5.536
 1015SOL    HW2 3945   2.440   6.546   5.626
 1016SOL     OW 3946   3.263   3.241   0.379
 1016SOL    HW1 3947   3.170   3.215   0.407
 1016SOL    HW2 3948   3.313   3.275   0.459
 1017SOL     OW 3949   4.826   2.575   0.989
 1017SOL    HW1 3950   4.735   2.602   1.020
 1017SOL    HW2 3951   4.894   2.605   1.056
 1018SOL     OW 3952   1.422   3.392   4.131
 1018SOL    HW1 3953   1.349   3.417   4.067
 1018SOL    HW2 3954   1.388   3.402   4.225
 1019SOL     OW 3955   0.629   0.752   6.833
 1019SOL    HW1 3956   0.611   0.721   6.740
 1019SOL    HW2 3957   0.545   0.751   6.886
 1020SOL     OW 3958   1.060   6.373   1.291
 1020SOL    HW1 3959   1.049   6.471   1.271
 1020SOL    HW2 3960   1.066   6.322   1.205
 1021SOL     OW 3961   5.646   1.288   1.315
 1021SOL    HW1 3962   5.680   1.354   1.382
 1021SOL    HW2 3963   5.705   1.289   1.235
 1022SOL     OW 3964   3.970   4.388   6.150
 1022SOL    HW1 3965   4.015   4.392   6.061
 1022SOL    HW2 3966   3.871   4.399   6.138
 1023SOL     OW 3967   0.240   7.016   1.933
 1023SOL    HW1 3968   0.317   6.952   1.931
 1023SOL    HW2 3969   0.155   6.966   1.915
 1024SOL     OW 3970   5.947   3.743   4.122
 1024SOL    HW1 3971   5.969   3.782   4.211
 1024SOL    HW2 3972   5.872   3.677   4.132
 1025SOL     OW 3973   3.354   3.545   0.265
 1025SOL    HW1 3974   3.326   3.456   0.299
 1025SOL    HW2 3975   3.279   3.610   0.277
 1026SOL     OW 3976   2.203   2.303   1.468
 1026SOL    HW1 3977   2.193   2.402   1.457
 1026SOL    HW2 3978   2.154   2.257   1.394
 1027SOL     OW 3979   2.855   5.783   0.875
 1027SOL    HW1 3980   2.937   5.824   0.915
 1027SOL    HW2 3981   2.881   5.717   0.805
 1028SOL     OW 3982   3.990   5.932   0.081
 1028SOL    HW1 3983   4.077   5.946   0.033
 1028SOL    HW2 3984   3.930   6.010   0.064
 1029SOL     OW 3985   1.351   0.631   6.804
 1029SOL    HW1 3986   1.255   0.647   6.778
 1029SOL    HW2 3987   1.364   0.660   6.899
 1030SOL     OW 3988   3.687   3.858   1.625
 1030SOL    HW1 3989   3.673   3.957   1.619
 1030SOL    HW2 3990   3.607   3.811   1.588
 1031SOL     OW 3991   5.470   5.469   0.845
 1031SOL    HW1 3992   5.569   5.470   0.857
 1031SOL    HW2 3993   5.426   5.453   0.934
 1032SOL     OW 3994   1.702   1.714   4.583
 1032SOL    HW1 3995   1.759   1.710   4.665
 1032SOL    HW2 3996   1.713   1.803   4.539
 1033SOL     OW 3997   1.699   6.432   0.800
 1033SOL    HW1 3998   1.750   6.504   0.753
 1033SOL    HW2 3999   1.712   6.345   0.753
 1034SOL     OW 4000   1.279   6.012   5.261
 1034SOL    HW1 4001   1.231   6.092   5.297
 1034SOL    HW2 4002   1.372   6.010   5.297
 1035SOL     OW 4003   1.872   0.693   4.015
 1035SOL    HW1 4004   1.954   0.706   4.070
 1035SOL    HW2 4005   1.893   0.634   3.937
 1036SOL     OW 4006   2.804   0.661   1.918
 1036SOL    HW1 4007   2.875   0.627   1.980
 1036SOL    HW2 4008   2.846   0.696   1.835
 1037SOL     OW 4009   1.873   0.458   1.113
 1037SOL    HW1 4010   1.942   0.441   1.042
 1037SOL    HW2 4011   1.901   0.412   1.197
 1038SOL     OW 4012   0.846   1.261   5.477
 1038SOL    HW1 4013   0.934   1.238   5.435
 1038SOL    HW2 4014   0.793   1.177   5.490
 1039SOL     OW 4015   3.330   3.075   5.813
 1039SOL    HW1 4016   3.428   3.094   5.818
 1039SOL    HW2 4017   3.294   3.106   5.725
 1040SOL     OW 4018   4.951   2.799   2.648
 1040SOL    HW1 4019   4.920   2.878   2.595
 1040SOL    HW2 4020   4.986   2.830   2.736
 1041SOL     OW 4021   6.537   6.721   4.281
 1041SOL    HW1 4022   6.477   6.671   4.218
 1041SOL    HW2 4023   6.622   6.746   4.234
 1042SOL     OW 4024   3.851   4.848   2.107
 1042SOL    HW1 4025   3.925   4.804   2.056
 1042SOL    HW2 4026   3.763   4.824   2.066
 1043SOL     OW 4027   4.263   1.485   5.206
 1043SOL    HW1 4028   4.282   1.546   5.282
 1043SOL    HW2 4029   4.284   1.391   5.233
 1044SOL     OW 4030   4.783   4.213   1.917
 1044SOL    HW1 4031   4.860   4.175   1.968
 1044SOL    HW2 4032   4.722   4.261   1.980
 1045SOL     OW 4033   2.874   6.267   2.637
 1045SOL    HW1 4034   2.865   6.178   2.593
 1045SOL    HW2 4035   2.797   6.281   2.700
 1046SOL     OW 4036   1.795   6.484   0.307
 1046SOL    HW1 4037   1.870   6.448   0.362
 1046SOL    HW2 4038   1.758   6.566   0.351
 1047SOL     OW 4039   1.275   6.375   2.422
 1047SOL    HW1 4040   1.352   6.431   2.391
 1047SOL    HW2 4041   1.189   6.421   2.400
 1048SOL     OW 4042   4.897   5.731   5.649
 1048SOL    HW1 4043   4.887   5.816   5.700
 1048SOL    HW2 4044   4.808   5.685   5.643
 1049SOL     OW 4045   6.662   4.826   4.500
 1049SOL    HW1 4046   6.648   4.752   4.434
 1049SOL    HW2 4047   6.611   4.807   4.584
 1050SOL     OW 4048   3.131   5.207   0.471
 1050SOL    HW1 4049   3.122   5.118   0.517
 1050SOL    HW2 4050   3.049   5.226   0.417
 1051SOL     OW 4051   3.159   5.223   1.013
 1051SOL    HW1 4052   3.231   5.162   0.979
 1051SOL    HW2 4053   3.094   5.243   0.940
 1052SOL     OW 4054   4.084   6.999   4.237
 1052SOL    HW1 4055   4.123   0.055   4.285
 1052SOL    HW2 4056   4.133   6.916   4.264
 1053SOL     OW 4057   5.284   5.350   3.138
 1053SOL    HW1 4058   5.267   5.336   3.236
 1053SOL    HW2 4059   5.197   5.365   3.091
 1054SOL     OW 4060   2.641   4.226   5.952
 1054SOL    HW1 4061   2.688   4.141   5.975
 1054SOL    HW2 4062   2.642   4.238   5.852
 1055SOL     OW 4063   6.136   6.649   4.314
 1055SOL    HW1 4064   6.048   6.664   4.358
 1055SOL    HW2 4065   6.168   6.557   4.334
 1056SOL     OW 4066   1.696   5.586   5.798
 1056SOL    HW1 4067   1.668   5.492   5.781
 1056SOL    HW2 4068   1.753   5.618   5.721
 1057SOL     OW 4069   3.708   3.556   2.829
 1057SOL    HW1 4070   3.742   3.648   2.849
 1057SOL    HW2 4071   3.724   3.535   2.732
 1058SOL     OW 4072   5.013   0.947   2.039
 1058SOL    HW1 4073   5.086   0.906   2.093
 1058SOL    HW2 4074   5.037   0.945   1.942
 1059SOL     OW 4075   2.300   0.250   0.776
 1059SOL    HW1 4076   2.362   0.178   0.747
 1059SOL    HW2 4077   2.293   0.321   0.706
 1060SOL     OW 4078   0.362   3.618   4.498
 1060SOL    HW1 4079   0.401   3.682   4.564
 1060SOL    HW2 4080   0.420   3.537   4.491
 1061SOL     OW 4081   5.100   3.789   1.747
 1061SOL    HW1 4082   5.080   3.878   1.790
 1061SOL    HW2 4083   5.107   3.719   1.817
 1062SOL     OW 4084   6.188   4.958   5.265
 1062SOL    HW1 4085   6.111   4.952   5.201
 1062SOL    HW2 4086   6.194   5.052   5.299
 1063SOL     OW 4087   1.224   4.409   1.586
 1063SOL    HW1 4088   1.261   4.447   1.502
 1063SOL    HW2 4089   1.171   4.327   1.566
 1064SOL     OW 4090   1.426   4.188   2.112
 1064SOL    HW1 4091   1.344   4.221   2.158
 1064SOL    HW2 4092   1.401   4.128   2.036
 1065SOL     OW 4093   4.404   0.815   4.465
 1065SOL    HW1 4094   4.311   0.805   4.501
 1065SOL    HW2 4095   4.462   0.860   4.532
 1066SOL     OW 4096   5.117   0.817   4.192
 1066SOL    HW1 4097   5.157   0.899   4.233
 1066SOL    HW2 4098   5.033   0.841   4.143
 1067SOL     OW 4099   1.264   3.228   6.996
 1067SOL    HW1 4100   1.280   3.129   7.006
 1067SOL    HW2 4101   1.188   3.255   0.033
 1068SOL     OW 4102   4.905   4.740   2.411
 1068SOL    HW1 4103   4.911   4.729   2.510
 1068SOL    HW2 4104   4.886   4.836   2.389
 1069SOL     OW 4105   5.200   4.901   0.971
 1069SOL    HW1 4106   5.164   4.808   0.965
 1069SOL    HW2 4107   5.264   4.907   1.048
 1070SOL     OW 4108   1.426   1.060   1.031
 1070SOL    HW1 4109   1.514   1.103   1.006
 1070SOL    HW2 4110   1.353   1.100   0.976
 1071SOL     OW 4111   3.112   6.712   3.828
 1071SOL    HW1 4112   3.193   6.699   3.770
 1071SOL    HW2 4113   3.055   6.630   3.824
 1072SOL     OW 4114   1.855   5.919   0.881
 1072SOL    HW1 4115   1.918   5.934   0.805
 1072SOL    HW2 4116   1.864   5.995   0.946
 1073SOL     OW 4117   3.534   6.392   2.793
 1073SOL    HW1 4118   3.436   6.412   2.785
 1073SOL    HW2 4119   3.557   6.314   2.735
 1074SOL     OW 4120   2.348   5.260   0.929
 1074SOL    HW1 4121   2.318   5.253   0.834
 1074SOL    HW2 4122   2.321   5.178   0.979
 1075SOL     OW 4123   4.963   5.901   3.707
 1075SOL    HW1 4124   4.865   5.885   3.712
 1075SOL    HW2 4125   5.012   5.815   3.720
 1076SOL     OW 4126   0.479   4.940   5.280
 1076SOL    HW1 4127   0.447   4.863   5.226
 1076SOL    HW2 4128   0.569   4.970   5.246
 1077SOL     OW 4129   6.048   0.060   0.396
 1077SOL    HW1 4130   6.086   0.149   0.419
 1077SOL    HW2 4131   5.963   0.072   0.344
 1078SOL     OW 4132   1.811   0.941   2.928
 1078SOL    HW1 4133   1.780   0.981   2.842
 1078SOL    HW2 4134   1.732   0.910   2.980
 1079SOL     OW 4135   1.595   5.771   2.335
 1079SOL    HW1 4136   1.667   5.704   2.314
 1079SOL    HW2 4137   1.636   5.862   2.346
 1080SOL     OW 4138   2.029   4.902   3.543
 1080SOL    HW1 4139   1.961   4.965   3.581
 1080SOL    HW2 4140   2.102   4.889   3.609
 1081SOL     OW 4141   0.200   6.676   5.906
 1081SOL    HW1 4142   0.274   6.678   5.839
 1081SOL    HW2 4143   0.112   6.682   5.860
 1082SOL     OW 4144   3.011   1.160   5.788
 1082SOL    HW1 4145   3.108   1.146   5.807
 1082SOL    HW2 4146   2.980   1.244   5.833
 1083SOL     OW 4147   4.150   3.942   1.155
 1083SOL    HW1 4148   4.116   3.994   1.233
 1083SOL    HW2 4149   4.112   3.850   1.157
 1084SOL     OW 4150   6.523   6.320   0.545
 1084SOL    HW1 4151   6.534   6.378   0.464
 1084SOL    HW2 4152   6.452   6.358   0.604
 1085SOL     OW 4153   1.577   4.218   3.515
 1085SOL    HW1 4154   1.632   4.297   3.489
 1085SOL    HW2 4155   1.546   4.170   3.432
 1086SOL     OW 4156   6.580   5.407   2.583
 1086SOL    HW1 4157   6.573   5.373   2.489
 1086SOL    HW2 4158   6.606   5.503   2.582
 1087SOL     OW 4159   6.020   2.629   5.923
 1087SOL    HW1 4160   6.042   2.702   5.859
 1087SOL    HW2 4161   5.920   2.620   5.930
 1088SOL     OW 4162   5.852   4.483   3.428
 1088SOL    HW1 4163   5.927   4.494   3.363
 1088SOL    HW2 4164   5.791   4.410   3.396
 1089SOL     OW 4165   1.586   0.341   4.453
 1089SOL    HW1 4166   1.665   0.353   4.394
 1089SOL    HW2 4167   1.546   0.251   4.438
 1090SOL     OW 4168   2.329   1.690   3.288
 1090SOL    HW1 4169   2.354   1.616   3.350
 1090SOL    HW2 4170   2.336   1.658   3.193
 1091SOL     OW 4171   1.946   3.049   5.121
 1091SOL    HW1 4172   1.983   2.984   5.187
 1091SOL    HW2 4173   1.888   3.001   5.055
 1092SOL     OW 4174   2.224   3.310   0.896
 1092SOL    HW1 4175   2.323   3.316   0.909
 1092SOL    HW2 4176   2.179   3.380   0.953
 1093SOL     OW 4177   1.912   1.963   2.673
 1093SOL    HW1 4178   1.920   2.011   2.760
 1093SOL    HW2 4179   2.000   1.967   2.625
 1094SOL     OW 4180   1.069   6.394   2.922
 1094SOL    HW1 4181   0.989   6.375   2.980
 1094SOL    HW2 4182   1.147   6.417   2.980
 1095SOL     OW 4183   6.898   2.279   5.485
 1095SOL    HW1 4184   6.895   2.369   5.528
 1095SOL    HW2 4185   6.987   2.267   5.440
 1096SOL     OW 4186   3.619   4.427   1.680
 1096SOL    HW1 4187   3.628   4.507   1.740
 1096SOL    HW2 4188   3.532   4.380   1.699
 1097SOL     OW 4189   1.500   4.387   3.894
 1097SOL    HW1 4190   1.551   4.307   3.861
 1097SOL    HW2 4191   1.544   4.423   3.976
 1098SOL     OW 4192   5.174   3.031   0.554
 1098SOL    HW1 4193   5.205   2.965   0.623
 1098SOL    HW2 4194   5.122   2.983   0.484
 1099SOL     OW 4195   4.054   1.398   4.898
 1099SOL    HW1 4196   4.041   1.476   4.837
 1099SOL    HW2 4197   3.997   1.410   4.979
 1100SOL     OW 4198   2.758   2.008   0.078
 1100SOL    HW1 4199   2.705   2.003   7.016
 1100SOL    HW2 4200   2.734   2.091   0.128
 1101SOL     OW 4201   5.737   2.348   0.841
 1101SOL    HW1 4202   5.763   2.443   0.859
 1101SOL    HW2 4203   5.771   2.320   0.751
 1102SOL     OW 4204   0.971   5.367   3.485
 1102SOL    HW1 4205   1.032   5.427   3.434
 1102SOL    HW2 4206   1.005   5.357   3.579
 1103SOL     OW 4207   2.888   1.634   0.852
 1103SOL    HW1 4208   2.858   1.654   0.758
 1103SOL    HW2 4209   2.869   1.539   0.874
 1104SOL     OW 4210   2.405   3.138   6.193
 1104SOL    HW1 4211   2.403   3.135   6.093
 1104SOL    HW2 4212   2.313   3.122   6.229
 1105SOL     OW 4213   5.556   3.645   4.773
 1105SOL    HW1 4214   5.539   3.552   4.806
 1105SOL    HW2 4215   5.653   3.653   4.748
 1106SOL     OW 4216   0.761   1.607   0.322
 1106SOL    HW1 4217   0.673   1.566   0.346
 1106SOL    HW2 4218   0.794   1.662   0.398
 1107SOL     OW 4219   0.933   0.512   6.361
 1107SOL    HW1 4220   0.877   0.471   6.289
 1107SOL    HW2 4221   0.922   0.611   6.359
 1108SOL     OW 4222   2.765   0.568   5.906
 1108SOL    HW1 4223   2.828   0.642   5.883
 1108SOL    HW2 4224   2.680   0.580   5.855
 1109SOL     OW 4225   4.349   6.063   4.778
 1109SOL    HW1 4226   4.336   5.966   4.758
 1109SOL    HW2 4227   4.269   6.099   4.825
 1110SOL     OW 4228   2.916   1.671   2.596
 1110SOL    HW1 4229   2.963   1.683   2.683
 1110SOL    HW2 4230   2.927   1.577   2.565
 1111SOL     OW 4231   5.276   5.725   0.297
 1111SOL    HW1 4232   5.361   5.738   0.245
 1111SOL    HW2 4233   5.202   5.702   0.234
 1112SOL     OW 4234   5.983   1.296   2.754
 1112SOL    HW1 4235   5.897   1.322   2.709
 1112SOL    HW2 4236   6.052   1.275   2.685
 1113SOL     OW 4237   0.082   3.645   2.427
 1113SOL    HW1 4238   0.090   3.721   2.362
 1113SOL    HW2 4239   0.168   3.638   2.479
 1114SOL     OW 4240   4.363   0.844   6.579
 1114SOL    HW1 4241   4.462   0.852   6.574
 1114SOL    HW2 4242   4.321   0.934   6.567
 1115SOL     OW 4243   4.402   2.902   7.002
 1115SOL    HW1 4244   4.426   2.839   0.053
 1115SOL    HW2 4245   4.317   2.872   6.959
 1116SOL     OW 4246   5.509   5.576   4.948
 1116SOL    HW1 4247   5.472   5.655   4.900
 1116SOL    HW2 4248   5.489   5.493   4.896
 1117SOL     OW 4249   2.022   2.951   1.647
 1117SOL    HW1 4250   2.077   2.888   1.593
 1117SOL    HW2 4251   1.977   2.901   1.721
 1118SOL     OW 4252   2.193   4.397   1.419
 1118SOL    HW1 4253   2.191   4.491   1.384
 1118SOL    HW2 4254   2.108   4.378   1.467
 1119SOL     OW 4255   4.064   4.099   1.642
 1119SOL    HW1 4256   4.052   4.125   1.546
 1119SOL    HW2 4257   4.117   4.170   1.690
 1120SOL     OW 4258   5.327   6.452   5.007
 1120SOL    HW1 4259   5.291   6.545   5.016
 1120SOL    HW2 4260   5.252   6.386   5.015
 1121SOL     OW 4261   5.184   4.139   2.169
 1121SOL    HW1 4262   5.175   4.160   2.072
 1121SOL    HW2 4263   5.269   4.179   2.204
 1122SOL     OW 4264   4.940   3.713   5.741
 1122SOL    HW1 4265   4.862   3.677   5.792
 1122SOL    HW2 4266   5.021   3.710   5.799
 1123SOL     OW 4267   5.545   1.472   2.707
 1123SOL    HW1 4268   5.554   1.566   2.742
 1123SOL    HW2 4269   5.462   1.430   2.746
 1124SOL     OW 4270   5.886   4.377   5.458
 1124SOL    HW1 4271   5.814   4.379   5.389
 1124SOL    HW2 4272   5.949   4.302   5.439
 1125SOL     OW 4273   2.727   1.807   4.556
 1125SOL    HW1 4274   2.694   1.740   4.622
 1125SOL    HW2 4275   2.824   1.826   4.573
 1126SOL     OW 4276   5.490   6.666   0.797
 1126SOL    HW1 4277   5.455   6.639   0.707
 1126SOL    HW2 4278   5.415   6.670   0.862
 1127SOL     OW 4279   4.808   5.714   5.149
 1127SOL    HW1 4280   4.893   5.662   5.149
 1127SOL    HW2 4281   4.734   5.658   5.113
 1128SOL     OW 4282   5.089   2.383   5.438
 1128SOL    HW1 4283   5.003   2.435   5.429
 1128SOL    HW2 4284   5.153   2.435   5.494
 1129SOL     OW 4285   3.539   0.170   6.618
 1129SOL    HW1 4286   3.591   0.235   6.563
 1129SOL    HW2 4287   3.568   0.176   6.713
 1130SOL     OW 4288   1.597   4.393   1.459
 1130SOL    HW1 4289   1.537   4.470   1.434
 1130SOL    HW2 4290   1.540   4.316   1.487
 1131SOL     OW 4291   0.432   6.188   5.947
 1131SOL    HW1 4292   0.360   6.126   5.915
 1131SOL    HW2 4293   0.516   6.172   5.895
 1132SOL     OW 4294   5.124   0.360   0.025
 1132SOL    HW1 4295   5.100   0.403   6.961
 1132SOL    HW2 4296   5.090   0.416   0.101
 1133SOL     OW 4297   0.361   1.104   0.794
 1133SOL    HW1 4298   0.292   1.145   0.854
 1133SOL    HW2 4299   0.317   1.052   0.722
 1134SOL     OW 4300   5.060   1.856   0.995
 1134SOL    HW1 4301   4.999   1.905   0.932
 1134SOL    HW2 4302   5.007   1.793   1.051
 1135SOL     OW 4303   2.875   1.425   2.519
 1135SOL    HW1 4304   2.812   1.368   2.571
 1135SOL    HW2 4305   2.887   1.386   2.428
 1136SOL     OW 4306   3.599   5.332   5.021
 1136SOL    HW1 4307   3.669   5.347   4.951
 1136SOL    HW2 4308   3.557   5.242   5.009
 1137SOL     OW 4309   1.013   2.359   6.879
 1137SOL    HW1 4310   1.064   2.286   6.926
 1137SOL    HW2 4311   1.066   2.391   6.800
 1138SOL     OW 4312   0.496   1.173   6.409
 1138SOL    HW1 4313   0.533   1.150   6.499
 1138SOL    HW2 4314   0.532   1.262   6.380
 1139SOL     OW 4315   2.885   5.894   1.332
 1139SOL    HW1 4316   2.919   5.817   1.277
 1139SOL    HW2 4317   2.790   5.912   1.308
 1140SOL     OW 4318   3.440   1.011   2.003
 1140SOL    HW1 4319   3.504   1.037   1.932
 1140SOL    HW2 4320   3.349   0.999   1.964
 1141SOL     OW 4321   6.486   6.298   6.365
 1141SOL    HW1 4322   6.495   6.379   6.307
 1141SOL    HW2 4323   6.480   6.326   6.461
 1142SOL     OW 4324   4.149   0.778   4.540
 1142SOL    HW1 4325   4.094   0.828   4.607
 1142SOL    HW2 4326   4.099   0.773   4.453
 1143SOL     OW 4327   2.269   2.560   2.626
 1143SOL    HW1 4328   2.357   2.514   2.639
 1143SOL    HW2 4329   2.249   2.565   2.528
 1144SOL     OW 4330   6.454   4.723   5.524
 1144SOL    HW1 4331   6.376   4.751   5.580
 1144SOL    HW2 4332   6.455   4.776   5.439
 1145SOL     OW 4333   0.195   4.507   2.733
 1145SOL    HW1 4334   0.226   4.547   2.819
 1145SOL    HW2 4335   0.266   4.518   2.663
 1146SOL     OW 4336   5.243   0.666   1.348
 1146SOL    HW1 4337   5.224   0.749   1.295
 1146SOL    HW2 4338   5.277   0.595   1.287
 1147SOL     OW 4339   1.852   4.872   0.653
 1147SOL    HW1 4340   1.886   4.804   0.588
 1147SOL    HW2 4341   1.768   4.914   0.617
 1148SOL     OW 4342   4.098   6.835   6.999
 1148SOL    HW1 4343   4.028   6.844   6.929
 1148SOL    HW2 4344   4.111   6.739   7.021
 1149SOL     OW 4345   5.876   3.757   3.369
 1149SOL    HW1 4346   5.815   3.836   3.373
 1149SOL    HW2 4347   5.914   3.739   3.459
 1150SOL     OW 4348   1.650   4.388   0.870
 1150SOL    HW1 4349   1.674   4.339   0.954
 1150SOL    HW2 4350   1.700   4.349   0.793
 1151SOL     OW 4351   4.383   5.493   0.071
 1151SOL    HW1 4352   4.357   5.408   0.118
 1151SOL    HW2 4353   4.367   5.571   0.132
 1152SOL     OW 4354   0.671   6.064   5.820
 1152SOL    HW1 4355   0.673   6.038   5.917
 1152SOL    HW2 4356   0.752   6.119   5.799
 1153SOL     OW 4357   2.214   0.196   1.964
 1153SOL    HW1 4358   2.205   0.156   2.055
 1153SOL    HW2 4359   2.127   0.237   1.937
 1154SOL     OW 4360   0.697   4.110   1.703
 1154SOL    HW1 4361   0.761   4.176   1.742
 1154SOL    HW2 4362   0.665   4.049   1.776
 1155SOL     OW 4363   2.917   4.887   0.130
 1155SOL    HW1 4364   2.966   4.799   0.123
 1155SOL    HW2 4365   2.950   4.936   0.211
 1156SOL     OW 4366   1.872   0.751   4.635
 1156SOL    HW1 4367   1.872   0.672   4.697
 1156SOL    HW2 4368   1.805   0.736   4.562
 1157SOL     OW 4369   6.669   0.844   4.807
 1157SOL    HW1 4370   6.618   0.928   4.829
 1157SOL    HW2 4371   6.761   0.849   4.845
 1158SOL     OW 4372   0.451   5.408   5.756
 1158SOL    HW1 4373   0.500   5.362   5.681
 1158SOL    HW2 4374   0.390   5.343   5.800
 1159SOL     OW 4375   5.328   0.218   3.036
 1159SOL    HW1 4376   5.265   0.294   3.022
 1159SOL    HW2 4377   5.393   0.241   3.109
 1160SOL     OW 4378   3.961   3.842   1.620
 1160SOL    HW1 4379   3.868   3.845   1.583
 1160SOL    HW2 4380   3.992   3.935   1.639
 1161SOL     OW 4381   5.036   0.414   6.162
 1161SOL    HW1 4382   5.021   0.328   6.210
 1161SOL    HW2 4383   5.131   0.442   6.172
 1162SOL     OW 4384   3.559   2.441   0.526
 1162SOL    HW1 4385   3.508   2.445   0.612
 1162SOL    HW2 4386   3.562   2.347   0.493
 1163SOL     OW 4387   5.776   3.642   1.707
 1163SOL    HW1 4388   5.813   3.611   1.619
 1163SOL    HW2 4389   5.831   3.604   1.782
 1164SOL     OW 4390   5.344   2.495   4.283
 1164SOL    HW1 4391   5.373   2.502   4.187
 1164SOL    HW2 4392   5.279   2.568   4.303
 1165SOL     OW 4393   1.772   4.483   4.278
 1165SOL    HW1 4394   1.779   4.574   4.319
 1165SOL    HW2 4395   1.796   4.414   4.345
 1166SOL     OW 4396   3.987   1.121   0.258
 1166SOL    HW1 4397   4.066   1.060   0.252
 1166SOL    HW2 4398   4.005   1.204   0.206
 1167SOL     OW 4399   3.382   0.200   6.224
 1167SOL    HW1 4400   3.295   0.232   6.261
 1167SOL    HW2 4401   3.369   0.111   6.180
 1168SOL     OW 4402   6.801   0.964   2.670
 1168SOL    HW1 4403   6.767   0.870   2.675
 1168SOL    HW2 4404   6.901   0.964   2.670
 1169SOL     OW 4405   6.127   3.101   6.853
 1169SOL    HW1 4406   6.068   3.157   6.911
 1169SOL    HW2 4407   6.097   3.109   6.758
 1170SOL     OW 4408   4.741   0.829   2.026
 1170SOL    HW1 4409   4.831   0.863   2.000
 1170SOL    HW2 4410   4.737   0.815   2.125
 1171SOL     OW 4411   2.463   6.369   6.620
 1171SOL    HW1 4412   2.374   6.351   6.663
 1171SOL    HW2 4413   2.492   6.462   6.642
 1172SOL     OW 4414   3.578   4.163   2.818
 1172SOL    HW1 4415   3.496   4.208   2.781
 1172SOL    HW2 4416   3.571   4.158   2.917
 1173SOL     OW 4417   3.158   6.967   5.687
 1173SOL    HW1 4418   3.220   0.006   5.736
 1173SOL    HW2 4419   3.198   6.941   5.600
 1174SOL     OW 4420   3.234   4.074   0.889
 1174SOL    HW1 4421   3.246   4.009   0.963
 1174SOL    HW2 4422   3.137   4.089   0.872
 1175SOL     OW 4423   4.769   3.491   6.471
 1175SOL    HW1 4424   4.698   3.421   6.466
 1175SOL    HW2 4425   4.839   3.473   6.401
 1176SOL     OW 4426   5.554   4.521   0.538
 1176SOL    HW1 4427   5.620   4.578   0.587
 1176SOL    HW2 4428   5.595   4.488   0.453
 1177SOL     OW 4429   0.155   1.593   5.221
 1177SOL    HW1 4430   0.199   1.571   5.308
 1177SOL    HW2 4431   0.140   1.509   5.169
 1178SOL     OW 4432   3.831   2.795   1.448
 1178SOL    HW1 4433   3.860   2.891   1.442
 1178SOL    HW2 4434   3.732   2.790   1.456
 1179SOL     OW 4435   2.934   5.283   0.045
 1179SOL    HW1 4436   2.923   5.380   0.024
 1179SOL    HW2 4437   2.930   5.270   0.144
 1180SOL     OW 4438   2.989   6.963   3.720
 1180SOL    HW1 4439   2.896   6.964   3.758
 1180SOL    HW2 4440   3.053   6.932   3.791
 1181SOL     OW 4441   6.996   2.842   4.630
 1181SOL    HW1 4442   6.920   2.885   4.580
 1181SOL    HW2 4443   0.046   2.817   4.566
 1182SOL     OW 4444   1.804   5.386   3.206
 1182SOL    HW1 4445   1.761   5.471   3.237
 1182SOL    HW2 4446   1.753   5.348   3.129
 1183SOL     OW 4447   3.432   5.938   1.806
 1183SOL    HW1 4448   3.352   5.995   1.823
 1183SOL    HW2 4449   3.493   5.940   1.886
 1184SOL     OW 4450   4.099   1.155   5.283
 1184SOL    HW1 4451   4.007   1.119   5.295
 1184SOL    HW2 4452   4.134   1.129   5.193
 1185SOL     OW 4453   1.891   0.576   0.163
 1185SOL    HW1 4454   1.807   0.559   0.112
 1185SOL    HW2 4455   1.970   0.569   0.102
 1186SOL     OW 4456   6.126   6.727   6.340
 1186SOL    HW1 4457   6.173   6.668   6.405
 1186SOL    HW2 4458   6.142   6.694   6.247
 1187SOL     OW 4459   5.099   5.775   5.337
 1187SOL    HW1 4460   5.071   5.852   5.394
 1187SOL    HW2 4461   5.137   5.810   5.251
 1188SOL     OW 4462   3.375   6.149   6.478
 1188SOL    HW1 4463   3.312   6.085   6.435
 1188SOL    HW2 4464   3.340   6.177   6.567
 1189SOL     OW 4465   5.239   0.474   1.931
 1189SOL    HW1 4466   5.160   0.463   1.871
 1189SOL    HW2 4467   5.321   0.490   1.876
 1190SOL     OW 4468   4.033   5.070   4.343
 1190SOL    HW1 4469   4.018   5.014   4.424
 1190SOL    HW2 4470   4.052   5.011   4.265
 1191SOL     OW 4471   4.400   6.483   5.133
 1191SOL    HW1 4472   4.437   6.402   5.179
 1191SOL    HW2 4473   4.463   6.512   5.061
 1192SOL     OW 4474   5.464   5.335   2.805
 1192SOL    HW1 4475   5.477   5.405   2.876
 1192SOL    HW2 4476   5.490   5.246   2.841
 1193SOL     OW 4477   0.087   0.011   4.970
 1193SOL    HW1 4478   0.033   0.074   4.914
 1193SOL    HW2 4479   0.134   6.968   4.911
 1194SOL     OW 4480   6.898   1.827   1.233
 1194SOL    HW1 4481   6.874   1.871   1.147
 1194SOL    HW2 4482   6.894   1.895   1.307
 1195SOL     OW 4483   6.120   3.260   1.597
 1195SOL    HW1 4484   6.052   3.202   1.642
 1195SOL    HW2 4485   6.211   3.224   1.616
 1196SOL     OW 4486   0.403   4.239   1.849
 1196SOL    HW1 4487   0.402   4.291   1.764
 1196SOL    HW2 4488   0.399   4.141   1.829
 1197SOL     OW 4489   3.989   6.379   4.640
 1197SOL    HW1 4490   3.931   6.459   4.624
 1197SOL    HW2 4491   4.061   6.376   4.571
 1198SOL     OW 4492   1.945   3.051   2.612
 1198SOL    HW1 4493   1.883   3.102   2.672
 1198SOL    HW2 4494   1.982   2.973   2.661
 1199SOL     OW 4495   3.584   2.883   3.492
 1199SOL    HW1 4496   3.597   2.912   3.398
 1199SOL    HW2 4497   3.668   2.899   3.544
 1200SOL     OW 4498   3.552   4.184   4.594
 1200SOL    HW1 4499   3.532   4.196   4.692
 1200SOL    HW2 4500   3.649   4.163   4.582
 1201SOL     OW 4501   0.390   1.498   4.287
 1201SOL    HW1 4502   0.480   1.459   4.267
 1201SOL    HW2 4503   0.401   1.576   4.349
 1202SOL     OW 4504   5.890   1.292   5.978
 1202SOL    HW1 4505   5.880   1.334   5.889
 1202SOL    HW2 4506   5.828   1.214   5.986
 1203SOL     OW 4507   6.346   6.547   1.389
 1203SOL    HW1 4508   6.316   6.552   1.484
 1203SOL    HW2 4509   6.418   6.616   1.374
 1204SOL     OW 4510   4.394   1.682   1.302
 1204SOL    HW1 4511   4.397   1.596   1.352
 1204SOL    HW2 4512   4.487   1.714   1.284
 1205SOL     OW 4513   4.292   3.432   6.335
 1205SOL    HW1 4514   4.233   3.410   6.257
 1205SOL    HW2 4515   4.298   3.531   6.346
 1206SOL     OW 4516   1.158   2.294   4.785
 1206SOL    HW1 4517   1.165   2.275   4.687
 1206SOL    HW2 4518   1.248   2.283   4.827
 1207SOL     OW 4519   0.688   6.667   0.144
 1207SOL    HW1 4520   0.738   6.750   0.166
 1207SOL    HW2 4521   0.753   6.591   0.131
 1208SOL     OW 4522   3.170   4.089   2.598
 1208SOL    HW1 4523   3.169   3.991   2.576
 1208SOL    HW2 4524   3.132   4.141   2.522
 1209SOL     OW 4525   5.562   6.583   4.980
 1209SOL    HW1 4526   5.646   6.534   5.002
 1209SOL    HW2 4527   5.484   6.535   5.019
 1210SOL     OW 4528   4.665   6.589   3.743
 1210SOL    HW1 4529   4.745   6.634   3.703
 1210SOL    HW2 4530   4.617   6.653   3.803
 1211SOL     OW 4531   1.644   3.221   3.319
 1211SOL    HW1 4532   1.695   3.231   3.234
 1211SOL    HW2 4533   1.645   3.307   3.369
 1212SOL     OW 4534   0.150   1.399   5.024
 1212SOL    HW1 4535   0.105   1.400   4.935
 1212SOL    HW2 4536   0.228   1.336   5.021
 1213SOL     OW 4537   5.756   2.986   4.305
 1213SOL    HW1 4538   5.829   2.938   4.256
 1213SOL    HW2 4539   5.672   2.933   4.300
 1214SOL     OW 4540   1.395   2.736   5.433
 1214SOL    HW1 4541   1.362   2.803   5.500
 1214SOL    HW2 4542   1.338   2.739   5.351
 1215SOL     OW 4543   1.870   5.675   2.378
 1215SOL    HW1 4544   1.936   5.599   2.376
 1215SOL    HW2 4545   1.832   5.684   2.470
 1216SOL     OW 4546   0.132   0.363   0.642
 1216SOL    HW1 4547   0.055   0.305   0.616
 1216SOL    HW2 4548   0.102   0.458   0.647
 1217SOL     OW 4549   3.134   5.552   1.668
 1217SOL    HW1 4550   3.212   5.606   1.698
 1217SOL    HW2 4551   3.164   5.461   1.641
 1218SOL     OW 4552   0.531   3.646   5.047
 1218SOL    HW1 4553   0.519   3.586   5.126
 1218SOL    HW2 4554   0.469   3.618   4.974
 1219SOL     OW 4555   4.602   5.472   1.873
 1219SOL    HW1 4556   4.670   5.415   1.827
 1219SOL    HW2 4557   4.531   5.414   1.912
 1220SOL     OW 4558   5.740   4.070   3.288
 1220SOL    HW1 4559   5.747   4.080   3.188
 1220SOL    HW2 4560   5.682   3.991   3.308
 1221SOL     OW 4561   6.024   3.858   5.977
 1221SOL    HW1 4562   5.989   3.879   6.068
 1221SOL    HW2 4563   5.974   3.912   5.909
 1222SOL     OW 4564   7.017   0.591   0.124
 1222SOL    HW1 4565   6.985   0.683   0.106
 1222SOL    HW2 4566   7.006   0.570   0.222
 1223SOL     OW 4567   4.352   1.017   0.685
 1223SOL    HW1 4568   4.262   1.056   0.664
 1223SOL    HW2 4569   4.342   0.944   0.752
 1224SOL     OW 4570   3.397   5.571   6.935
 1224SOL    HW1 4571   3.388   5.661   6.977
 1224SOL    HW2 4572   3.318   5.515   6.959
 1225SOL     OW 4573   3.907   2.660   1.089
 1225SOL    HW1 4574   3.892   2.576   1.037
 1225SOL    HW2 4575   3.882   2.646   1.184
 1226SOL     OW 4576   4.945   6.282   0.836
 1226SOL    HW1 4577   4.881   6.210   0.862
 1226SOL    HW2 4578   5.003   6.250   0.762
 1227SOL     OW 4579   5.714   5.186   6.540
 1227SOL    HW1 4580   5.777   5.261   6.556
 1227SOL    HW2 4581   5.759   5.114   6.488
 1228SOL     OW 4582   4.117   2.813   0.562
 1228SOL    HW1 4583   4.026   2.854   0.565
 1228SOL    HW2 4584   4.162   2.826   0.650
 1229SOL     OW 4585   2.127   5.972   1.103
 1229SOL    HW1 4586   2.069   5.905   1.148
 1229SOL    HW2 4587   2.219   5.934   1.093
 1230SOL     OW 4588   5.333   5.674   2.395
 1230SOL    HW1 4589   5.255   5.614   2.376
 1230SOL    HW2 4590   5.341   5.687   2.494
 1231SOL     OW 4591   1.170   2.181   6.150
 1231SOL    HW1 4592   1.099   2.155   6.216
 1231SOL    HW2 4593   1.259   2.151   6.184
 1232SOL     OW 4594   5.512   1.079   5.615
 1232SOL    HW1 4595   5.484   0.996   5.664
 1232SOL    HW2 4596   5.541   1.148   5.682
 1233SOL     OW 4597   1.282   5.798   3.513
 1233SOL    HW1 4598   1.217   5.761   3.578
 1233SOL    HW2 4599   1.254   5.890   3.486
 1234SOL     OW 4600   6.500   2.738   5.741
 1234SOL    HW1 4601   6.566   2.798   5.787
 1234SOL    HW2 4602   6.444   2.692   5.810
 1235SOL     OW 4603   6.403   4.155   0.884
 1235SOL    HW1 4604   6.466   4.232   0.893
 1235SOL    HW2 4605   6.444   4.073   0.923
 1236SOL     OW 4606   4.336   1.446   1.912
 1236SOL    HW1 4607   4.298   1.466   2.002
 1236SOL    HW2 4608   4.385   1.358   1.915
 1237SOL     OW 4609   1.544   5.795   4.737
 1237SOL    HW1 4610   1.520   5.874   4.681
 1237SOL    HW2 4611   1.467   5.732   4.741
 1238SOL     OW 4612   0.748   0.050   4.674
 1238SOL    HW1 4613   0.808   0.115   4.627
 1238SOL    HW2 4614   0.743   0.073   4.771
 1239SOL     OW 4615   6.628   6.467   5.653
 1239SOL    HW1 4616   6.605   6.385   5.601
 1239SOL    HW2 4617   6.713   6.507   5.618
 1240SOL     OW 4618   6.139   5.383   2.128
 1240SOL    HW1 4619   6.151   5.318   2.053
 1240SOL    HW2 4620   6.222   5.386   2.183
 1241SOL     OW 4621   6.649   4.507   5.193
 1241SOL    HW1 4622   6.565   4.537   5.238
 1241SOL    HW2 4623   6.633   4.420   5.147
 1242SOL     OW 4624   2.059   3.354   0.649
 1242SOL    HW1 4625   2.112   3.349   0.734
 1242SOL    HW2 4626   2.076   3.272   0.594
 1243SOL     OW 4627   0.288   1.095   4.197
 1243SOL    HW1 4628   0.333   1.011   4.229
 1243SOL    HW2 4629   0.253   1.080   4.105
 1244SOL     OW 4630   5.228   6.696   5.511
 1244SOL    HW1 4631   5.156   6.726   5.573
 1244SOL    HW2 4632   5.209   6.729   5.419
 1245SOL     OW 4633   5.754   5.341   0.551
 1245SOL    HW1 4634   5.774   5.295   0.638
 1245SOL    HW2 4635   5.813   5.304   0.479
 1246SOL     OW 4636   3.395   1.142   2.269
 1246SOL    HW1 4637   3.305   1.098   2.270
 1246SOL    HW2 4638   3.446   1.110   2.189
 1247SOL     OW 4639   5.570   6.835   5.196
 1247SOL    HW1 4640   5.488   6.875   5.155
 1247SOL    HW2 4641   5.640   6.824   5.125
 1248SOL     OW 4642   1.154   6.523   3.593
 1248SOL    HW1 4643   1.187   6.608   3.550
 1248SOL    HW2 4644   1.199   6.445   3.551
 1249SOL     OW 4645   0.339   3.607   1.672
 1249SOL    HW1 4646   0.376   3.568   1.757
 1249SOL    HW2 4647   0.414   3.644   1.617
 1250SOL     OW 4648   6.291   3.968   4.056
 1250SOL    HW1 4649   6.243   4.052   4.078
 1250SOL    HW2 4650   6.253   3.929   3.972
 1251SOL     OW 4651   2.469   1.003   2.715
 1251SOL    HW1 4652   2.440   0.968   2.804
 1251SOL    HW2 4653   2.543   1.069   2.728
 1252SOL     OW 4654   3.998   4.772   6.791
 1252SOL    HW1 4655   4.039   4.704   6.731
 1252SOL    HW2 4656   4.009   4.744   6.886
 1253SOL     OW 4657   2.552   0.311   1.680
 1253SOL    HW1 4658   2.524   0.407   1.690
 1253SOL    HW2 4659   2.568   0.272   1.770
 1254SOL     OW 4660   6.834   3.029   3.025
 1254SOL    HW1 4661   6.746   3.070   3.002
 1254SOL    HW2 4662   6.901   3.101   3.042
 1255SOL     OW 4663   5.738   2.610   5.970
 1255SOL    HW1 4664   5.664   2.642   5.911
 1255SOL    HW2 4665   5.713   2.625   6.066
 1256SOL     OW 4666   0.374   6.413   3.994
 1256SOL    HW1 4667   0.361   6.509   3.967
 1256SOL    HW2 4668   0.285   6.369   4.004
 1257SOL     OW 4669   0.135   5.088   4.205
 1257SOL    HW1 4670   0.181   5.050   4.286
 1257SOL    HW2 4671   0.036   5.086   4.219
 1258SOL     OW 4672   2.012   5.130   2.574
 1258SOL    HW1 4673   1.967   5.110   2.487
 1258SOL    HW2 4674   1.944   5.158   2.642
 1259SOL     OW 4675   3.474   6.301   5.370
 1259SOL    HW1 4676   3.416   6.259   5.439
 1259SOL    HW2 4677   3.455   6.260   5.281
 1260SOL     OW 4678   2.782   1.416   1.484
 1260SOL    HW1 4679   2.800   1.505   1.443
 1260SOL    HW2 4680   2.868   1.367   1.496
 1261SOL     OW 4681   0.285   4.438   0.287
 1261SOL    HW1 4682   0.366   4.399   0.244
 1261SOL    HW2 4683   0.287   4.538   0.279
 1262SOL     OW 4684   5.159   6.038   1.647
 1262SOL    HW1 4685   5.108   5.977   1.587
 1262SOL    HW2 4686   5.125   6.028   1.741
 1263SOL     OW 4687   6.311   1.205   0.875
 1263SOL    HW1 4688   6.234   1.223   0.936
 1263SOL    HW2 4689   6.374   1.283   0.876
 1264SOL     OW 4690   0.584   3.685   1.550
 1264SOL    HW1 4691   0.605   3.599   1.504
 1264SOL    HW2 4692   0.653   3.704   1.619
 1265SOL     OW 4693   6.448   5.409   3.807
 1265SOL    HW1 4694   6.414   5.315   3.809
 1265SOL    HW2 4695   6.434   5.448   3.716
 1266SOL     OW 4696   2.148   1.255   3.890
 1266SOL    HW1 4697   2.068   1.205   3.924
 1266SOL    HW2 4698   2.125   1.297   3.802
 1267SOL     OW 4699   5.437   6.330   1.003
 1267SOL    HW1 4700   5.399   6.264   1.067
 1267SOL    HW2 4701   5.459   6.415   1.052
 1268SOL     OW 4702   4.813   2.114   0.348
 1268SOL    HW1 4703   4.851   2.100   0.439
 1268SOL    HW2 4704   4.777   2.207   0.341
 1269SOL     OW 4705   6.412   5.974   5.650
 1269SOL    HW1 4706   6.462   5.995   5.566
 1269SOL    HW2 4707   6.393   5.876   5.654
 1270SOL     OW 4708   2.093   3.271   4.617
 1270SOL    HW1 4709   2.140   3.183   4.609
 1270SOL    HW2 4710   1.998   3.256   4.645
 1271SOL     OW 4711   3.487   1.799   3.787
 1271SOL    HW1 4712   3.542   1.720   3.814
 1271SOL    HW2 4713   3.390   1.776   3.792
 1272SOL     OW 4714   6.173   5.817   0.667
 1272SOL    HW1 4715   6.258   5.837   0.717
 1272SOL    HW2 4716   6.162   5.717   0.661
 1273SOL     OW 4717   1.473   4.502   0.236
 1273SOL    HW1 4718   1.541   4.533   0.302
 1273SOL    HW2 4719   1.506   4.418   0.191
 1274SOL     OW 4720   6.305   2.990   1.337
 1274SOL    HW1 4721   6.252   2.943   1.267
 1274SOL    HW2 4722   6.350   3.070   1.297
 1275SOL     OW 4723   3.657   0.140   3.935
 1275SOL    HW1 4724   3.722   0.113   4.005
 1275SOL    HW2 4725   3.678   0.092   3.850
 1276SOL     OW 4726   0.322   0.847   4.295
 1276SOL    HW1 4727   0.282   0.790   4.224
 1276SOL    HW2 4728   0.250   0.880   4.356
 1277SOL     OW 4729   1.121   0.003   5.393
 1277SOL    HW1 4730   1.112   6.933   5.356
 1277SOL    HW2 4731   1.195   0.005   5.461
 1278SOL     OW 4732   1.262   0.830   4.898
 1278SOL    HW1 4733   1.361   0.831   4.909
 1278SOL    HW2 4734   1.224   0.753   4.950
 1279SOL     OW 4735   3.481   5.262   6.927
 1279SOL    HW1 4736   3.537   5.345   6.935
 1279SOL    HW2 4737   3.538   5.187   6.893
 1280SOL     OW 4738   3.553   6.054   3.886
 1280SOL    HW1 4739   3.476   6.082   3.944
 1280SOL    HW2 4740   3.521   5.988   3.818
 1281SOL     OW 4741   1.028   5.525   2.728
 1281SOL    HW1 4742   1.052   5.601   2.668
 1281SOL    HW2 4743   0.958   5.469   2.684
 1282SOL     OW 4744   0.146   0.808   6.290
 1282SOL    HW1 4745   0.236   0.849   6.278
 1282SOL    HW2 4746   0.119   0.762   6.206
 1283SOL     OW 4747   5.499   2.992   4.931
 1283SOL    HW1 4748   5.407   2.982   4.970
 1283SOL    HW2 4749   5.501   2.948   4.841
 1284SOL     OW 4750   4.399   2.535   1.694
 1284SOL    HW1 4751   4.450   2.588   1.626
 1284SOL    HW2 4752   4.309   2.577   1.707
 1285SOL     OW 4753   5.193   3.350   5.902
 1285SOL    HW1 4754   5.264   3.415   5.930
 1285SOL    HW2 4755   5.118   3.399   5.858
 1286SOL     OW 4756   5.076   4.081   2.890
 1286SOL    HW1 4757   5.155   4.093   2.830
 1286SOL    HW2 4758   5.096   4.120   2.980
 1287SOL     OW 4759   4.658   3.970   5.447
 1287SOL    HW1 4760   4.657   3.872   5.429
 1287SOL    HW2 4761   4.570   3.998   5.486
 1288SOL     OW 4762   6.239   3.396   0.465
 1288SOL    HW1 4763   6.333   3.376   0.437
 1288SOL    HW2 4764   6.179   3.320   0.438
 1289SOL     OW 4765   0.134   5.968   1.281
 1289SOL    HW1 4766   0.036   5.960   1.294
 1289SOL    HW2 4767   0.166   6.052   1.323
 1290SOL     OW 4768   1.195   0.152   6.967
 1290SOL    HW1 4769   1.249   0.074   6.938
 1290SOL    HW2 4770   1.174   0.143   0.042
 1291SOL     OW 4771   0.140   3.054   5.547
 1291SOL    HW1 4772   0.192   3.027   5.629
 1291SOL    HW2 4773   0.055   3.002   5.544
 1292SOL     OW 4774   6.013   5.834   2.615
 1292SOL    HW1 4775   6.100   5.830   2.664
 1292SOL    HW2 4776   5.995   5.745   2.572
 1293SOL     OW 4777   1.431   1.389   6.584
 1293SOL    HW1 4778   1.366   1.318   6.612
 1293SOL    HW2 4779   1.396   1.479   6.609
 1294SOL     OW 4780   1.448   3.430   0.217
 1294SOL    HW1 4781   1.408   3.426   0.126
 1294SOL    HW2 4782   1.427   3.517   0.260
 1295SOL     OW 4783   0.037   4.067   2.750
 1295SOL    HW1 4784   0.111   4.130   2.728
 1295SOL    HW2 4785   6.978   4.092   2.697
 1296SOL     OW 4786   3.561   6.934   5.931
 1296SOL    HW1 4787   3.517   6.885   6.006
 1296SOL    HW2 4788   3.657   6.908   5.927
 1297SOL     OW 4789   5.965   0.663   6.893
 1297SOL    HW1 4790   6.043   0.601   6.896
 1297SOL    HW2 4791   5.885   0.614   6.859
 1298SOL     OW 4792   6.712   4.465   3.434
 1298SOL    HW1 4793   6.632   4.519   3.410
 1298SOL    HW2 4794   6.762   4.440   3.351
 1299SOL     OW 4795   0.488   4.181   2.985
 1299SOL    HW1 4796   0.446   4.177   3.076
 1299SOL    HW2 4797   0.418   4.165   2.916
 1300SOL     OW 4798   3.389   4.133   1.914
 1300SOL    HW1 4799   3.347   4.131   2.005
 1300SOL    HW2 4800   3.488   4.119   1.923
 1301SOL     OW 4801   0.248   5.485   1.914
 1301SOL    HW1 4802   0.214   5.535   1.994
 1301SOL    HW2 4803   0.292   5.400   1.943
 1302SOL     OW 4804   3.180   6.977   5.306
 1302SOL    HW1 4805   3.088   7.013   5.325
 1302SOL    HW2 4806   3.242   0.030   5.287
 1303SOL     OW 4807   4.582   1.549   1.479
 1303SOL    HW1 4808   4.630   1.461   1.485
 1303SOL    HW2 4809   4.520   1.558   1.557
 1304SOL     OW 4810   0.978   1.250   6.688
 1304SOL    HW1 4811   0.930   1.335   6.707
 1304SOL    HW2 4812   0.969   1.228   6.590
 1305SOL     OW 4813   5.294   3.761   0.117
 1305SOL    HW1 4814   5.289   3.680   0.175
 1305SOL    HW2 4815   5.218   3.821   0.137
 1306SOL     OW 4816   0.718   4.017   5.863
 1306SOL    HW1 4817   0.748   4.009   5.768
 1306SOL    HW2 4818   0.738   3.932   5.912
 1307SOL     OW 4819   1.791   2.958   4.909
 1307SOL    HW1 4820   1.836   2.945   4.821
 1307SOL    HW2 4821   1.719   3.027   4.900
 1308SOL     OW 4822   4.109   5.310   4.781
 1308SOL    HW1 4823   4.202   5.274   4.788
 1308SOL    HW2 4824   4.062   5.265   4.705
 1309SOL     OW 4825   5.371   3.344   5.687
 1309SOL    HW1 4826   5.309   3.301   5.753
 1309SOL    HW2 4827   5.327   3.424   5.646
 1310SOL     OW 4828   0.248   4.018   4.918
 1310SOL    HW1 4829   0.312   4.015   4.995
 1310SOL    HW2 4830   0.244   3.929   4.874
 1311SOL     OW 4831   6.890   0.391   3.807
 1311SOL    HW1 4832   6.857   0.348   3.891
 1311SOL    HW2 4833   6.956   0.330   3.762
 1312SOL     OW 4834   0.973   0.239   6.429
 1312SOL    HW1 4835   0.958   0.329   6.388
 1312SOL    HW2 4836   1.060   0.239   6.478
 1313SOL     OW 4837   1.607   4.973   4.311
 1313SOL    HW1 4838   1.553   4.976   4.227
 1313SOL    HW2 4839   1.574   5.044   4.374
 1314SOL     OW 4840   3.280   1.460   5.993
 1314SOL    HW1 4841   3.280   1.535   5.927
 1314SOL    HW2 4842   3.216   1.389   5.963
 1315SOL     OW 4843   0.298   0.760   0.395
 1315SOL    HW1 4844   0.319   0.853   0.368
 1315SOL    HW2 4845   0.292   0.701   0.314
 1316SOL     OW 4846   2.884   6.318   4.364
 1316SOL    HW1 4847   2.857   6.364   4.279
 1316SOL    HW2 4848   2.947   6.244   4.342
 1317SOL     OW 4849   1.003   3.951   4.148
 1317SOL    HW1 4850   0.913   3.909   4.155
 1317SOL    HW2 4851   0.993   4.050   4.133
 1318SOL     OW 4852   0.149   0.948   0.587
 1318SOL    HW1 4853   0.120   1.027   0.533
 1318SOL    HW2 4854   0.172   0.872   0.526
 1319SOL     OW 4855   0.005   0.559   0.402
 1319SOL    HW1 4856   0.070   0.560   0.478
 1319SOL    HW2 4857   6.935   0.549   0.437
 1320SOL     OW 4858   5.783   3.528   0.379
 1320SOL    HW1 4859   5.686   3.539   0.401
 1320SOL    HW2 4860   5.838   3.585   0.441
 1321SOL     OW 4861   4.269   2.147   6.239
 1321SOL    HW1 4862   4.216   2.163   6.322
 1321SOL    HW2 4863   4.358   2.109   6.262
 1322SOL     OW 4864   4.357   0.481   3.806
 1322SOL    HW1 4865   4.455   0.499   3.801
 1322SOL    HW2 4866   4.332   0.464   3.902
 1323SOL     OW 4867   5.386   2.023   5.092
 1323SOL    HW1 4868   5.466   2.082   5.092
 1323SOL    HW2 4869   5.311   2.070   5.044
 1324SOL     OW 4870   0.844   2.532   0.504
 1324SOL    HW1 4871   0.833   2.467   0.579
 1324SOL    HW2 4872   0.758   2.540   0.454
 1325SOL     OW 4873   1.698   6.636   2.026
 1325SOL    HW1 4874   1.727   6.729   2.051
 1325SOL    HW2 4875   1.714   6.621   1.929
 1326SOL     OW 4876   5.034   3.001   4.692
 1326SOL    HW1 4877   5.007   3.085   4.738
 1326SOL    HW2 4878   4.954   2.940   4.684
 1327SOL     OW 4879   2.463   4.830   2.248
 1327SOL    HW1 4880   2.560   4.809   2.260
 1327SOL    HW2 4881   2.450   4.879   2.162
 1328SOL     OW 4882   1.502   2.409   0.779
 1328SOL    HW1 4883   1.527   2.312   0.777
 1328SOL    HW2 4884   1.569   2.461   0.726
 1329SOL     OW 4885   0.784   2.157   0.490
 1329SOL    HW1 4886   0.693   2.199   0.492
 1329SOL    HW2 4887   0.777   2.061   0.518
 1330SOL     OW 4888   6.735   1.242   1.701
 1330SOL    HW1 4889   6.658   1.184   1.675
 1330SOL    HW2 4890   6.818   1.186   1.703
 1331SOL     OW 4891   4.974   2.163   3.260
 1331SOL    HW1 4892   4.917   2.105   3.201
 1331SOL    HW2 4893   4.916   2.211   3.326
 1332SOL     OW 4894   3.548   0.533   0.186
 1332SOL    HW1 4895   3.635   0.583   0.181
 1332SOL    HW2 4896   3.527   0.494   0.097
 1333SOL     OW 4897   3.257   3.506   6.219
 1333SOL    HW1 4898   3.348   3.546   6.214
 1333SOL    HW2 4899   3.218   3.498   6.127
 1334SOL     OW 4900   6.987   2.314   4.814
 1334SOL    HW1 4901   0.028   2.378   4.770
 1334SOL    HW2 4902   6.901   2.312   4.764
 1335SOL     OW 4903   2.742   0.690   2.885
 1335SOL    HW1 4904   2.829   0.647   2.911
 1335SOL    HW2 4905   2.759   0.758   2.814
 1336SOL     OW 4906   1.725   1.109   6.664
 1336SOL    HW1 4907   1.784   1.043   6.617
 1336SOL    HW2 4908   1.661   1.060   6.723
 1337SOL     OW 4909   1.403   1.218   4.974
 1337SOL    HW1 4910   1.414   1.309   4.932
 1337SOL    HW2 4911   1.366   1.229   5.066
 1338SOL     OW 4912   4.919   2.465   6.374
 1338SOL    HW1 4913   5.008   2.453   6.418
 1338SOL    HW2 4914   4.932   2.473   6.275
 1339SOL     OW 4915   0.559   0.427   6.917
 1339SOL    HW1 4916   0.548   0.526   6.927
 1339SOL    HW2 4917   0.472   0.387   6.888
 1340SOL     OW 4918   0.584   1.635   1.999
 1340SOL    HW1 4919   0.528   1.684   1.933
 1340SOL    HW2 4920   0.569   1.674   2.090
 1341SOL     OW 4921   4.925   0.750   5.628
 1341SOL    HW1 4922   4.916   0.824   5.694
 1341SOL    HW2 4923   4.835   0.711   5.609
 1342SOL     OW 4924   1.440   4.542   6.183
 1342SOL    HW1 4925   1.482   4.615   6.237
 1342SOL    HW2 4926   1.510   4.497   6.128
 1343SOL     OW 4927   4.224   5.988   2.570
 1343SOL    HW1 4928   4.161   6.034   2.631
 1343SOL    HW2 4929   4.318   6.010   2.596
 1344SOL     OW 4930   6.776   4.455   3.704
 1344SOL    HW1 4931   6.734   4.460   3.613
 1344SOL    HW2 4932   6.840   4.378   3.706
 1345SOL     OW 4933   2.085   1.814   3.615
 1345SOL    HW1 4934   2.064   1.901   3.660
 1345SOL    HW2 4935   2.087   1.827   3.516
 1346SOL     OW 4936   1.152   0.022   3.240
 1346SOL    HW1 4937   1.237   0.012   3.292
 1346SOL    HW2 4938   1.148   6.975   3.169
 1347SOL     OW 4939   6.258   6.379   4.644
 1347SOL    HW1 4940   6.266   6.385   4.544
 1347SOL    HW2 4941   6.185   6.440   4.676
 1348SOL     OW 4942   5.486   5.081   3.268
 1348SOL    HW1 4943   5.584   5.087   3.289
 1348SOL    HW2 4944   5.474   5.040   3.178
 1349SOL     OW 4945   4.772   2.200   6.248
 1349SOL    HW1 4946   4.852   2.141   6.251
 1349SOL    HW2 4947   4.768   2.256   6.331
 1350SOL     OW 4948   4.370   4.036   6.270
 1350SOL    HW1 4949   4.458   4.071   6.304
 1350SOL    HW2 4950   4.297   4.099   6.297
 1351SOL     OW 4951   6.925   2.296   3.178
 1351SOL    HW1 4952   6.829   2.281   3.203
 1351SOL    HW2 4953   6.983   2.280   3.257
 1352SOL     OW 4954   0.082   0.763   3.630
 1352SOL    HW1 4955   7.019   0.807   3.603
 1352SOL    HW2 4956   0.077   0.737   3.727
 1353SOL     OW 4957   6.078   4.618   5.578
 1353SOL    HW1 4958   6.053   4.636   5.673
 1353SOL    HW2 4959   5.996   4.591   5.527
 1354SOL     OW 4960   0.422   1.583   0.632
 1354SOL    HW1 4961   0.424   1.507   0.697
 1354SOL    HW2 4962   0.431   1.669   0.681
 1355SOL     OW 4963   5.990   2.347   5.591
 1355SOL    HW1 4964   5.973   2.445   5.599
 1355SOL    HW2 4965   6.014   2.325   5.496
 1356SOL     OW 4966   3.214   3.348   3.801
 1356SOL    HW1 4967   3.153   3.285   3.754
 1356SOL    HW2 4968   3.308   3.314   3.795
 1357SOL     OW 4969   1.828   4.791   5.461
 1357SOL    HW1 4970   1.817   4.762   5.556
 1357SOL    HW2 4971   1.918   4.763   5.428
 1358SOL     OW 4972   4.194   1.272   5.585
 1358SOL    HW1 4973   4.267   1.252   5.519
 1358SOL    HW2 4974   4.105   1.264   5.539
 1359SOL     OW 4975   0.350   4.598   1.565
 1359SOL    HW1 4976   0.378   4.590   1.470
 1359SOL    HW2 4977   0.338   4.694   1.589
 1360SOL     OW 4978   4.054   3.826   2.018
 1360SOL    HW1 4979   3.986   3.875   2.072
 1360SOL    HW2 4980   4.135   3.883   2.007
 1361SOL     OW 4981   0.447   5.815   5.542
 1361SOL    HW1 4982   0.435   5.736   5.603
 1361SOL    HW2 4983   0.513   5.878   5.583
 1362SOL     OW 4984   3.198   3.909   3.902
 1362SOL    HW1 4985   3.236   3.946   3.987
 1362SOL    HW2 4986   3.106   3.876   3.919
 1363SOL     OW 4987   5.915   5.963   3.369
 1363SOL    HW1 4988   5.976   6.030   3.329
 1363SOL    HW2 4989   5.968   5.889   3.411
 1364SOL     OW 4990   0.170   2.128   0.183
 1364SOL    HW1 4991   0.098   2.152   0.117
 1364SOL    HW2 4992   0.222   2.209   0.207
 1365SOL     OW 4993   0.741   3.187   5.537
 1365SOL    HW1 4994   0.736   3.238   5.451
 1365SOL    HW2 4995   0.664   3.124   5.543
 1366SOL     OW 4996   1.303   4.300   0.056
 1366SOL    HW1 4997   1.367   4.377   0.054
 1366SOL    HW2 4998   1.292   4.263   6.986
 1367SOL     OW 4999   1.427   5.417   2.478
 1367SOL    HW1 5000   1.476   5.499   2.511
 1367SOL    HW2 5001   1.351   5.397   2.539
 1368SOL     OW 5002   6.649   7.017   3.242
 1368SOL    HW1 5003   6.598   0.081   3.241
 1368SOL    HW2 5004   6.614   6.956   3.171
 1369SOL     OW 5005   1.772   6.922   2.347
 1369SOL    HW1 5006   1.764   6.845   2.410
 1369SOL    HW2 5007   1.686   6.974   2.346
 1370SOL     OW 5008   5.303   1.600   4.132
 1370SOL    HW1 5009   5.250   1.536   4.076
 1370SOL    HW2 5010   5.272   1.594   4.227
 1371SOL     OW 5011   5.824   1.290   4.822
 1371SOL    HW1 5012   5.778   1.248   4.900
 1371SOL    HW2 5013   5.762   1.288   4.743
 1372SOL     OW 5014   0.999   1.829   0.714
 1372SOL    HW1 5015   1.026   1.735   0.734
 1372SOL    HW2 5016   1.078   1.889   0.725
 1373SOL     OW 5017   4.403   2.258   0.389
 1373SOL    HW1 5018   4.481   2.212   0.433
 1373SOL    HW2 5019   4.320   2.204   0.405
 1374SOL     OW 5020   4.371   2.528   0.653
 1374SOL    HW1 5021   4.411   2.439   0.674
 1374SOL    HW2 5022   4.391   2.551   0.558
 1375SOL     OW 5023   0.231   7.013   6.187
 1375SOL    HW1 5024   0.172   0.049   6.243
 1375SOL    HW2 5025   0.222   0.015   6.091
 1376SOL     OW 5026   4.183   4.844   4.850
 1376SOL    HW1 5027   4.092   4.874   4.878
 1376SOL    HW2 5028   4.217   4.775   4.914
 1377SOL     OW 5029   1.035   3.642   3.732
 1377SOL    HW1 5030   1.130   3.670   3.748
 1377SOL    HW2 5031   1.031   3.582   3.652
 1378SOL     OW 5032   5.789   2.445   4.982
 1378SOL    HW1 5033   5.693   2.441   5.007
 1378SOL    HW2 5034   5.798   2.464   4.884
 1379SOL     OW 5035   4.693   6.202   3.264
 1379SOL    HW1 5036   4.637   6.166   3.339
 1379SOL    HW2 5037   4.648   6.181   3.177
 1380SOL     OW 5038   0.655   6.380   3.345
 1380SOL    HW1 5039   0.654   6.352   3.249
 1380SOL    HW2 5040   0.713   6.316   3.397
 1381SOL     OW 5041   5.437   1.446   0.121
 1381SOL    HW1 5042   5.483   1.460   0.033
 1381SOL    HW2 5043   5.460   1.522   0.183
 1382SOL     OW 5044   5.742   3.282   1.332
 1382SOL    HW1 5045   5.776   3.253   1.242
 1382SOL    HW2 5046   5.654   3.328   1.321
 1383SOL     OW 5047   1.086   0.360   1.629
 1383SOL    HW1 5048   1.182   0.358   1.603
 1383SOL    HW2 5049   1.055   0.455   1.635
 1384SOL     OW 5050   4.221   0.583   2.150
 1384SOL    HW1 5051   4.206   0.549   2.057
 1384SOL    HW2 5052   4.290   0.655   2.149
 1385SOL     OW 5053   2.779   4.860   3.669
 1385SOL    HW1 5054   2.877   4.845   3.664
 1385SOL    HW2 5055   2.749   4.849   3.764
 1386SOL     OW 5056   3.146   1.228   4.174
 1386SOL    HW1 5057   3.169   1.131   4.177
 1386SOL    HW2 5058   3.048   1.240   4.191
 1387SOL     OW 5059   3.693   5.347   2.556
 1387SOL    HW1 5060   3.764   5.322   2.622
 1387SOL    HW2 5061   3.735   5.372   2.470
 1388SOL     OW 5062   6.755   0.429   2.977
 1388SOL    HW1 5063   6.676   0.488   2.991
 1388SOL    HW2 5064   6.725   0.333   2.973
 1389SOL     OW 5065   6.581   0.993   3.995
 1389SOL    HW1 5066   6.538   1.014   4.083
 1389SOL    HW2 5067   6.525   0.927   3.945
 1390SOL     OW 5068   6.895   3.090   6.676
 1390SOL    HW1 5069   6.869   3.176   6.722
 1390SOL    HW2 5070   6.814   3.031   6.670
 1391SOL     OW 5071   6.187   6.399   4.977
 1391SOL    HW1 5072   6.154   6.307   4.998
 1391SOL    HW2 5073   6.138   6.434   4.897
 1392SOL     OW 5074   5.421   6.430   5.844
 1392SOL    HW1 5075   5.463   6.353   5.795
 1392SOL    HW2 5076   5.465   6.515   5.815
 1393SOL     OW 5077   6.831   4.583   6.176
 1393SOL    HW1 5078   6.928   4.588   6.154
 1393SOL    HW2 5079   6.804   4.487   6.182
 1394SOL     OW 5080   3.760   5.396   5.453
 1394SOL    HW1 5081   3.739   5.310   5.407
 1394SOL    HW2 5082   3.851   5.392   5.494
 1395SOL     OW 5083   2.171   4.867   5.071
 1395SOL    HW1 5084   2.181   4.939   5.003
 1395SOL    HW2 5085   2.136   4.784   5.026
 1396SOL     OW 5086   0.678   1.699   5.101
 1396SOL    HW1 5087   0.593   1.650   5.084
 1396SOL    HW2 5088   0.657   1.791   5.135
 1397SOL     OW 5089   0.741   6.726   4.502
 1397SOL    HW1 5090   0.729   6.627   4.495
 1397SOL    HW2 5091   0.810   6.746   4.572
 1398SOL     OW 5092   2.934   1.062   6.801
 1398SOL    HW1 5093   2.839   1.033   6.795
 1398SOL    HW2 5094   2.965   1.094   6.712
 1399SOL     OW 5095   4.140   5.269   1.132
 1399SOL    HW1 5096   4.227   5.318   1.126
 1399SOL    HW2 5097   4.108   5.246   1.040
 1400SOL     OW 5098   7.002   1.727   4.041
 1400SOL    HW1 5099   0.002   1.745   3.945
 1400SOL    HW2 5100   0.017   1.800   4.098
 1401SOL     OW 5101   6.655   0.611   4.634
 1401SOL    HW1 5102   6.622   0.530   4.682
 1401SOL    HW2 5103   6.608   0.692   4.669
 1402SOL     OW 5104   6.061   3.806   6.518
 1402SOL    HW1 5105   6.149   3.761   6.499
 1402SOL    HW2 5106   6.075   3.905   6.519
 1403SOL     OW 5107   2.424   2.173   1.483
 1403SOL    HW1 5108   2.511   2.222   1.486
 1403SOL    HW2 5109   2.351   2.238   1.463
 1404SOL     OW 5110   6.564   6.961   6.976
 1404SOL    HW1 5111   6.624   0.017   6.991
 1404SOL    HW2 5112   6.470   6.993   6.962
 1405SOL     OW 5113   2.513   3.344   0.769
 1405SOL    HW1 5114   2.522   3.366   0.867
 1405SOL    HW2 5115   2.572   3.267   0.746
 1406SOL     OW 5116   0.814   5.362   0.531
 1406SOL    HW1 5117   0.826   5.415   0.614
 1406SOL    HW2 5118   0.717   5.357   0.508
 1407SOL     OW 5119   0.538   3.380   2.621
 1407SOL    HW1 5120   0.453   3.336   2.650
 1407SOL    HW2 5121   0.541   3.473   2.657
 1408SOL     OW 5122   5.568   0.712   5.592
 1408SOL    HW1 5123   5.620   0.779   5.540
 1408SOL    HW2 5124   5.621   0.627   5.599
 1409SOL     OW 5125   7.001   0.417   4.824
 1409SOL    HW1 5126   0.059   0.430   4.882
 1409SOL    HW2 5127   6.947   0.501   4.822
 1410SOL     OW 5128   1.823   3.948   6.011
 1410SOL    HW1 5129   1.814   3.888   5.932
 1410SOL    HW2 5130   1.776   3.907   6.090
 1411SOL     OW 5131   3.891   6.938   0.491
 1411SOL    HW1 5132   3.911   7.010   0.425
 1411SOL    HW2 5133   3.975   6.892   0.517
 1412SOL     OW 5134   1.493   1.797   0.693
 1412SOL    HW1 5135   1.412   1.854   0.708
 1412SOL    HW2 5136   1.468   1.719   0.636
 1413SOL     OW 5137   1.891   2.109   5.237
 1413SOL    HW1 5138   1.845   2.117   5.325
 1413SOL    HW2 5139   1.964   2.177   5.231
 1414SOL     OW 5140   2.742   1.249   1.695
 1414SOL    HW1 5141   2.784   1.160   1.676
 1414SOL    HW2 5142   2.754   1.309   1.616
 1415SOL     OW 5143   2.077   1.111   4.471
 1415SOL    HW1 5144   1.996   1.148   4.425
 1415SOL    HW2 5145   2.153   1.175   4.461
 1416SOL     OW 5146   4.800   5.077   3.960
 1416SOL    HW1 5147   4.896   5.048   3.958
 1416SOL    HW2 5148   4.744   5.003   3.997
 1417SOL     OW 5149   3.428   2.172   0.644
 1417SOL    HW1 5150   3.392   2.230   0.570
 1417SOL    HW2 5151   3.458   2.230   0.720
 1418SOL     OW 5152   3.299   4.124   3.091
 1418SOL    HW1 5153   3.397   4.144   3.096
 1418SOL    HW2 5154   3.275   4.098   2.998
 1419SOL     OW 5155   2.898   5.581   3.469
 1419SOL    HW1 5156   2.839   5.602   3.391
 1419SOL    HW2 5157   2.988   5.553   3.435
 1420SOL     OW 5158   1.789   6.669   1.787
 1420SOL    HW1 5159   1.819   6.730   1.713
 1420SOL    HW2 5160   1.824   6.577   1.770
 1421SOL     OW 5161   2.339   5.287   3.044
 1421SOL    HW1 5162   2.334   5.197   3.087
 1421SOL    HW2 5163   2.409   5.286   2.972
 1422SOL     OW 5164   1.166   4.173   6.890
 1422SOL    HW1 5165   1.173   4.089   6.944
 1422SOL    HW2 5166   1.071   4.204   6.890
 1423SOL     OW 5167   5.391   6.505   4.017
 1423SOL    HW1 5168   5.298   6.539   4.027
 1423SOL    HW2 5169   5.388   6.409   3.988
 1424SOL     OW 5170   6.887   4.603   6.988
 1424SOL    HW1 5171   6.978   4.641   6.979
 1424SOL    HW2 5172   6.880   4.553   0.052
 1425SOL     OW 5173   2.131   5.588   5.225
 1425SOL    HW1 5174   2.183   5.618   5.306
 1425SOL    HW2 5175   2.145   5.490   5.211
 1426SOL     OW 5176   2.558   3.504   6.714
 1426SOL    HW1 5177   2.636   3.515   6.775
 1426SOL    HW2 5178   2.531   3.592   6.676
 1427SOL     OW 5179   7.001   0.145   3.575
 1427SOL    HW1 5180   0.059   0.180   3.623
 1427SOL    HW2 5181   6.984   0.200   3.493
 1428SOL     OW 5182   0.483   2.408   6.831
 1428SOL    HW1 5183   0.420   2.420   6.908
 1428SOL    HW2 5184   0.563   2.357   6.861
 1429SOL     OW 5185   4.609   1.584   0.248
 1429SOL    HW1 5186   4.573   1.590   0.155
 1429SOL    HW2 5187   4.632   1.676   0.281
 1430SOL     OW 5188   1.680   5.345   4.098
 1430SOL    HW1 5189   1.735   5.328   4.179
 1430SOL    HW2 5190   1.583   5.328   4.119
 1431SOL     OW 5191   3.041   2.356   0.220
 1431SOL    HW1 5192   3.092   2.306   0.149
 1431SOL    HW2 5193   3.102   2.419   0.267
 1432SOL     OW 5194   2.802   1.835   1.856
 1432SOL    HW1 5195   2.867   1.858   1.784
 1432SOL    HW2 5196   2.762   1.919   1.893
 1433SOL     OW 5197   4.728   6.974   5.080
 1433SOL    HW1 5198   4.686   6.909   5.017
 1433SOL    HW2 5199   4.666   0.029   5.093
 1434SOL     OW 5200   1.149   0.677   5.940
 1434SOL    HW1 5201   1.223   0.704   5.878
 1434SOL    HW2 5202   1.188   0.644   6.026
 1435SOL     OW 5203   6.832   6.805   3.498
 1435SOL    HW1 5204   6.925   6.773   3.514
 1435SOL    HW2 5205   6.824   6.901   3.525
 1436SOL     OW 5206   5.347   4.167   6.258
 1436SOL    HW1 5207   5.326   4.085   6.312
 1436SOL    HW2 5208   5.331   4.248   6.313
 1437SOL     OW 5209   2.771   1.931   4.884
 1437SOL    HW1 5210   2.709   2.000   4.849
 1437SOL    HW2 5211   2.791   1.949   4.980
 1438SOL     OW 5212   2.277   6.510   1.535
 1438SOL    HW1 5213   2.344   6.572   1.575
 1438SOL    HW2 5214   2.209   6.562   1.483
 1439SOL     OW 5215   6.486   5.233   1.160
 1439SOL    HW1 5216   6.556   5.161   1.161
 1439SOL    HW2 5217   6.398   5.195   1.188
 1440SOL     OW 5218   3.475   3.558   6.554
 1440SOL    HW1 5219   3.501   3.573   6.459
 1440SOL    HW2 5220   3.469   3.647   6.601
 1441SOL     OW 5221   6.260   1.014   3.322
 1441SOL    HW1 5222   6.170   1.054   3.338
 1441SOL    HW2 5223   6.322   1.039   3.396
 1442SOL     OW 5224   6.882   5.898   6.920
 1442SOL    HW1 5225   6.856   5.945   7.005
 1442SOL    HW2 5226   6.981   5.886   6.918
 1443SOL     OW 5227   0.761   2.903   4.317
 1443SOL    HW1 5228   0.745   2.977   4.383
 1443SOL    HW2 5229   0.711   2.821   4.347
 1444SOL     OW 5230   5.246   5.674   0.936
 1444SOL    HW1 5231   5.206   5.765   0.941
 1444SOL    HW2 5232   5.238   5.629   1.025
 1445SOL     OW 5233   0.664   2.777   2.599
 1445SOL    HW1 5234   0.610   2.853   2.636
 1445SOL    HW2 5235   0.758   2.783   2.633
 1446SOL     OW 5236   5.621   1.896   0.179
 1446SOL    HW1 5237   5.708   1.857   0.148
 1446SOL    HW2 5238   5.593   1.970   0.118
 1447SOL     OW 5239   5.836   6.796   4.943
 1447SOL    HW1 5240   5.848   6.697   4.931
 1447SOL    HW2 5241   5.920   6.834   4.983
 1448SOL     OW 5242   6.952   2.333   5.103
 1448SOL    HW1 5243   6.931   2.345   5.006
 1448SOL    HW2 5244   6.879   2.281   5.147
 1449SOL     OW 5245   0.848   1.503   6.721
 1449SOL    HW1 5246   0.765   1.528   6.670
 1449SOL    HW2 5247   0.835   1.521   6.818
 1450SOL     OW 5248   1.023   2.284   1.351
 1450SOL    HW1 5249   0.937   2.301   1.301
 1450SOL    HW2 5250   1.002   2.246   1.441
 1451SOL     OW 5251   1.308   6.928   1.980
 1451SOL    HW1 5252   1.317   6.830   1.963
 1451SOL    HW2 5253   1.249   6.942   2.060
 1452SOL     OW 5254   4.270   1.314   4.443
 1452SOL    HW1 5255   4.294   1.297   4.539
 1452SOL    HW2 5256   4.221   1.401   4.437
 1453SOL     OW 5257   6.950   3.628   5.553
 1453SOL    HW1 5258   6.916   3.686   5.627
 1453SOL    HW2 5259   6.948   3.679   5.467
 1454SOL     OW 5260   0.245   2.929   2.156
 1454SOL    HW1 5261   0.294   2.973   2.081
 1454SOL    HW2 5262   0.218   2.837   2.128
 1455SOL     OW 5263   1.263   0.717   1.402
 1455SOL    HW1 5264   1.309   0.763   1.325
 1455SOL    HW2 5265   1.183   0.668   1.368
 1456SOL     OW 5266   6.988   6.148   5.415
 1456SOL    HW1 5267   6.980   6.066   5.360
 1456SOL    HW2 5268   0.038   6.207   5.378
 1457SOL     OW 5269   0.945   6.933   1.499
 1457SOL    HW1 5270   0.907   6.937   1.406
 1457SOL    HW2 5271   1.018   6.865   1.502
 1458SOL     OW 5272   5.582   5.503   3.763
 1458SOL    HW1 5273   5.534   5.446   3.830
 1458SOL    HW2 5274   5.586   5.454   3.675
 1459SOL     OW 5275   3.565   5.760   5.736
 1459SOL    HW1 5276   3.489   5.800   5.684
 1459SOL    HW2 5277   3.570   5.662   5.717
 1460SOL     OW 5278   0.560   6.481   5.369
 1460SOL    HW1 5279   0.592   6.470   5.275
 1460SOL    HW2 5280   0.558   6.392   5.415
 1461SOL     OW 5281   6.065   4.542   3.243
 1461SOL    HW1 5282   6.079   4.641   3.248
 1461SOL    HW2 5283   6.154   4.496   3.243
 1462SOL     OW 5284   1.305   0.374   7.022
 1462SOL    HW1 5285   1.253   0.292   6.999
 1462SOL    HW2 5286   1.246   0.439   0.046
 1463SOL     OW 5287   0.151   5.481   6.546
 1463SOL    HW1 5288   0.168   5.527   6.633
 1463SOL    HW2 5289   0.052   5.475   6.531
 1464SOL     OW 5290   0.205   6.207   1.384
 1464SOL    HW1 5291   0.243   6.159   1.463
 1464SOL    HW2 5292   0.198   6.305   1.404
 1465SOL     OW 5293   1.580   0.805   3.468
 1465SOL    HW1 5294   1.677   0.785   3.484
 1465SOL    HW2 5295   1.570   0.852   3.381
 1466SOL     OW 5296   1.577   2.250   2.227
 1466SOL    HW1 5297   1.609   2.156   2.214
 1466SOL    HW2 5298   1.497   2.266   2.168
 1467SOL     OW 5299   1.753   1.239   2.393
 1467SOL    HW1 5300   1.657   1.266   2.386
 1467SOL    HW2 5301   1.783   1.247   2.488
 1468SOL     OW 5302   3.401   6.384   2.203
 1468SOL    HW1 5303   3.366   6.338   2.122
 1468SOL    HW2 5304   3.457   6.462   2.175
 1469SOL     OW 5305   0.715   1.474   1.833
 1469SOL    HW1 5306   0.675   1.489   1.743
 1469SOL    HW2 5307   0.651   1.503   1.904
 1470SOL     OW 5308   1.203   2.022   2.427
 1470SOL    HW1 5309   1.254   1.946   2.386
 1470SOL    HW2 5310   1.251   2.054   2.509
 1471SOL     OW 5311   0.620   0.157   0.965
 1471SOL    HW1 5312   0.694   0.174   1.030
 1471SOL    HW2 5313   0.640   0.204   0.879
 1472SOL     OW 5314   3.059   5.235   5.331
 1472SOL    HW1 5315   3.108   5.158   5.290
 1472SOL    HW2 5316   3.086   5.244   5.427
 1473SOL     OW 5317   4.236   5.601   5.001
 1473SOL    HW1 5318   4.224   5.646   4.913
 1473SOL    HW2 5319   4.187   5.653   5.072
 1474SOL     OW 5320   5.539   5.275   2.532
 1474SOL    HW1 5321   5.531   5.328   2.616
 1474SOL    HW2 5322   5.516   5.334   2.454
 1475SOL     OW 5323   6.198   0.315   1.979
 1475SOL    HW1 5324   6.127   0.346   2.042
 1475SOL    HW2 5325   6.185   0.357   1.890
 1476SOL     OW 5326   3.068   0.918   0.438
 1476SOL    HW1 5327   3.056   0.989   0.508
 1476SOL    HW2 5328   3.103   0.835   0.481
 1477SOL     OW 5329   3.240   6.823   5.949
 1477SOL    HW1 5330   3.249   6.923   5.949
 1477SOL    HW2 5331   3.152   6.799   5.991
 1478SOL     OW 5332   5.963   5.374   6.080
 1478SOL    HW1 5333   6.034   5.444   6.080
 1478SOL    HW2 5334   6.004   5.285   6.099
 1479SOL     OW 5335   1.250   1.930   0.780
 1479SOL    HW1 5336   1.308   1.917   0.861
 1479SOL    HW2 5337   1.228   2.027   0.771
 1480SOL     OW 5338   3.381   1.028   4.758
 1480SOL    HW1 5339   3.451   1.034   4.687
 1480SOL    HW2 5340   3.291   1.017   4.715
 1481SOL     OW 5341   6.158   3.381   6.458
 1481SOL    HW1 5342   6.092   3.410   6.389
 1481SOL    HW2 5343   6.122   3.303   6.508
 1482SOL     OW 5344   4.643   1.299   1.548
 1482SOL    HW1 5345   4.571   1.240   1.511
 1482SOL    HW2 5346   4.607   1.352   1.625
 1483SOL     OW 5347   4.965   2.151   6.614
 1483SOL    HW1 5348   4.942   2.216   6.542
 1483SOL    HW2 5349   5.009   2.200   6.690
 1484SOL     OW 5350   5.661   4.211   4.977
 1484SOL    HW1 5351   5.702   4.132   4.931
 1484SOL    HW2 5352   5.569   4.188   5.009
 1485SOL     OW 5353   3.913   1.365   3.372
 1485SOL    HW1 5354   3.834   1.417   3.340
 1485SOL    HW2 5355   3.891   1.267   3.371
 1486SOL     OW 5356   5.152   1.533   2.713
 1486SOL    HW1 5357   5.178   1.609   2.773
 1486SOL    HW2 5358   5.093   1.567   2.641
 1487SOL     OW 5359   6.869   2.257   6.581
 1487SOL    HW1 5360   6.834   2.341   6.541
 1487SOL    HW2 5361   6.909   2.200   6.509
 1488SOL     OW 5362   5.406   0.985   3.324
 1488SOL    HW1 5363   5.429   1.021   3.415
 1488SOL    HW2 5364   5.352   0.902   3.333
 1489SOL     OW 5365   4.333   4.859   5.338
 1489SOL    HW1 5366   4.388   4.897   5.264
 1489SOL    HW2 5367   4.361   4.899   5.425
 1490SOL     OW 5368   0.756   3.048   1.900
 1490SOL    HW1 5369   0.769   2.953   1.874
 1490SOL    HW2 5370   0.660   3.063   1.924
 1491SOL     OW 5371   6.567   4.140   2.582
 1491SOL    HW1 5372   6.662   4.169   2.597
 1491SOL    HW2 5373   6.521   4.131   2.670
 1492SOL     OW 5374   6.303   1.103   2.464
 1492SOL    HW1 5375   6.351   1.048   2.397
 1492SOL    HW2 5376   6.206   1.077   2.466
 1493SOL     OW 5377   3.333   6.839   5.484
 1493SOL    HW1 5378   3.278   6.893   5.420
 1493SOL    HW2 5379   3.430   6.854   5.465
 1494SOL     OW 5380   4.923   1.579   6.925
 1494SOL    HW1 5381   4.865   1.499   6.938
 1494SOL    HW2 5382   4.885   1.657   6.975
 1495SOL     OW 5383   6.703   3.237   5.630
 1495SOL    HW1 5384   6.693   3.143   5.598
 1495SOL    HW2 5385   6.743   3.293   5.558
 1496SOL     OW 5386   0.251   1.611   1.775
 1496SOL    HW1 5387   0.288   1.523   1.804
 1496SOL    HW2 5388   0.252   1.675   1.851
 1497SOL     OW 5389   5.907   3.532   2.661
 1497SOL    HW1 5390   5.923   3.481   2.577
 1497SOL    HW2 5391   5.986   3.592   2.679
 1498SOL     OW 5392   2.553   4.842   6.819
 1498SOL    HW1 5393   2.499   4.905   6.762
 1498SOL    HW2 5394   2.598   4.892   6.892
 1499SOL     OW 5395   0.347   2.894   5.898
 1499SOL    HW1 5396   0.294   2.832   5.840
 1499SOL    HW2 5397   0.301   2.903   5.987
 1500SOL     OW 5398   0.121   6.907   6.951
 1500SOL    HW1 5399   0.053   6.980   6.950
 1500SOL    HW2 5400   0.139   6.877   6.858
 1501SOL     OW 5401   5.264   2.148   6.823
 1501SOL    HW1 5402   5.306   2.143   6.913
 1501SOL    HW2 5403   5.188   2.212   6.825
 1502SOL     OW 5404   4.114   0.041   0.112
 1502SOL    HW1 5405   4.105   6.969   0.081
 1502SOL    HW2 5406   4.036   0.064   0.169
 1503SOL     OW 5407   0.747   3.793   1.748
 1503SOL    HW1 5408   0.695   3.848   1.815
 1503SOL    HW2 5409   0.805   3.728   1.797
 1504SOL     OW 5410   0.514   6.921   4.703
 1504SOL    HW1 5411   0.600   6.970   4.692
 1504SOL    HW2 5412   0.460   6.928   4.619
 1505SOL     OW 5413   5.078   0.284   4.775
 1505SOL    HW1 5414   4.990   0.249   4.807
 1505SOL    HW2 5415   5.072   0.383   4.763
 1506SOL     OW 5416   0.753   5.932   0.197
 1506SOL    HW1 5417   0.801   5.973   0.274
 1506SOL    HW2 5418   0.758   5.832   0.204
 1507SOL     OW 5419   0.463   1.964   5.815
 1507SOL    HW1 5420   0.491   1.884   5.761
 1507SOL    HW2 5421   0.474   2.047   5.760
 1508SOL     OW 5422   6.504   1.910   1.932
 1508SOL    HW1 5423   6.449   1.872   1.857
 1508SOL    HW2 5424   6.445   1.924   2.012
 1509SOL     OW 5425   3.620   1.527   5.828
 1509SOL    HW1 5426   3.718   1.542   5.810
 1509SOL    HW2 5427   3.608   1.501   5.924
 1510SOL     OW 5428   4.918   1.845   4.950
 1510SOL    HW1 5429   4.956   1.757   4.978
 1510SOL    HW2 5430   4.988   1.899   4.903
 1511SOL     OW 5431   4.012   3.032   3.065
 1511SOL    HW1 5432   4.050   2.985   3.144
 1511SOL    HW2 5433   4.016   3.131   3.079
 1512SOL     OW 5434   0.364   5.116   1.053
 1512SOL    HW1 5435   0.311   5.065   0.986
 1512SOL    HW2 5436   0.408   5.052   1.116
 1513SOL     OW 5437   3.712   0.830   4.752
 1513SOL    HW1 5438   3.657   0.758   4.794
 1513SOL    HW2 5439   3.652   0.896   4.707
 1514SOL     OW 5440   3.957   2.122   5.692
 1514SOL    HW1 5441   3.870   2.135   5.644
 1514SOL    HW2 5442   4.022   2.191   5.662
 1515SOL     OW 5443   6.217   1.891   3.057
 1515SOL    HW1 5444   6.297   1.847   3.100
 1515SOL    HW2 5445   6.188   1.836   2.979
 1516SOL     OW 5446   7.011   6.235   6.867
 1516SOL    HW1 5447   6.922   6.193   6.851
 1516SOL    HW2 5448   0.054   6.166   6.897
 1517SOL     OW 5449   4.941   6.126   3.156
 1517SOL    HW1 5450   4.987   6.074   3.227
 1517SOL    HW2 5451   4.860   6.171   3.194
 1518SOL     OW 5452   1.071   2.537   0.058
 1518SOL    HW1 5453   1.125   2.481   0.121
 1518SOL    HW2 5454   1.041   2.479   7.004
 1519SOL     OW 5455   6.846   5.422   1.413
 1519SOL    HW1 5456   6.769   5.358   1.406
 1519SOL    HW2 5457   6.890   5.411   1.502
 1520SOL     OW 5458   0.450   4.215   2.097
 1520SOL    HW1 5459   0.430   4.228   1.999
 1520SOL    HW2 5460   0.448   4.118   2.118
 1521SOL     OW 5461   1.577   4.169   6.369
 1521SOL    HW1 5462   1.643   4.211   6.431
 1521SOL    HW2 5463   1.617   4.162   6.278
 1522SOL     OW 5464   5.518   6.079   5.162
 1522SOL    HW1 5465   5.448   6.014   5.190
 1522SOL    HW2 5466   5.530   6.148   5.233
 1523SOL     OW 5467   5.114   5.967   0.889
 1523SOL    HW1 5468   5.168   6.039   0.844
 1523SOL    HW2 5469   5.068   6.005   0.969
 1524SOL     OW 5470   2.550   2.350   2.009
 1524SOL    HW1 5471   2.507   2.268   1.971
 1524SOL    HW2 5472   2.636   2.324   2.054
 1525SOL     OW 5473   0.052   2.744   0.608
 1525SOL    HW1 5474   6.982   2.774   0.587
 1525SOL    HW2 5475   0.116   2.819   0.595
 1526SOL     OW 5476   6.718   0.194   6.849
 1526SOL    HW1 5477   6.639   0.180   6.790
 1526SOL    HW2 5478   6.689   0.241   6.933
 1527SOL     OW 5479   4.545   0.602   5.197
 1527SOL    HW1 5480   4.487   0.521   5.186
 1527SOL    HW2 5481   4.488   0.683   5.207
 1528SOL     OW 5482   4.607   5.388   2.511
 1528SOL    HW1 5483   4.598   5.403   2.610
 1528SOL    HW2 5484   4.653   5.467   2.470
 1529SOL     OW 5485   4.192   0.957   0.249
 1529SOL    HW1 5486   4.269   0.954   0.313
 1529SOL    HW2 5487   4.212   0.899   0.170
 1530SOL     OW 5488   3.260   2.155   1.931
 1530SOL    HW1 5489   3.337   2.154   1.995
 1530SOL    HW2 5490   3.174   2.143   1.981
 1531SOL     OW 5491   4.393   0.541   5.565
 1531SOL    HW1 5492   4.317   0.526   5.502
 1531SOL    HW2 5493   4.465   0.473   5.546
 1532SOL     OW 5494   3.215   3.398   6.466
 1532SOL    HW1 5495   3.163   3.473   6.507
 1532SOL    HW2 5496   3.245   3.424   6.375
 1533SOL     OW 5497   5.568   4.005   6.687
 1533SOL    HW1 5498   5.635   4.079   6.680
 1533SOL    HW2 5499   5.524   4.010   6.776
 1534SOL     OW 5500   2.166   4.802   6.666
 1534SOL    HW1 5501   2.081   4.758   6.638
 1534SOL    HW2 5502   2.205   4.754   6.744
 1535SOL     OW 5503   5.215   6.657   4.379
 1535SOL    HW1 5504   5.312   6.632   4.387
 1535SOL    HW2 5505   5.159   6.575   4.389
 1536SOL     OW 5506   3.908   4.697   5.505
 1536SOL    HW1 5507   3.880   4.794   5.509
 1536SOL    HW2 5508   3.836   4.644   5.460
 1537SOL     OW 5509   4.900   6.445   3.317
 1537SOL    HW1 5510   4.909   6.348   3.294
 1537SOL    HW2 5511   4.841   6.455   3.397
 1538SOL     OW 5512   3.945   5.497   6.466
 1538SOL    HW1 5513   3.888   5.425   6.426
 1538SOL    HW2 5514   4.003   5.457   6.537
 1539SOL     OW 5515   4.886   4.073   1.356
 1539SOL    HW1 5516   4.958   4.008   1.381
 1539SOL    HW2 5517   4.880   4.079   1.257
 1540SOL     OW 5518   1.229   6.301   6.113
 1540SOL    HW1 5519   1.290   6.244   6.168
 1540SOL    HW2 5520   1.283   6.349   6.043
 1541SOL     OW 5521   3.883   2.962   3.360
 1541SOL    HW1 5522   3.866   2.969   3.459
 1541SOL    HW2 5523   3.878   2.866   3.332
 1542SOL     OW 5524   5.473   6.662   2.527
 1542SOL    HW1 5525   5.457   6.709   2.440
 1542SOL    HW2 5526   5.407   6.587   2.538
 1543SOL     OW 5527   3.607   5.096   5.480
 1543SOL    HW1 5528   3.549   5.020   5.506
 1543SOL    HW2 5529   3.700   5.063   5.463
 1544SOL     OW 5530   3.214   3.196   2.988
 1544SOL    HW1 5531   3.212   3.162   2.894
 1544SOL    HW2 5532   3.303   3.177   3.029
 1545SOL     OW 5533   5.082   0.841   3.810
 1545SOL    HW1 5534   5.029   0.784   3.872
 1545SOL    HW2 5535   5.171   0.798   3.791
 1546SOL     OW 5536   3.886   6.230   5.894
 1546SOL    HW1 5537   3.833   6.260   5.973
 1546SOL    HW2 5538   3.978   6.270   5.898
 1547SOL     OW 5539   2.112   3.249   2.872
 1547SOL    HW1 5540   2.021   3.228   2.835
 1547SOL    HW2 5541   2.146   3.170   2.922
 1548SOL     OW 5542   5.420   3.912   5.422
 1548SOL    HW1 5543   5.441   4.010   5.416
 1548SOL    HW2 5544   5.470   3.871   5.497
 1549SOL     OW 5545   4.981   1.444   2.429
 1549SOL    HW1 5546   4.994   1.347   2.453
 1549SOL    HW2 5547   4.941   1.492   2.507
 1550SOL     OW 5548   3.420   3.491   0.012
 1550SOL    HW1 5549   3.380   3.522   0.098
 1550SOL    HW2 5550   3.483   3.415   0.029
 1551SOL     OW 5551   2.057   4.630   5.575
 1551SOL    HW1 5552   2.073   4.635   5.476
 1551SOL    HW2 5553   2.067   4.536   5.606
 1552SOL     OW 5554   0.353   5.539   6.914
 1552SOL    HW1 5555   0.350   5.623   6.967
 1552SOL    HW2 5556   0.420   5.548   6.841
 1553SOL     OW 5557   0.317   1.837   5.385
 1553SOL    HW1 5558   0.316   1.842   5.285
 1553SOL    HW2 5559   0.316   1.741   5.413
 1554SOL     OW 5560   4.430   1.988   3.270
 1554SOL    HW1 5561   4.519   1.951   3.244
 1554SOL    HW2 5562   4.437   2.087   3.281
 1555SOL     OW 5563   5.023   2.315   6.841
 1555SOL    HW1 5564   4.926   2.335   6.830
 1555SOL    HW2 5565   5.077   2.396   6.818
 1556SOL     OW 5566   3.383   0.947   0.697
 1556SOL    HW1 5567   3.468   0.948   0.644
 1556SOL    HW2 5568   3.352   1.041   0.713
 1557SOL     OW 5569   2.473   1.758   6.334
 1557SOL    HW1 5570   2.455   1.744   6.236
 1557SOL    HW2 5571   2.463   1.671   6.383
 1558SOL     OW 5572   5.116   0.826   4.532
 1558SOL    HW1 5573   5.029   0.847   4.488
 1558SOL    HW2 5574   5.137   0.729   4.518
 1559SOL     OW 5575   0.263   2.497   6.988
 1559SOL    HW1 5576   0.295   2.570   6.928
 1559SOL    HW2 5577   0.182   2.528   0.016
 1560SOL     OW 5578   1.456   1.390   5.656
 1560SOL    HW1 5579   1.436   1.477   5.611
 1560SOL    HW2 5580   1.483   1.406   5.750
 1561SOL     OW 5581   6.124   6.290   4.076
 1561SOL    HW1 5582   6.110   6.368   4.014
 1561SOL    HW2 5583   6.081   6.209   4.037
 1562SOL     OW 5584   3.852   6.319   2.720
 1562SOL    HW1 5585   3.827   6.414   2.740
 1562SOL    HW2 5586   3.905   6.316   2.635
 1563SOL     OW 5587   1.830   0.819   6.268
 1563SOL    HW1 5588   1.788   0.843   6.180
 1563SOL    HW2 5589   1.885   0.737   6.258
 1564SOL     OW 5590   1.242   3.034   3.181
 1564SOL    HW1 5591   1.288   3.122   3.173
 1564SOL    HW2 5592   1.305   2.966   3.218
 1565SOL     OW 5593   4.439   4.913   4.765
 1565SOL    HW1 5594   4.493   4.833   4.792
 1565SOL    HW2 5595   4.346   4.885   4.743
 1566SOL     OW 5596   5.238   4.978   3.852
 1566SOL    HW1 5597   5.315   5.010   3.797
 1566SOL    HW2 5598   5.199   4.896   3.810
 1567SOL     OW 5599   5.553   5.407   0.306
 1567SOL    HW1 5600   5.629   5.418   0.370
 1567SOL    HW2 5601   5.528   5.310   0.301
 1568SOL     OW 5602   1.762   6.243   1.140
 1568SOL    HW1 5603   1.698   6.320   1.143
 1568SOL    HW2 5604   1.716   6.162   1.106
 1569SOL     OW 5605   4.393   6.467   3.771
 1569SOL    HW1 5606   4.490   6.461   3.793
 1569SOL    HW2 5607   4.340   6.478   3.856
 1570SOL     OW 5608   2.093   6.801   0.318
 1570SOL    HW1 5609   2.038   6.810   0.401
 1570SOL    HW2 5610   2.081   6.710   0.280
 1571SOL     OW 5611   5.313   1.819   1.907
 1571SOL    HW1 5612   5.403   1.778   1.918
 1571SOL    HW2 5613   5.291   1.874   1.988
 1572SOL     OW 5614   0.706   6.614   0.546
 1572SOL    HW1 5615   0.622   6.623   0.492
 1572SOL    HW2 5616   0.777   6.673   0.507
 1573SOL     OW 5617   5.441   3.701   2.195
 1573SOL    HW1 5618   5.507   3.669   2.127
 1573SOL    HW2 5619   5.353   3.657   2.179
 1574SOL     OW 5620   0.032   0.870   2.355
 1574SOL    HW1 5621   0.074   0.939   2.297
 1574SOL    HW2 5622   6.957   0.862   2.333
 1575SOL     OW 5623   3.332   1.593   0.795
 1575SOL    HW1 5624   3.321   1.554   0.703
 1575SOL    HW2 5625   3.271   1.672   0.805
 1576SOL     OW 5626   1.632   0.442   3.056
 1576SOL    HW1 5627   1.556   0.415   3.115
 1576SOL    HW2 5628   1.595   0.488   2.974
 1577SOL     OW 5629   2.965   0.958   5.095
 1577SOL    HW1 5630   3.012   0.924   5.013
 1577SOL    HW2 5631   3.011   0.921   5.176
 1578SOL     OW 5632   6.233   2.829   5.547
 1578SOL    HW1 5633   6.234   2.742   5.496
 1578SOL    HW2 5634   6.286   2.897   5.496
 1579SOL     OW 5635   0.856   1.498   2.285
 1579SOL    HW1 5636   0.822   1.545   2.367
 1579SOL    HW2 5637   0.857   1.561   2.208
 1580SOL     OW 5638   3.033   3.688   4.629
 1580SOL    HW1 5639   3.042   3.590   4.614
 1580SOL    HW2 5640   2.994   3.704   4.720
 1581SOL     OW 5641   0.760   3.842   4.574
 1581SOL    HW1 5642   0.830   3.813   4.639
 1581SOL    HW2 5643   0.726   3.933   4.600
 1582SOL     OW 5644   1.818   0.166   3.711
 1582SOL    HW1 5645   1.903   0.117   3.690
 1582SOL    HW2 5646   1.785   0.212   3.629
 1583SOL     OW 5647   1.341   4.737   3.530
 1583SOL    HW1 5648   1.380   4.826   3.554
 1583SOL    HW2 5649   1.241   4.746   3.522
 1584SOL     OW 5650   1.135   6.750   5.616
 1584SOL    HW1 5651   1.111   6.671   5.671
 1584SOL    HW2 5652   1.108   6.734   5.521
 1585SOL     OW 5653   5.987   1.080   3.405
 1585SOL    HW1 5654   5.979   1.159   3.344
 1585SOL    HW2 5655   5.896   1.047   3.429
 1586SOL     OW 5656   3.517   5.024   2.033
 1586SOL    HW1 5657   3.584   5.055   2.100
 1586SOL    HW2 5658   3.557   4.953   1.976
 1587SOL     OW 5659   3.130   5.428   6.356
 1587SOL    HW1 5660   3.200   5.452   6.423
 1587SOL    HW2 5661   3.152   5.340   6.315
 1588SOL     OW 5662   4.805   1.503   3.134
 1588SOL    HW1 5663   4.718   1.464   3.164
 1588SOL    HW2 5664   4.802   1.603   3.145
 1589SOL     OW 5665   5.890   3.519   1.457
 1589SOL    HW1 5666   5.838   3.435   1.443
 1589SOL    HW2 5667   5.985   3.505   1.430
 1590SOL     OW 5668   3.520   5.552   6.328
 1590SOL    HW1 5669   3.437   5.557   6.384
 1590SOL    HW2 5670   3.494   5.555   6.231
 1591SOL     OW 5671   5.941   4.980   2.786
 1591SOL    HW1 5672   5.976   4.946   2.699
 1591SOL    HW2 5673   5.930   4.904   2.850
 1592SOL     OW 5674   1.955   4.430   6.769
 1592SOL    HW1 5675   1.868   4.389   6.794
 1592SOL    HW2 5676   2.008   4.364   6.716
 1593SOL     OW 5677   1.474   6.524   4.411
 1593SOL    HW1 5678   1.476   6.447   4.347
 1593SOL    HW2 5679   1.457   6.609   4.361
 1594SOL     OW 5680   0.256   6.257   2.145
 1594SOL    HW1 5681   0.201   6.231   2.225
 1594SOL    HW2 5682   0.315   6.334   2.169
 1595SOL     OW 5683   1.355   5.578   0.335
 1595SOL    HW1 5684   1.408   5.537   0.409
 1595SOL    HW2 5685   1.417   5.612   0.265
 1596SOL     OW 5686   0.520   2.397   3.601
 1596SOL    HW1 5687   0.464   2.323   3.637
 1596SOL    HW2 5688   0.614   2.365   3.588
 1597SOL     OW 5689   1.548   6.882   6.647
 1597SOL    HW1 5690   1.558   6.907   6.550
 1597SOL    HW2 5691   1.518   6.787   6.654
 1598SOL     OW 5692   0.827   4.068   6.493
 1598SOL    HW1 5693   0.843   4.070   6.395
 1598SOL    HW2 5694   0.744   4.016   6.513
 1599SOL     OW 5695   4.768   4.623   5.794
 1599SOL    HW1 5696   4.748   4.644   5.699
 1599SOL    HW2 5697   4.795   4.527   5.802
 1600SOL     OW 5698   4.924   1.749   4.225
 1600SOL    HW1 5699   4.888   1.664   4.266
 1600SOL    HW2 5700   4.981   1.797   4.292
 1601SOL     OW 5701   0.418   4.495   4.643
 1601SOL    HW1 5702   0.452   4.402   4.657
 1601SOL    HW2 5703   0.489   4.560   4.666
 1602SOL     OW 5704   2.713   5.326   3.523
 1602SOL    HW1 5705   2.687   5.248   3.467
 1602SOL    HW2 5706   2.692   5.411   3.473
 1603SOL     OW 5707   7.013   6.067   2.389
 1603SOL    HW1 5708   0.019   6.163   2.389
 1603SOL    HW2 5709   7.009   6.033   2.295
 1604SOL     OW 5710   5.897   4.755   1.555
 1604SOL    HW1 5711   5.988   4.725   1.584
 1604SOL    HW2 5712   5.857   4.812   1.627
 1605SOL     OW 5713   6.896   6.083   1.484
 1605SOL    HW1 5714   6.883   6.001   1.428
 1605SOL    HW2 5715   6.898   6.056   1.581
 1606SOL     OW 5716   3.363   1.247   4.953
 1606SOL    HW1 5717   3.455   1.285   4.943
 1606SOL    HW2 5718   3.350   1.173   4.888
 1607SOL     OW 5719   4.244   1.276   1.523
 1607SOL    HW1 5720   4.177   1.331   1.572
 1607SOL    HW2 5721   4.247   1.184   1.562
 1608SOL     OW 5722   0.990   0.393   3.904
 1608SOL    HW1 5723   0.993   0.294   3.896
 1608SOL    HW2 5724   0.911   0.429   3.855
 1609SOL     OW 5725   3.633   0.516   0.769
 1609SOL    HW1 5726   3.632   0.462   0.853
 1609SOL    HW2 5727   3.540   0.524   0.733
 1610SOL     OW 5728   5.561   4.365   6.912
 1610SOL    HW1 5729   5.624   4.288   6.924
 1610SOL    HW2 5730   5.467   4.332   6.915
 1611SOL     OW 5731   2.201   3.795   1.307
 1611SOL    HW1 5732   2.283   3.785   1.364
 1611SOL    HW2 5733   2.166   3.705   1.284
 1612SOL     OW 5734   2.578   0.979   5.418
 1612SOL    HW1 5735   2.672   0.969   5.384
 1612SOL    HW2 5736   2.579   1.028   5.505
 1613SOL     OW 5737   1.930   5.184   1.741
 1613SOL    HW1 5738   1.874   5.251   1.789
 1613SOL    HW2 5739   1.924   5.201   1.643
 1614SOL     OW 5740   6.441   3.384   0.056
 1614SOL    HW1 5741   6.425   3.412   6.983
 1614SOL    HW2 5742   6.530   3.418   0.086
 1615SOL     OW 5743   6.498   4.804   1.245
 1615SOL    HW1 5744   6.557   4.875   1.208
 1615SOL    HW2 5745   6.461   4.749   1.171
 1616SOL     OW 5746   3.816   1.790   5.040
 1616SOL    HW1 5747   3.820   1.765   4.943
 1616SOL    HW2 5748   3.859   1.879   5.053
 1617SOL     OW 5749   6.045   0.688   2.346
 1617SOL    HW1 5750   5.991   0.665   2.427
 1617SOL    HW2 5751   6.142   0.693   2.371
 1618SOL     OW 5752   1.904   4.238   1.758
 1618SOL    HW1 5753   1.976   4.173   1.783
 1618SOL    HW2 5754   1.819   4.213   1.805
 1619SOL     OW 5755   0.925   2.941   2.277
 1619SOL    HW1 5756   0.907   2.846   2.300
 1619SOL    HW2 5757   1.003   2.974   2.331
 1620SOL     OW 5758   2.803   4.980   1.747
 1620SOL    HW1 5759   2.736   5.037   1.795
 1620SOL    HW2 5760   2.767   4.957   1.656
 1621SOL     OW 5761   0.546   1.079   0.086
 1621SOL    HW1 5762   0.512   1.165   0.048
 1621SOL    HW2 5763   0.645   1.084   0.097
 1622SOL     OW 5764   0.565   2.548   4.803
 1622SOL    HW1 5765   0.507   2.619   4.843
 1622SOL    HW2 5766   0.661   2.577   4.807
 1623SOL     OW 5767   2.163   3.523   5.618
 1623SOL    HW1 5768   2.169   3.608   5.566
 1623SOL    HW2 5769   2.198   3.448   5.563
 1624SOL     OW 5770   2.672   0.957   5.129
 1624SOL    HW1 5771   2.624   1.045   5.133
 1624SOL    HW2 5772   2.771   0.973   5.119
 1625SOL     OW 5773   1.086   5.731   1.755
 1625SOL    HW1 5774   1.148   5.810   1.761
 1625SOL    HW2 5775   1.124   5.664   1.691
 1626SOL     OW 5776   3.640   1.811   6.363
 1626SOL    HW1 5777   3.625   1.719   6.398
 1626SOL    HW2 5778   3.639   1.876   6.439
 1627SOL     OW 5779   7.018   3.115   3.774
 1627SOL    HW1 5780   0.029   3.137   3.682
 1627SOL    HW2 5781   0.066   3.138   3.841
 1628SOL     OW 5782   4.518   4.879   0.836
 1628SOL    HW1 5783   4.486   4.957   0.890
 1628SOL    HW2 5784   4.484   4.794   0.877
 1629SOL     OW 5785   2.930   1.269   3.949
 1629SOL    HW1 5786   3.026   1.241   3.956
 1629SOL    HW2 5787   2.904   1.276   3.852
 1630SOL     OW 5788   1.505   5.789   5.705
 1630SOL    HW1 5789   1.505   5.703   5.655
 1630SOL    HW2 5790   1.502   5.771   5.803
 1631SOL     OW 5791   0.198   2.211   6.387
 1631SOL    HW1 5792   0.230   2.271   6.461
 1631SOL    HW2 5793   0.253   2.127   6.386
 1632SOL     OW 5794   6.800   2.101   6.798
 1632SOL    HW1 5795   6.817   2.147   6.711
 1632SOL    HW2 5796   6.744   2.019   6.782
 1633SOL     OW 5797   5.167   3.033   4.459
 1633SOL    HW1 5798   5.256   3.072   4.480
 1633SOL    HW2 5799   5.107   3.042   4.539
 1634SOL     OW 5800   4.166   4.887   6.518
 1634SOL    HW1 5801   4.185   4.981   6.490
 1634SOL    HW2 5802   4.081   4.857   6.475
 1635SOL     OW 5803   0.109   5.866   5.655
 1635SOL    HW1 5804   0.143   5.773   5.663
 1635SOL    HW2 5805   0.157   5.925   5.721
 1636SOL     OW 5806   2.948   4.232   1.717
 1636SOL    HW1 5807   2.871   4.196   1.663
 1636SOL    HW2 5808   2.915   4.306   1.775
 1637SOL     OW 5809   0.485   0.345   3.015
 1637SOL    HW1 5810   0.557   0.413   3.029
 1637SOL    HW2 5811   0.427   0.374   2.938
 1638SOL     OW 5812   0.247   4.471   3.678
 1638SOL    HW1 5813   0.246   4.547   3.743
 1638SOL    HW2 5814   0.154   4.453   3.647
 1639SOL     OW 5815   4.753   6.703   2.908
 1639SOL    HW1 5816   4.772   6.800   2.897
 1639SOL    HW2 5817   4.838   6.654   2.924
 1640SOL     OW 5818   5.839   1.196   0.611
 1640SOL    HW1 5819   5.773   1.186   0.537
 1640SOL    HW2 5820   5.808   1.267   0.675
 1641SOL     OW 5821   4.950   2.622   4.293
 1641SOL    HW1 5822   4.937   2.534   4.339
 1641SOL    HW2 5823   5.023   2.673   4.339
 1642SOL     OW 5824   5.985   3.674   6.756
 1642SOL    HW1 5825   5.933   3.746   6.802
 1642SOL    HW2 5826   5.994   3.696   6.659
 1643SOL     OW 5827   2.605   5.088   4.060
 1643SOL    HW1 5828   2.655   5.157   4.008
 1643SOL    HW2 5829   2.545   5.132   4.127
 1644SOL     OW 5830   0.335   2.768   1.370
 1644SOL    HW1 5831   0.415   2.709   1.387
 1644SOL    HW2 5832   0.317   2.770   1.271
 1645SOL     OW 5833   3.151   5.858   5.923
 1645SOL    HW1 5834   3.088   5.827   5.852
 1645SOL    HW2 5835   3.187   5.779   5.973
 1646SOL     OW 5836   3.070   5.869   0.526
 1646SOL    HW1 5837   3.063   5.806   0.449
 1646SOL    HW2 5838   2.993   5.933   0.523
 1647SOL     OW 5839   6.531   2.652   4.723
 1647SOL    HW1 5840   6.473   2.647   4.804
 1647SOL    HW2 5841   6.533   2.747   4.690
 1648SOL     OW 5842   6.039   5.541   0.875
 1648SOL    HW1 5843   6.002   5.582   0.959
 1648SOL    HW2 5844   6.138   5.554   0.872
 1649SOL     OW 5845   3.543   0.047   4.457
 1649SOL    HW1 5846   3.578   0.029   4.365
 1649SOL    HW2 5847   3.482   0.126   4.455
 1650SOL     OW 5848   2.093   6.153   5.422
 1650SOL    HW1 5849   1.994   6.157   5.425
 1650SOL    HW2 5850   2.128   6.108   5.504
 1651SOL     OW 5851   0.653   1.397   1.377
 1651SOL    HW1 5852   0.577   1.333   1.369
 1651SOL    HW2 5853   0.737   1.354   1.343
 1652SOL     OW 5854   1.231   3.208   2.070
 1652SOL    HW1 5855   1.295   3.188   2.144
 1652SOL    HW2 5856   1.265   3.285   2.016
 1653SOL     OW 5857   0.927   6.913   1.196
 1653SOL    HW1 5858   0.981   6.997   1.191
 1653SOL    HW2 5859   0.832   6.936   1.216
 1654SOL     OW 5860   6.669   3.338   2.140
 1654SOL    HW1 5861   6.698   3.266   2.203
 1654SOL    HW2 5862   6.615   3.407   2.190
 1655SOL     OW 5863   6.814   2.609   5.081
 1655SOL    HW1 5864   6.863   2.634   4.998
 1655SOL    HW2 5865   6.772   2.519   5.069
 1656SOL     OW 5866   2.459   4.993   2.519
 1656SOL    HW1 5867   2.523   5.050   2.467
 1656SOL    HW2 5868   2.429   4.917   2.462
 1657SOL     OW 5869   6.872   0.327   4.076
 1657SOL    HW1 5870   6.911   0.354   4.164
 1657SOL    HW2 5871   6.854   0.229   4.077
 1658SOL     OW 5872   1.123   0.102   1.167
 1658SOL    HW1 5873   1.105   0.157   1.249
 1658SOL    HW2 5874   1.207   0.135   1.123
 1659SOL     OW 5875   3.509   0.804   5.932
 1659SOL    HW1 5876   3.480   0.736   5.999
 1659SOL    HW2 5877   3.609   0.806   5.927
 1660SOL     OW 5878   0.994   4.930   4.063
 1660SOL    HW1 5879   0.953   5.021   4.070
 1660SOL    HW2 5880   1.066   4.931   3.993
 1661SOL     OW 5881   2.939   1.182   1.959
 1661SOL    HW1 5882   2.949   1.159   2.056
 1661SOL    HW2 5883   2.853   1.231   1.945
 1662SOL     OW 5884   6.774   0.032   3.563
 1662SOL    HW1 5885   6.699   0.093   3.538
 1662SOL    HW2 5886   6.858   0.085   3.575
 1663SOL     OW 5887   4.236   6.939   3.022
 1663SOL    HW1 5888   4.168   6.909   3.089
 1663SOL    HW2 5889   4.321   6.887   3.035
 1664SOL     OW 5890   2.414   6.529   4.427
 1664SOL    HW1 5891   2.474   6.601   4.392
 1664SOL    HW2 5892   2.464   6.442   4.429
 1665SOL     OW 5893   0.379   1.412   3.022
 1665SOL    HW1 5894   0.398   1.487   2.960
 1665SOL    HW2 5895   0.464   1.382   3.066
 1666SOL     OW 5896   5.617   3.323   0.210
 1666SOL    HW1 5897   5.537   3.377   0.236
 1666SOL    HW2 5898   5.637   3.339   0.113
 1667SOL     OW 5899   6.544   6.753   1.404
 1667SOL    HW1 5900   6.631   6.774   1.360
 1667SOL    HW2 5901   6.476   6.823   1.380
 1668SOL     OW 5902   5.308   5.954   5.459
 1668SOL    HW1 5903   5.218   5.953   5.501
 1668SOL    HW2 5904   5.365   6.023   5.503
 1669SOL     OW 5905   0.293   5.754   6.165
 1669SOL    HW1 5906   0.376   5.764   6.110
 1669SOL    HW2 5907   0.274   5.840   6.214
 1670SOL     OW 5908   0.056   4.194   6.125
 1670SOL    HW1 5909   0.081   4.132   6.051
 1670SOL    HW2 5910   0.070   4.289   6.095
 1671SOL     OW 5911   4.820   2.802   0.785
 1671SOL    HW1 5912   4.818   2.819   0.687
 1671SOL    HW2 5913   4.778   2.713   0.804
 1672SOL     OW 5914   1.706   3.127   1.388
 1672SOL    HW1 5915   1.683   3.048   1.331
 1672SOL    HW2 5916   1.625   3.185   1.399
 1673SOL     OW 5917   0.126   2.216   3.729
 1673SOL    HW1 5918   0.074   2.293   3.765
 1673SOL    HW2 5919   0.067   2.135   3.725
 1674SOL     OW 5920   0.752   4.187   2.641
 1674SOL    HW1 5921   0.811   4.142   2.574
 1674SOL    HW2 5922   0.670   4.132   2.656
 1675SOL     OW 5923   4.030   0.874   5.885
 1675SOL    HW1 5924   3.993   0.958   5.847
 1675SOL    HW2 5925   4.123   0.891   5.920
 1676SOL     OW 5926   1.777   1.589   2.123
 1676SOL    HW1 5927   1.758   1.532   2.043
 1676SOL    HW2 5928   1.703   1.580   2.190
 1677SOL     OW 5929   3.607   3.231   5.428
 1677SOL    HW1 5930   3.631   3.306   5.489
 1677SOL    HW2 5931   3.667   3.234   5.347
 1678SOL     OW 5932   4.507   4.934   5.149
 1678SOL    HW1 5933   4.522   4.988   5.066
 1678SOL    HW2 5934   4.576   4.958   5.217
 1679SOL     OW 5935   2.203   2.919   5.251
 1679SOL    HW1 5936   2.258   2.904   5.333
 1679SOL    HW2 5937   2.264   2.937   5.173
 1680SOL     OW 5938   0.742   3.034   4.717
 1680SOL    HW1 5939   0.710   3.124   4.748
 1680SOL    HW2 5940   0.841   3.038   4.701
 1681SOL     OW 5941   6.185   5.526   0.212
 1681SOL    HW1 5942   6.088   5.534   0.237
 1681SOL    HW2 5943   6.237   5.601   0.251
 1682SOL     OW 5944   0.234   1.678   4.869
 1682SOL    HW1 5945   0.146   1.654   4.829
 1682SOL    HW2 5946   0.291   1.724   4.801
 1683SOL     OW 5947   4.320   5.844   1.017
 1683SOL    HW1 5948   4.276   5.852   1.107
 1683SOL    HW2 5949   4.250   5.834   0.946
 1684SOL     OW 5950   1.547   6.342   2.624
 1684SOL    HW1 5951   1.535   6.351   2.525
 1684SOL    HW2 5952   1.462   6.369   2.670
 1685SOL     OW 5953   2.256   1.119   5.801
 1685SOL    HW1 5954   2.240   1.218   5.794
 1685SOL    HW2 5955   2.338   1.103   5.856
 1686SOL     OW 5956   2.616   5.330   5.029
 1686SOL    HW1 5957   2.712   5.313   5.007
 1686SOL    HW2 5958   2.584   5.259   5.092
 1687SOL     OW 5959   2.463   3.188   1.127
 1687SOL    HW1 5960   2.448   3.168   1.224
 1687SOL    HW2 5961   2.420   3.117   1.071
 1688SOL     OW 5962   1.628   2.151   3.819
 1688SOL    HW1 5963   1.682   2.175   3.900
 1688SOL    HW2 5964   1.591   2.059   3.830
 1689SOL     OW 5965   4.776   0.760   2.310
 1689SOL    HW1 5966   4.866   0.723   2.335
 1689SOL    HW2 5967   4.709   0.687   2.311
 1690SOL     OW 5968   1.633   2.831   3.675
 1690SOL    HW1 5969   1.709   2.884   3.638
 1690SOL    HW2 5970   1.597   2.770   3.604
 1691SOL     OW 5971   5.617   4.314   3.365
 1691SOL    HW1 5972   5.559   4.362   3.299
 1691SOL    HW2 5973   5.649   4.228   3.325
 1692SOL     OW 5974   5.496   0.491   1.815
 1692SOL    HW1 5975   5.533   0.429   1.884
 1692SOL    HW2 5976   5.538   0.581   1.825
 1693SOL     OW 5977   0.321   2.374   2.478
 1693SOL    HW1 5978   0.416   2.402   2.492
 1693SOL    HW2 5979   0.319   2.283   2.436
 1694SOL     OW 5980   5.489   0.495   3.767
 1694SOL    HW1 5981   5.439   0.436   3.703
 1694SOL    HW2 5982   5.553   0.552   3.716
 1695SOL     OW 5983   2.933   1.531   6.343
 1695SOL    HW1 5984   2.859   1.473   6.309
 1695SOL    HW2 5985   2.953   1.508   6.438
 1696SOL     OW 5986   5.074   4.547   0.348
 1696SOL    HW1 5987   5.032   4.470   0.300
 1696SOL    HW2 5988   5.006   4.591   0.406
 1697SOL     OW 5989   5.335   6.420   1.612
 1697SOL    HW1 5990   5.325   6.335   1.663
 1697SOL    HW2 5991   5.404   6.477   1.655
 1698SOL     OW 5992   4.634   0.766   0.051
 1698SOL    HW1 5993   4.535   0.762   0.062
 1698SOL    HW2 5994   4.665   0.684   0.004
 1699SOL     OW 5995   2.703   1.400   0.901
 1699SOL    HW1 5996   2.764   1.330   0.864
 1699SOL    HW2 5997   2.705   1.397   1.001
 1700SOL     OW 5998   5.756   2.127   3.398
 1700SOL    HW1 5999   5.815   2.206   3.414
 1700SOL    HW2 6000   5.774   2.090   3.307
 1701SOL     OW 6001   5.488   4.594   5.532
 1701SOL    HW1 6002   5.419   4.551   5.590
 1701SOL    HW2 6003   5.579   4.575   5.568
 1702SOL     OW 6004   6.829   3.066   0.481
 1702SOL    HW1 6005   6.913   3.104   0.520
 1702SOL    HW2 6006   6.814   2.974   0.518
 1703SOL     OW 6007   4.005   3.191   2.064
 1703SOL    HW1 6008   3.958   3.107   2.090
 1703SOL    HW2 6009   4.003   3.201   1.964
 1704SOL     OW 6010   0.748   1.853   1.933
 1704SOL    HW1 6011   0.714   1.761   1.955
 1704SOL    HW2 6012   0.673   1.918   1.935
 1705SOL     OW 6013   3.626   2.011   1.319
 1705SOL    HW1 6014   3.623   1.945   1.394
 1705SOL    HW2 6015   3.714   2.058   1.320
 1706SOL     OW 6016   4.925   0.540   1.321
 1706SOL    HW1 6017   4.834   0.574   1.345
 1706SOL    HW2 6018   4.994   0.591   1.373
 1707SOL     OW 6019   4.932   1.678   2.610
 1707SOL    HW1 6020   4.942   1.748   2.539
 1707SOL    HW2 6021   4.885   1.718   2.689
 1708SOL     OW 6022   4.870   5.002   2.350
 1708SOL    HW1 6023   4.872   4.981   2.252
 1708SOL    HW2 6024   4.792   5.061   2.369
 1709SOL     OW 6025   2.691   5.683   1.330
 1709SOL    HW1 6026   2.610   5.630   1.304
 1709SOL    HW2 6027   2.766   5.662   1.266
 1710SOL     OW 6028   5.643   4.943   3.991
 1710SOL    HW1 6029   5.599   4.937   4.081
 1710SOL    HW2 6030   5.585   4.995   3.928
 1711SOL     OW 6031   1.105   5.089   4.351
 1711SOL    HW1 6032   1.158   5.009   4.379
 1711SOL    HW2 6033   1.009   5.075   4.375
 1712SOL     OW 6034   0.114   3.272   6.126
 1712SOL    HW1 6035   0.115   3.357   6.179
 1712SOL    HW2 6036   0.118   3.294   6.028
 1713SOL     OW 6037   4.016   2.279   1.541
 1713SOL    HW1 6038   4.077   2.317   1.472
 1713SOL    HW2 6039   3.970   2.354   1.589
 1714SOL     OW 6040   4.037   1.945   5.446
 1714SOL    HW1 6041   3.968   1.875   5.468
 1714SOL    HW2 6042   4.036   2.016   5.516
 1715SOL     OW 6043   0.310   4.218   2.788
 1715SOL    HW1 6044   0.272   4.214   2.695
 1715SOL    HW2 6045   0.293   4.308   2.827
 1716SOL     OW 6046   4.603   6.922   2.648
 1716SOL    HW1 6047   4.508   6.947   2.664
 1716SOL    HW2 6048   4.607   6.827   2.617
 1717SOL     OW 6049   2.447   6.224   6.072
 1717SOL    HW1 6050   2.480   6.151   6.132
 1717SOL    HW2 6051   2.421   6.186   5.984
 1718SOL     OW 6052   1.931   2.117   2.026
 1718SOL    HW1 6053   1.934   2.032   1.974
 1718SOL    HW2 6054   2.022   2.158   2.028
 1719SOL     OW 6055   2.043   4.284   0.969
 1719SOL    HW1 6056   2.140   4.277   0.946
 1719SOL    HW2 6057   2.026   4.237   1.055
 1720SOL     OW 6058   0.580   2.241   0.166
 1720SOL    HW1 6059   0.603   2.166   0.104
 1720SOL    HW2 6060   0.658   2.304   0.172
 1721SOL     OW 6061   1.329   6.665   2.175
 1721SOL    HW1 6062   1.287   6.643   2.087
 1721SOL    HW2 6063   1.265   6.718   2.231
 1722SOL     OW 6064   4.439   2.184   4.451
 1722SOL    HW1 6065   4.396   2.205   4.539
 1722SOL    HW2 6066   4.474   2.268   4.410
 1723SOL     OW 6067   0.032   2.662   2.547
 1723SOL    HW1 6068   7.012   2.613   2.470
 1723SOL    HW2 6069   7.004   2.747   2.564
 1724SOL     OW 6070   6.325   2.277   0.959
 1724SOL    HW1 6071   6.236   2.272   0.914
 1724SOL    HW2 6072   6.398   2.261   0.892
 1725SOL     OW 6073   2.148   4.655   6.249
 1725SOL    HW1 6074   2.189   4.739   6.285
 1725SOL    HW2 6075   2.165   4.580   6.313
 1726SOL     OW 6076   5.123   4.996   5.759
 1726SOL    HW1 6077   5.093   4.901   5.758
 1726SOL    HW2 6078   5.216   5.001   5.796
 1727SOL     OW 6079   3.810   3.390   4.519
 1727SOL    HW1 6080   3.825   3.430   4.429
 1727SOL    HW2 6081   3.723   3.341   4.520
 1728SOL     OW 6082   5.397   5.069   5.677
 1728SOL    HW1 6083   5.396   4.999   5.605
 1728SOL    HW2 6084   5.487   5.071   5.720
 1729SOL     OW 6085   1.855   3.604   3.643
 1729SOL    HW1 6086   1.819   3.642   3.728
 1729SOL    HW2 6087   1.837   3.506   3.640
 1730SOL     OW 6088   6.919   0.106   5.463
 1730SOL    HW1 6089   6.948   0.202   5.461
 1730SOL    HW2 6090   6.844   0.096   5.529
 1731SOL     OW 6091   6.890   4.595   2.157
 1731SOL    HW1 6092   6.917   4.509   2.199
 1731SOL    HW2 6093   6.969   4.655   2.150
 1732SOL     OW 6094   2.439   4.485   5.558
 1732SOL    HW1 6095   2.510   4.555   5.562
 1732SOL    HW2 6096   2.369   4.504   5.627
 1733SOL     OW 6097   1.222   4.304   2.255
 1733SOL    HW1 6098   1.127   4.281   2.276
 1733SOL    HW2 6099   1.231   4.403   2.246
 1734SOL     OW 6100   4.617   3.239   1.700
 1734SOL    HW1 6101   4.606   3.200   1.609
 1734SOL    HW2 6102   4.604   3.168   1.770
 1735SOL     OW 6103   5.498   5.849   1.402
 1735SOL    HW1 6104   5.455   5.891   1.481
 1735SOL    HW2 6105   5.597   5.857   1.409
 1736SOL     OW 6106   4.202   2.758   1.283
 1736SOL    HW1 6107   4.204   2.706   1.198
 1736SOL    HW2 6108   4.170   2.699   1.357
 1737SOL     OW 6109   2.583   1.251   4.120
 1737SOL    HW1 6110   2.584   1.266   4.219
 1737SOL    HW2 6111   2.655   1.187   4.095
 1738SOL     OW 6112   2.045   1.750   4.280
 1738SOL    HW1 6113   2.138   1.729   4.250
 1738SOL    HW2 6114   1.992   1.666   4.285
 1739SOL     OW 6115   5.721   1.943   5.599
 1739SOL    HW1 6116   5.783   1.930   5.676
 1739SOL    HW2 6117   5.631   1.905   5.622
 1740SOL     OW 6118   6.895   1.680   5.928
 1740SOL    HW1 6119   6.816   1.670   5.988
 1740SOL    HW2 6120   6.972   1.628   5.965
 1741SOL     OW 6121   2.221   0.611   3.833
 1741SOL    HW1 6122   2.282   0.620   3.911
 1741SOL    HW2 6123   2.227   0.694   3.776
 1742SOL     OW 6124   5.050   0.107   5.952
 1742SOL    HW1 6125   5.093   0.195   5.933
 1742SOL    HW2 6126   5.010   0.071   5.868
 1743SOL     OW 6127   1.373   2.296   2.065
 1743SOL    HW1 6128   1.331   2.244   1.991
 1743SOL    HW2 6129   1.303   2.356   2.107
 1744SOL     OW 6130   0.816   0.430   1.833
 1744SOL    HW1 6131   0.832   0.528   1.845
 1744SOL    HW2 6132   0.898   0.379   1.859
 1745SOL     OW 6133   6.218   0.703   3.712
 1745SOL    HW1 6134   6.191   0.779   3.654
 1745SOL    HW2 6135   6.198   0.616   3.666
 1746SOL     OW 6136   2.529   4.862   5.272
 1746SOL    HW1 6137   2.537   4.818   5.183
 1746SOL    HW2 6138   2.615   4.850   5.323
 1747SOL     OW 6139   5.991   1.559   2.771
 1747SOL    HW1 6140   5.952   1.564   2.863
 1747SOL    HW2 6141   6.021   1.466   2.752
 1748SOL     OW 6142   0.885   0.996   3.955
 1748SOL    HW1 6143   0.911   1.091   3.942
 1748SOL    HW2 6144   0.795   0.980   3.914
 1749SOL     OW 6145   2.481   6.959   4.836
 1749SOL    HW1 6146   2.540   7.013   4.896
 1749SOL    HW2 6147   2.397   6.935   4.884
 1750SOL     OW 6148   6.786   6.780   4.130
 1750SOL    HW1 6149   6.884   6.760   4.140
 1750SOL    HW2 6150   6.769   6.815   4.038
 1751SOL     OW 6151   4.262   6.215   5.118
 1751SOL    HW1 6152   4.265   6.274   5.038
 1751SOL    HW2 6153   4.172   6.172   5.126
 1752SOL     OW 6154   0.267   2.247   2.002
 1752SOL    HW1 6155   0.171   2.223   2.017
 1752SOL    HW2 6156   0.325   2.173   2.038
 1753SOL     OW 6157   0.537   2.248   0.516
 1753SOL    HW1 6158   0.501   2.341   0.509
 1753SOL    HW2 6159   0.472   2.191   0.565
 1754SOL     OW 6160   2.884   3.430   0.735
 1754SOL    HW1 6161   2.814   3.480   0.787
 1754SOL    HW2 6162   2.868   3.332   0.746
 1755SOL     OW 6163   6.226   6.248   1.610
 1755SOL    HW1 6164   6.300   6.183   1.622
 1755SOL    HW2 6165   6.260   6.341   1.626
 1756SOL     OW 6166   4.083   4.345   5.925
 1756SOL    HW1 6167   4.001   4.316   5.877
 1756SOL    HW2 6168   4.162   4.298   5.887
 1757SOL     OW 6169   2.448   5.087   4.663
 1757SOL    HW1 6170   2.482   5.165   4.715
 1757SOL    HW2 6171   2.352   5.071   4.684
 1758SOL     OW 6172   2.447   0.428   4.085
 1758SOL    HW1 6173   2.532   0.414   4.136
 1758SOL    HW2 6174   2.442   0.363   4.010
 1759SOL     OW 6175   1.890   5.342   6.352
 1759SOL    HW1 6176   1.918   5.362   6.258
 1759SOL    HW2 6177   1.795   5.311   6.352
 1760SOL     OW 6178   5.716   2.294   2.370
 1760SOL    HW1 6179   5.713   2.392   2.391
 1760SOL    HW2 6180   5.697   2.281   2.273
 1761SOL     OW 6181   0.437   0.132   0.503
 1761SOL    HW1 6182   0.354   0.080   0.524
 1761SOL    HW2 6183   0.412   0.226   0.480
 1762SOL     OW 6184   0.078   1.920   4.779
 1762SOL    HW1 6185   0.053   2.004   4.827
 1762SOL    HW2 6186   0.074   1.843   4.843
 1763SOL     OW 6187   1.707   3.640   3.870
 1763SOL    HW1 6188   1.681   3.621   3.965
 1763SOL    HW2 6189   1.681   3.733   3.847
 1764SOL     OW 6190   2.132   3.616   2.164
 1764SOL    HW1 6191   2.062   3.681   2.136
 1764SOL    HW2 6192   2.164   3.565   2.085
 1765SOL     OW 6193   4.370   1.692   0.780
 1765SOL    HW1 6194   4.449   1.738   0.741
 1765SOL    HW2 6195   4.376   1.594   0.763
 1766SOL     OW 6196   4.887   3.170   3.006
 1766SOL    HW1 6197   4.845   3.079   2.999
 1766SOL    HW2 6198   4.883   3.215   2.917
 1767SOL     OW 6199   0.186   3.879   2.635
 1767SOL    HW1 6200   0.246   3.826   2.695
 1767SOL    HW2 6201   0.143   3.953   2.687
 1768SOL     OW 6202   3.972   1.578   5.337
 1768SOL    HW1 6203   3.970   1.493   5.390
 1768SOL    HW2 6204   4.065   1.615   5.336
 1769SOL     OW 6205   4.309   2.988   5.477
 1769SOL    HW1 6206   4.244   3.013   5.548
 1769SOL    HW2 6207   4.373   3.063   5.462
 1770SOL     OW 6208   0.024   5.331   4.755
 1770SOL    HW1 6209   0.096   5.321   4.824
 1770SOL    HW2 6210   0.051   5.399   4.687
 1771SOL     OW 6211   2.417   5.113   6.951
 1771SOL    HW1 6212   2.366   5.030   6.933
 1771SOL    HW2 6213   2.424   5.167   6.867
 1772SOL     OW 6214   3.582   6.448   3.088
 1772SOL    HW1 6215   3.545   6.441   2.995
 1772SOL    HW2 6216   3.523   6.398   3.151
 1773SOL     OW 6217   3.092   4.475   6.744
 1773SOL    HW1 6218   3.002   4.490   6.784
 1773SOL    HW2 6219   3.146   4.559   6.751
 1774SOL     OW 6220   4.542   6.899   1.644
 1774SOL    HW1 6221   4.519   6.930   1.736
 1774SOL    HW2 6222   4.535   6.976   1.581
 1775SOL     OW 6223   1.214   5.264   3.936
 1775SOL    HW1 6224   1.247   5.184   3.986
 1775SOL    HW2 6225   1.192   5.337   4.001
 1776SOL     OW 6226   3.397   0.609   5.752
 1776SOL    HW1 6227   3.432   0.698   5.781
 1776SOL    HW2 6228   3.309   0.591   5.795
 1777SOL     OW 6229   3.190   5.412   5.804
 1777SOL    HW1 6230   3.206   5.410   5.705
 1777SOL    HW2 6231   3.269   5.373   5.851
 1778SOL     OW 6232   4.599   2.292   4.938
 1778SOL    HW1 6233   4.658   2.252   5.008
 1778SOL    HW2 6234   4.574   2.223   4.871
 1779SOL     OW 6235   4.991   1.428   4.665
 1779SOL    HW1 6236   5.010   1.519   4.627
 1779SOL    HW2 6237   5.071   1.369   4.651
 1780SOL     OW 6238   2.306   4.545   5.793
 1780SOL    HW1 6239   2.237   4.544   5.866
 1780SOL    HW2 6240   2.386   4.596   5.823
 1781SOL     OW 6241   4.227   5.051   3.802
 1781SOL    HW1 6242   4.261   5.029   3.893
 1781SOL    HW2 6243   4.281   5.003   3.733
 1782SOL     OW 6244   3.026   1.700   2.850
 1782SOL    HW1 6245   3.008   1.675   2.945
 1782SOL    HW2 6246   3.122   1.728   2.840
 1783SOL     OW 6247   1.812   3.358   6.560
 1783SOL    HW1 6248   1.847   3.354   6.467
 1783SOL    HW2 6249   1.867   3.421   6.614
 1784SOL     OW 6250   3.141   0.961   4.224
 1784SOL    HW1 6251   3.162   0.885   4.285
 1784SOL    HW2 6252   3.069   0.935   4.160
 1785SOL     OW 6253   5.369   6.218   4.013
 1785SOL    HW1 6254   5.416   6.226   3.925
 1785SOL    HW2 6255   5.285   6.165   4.001
 1786SOL     OW 6256   1.299   3.050   0.976
 1786SOL    HW1 6257   1.397   3.055   0.996
 1786SOL    HW2 6258   1.285   3.055   0.877
 1787SOL     OW 6259   2.332   0.936   4.322
 1787SOL    HW1 6260   2.308   0.999   4.247
 1787SOL    HW2 6261   2.388   0.862   4.287
 1788SOL     OW 6262   3.553   3.152   0.703
 1788SOL    HW1 6263   3.473   3.212   0.695
 1788SOL    HW2 6264   3.524   3.060   0.726
 1789SOL     OW 6265   6.363   2.711   2.068
 1789SOL    HW1 6266   6.316   2.687   1.983
 1789SOL    HW2 6267   6.435   2.778   2.048
 1790SOL     OW 6268   3.949   6.460   4.124
 1790SOL    HW1 6269   3.951   6.414   4.213
 1790SOL    HW2 6270   3.986   6.400   4.054
 1791SOL     OW 6271   0.452   1.742   4.418
 1791SOL    HW1 6272   0.424   1.778   4.329
 1791SOL    HW2 6273   0.476   1.817   4.479
 1792SOL     OW 6274   0.497   2.467   4.115
 1792SOL    HW1 6275   0.535   2.480   4.024
 1792SOL    HW2 6276   0.551   2.519   4.181
 1793SOL     OW 6277   6.586   0.215   3.491
 1793SOL    HW1 6278   6.550   0.261   3.572
 1793SOL    HW2 6279   6.647   0.277   3.441
 1794SOL     OW 6280   4.977   6.036   6.547
 1794SOL    HW1 6281   5.074   6.041   6.568
 1794SOL    HW2 6282   4.962   5.968   6.476
 1795SOL     OW 6283   0.576   3.740   2.100
 1795SOL    HW1 6284   0.668   3.701   2.106
 1795SOL    HW2 6285   0.508   3.670   2.120
 1796SOL     OW 6286   2.177   1.570   4.540
 1796SOL    HW1 6287   2.083   1.577   4.507
 1796SOL    HW2 6288   2.193   1.639   4.611
 1797SOL     OW 6289   1.011   1.099   6.102
 1797SOL    HW1 6290   1.019   1.018   6.159
 1797SOL    HW2 6291   0.940   1.085   6.034
 1798SOL     OW 6292   4.782   2.747   5.281
 1798SOL    HW1 6293   4.816   2.684   5.211
 1798SOL    HW2 6294   4.726   2.818   5.239
 1799SOL     OW 6295   6.684   1.335   6.284
 1799SOL    HW1 6296   6.695   1.429   6.317
 1799SOL    HW2 6297   6.689   1.334   6.184
 1800SOL     OW 6298   4.626   5.432   3.287
 1800SOL    HW1 6299   4.559   5.359   3.303
 1800SOL    HW2 6300   4.602   5.512   3.342
 1801SOL     OW 6301   0.941   1.056   2.151
 1801SOL    HW1 6302   0.946   1.143   2.199
 1801SOL    HW2 6303   0.938   1.072   2.052
 1802SOL     OW 6304   5.125   5.209   2.264
 1802SOL    HW1 6305   5.147   5.119   2.228
 1802SOL    HW2 6306   5.142   5.210   2.363
 1803SOL     OW 6307   6.737   5.998   0.919
 1803SOL    HW1 6308   6.695   6.088   0.927
 1803SOL    HW2 6309   6.822   5.995   0.972
 1804SOL     OW 6310   2.070   3.590   6.091
 1804SOL    HW1 6311   2.134   3.647   6.143
 1804SOL    HW2 6312   2.120   3.516   6.046
 1805SOL     OW 6313   0.381   3.993   5.361
 1805SOL    HW1 6314   0.418   4.036   5.443
 1805SOL    HW2 6315   0.281   3.993   5.365
 1806SOL     OW 6316   1.019   1.234   0.945
 1806SOL    HW1 6317   1.101   1.261   0.893
 1806SOL    HW2 6318   1.037   1.147   0.990
 1807SOL     OW 6319   5.505   2.399   6.101
 1807SOL    HW1 6320   5.575   2.395   6.171
 1807SOL    HW2 6321   5.478   2.306   6.075
 1808SOL     OW 6322   6.306   3.581   5.584
 1808SOL    HW1 6323   6.368   3.506   5.606
 1808SOL    HW2 6324   6.356   3.668   5.588
 1809SOL     OW 6325   2.156   3.047   4.237
 1809SOL    HW1 6326   2.183   3.139   4.266
 1809SOL    HW2 6327   2.143   2.990   4.318
 1810SOL     OW 6328   2.468   0.753   5.534
 1810SOL    HW1 6329   2.375   0.786   5.551
 1810SOL    HW2 6330   2.527   0.830   5.510
 1811SOL     OW 6331   4.164   4.773   3.558
 1811SOL    HW1 6332   4.185   4.691   3.504
 1811SOL    HW2 6333   4.065   4.782   3.568
 1812SOL     OW 6334   4.302   0.165   6.046
 1812SOL    HW1 6335   4.356   0.159   5.962
 1812SOL    HW2 6336   4.363   0.181   6.123
 1813SOL     OW 6337   4.416   4.960   1.252
 1813SOL    HW1 6338   4.353   5.011   1.310
 1813SOL    HW2 6339   4.443   4.876   1.298
 1814SOL     OW 6340   6.572   0.572   0.307
 1814SOL    HW1 6341   6.646   0.535   0.362
 1814SOL    HW2 6342   6.485   0.530   0.335
 1815SOL     OW 6343   6.406   2.303   1.572
 1815SOL    HW1 6344   6.440   2.262   1.657
 1815SOL    HW2 6345   6.456   2.387   1.553
 1816SOL     OW 6346   1.705   4.301   1.119
 1816SOL    HW1 6347   1.789   4.257   1.151
 1816SOL    HW2 6348   1.673   4.366   1.187
 1817SOL     OW 6349   3.057   6.342   3.214
 1817SOL    HW1 6350   3.007   6.413   3.264
 1817SOL    HW2 6351   3.150   6.335   3.250
 1818SOL     OW 6352   2.074   6.223   2.547
 1818SOL    HW1 6353   2.154   6.214   2.488
 1818SOL    HW2 6354   2.057   6.136   2.594
 1819SOL     OW 6355   0.415   5.482   1.624
 1819SOL    HW1 6356   0.483   5.531   1.678
 1819SOL    HW2 6357   0.332   5.469   1.678
 1820SOL     OW 6358   3.320   0.881   2.662
 1820SOL    HW1 6359   3.407   0.836   2.642
 1820SOL    HW2 6360   3.327   0.930   2.749
 1821SOL     OW 6361   2.470   0.576   1.743
 1821SOL    HW1 6362   2.517   0.657   1.778
 1821SOL    HW2 6363   2.371   0.590   1.749
 1822SOL     OW 6364   1.966   2.956   1.158
 1822SOL    HW1 6365   1.871   2.944   1.187
 1822SOL    HW2 6366   1.969   3.012   1.075
 1823SOL     OW 6367   2.623   5.803   3.022
 1823SOL    HW1 6368   2.642   5.706   3.031
 1823SOL    HW2 6369   2.527   5.820   3.045
 1824SOL     OW 6370   3.326   4.335   1.682
 1824SOL    HW1 6371   3.267   4.285   1.618
 1824SOL    HW2 6372   3.332   4.285   1.768
 1825SOL     OW 6373   1.270   2.559   3.666
 1825SOL    HW1 6374   1.311   2.623   3.602
 1825SOL    HW2 6375   1.180   2.532   3.633
 1826SOL     OW 6376   3.026   0.554   0.871
 1826SOL    HW1 6377   3.115   0.509   0.861
 1826SOL    HW2 6378   2.979   0.517   0.951
 1827SOL     OW 6379   0.308   5.843   1.770
 1827SOL    HW1 6380   0.269   5.822   1.860
 1827SOL    HW2 6381   0.247   5.808   1.699
 1828SOL     OW 6382   1.157   2.207   0.747
 1828SOL    HW1 6383   1.211   2.265   0.808
 1828SOL    HW2 6384   1.060   2.219   0.768
 1829SOL     OW 6385   2.875   0.849   3.230
 1829SOL    HW1 6386   2.972   0.839   3.209
 1829SOL    HW2 6387   2.855   0.946   3.248
 1830SOL     OW 6388   6.394   6.317   3.957
 1830SOL    HW1 6389   6.365   6.221   3.950
 1830SOL    HW2 6390   6.414   6.338   4.053
 1831SOL     OW 6391   6.381   0.271   2.779
 1831SOL    HW1 6392   6.437   0.335   2.727
 1831SOL    HW2 6393   6.376   0.184   2.730
 1832SOL     OW 6394   4.496   1.119   1.347
 1832SOL    HW1 6395   4.457   1.182   1.279
 1832SOL    HW2 6396   4.422   1.082   1.404
 1833SOL     OW 6397   5.497   0.480   0.222
 1833SOL    HW1 6398   5.475   0.572   0.191
 1833SOL    HW2 6399   5.480   0.472   0.320
 1834SOL     OW 6400   3.529   3.423   1.023
 1834SOL    HW1 6401   3.596   3.493   0.998
 1834SOL    HW2 6402   3.440   3.466   1.041
 1835SOL     OW 6403   0.204   4.199   2.542
 1835SOL    HW1 6404   0.262   4.252   2.481
 1835SOL    HW2 6405   0.130   4.156   2.490
 1836SOL     OW 6406   5.019   2.173   1.617
 1836SOL    HW1 6407   5.080   2.240   1.573
 1836SOL    HW2 6408   5.068   2.087   1.631
 1837SOL     OW 6409   1.187   0.593   5.012
 1837SOL    HW1 6410   1.088   0.580   5.016
 1837SOL    HW2 6411   1.232   0.530   5.075
 1838SOL     OW 6412   0.007   1.450   4.802
 1838SOL    HW1 6413   6.945   1.400   4.784
 1838SOL    HW2 6414   0.040   1.492   4.717
 1839SOL     OW 6415   6.012   2.250   5.345
 1839SOL    HW1 6416   5.997   2.338   5.301
 1839SOL    HW2 6417   6.082   2.199   5.295
 1840SOL     OW 6418   3.355   6.745   1.558
 1840SOL    HW1 6419   3.305   6.703   1.482
 1840SOL    HW2 6420   3.302   6.820   1.596
 1841SOL     OW 6421   2.465   0.920   3.191
 1841SOL    HW1 6422   2.530   0.979   3.142
 1841SOL    HW2 6423   2.372   0.947   3.169
 1842SOL     OW 6424   1.993   5.918   0.352
 1842SOL    HW1 6425   1.915   5.895   0.295
 1842SOL    HW2 6426   2.009   5.844   0.417
 1843SOL     OW 6427   6.186   2.203   3.349
 1843SOL    HW1 6428   6.113   2.263   3.381
 1843SOL    HW2 6429   6.147   2.115   3.320
 1844SOL     OW 6430   3.112   6.698   5.639
 1844SOL    HW1 6431   3.127   6.789   5.677
 1844SOL    HW2 6432   3.015   6.685   5.620
 1845SOL     OW 6433   2.221   0.289   4.862
 1845SOL    HW1 6434   2.311   0.329   4.845
 1845SOL    HW2 6435   2.190   0.241   4.781
 1846SOL     OW 6436   4.050   1.955   1.129
 1846SOL    HW1 6437   4.086   1.882   1.071
 1846SOL    HW2 6438   3.962   1.927   1.167
 1847SOL     OW 6439   1.387   1.132   6.702
 1847SOL    HW1 6440   1.388   1.038   6.668
 1847SOL    HW2 6441   1.435   1.137   6.790
 1848SOL     OW 6442   1.451   6.046   3.048
 1848SOL    HW1 6443   1.444   6.125   3.108
 1848SOL    HW2 6444   1.361   6.002   3.039
 1849SOL     OW 6445   4.253   2.497   1.012
 1849SOL    HW1 6446   4.225   2.452   1.097
 1849SOL    HW2 6447   4.213   2.449   0.935
 1850SOL     OW 6448   0.749   2.643   1.339
 1850SOL    HW1 6449   0.753   2.584   1.419
 1850SOL    HW2 6450   0.746   2.739   1.368
 1851SOL     OW 6451   6.912   2.413   0.318
 1851SOL    HW1 6452   6.832   2.404   0.259
 1851SOL    HW2 6453   6.991   2.440   0.263
 1852SOL     OW 6454   6.347   4.272   2.454
 1852SOL    HW1 6455   6.258   4.231   2.437
 1852SOL    HW2 6456   6.413   4.201   2.479
 1853SOL     OW 6457   7.008   2.010   2.838
 1853SOL    HW1 6458   6.943   2.021   2.913
 1853SOL    HW2 6459   0.044   2.091   2.831
 1854SOL     OW 6460   2.678   5.513   3.001
 1854SOL    HW1 6461   2.651   5.524   2.905
 1854SOL    HW2 6462   2.697   5.417   3.020
 1855SOL     OW 6463   5.037   2.856   5.302
 1855SOL    HW1 6464   5.055   2.880   5.398
 1855SOL    HW2 6465   4.942   2.825   5.293
 1856SOL     OW 6466   6.212   4.196   5.873
 1856SOL    HW1 6467   6.250   4.271   5.819
 1856SOL    HW2 6468   6.250   4.109   5.842
 1857SOL     OW 6469   4.673   1.777   5.904
 1857SOL    HW1 6470   4.599   1.780   5.837
 1857SOL    HW2 6471   4.700   1.871   5.927
 1858SOL     OW 6472   5.803   4.046   4.130
 1858SOL    HW1 6473   5.782   3.974   4.196
 1858SOL    HW2 6474   5.869   4.012   4.063
 1859SOL     OW 6475   5.515   2.562   3.310
 1859SOL    HW1 6476   5.477   2.476   3.276
 1859SOL    HW2 6477   5.539   2.622   3.233
 1860SOL     OW 6478   6.836   0.521   5.228
 1860SOL    HW1 6479   6.777   0.568   5.162
 1860SOL    HW2 6480   6.923   0.499   5.185
 1861SOL     OW 6481   6.421   6.466   2.334
 1861SOL    HW1 6482   6.359   6.528   2.287
 1861SOL    HW2 6483   6.375   6.379   2.350
 1862SOL     OW 6484   2.151   0.163   6.157
 1862SOL    HW1 6485   2.246   0.139   6.137
 1862SOL    HW2 6486   2.134   0.153   6.255
 1863SOL     OW 6487   0.742   2.747   3.498
 1863SOL    HW1 6488   0.777   2.683   3.431
 1863SOL    HW2 6489   0.733   2.838   3.457
 1864SOL     OW 6490   1.783   7.019   5.065
 1864SOL    HW1 6491   1.805   0.090   5.038
 1864SOL    HW2 6492   1.833   6.955   5.006
 1865SOL     OW 6493   3.398   6.619   6.492
 1865SOL    HW1 6494   3.386   6.704   6.543
 1865SOL    HW2 6495   3.485   6.576   6.518
 1866SOL     OW 6496   4.710   4.891   2.962
 1866SOL    HW1 6497   4.643   4.907   2.889
 1866SOL    HW2 6498   4.696   4.800   3.002
 1867SOL     OW 6499   0.766   3.799   0.571
 1867SOL    HW1 6500   0.834   3.871   0.582
 1867SOL    HW2 6501   0.752   3.752   0.658
 1868SOL     OW 6502   5.199   3.024   6.328
 1868SOL    HW1 6503   5.135   3.077   6.273
 1868SOL    HW2 6504   5.207   3.064   6.419
 1869SOL     OW 6505   6.037   3.221   5.810
 1869SOL    HW1 6506   6.073   3.248   5.721
 1869SOL    HW2 6507   6.107   3.171   5.861
 1870SOL     OW 6508   1.297   3.040   4.931
 1870SOL    HW1 6509   1.396   3.031   4.918
 1870SOL    HW2 6510   1.279   3.088   5.017
 1871SOL     OW 6511   0.839   0.424   6.636
 1871SOL    HW1 6512   0.913   0.397   6.698
 1871SOL    HW2 6513   0.870   0.413   6.541
 1872SOL     OW 6514   3.838   1.581   6.765
 1872SOL    HW1 6515   3.838   1.640   6.846
 1872SOL    HW2 6516   3.925   1.589   6.717
 1873SOL     OW 6517   5.166   0.851   6.364
 1873SOL    HW1 6518   5.161   0.777   6.431
 1873SOL    HW2 6519   5.170   0.939   6.412
 1874SOL     OW 6520   2.886   1.370   0.605
 1874SOL    HW1 6521   2.794   1.392   0.573
 1874SOL    HW2 6522   2.952   1.428   0.558
 1875SOL     OW 6523   6.978   0.801   6.777
 1875SOL    HW1 6524   0.053   0.781   6.788
 1875SOL    HW2 6525   6.925   0.719   6.799
 1876SOL     OW 6526   3.657   6.099   6.480
 1876SOL    HW1 6527   3.659   6.019   6.420
 1876SOL    HW2 6528   3.563   6.134   6.485
 1877SOL     OW 6529   0.893   1.227   3.350
 1877SOL    HW1 6530   0.863   1.132   3.340
 1877SOL    HW2 6531   0.924   1.261   3.262
 1878SOL     OW 6532   6.919   3.138   4.257
 1878SOL    HW1 6533   6.930   3.202   4.182
 1878SOL    HW2 6534   6.898   3.188   4.341
 1879SOL     OW 6535   1.963   5.437   3.770
 1879SOL    HW1 6536   1.915   5.357   3.733
 1879SOL    HW2 6537   2.011   5.411   3.854
 1880SOL     OW 6538   6.962   0.406   4.307
 1880SOL    HW1 6539   6.938   0.490   4.358
 1880SOL    HW2 6540   0.021   0.364   4.348
 1881SOL     OW 6541   6.711   3.145   2.706
 1881SOL    HW1 6542   6.678   3.093   2.626
 1881SOL    HW2 6543   6.636   3.156   2.771
 1882SOL     OW 6544   1.323   3.665   6.835
 1882SOL    HW1 6545   1.410   3.616   6.838
 1882SOL    HW2 6546   1.332   3.751   6.886
 1883SOL     OW 6547   1.104   2.306   3.266
 1883SOL    HW1 6548   1.130   2.212   3.287
 1883SOL    HW2 6549   1.047   2.308   3.184
 1884SOL     OW 6550   6.273   3.091   0.356
 1884SOL    HW1 6551   6.222   3.124   0.277
 1884SOL    HW2 6552   6.362   3.138   0.360
 1885SOL     OW 6553   1.189   1.956   5.925
 1885SOL    HW1 6554   1.183   1.873   5.980
 1885SOL    HW2 6555   1.161   2.035   5.979
 1886SOL     OW 6556   2.691   0.468   1.265
 1886SOL    HW1 6557   2.696   0.415   1.350
 1886SOL    HW2 6558   2.663   0.562   1.285
 1887SOL     OW 6559   1.518   5.971   5.372
 1887SOL    HW1 6560   1.541   6.009   5.462
 1887SOL    HW2 6561   1.564   6.024   5.301
 1888SOL     OW 6562   3.149   2.611   6.972
 1888SOL    HW1 6563   3.196   2.546   0.010
 1888SOL    HW2 6564   3.211   2.641   6.900
 1889SOL     OW 6565   0.240   3.041   6.137
 1889SOL    HW1 6566   0.197   3.131   6.125
 1889SOL    HW2 6567   0.170   2.971   6.148
 1890SOL     OW 6568   1.592   6.651   4.028
 1890SOL    HW1 6569   1.507   6.609   4.058
 1890SOL    HW2 6570   1.669   6.611   4.078
 1891SOL     OW 6571   5.536   2.125   2.732
 1891SOL    HW1 6572   5.456   2.148   2.676
 1891SOL    HW2 6573   5.506   2.075   2.814
 1892SOL     OW 6574   2.665   1.393   1.176
 1892SOL    HW1 6575   2.739   1.433   1.230
 1892SOL    HW2 6576   2.578   1.433   1.203
 1893SOL     OW 6577   4.044   2.666   6.712
 1893SOL    HW1 6578   4.005   2.757   6.728
 1893SOL    HW2 6579   4.144   2.671   6.719
 1894SOL     OW 6580   4.057   3.680   3.856
 1894SOL    HW1 6581   3.969   3.714   3.823
 1894SOL    HW2 6582   4.129   3.747   3.834
 1895SOL     OW 6583   4.972   0.665   1.652
 1895SOL    HW1 6584   5.042   0.598   1.679
 1895SOL    HW2 6585   4.896   0.661   1.717
 1896SOL     OW 6586   6.332   0.265   1.606
 1896SOL    HW1 6587   6.417   0.320   1.607
 1896SOL    HW2 6588   6.343   0.186   1.665
 1897SOL     OW 6589   1.664   4.148   1.872
 1897SOL    HW1 6590   1.649   4.153   1.970
 1897SOL    HW2 6591   1.580   4.175   1.824
 1898SOL     OW 6592   2.216   4.963   2.760
 1898SOL    HW1 6593   2.315   4.953   2.745
 1898SOL    HW2 6594   2.179   5.030   2.696
 1899SOL     OW 6595   1.316   1.124   2.349
 1899SOL    HW1 6596   1.235   1.101   2.294
 1899SOL    HW2 6597   1.398   1.119   2.291
 1900SOL     OW 6598   1.190   0.542   6.181
 1900SOL    HW1 6599   1.114   0.525   6.243
 1900SOL    HW2 6600   1.270   0.571   6.234
 1901SOL     OW 6601   1.664   2.549   0.620
 1901SOL    HW1 6602   1.688   2.493   0.541
 1901SOL    HW2 6603   1.740   2.550   0.685
 1902SOL     OW 6604   2.438   2.128   5.047
 1902SOL    HW1 6605   2.404   2.100   4.957
 1902SOL    HW2 6606   2.412   2.060   5.116
 1903SOL     OW 6607   6.981   3.252   2.480
 1903SOL    HW1 6608   6.887   3.229   2.457
 1903SOL    HW2 6609   0.020   3.185   2.438
 1904SOL     OW 6610   6.003   6.265   3.563
 1904SOL    HW1 6611   6.071   6.317   3.614
 1904SOL    HW2 6612   5.928   6.325   3.535
 1905SOL     OW 6613   1.958   0.481   3.858
 1905SOL    HW1 6614   1.954   0.420   3.937
 1905SOL    HW2 6615   2.046   0.529   3.857
 1906SOL     OW 6616   2.138   0.068   5.130
 1906SOL    HW1 6617   2.208   0.135   5.153
 1906SOL    HW2 6618   2.056   0.115   5.095
 1907SOL     OW 6619   3.362   0.306   2.746
 1907SOL    HW1 6620   3.395   0.213   2.726
 1907SOL    HW2 6621   3.393   0.333   2.837
 1908SOL     OW 6622   3.598   6.936   5.255
 1908SOL    HW1 6623   3.517   6.995   5.259
 1908SOL    HW2 6624   3.637   6.927   5.347
 1909SOL     OW 6625   0.616   3.688   2.423
 1909SOL    HW1 6626   0.586   3.593   2.416
 1909SOL    HW2 6627   0.537   3.748   2.437
 1910SOL     OW 6628   0.022   2.762   6.614
 1910SOL    HW1 6629   0.113   2.742   6.577
 1910SOL    HW2 6630   6.987   2.802   6.543
 1911SOL     OW 6631   5.955   3.534   5.391
 1911SOL    HW1 6632   6.002   3.622   5.379
 1911SOL    HW2 6633   5.887   3.523   5.319
 1912SOL     OW 6634   3.783   5.715   0.600
 1912SOL    HW1 6635   3.873   5.705   0.642
 1912SOL    HW2 6636   3.786   5.786   0.530
 1913SOL     OW 6637   2.111   6.420   4.642
 1913SOL    HW1 6638   2.053   6.354   4.595
 1913SOL    HW2 6639   2.084   6.513   4.617
 1914SOL     OW 6640   3.841   2.792   6.339
 1914SOL    HW1 6641   3.759   2.763   6.290
 1914SOL    HW2 6642   3.880   2.713   6.388
 1915SOL     OW 6643   4.231   2.403   5.361
 1915SOL    HW1 6644   4.330   2.394   5.354
 1915SOL    HW2 6645   4.196   2.457   5.285
 1916SOL     OW 6646   3.817   5.765   1.426
 1916SOL    HW1 6647   3.807   5.864   1.415
 1916SOL    HW2 6648   3.803   5.720   1.338
 1917SOL     OW 6649   3.189   3.104   5.573
 1917SOL    HW1 6650   3.093   3.081   5.558
 1917SOL    HW2 6651   3.239   3.092   5.487
 1918SOL     OW 6652   1.030   1.200   5.280
 1918SOL    HW1 6653   1.125   1.231   5.288
 1918SOL    HW2 6654   1.014   1.166   5.187
 1919SOL     OW 6655   2.011   0.386   1.891
 1919SOL    HW1 6656   1.952   0.461   1.863
 1919SOL    HW2 6657   2.102   0.421   1.914
 1920SOL     OW 6658   1.089   4.172   2.668
 1920SOL    HW1 6659   1.059   4.106   2.599
 1920SOL    HW2 6660   1.137   4.125   2.742
 1921SOL     OW 6661   1.230   4.387   6.206
 1921SOL    HW1 6662   1.255   4.312   6.267
 1921SOL    HW2 6663   1.309   4.447   6.192
 1922SOL     OW 6664   2.136   3.799   0.928
 1922SOL    HW1 6665   2.055   3.858   0.926
 1922SOL    HW2 6666   2.133   3.736   0.850
 1923SOL     OW 6667   3.312   0.624   5.481
 1923SOL    HW1 6668   3.368   0.614   5.398
 1923SOL    HW2 6669   3.372   0.623   5.561
 1924SOL     OW 6670   5.164   5.619   1.198
 1924SOL    HW1 6671   5.219   5.663   1.269
 1924SOL    HW2 6672   5.145   5.524   1.224
 1925SOL     OW 6673   2.048   5.086   0.672
 1925SOL    HW1 6674   1.999   5.110   0.756
 1925SOL    HW2 6675   1.985   5.042   0.608
 1926SOL     OW 6676   2.460   6.580   3.060
 1926SOL    HW1 6677   2.397   6.623   3.125
 1926SOL    HW2 6678   2.498   6.649   2.999
 1927SOL     OW 6679   2.479   4.434   0.023
 1927SOL    HW1 6680   2.543   4.507   7.018
 1927SOL    HW2 6681   2.516   4.386   0.102
 1928SOL     OW 6682   6.883   4.472   5.590
 1928SOL    HW1 6683   6.849   4.413   5.517
 1928SOL    HW2 6684   6.806   4.520   5.633
 1929SOL     OW 6685   1.717   5.916   1.564
 1929SOL    HW1 6686   1.777   5.978   1.513
 1929SOL    HW2 6687   1.666   5.859   1.500
 1930SOL     OW 6688   3.695   4.181   6.290
 1930SOL    HW1 6689   3.695   4.265   6.344
 1930SOL    HW2 6690   3.616   4.125   6.314
 1931SOL     OW 6691   0.873   2.807   1.770
 1931SOL    HW1 6692   0.796   2.748   1.745
 1931SOL    HW2 6693   0.914   2.845   1.687
 1932SOL     OW 6694   4.996   2.838   3.271
 1932SOL    HW1 6695   5.088   2.835   3.312
 1932SOL    HW2 6696   4.928   2.849   3.344
 1933SOL     OW 6697   1.950   3.060   0.898
 1933SOL    HW1 6698   2.010   3.138   0.877
 1933SOL    HW2 6699   1.867   3.065   0.841
 1934SOL     OW 6700   0.409   6.688   5.331
 1934SOL    HW1 6701   0.471   6.611   5.348
 1934SOL    HW2 6702   0.377   6.685   5.236
 1935SOL     OW 6703   4.521   6.110   3.761
 1935SOL    HW1 6704   4.518   6.164   3.845
 1935SOL    HW2 6705   4.571   6.026   3.778
 1936SOL     OW 6706   5.524   3.747   3.750
 1936SOL    HW1 6707   5.613   3.784   3.775
 1936SOL    HW2 6708   5.530   3.701   3.661
 1937SOL     OW 6709   4.039   6.412   1.245
 1937SOL    HW1 6710   3.974   6.345   1.209
 1937SOL    HW2 6711   4.018   6.430   1.341
 1938SOL     OW 6712   2.213   1.690   1.501
 1938SOL    HW1 6713   2.185   1.774   1.547
 1938SOL    HW2 6714   2.293   1.651   1.547
 1939SOL     OW 6715   6.526   6.782   4.851
 1939SOL    HW1 6716   6.512   6.850   4.779
 1939SOL    HW2 6717   6.478   6.698   4.828
 1940SOL     OW 6718   6.030   5.257   0.820
 1940SOL    HW1 6719   5.930   5.249   0.819
 1940SOL    HW2 6720   6.055   5.352   0.836
 1941SOL     OW 6721   1.278   3.577   4.326
 1941SOL    HW1 6722   1.218   3.603   4.250
 1941SOL    HW2 6723   1.227   3.580   4.412
 1942SOL     OW 6724   5.417   2.169   1.461
 1942SOL    HW1 6725   5.508   2.209   1.450
 1942SOL    HW2 6726   5.425   2.079   1.502
 1943SOL     OW 6727   2.340   6.300   3.778
 1943SOL    HW1 6728   2.383   6.280   3.690
 1943SOL    HW2 6729   2.360   6.227   3.843
 1944SOL     OW 6730   6.431   2.905   0.176
 1944SOL    HW1 6731   6.359   2.972   0.195
 1944SOL    HW2 6732   6.408   2.818   0.220
 1945SOL     OW 6733   3.659   4.994   0.867
 1945SOL    HW1 6734   3.593   5.046   0.813
 1945SOL    HW2 6735   3.722   5.058   0.912
 1946SOL     OW 6736   6.218   6.446   0.954
 1946SOL    HW1 6737   6.240   6.356   0.917
 1946SOL    HW2 6738   6.142   6.438   1.018
 1947SOL     OW 6739   5.366   6.255   4.496
 1947SOL    HW1 6740   5.391   6.320   4.424
 1947SOL    HW2 6741   5.438   6.185   4.504
 1948SOL     OW 6742   6.124   5.169   4.228
 1948SOL    HW1 6743   6.075   5.083   4.242
 1948SOL    HW2 6744   6.064   5.234   4.180
 1949SOL     OW 6745   3.457   3.286   6.056
 1949SOL    HW1 6746   3.539   3.343   6.054
 1949SOL    HW2 6747   3.381   3.336   6.014
 1950SOL     OW 6748   4.322   3.114   0.614
 1950SOL    HW1 6749   4.358   3.098   0.522
 1950SOL    HW2 6750   4.269   3.200   0.614
 1951SOL     OW 6751   6.214   4.519   0.303
 1951SOL    HW1 6752   6.116   4.513   0.325
 1951SOL    HW2 6753   6.235   4.453   0.231
 1952SOL     OW 6754   4.474   3.604   1.270
 1952SOL    HW1 6755   4.543   3.550   1.317
 1952SOL    HW2 6756   4.384   3.566   1.287
 1953SOL     OW 6757   6.195   1.662   5.585
 1953SOL    HW1 6758   6.204   1.587   5.650
 1953SOL    HW2 6759   6.138   1.734   5.625
 1954SOL     OW 6760   6.854   0.832   2.003
 1954SOL    HW1 6761   6.939   0.787   1.977
 1954SOL    HW2 6762   6.790   0.832   1.926
 1955SOL     OW 6763   0.848   0.916   3.162
 1955SOL    HW1 6764   0.752   0.941   3.177
 1955SOL    HW2 6765   0.881   0.860   3.238
 1956SOL     OW 6766   4.736   0.103   1.789
 1956SOL    HW1 6767   4.661   0.062   1.840
 1956SOL    HW2 6768   4.788   0.032   1.742
 1957SOL     OW 6769   5.771   4.440   4.064
 1957SOL    HW1 6770   5.775   4.530   4.020
 1957SOL    HW2 6771   5.792   4.449   4.161
 1958SOL     OW 6772   4.656   1.484   1.780
 1958SOL    HW1 6773   4.593   1.557   1.752
 1958SOL    HW2 6774   4.624   1.444   1.866
 1959SOL     OW 6775   1.517   0.531   3.938
 1959SOL    HW1 6776   1.419   0.542   3.952
 1959SOL    HW2 6777   1.566   0.596   3.996
 1960SOL     OW 6778   0.539   4.878   2.297
 1960SOL    HW1 6779   0.562   4.921   2.209
 1960SOL    HW2 6780   0.589   4.924   2.370
 1961SOL     OW 6781   6.152   4.911   4.857
 1961SOL    HW1 6782   6.126   4.950   4.945
 1961SOL    HW2 6783   6.239   4.951   4.827
 1962SOL     OW 6784   1.307   5.989   2.376
 1962SOL    HW1 6785   1.346   6.070   2.332
 1962SOL    HW2 6786   1.288   5.919   2.307
 1963SOL     OW 6787   1.114   1.625   1.377
 1963SOL    HW1 6788   1.064   1.636   1.291
 1963SOL    HW2 6789   1.050   1.626   1.453
 1964SOL     OW 6790   4.199   4.745   2.041
 1964SOL    HW1 6791   4.223   4.793   2.126
 1964SOL    HW2 6792   4.275   4.686   2.014
 1965SOL     OW 6793   1.325   2.972   4.359
 1965SOL    HW1 6794   1.266   3.027   4.300
 1965SOL    HW2 6795   1.411   2.953   4.311
 1966SOL     OW 6796   0.498   6.215   0.320
 1966SOL    HW1 6797   0.422   6.279   0.332
 1966SOL    HW2 6798   0.585   6.261   0.338
 1967SOL     OW 6799   5.577   2.797   4.255
 1967SOL    HW1 6800   5.576   2.724   4.188
 1967SOL    HW2 6801   5.601   2.760   4.345
 1968SOL     OW 6802   1.433   6.965   5.368
 1968SOL    HW1 6803   1.473   0.034   5.377
 1968SOL    HW2 6804   1.494   6.908   5.313
 1969SOL     OW 6805   2.227   1.741   0.535
 1969SOL    HW1 6806   2.140   1.770   0.575
 1969SOL    HW2 6807   2.240   1.785   0.447
 1970SOL     OW 6808   2.995   6.357   6.275
 1970SOL    HW1 6809   2.917   6.296   6.259
 1970SOL    HW2 6810   3.078   6.313   6.241
 1971SOL     OW 6811   0.511   0.231   4.975
 1971SOL    HW1 6812   0.476   0.141   4.996
 1971SOL    HW2 6813   0.611   0.229   4.975
 1972SOL     OW 6814   4.998   2.036   1.981
 1972SOL    HW1 6815   4.983   2.126   1.941
 1972SOL    HW2 6816   4.945   1.968   1.930
 1973SOL     OW 6817   3.846   3.193   0.542
 1973SOL    HW1 6818   3.877   3.098   0.553
 1973SOL    HW2 6819   3.747   3.196   0.541
 1974SOL     OW 6820   5.560   0.060   4.698
 1974SOL    HW1 6821   5.592   0.119   4.624
 1974SOL    HW2 6822   5.636   0.041   4.761
 1975SOL     OW 6823   2.080   1.978   4.594
 1975SOL    HW1 6824   1.987   1.970   4.559
 1975SOL    HW2 6825   2.094   2.070   4.631
 1976SOL     OW 6826   6.587   0.192   0.365
 1976SOL    HW1 6827   6.594   0.094   0.344
 1976SOL    HW2 6828   6.491   0.214   0.384
 1977SOL     OW 6829   2.156   3.138   4.949
 1977SOL    HW1 6830   2.095   3.123   5.026
 1977SOL    HW2 6831   2.245   3.096   4.968
 1978SOL     OW 6832   2.042   6.003   3.099
 1978SOL    HW1 6833   1.962   6.008   3.158
 1978SOL    HW2 6834   2.125   6.018   3.153
 1979SOL     OW 6835   5.558   4.638   0.120
 1979SOL    HW1 6836   5.528   4.655   0.026
 1979SOL    HW2 6837   5.569   4.725   0.167
 1980SOL     OW 6838   3.138   0.471   4.435
 1980SOL    HW1 6839   3.190   0.445   4.516
 1980SOL    HW2 6840   3.200   0.490   4.360
 1981SOL     OW 6841   6.458   3.361   1.859
 1981SOL    HW1 6842   6.394   3.425   1.817
 1981SOL    HW2 6843   6.479   3.392   1.952
 1982SOL     OW 6844   0.474   4.008   4.274
 1982SOL    HW1 6845   0.434   3.966   4.355
 1982SOL    HW2 6846   0.417   4.086   4.246
 1983SOL     OW 6847   1.466   0.193   1.646
 1983SOL    HW1 6848   1.545   0.132   1.657
 1983SOL    HW2 6849   1.473   0.241   1.559
 1984SOL     OW 6850   4.957   2.568   4.759
 1984SOL    HW1 6851   5.000   2.479   4.772
 1984SOL    HW2 6852   5.027   2.640   4.764
 1985SOL     OW 6853   0.752   6.637   2.191
 1985SOL    HW1 6854   0.771   6.657   2.287
 1985SOL    HW2 6855   0.803   6.700   2.133
 1986SOL     OW 6856   2.673   1.009   6.780
 1986SOL    HW1 6857   2.615   0.946   6.728
 1986SOL    HW2 6858   2.627   1.033   6.866
 1987SOL     OW 6859   1.928   1.675   3.100
 1987SOL    HW1 6860   1.936   1.686   3.001
 1987SOL    HW2 6861   1.991   1.738   3.146
 1988SOL     OW 6862   6.708   3.773   0.641
 1988SOL    HW1 6863   6.640   3.845   0.648
 1988SOL    HW2 6864   6.718   3.727   0.729
 1989SOL     OW 6865   1.968   5.700   5.027
 1989SOL    HW1 6866   2.014   5.652   5.101
 1989SOL    HW2 6867   2.023   5.779   4.999
 1990SOL     OW 6868   3.989   5.745   0.949
 1990SOL    HW1 6869   4.000   5.705   0.859
 1990SOL    HW2 6870   4.049   5.698   1.014
 1991SOL     OW 6871   3.206   4.742   6.776
 1991SOL    HW1 6872   3.125   4.780   6.732
 1991SOL    HW2 6873   3.284   4.803   6.761
 1992SOL     OW 6874   0.287   0.588   0.182
 1992SOL    HW1 6875   0.192   0.609   0.162
 1992SOL    HW2 6876   0.294   0.498   0.223
 1993SOL     OW 6877   3.649   2.175   6.012
 1993SOL    HW1 6878   3.748   2.187   6.002
 1993SOL    HW2 6879   3.602   2.233   5.945
 1994SOL     OW 6880   0.099   1.632   0.786
 1994SOL    HW1 6881   0.063   1.568   0.718
 1994SOL    HW2 6882   0.104   1.587   0.875
 1995SOL     OW 6883   5.339   2.619   3.664
 1995SOL    HW1 6884   5.319   2.713   3.689
 1995SOL    HW2 6885   5.266   2.584   3.604
 1996SOL     OW 6886   2.370   2.222   0.640
 1996SOL    HW1 6887   2.278   2.256   0.618
 1996SOL    HW2 6888   2.431   2.240   0.563
 1997SOL     OW 6889   3.557   2.040   5.008
 1997SOL    HW1 6890   3.505   2.007   5.087
 1997SOL    HW2 6891   3.640   2.085   5.040
 1998SOL     OW 6892   2.332   4.257   0.459
 1998SOL    HW1 6893   2.263   4.325   0.485
 1998SOL    HW2 6894   2.312   4.170   0.504
 1999SOL     OW 6895   1.847   6.709   6.453
 1999SOL    HW1 6896   1.780   6.690   6.381
 1999SOL    HW2 6897   1.844   6.635   6.521
 2000SOL     OW 6898   4.068   2.804   5.365
 2000SOL    HW1 6899   4.112   2.739   5.304
 2000SOL    HW2 6900   4.137   2.857   5.414
 2001SOL     OW 6901   2.315   0.255   1.487
 2001SOL    HW1 6902   2.396   0.309   1.509
 2001SOL    HW2 6903   2.267   0.298   1.410
 2002SOL     OW 6904   0.806   4.481   0.743
 2002SOL    HW1 6905   0.862   4.453   0.666
 2002SOL    HW2 6906   0.710   4.459   0.725
 2003SOL     OW 6907   6.202   4.922   2.276
 2003SOL    HW1 6908   6.229   4.853   2.343
 2003SOL    HW2 6909   6.245   4.901   2.188
 2004SOL     OW 6910   5.470   0.787   4.341
 2004SOL    HW1 6911   5.388   0.833   4.308
 2004SOL    HW2 6912   5.534   0.776   4.265
 2005SOL     OW 6913   0.335   4.455   0.580
 2005SOL    HW1 6914   0.344   4.548   0.616
 2005SOL    HW2 6915   0.286   4.457   0.492
 2006SOL     OW 6916   5.673   0.251   2.802
 2006SOL    HW1 6917   5.677   0.239   2.702
 2006SOL    HW2 6918   5.600   0.193   2.839
 2007SOL     OW 6919   4.859   4.285   0.825
 2007SOL    HW1 6920   4.844   4.187   0.810
 2007SOL    HW2 6921   4.950   4.310   0.793
 2008SOL     OW 6922   1.901   4.204   3.864
 2008SOL    HW1 6923   1.932   4.299   3.870
 2008SOL    HW2 6924   1.947   4.159   3.787
 2009SOL     OW 6925   5.255   0.282   2.733
 2009SOL    HW1 6926   5.206   0.352   2.681
 2009SOL    HW2 6927   5.259   0.308   2.829
 2010SOL     OW 6928   3.166   1.637   1.708
 2010SOL    HW1 6929   3.213   1.579   1.775
 2010SOL    HW2 6930   3.067   1.622   1.714
 2011SOL     OW 6931   0.657   0.904   4.727
 2011SOL    HW1 6932   0.687   0.809   4.736
 2011SOL    HW2 6933   0.577   0.908   4.667
 2012SOL     OW 6934   0.986   4.405   2.733
 2012SOL    HW1 6935   0.922   4.402   2.809
 2012SOL    HW2 6936   1.017   4.312   2.711
 2013SOL     OW 6937   6.029   2.475   3.168
 2013SOL    HW1 6938   6.081   2.472   3.083
 2013SOL    HW2 6939   6.090   2.500   3.243
 2014SOL     OW 6940   2.976   6.560   3.369
 2014SOL    HW1 6941   2.950   6.522   3.457
 2014SOL    HW2 6942   3.000   6.656   3.380
 2015SOL     OW 6943   2.215   0.220   0.399
 2015SOL    HW1 6944   2.286   0.150   0.410
 2015SOL    HW2 6945   2.233   0.296   0.461
 2016SOL     OW 6946   2.091   6.046   5.717
 2016SOL    HW1 6947   2.018   6.098   5.760
 2016SOL    HW2 6948   2.077   5.948   5.734
 2017SOL     OW 6949   3.935   0.081   3.235
 2017SOL    HW1 6950   4.024   0.107   3.196
 2017SOL    HW2 6951   3.868   0.070   3.162
 2018SOL     OW 6952   5.597   2.243   4.110
 2018SOL    HW1 6953   5.531   2.274   4.042
 2018SOL    HW2 6954   5.647   2.322   4.146
 2019SOL     OW 6955   5.375   3.708   6.217
 2019SOL    HW1 6956   5.389   3.624   6.269
 2019SOL    HW2 6957   5.340   3.779   6.279
 2020SOL     OW 6958   2.019   0.254   5.467
 2020SOL    HW1 6959   1.973   0.169   5.441
 2020SOL    HW2 6960   2.075   0.237   5.548
 2021SOL     OW 6961   6.552   6.647   5.121
 2021SOL    HW1 6962   6.464   6.633   5.165
 2021SOL    HW2 6963   6.542   6.642   5.022
 2022SOL     OW 6964   1.532   4.963   3.591
 2022SOL    HW1 6965   1.617   4.917   3.567
 2022SOL    HW2 6966   1.539   4.999   3.684
 2023SOL     OW 6967   0.106   0.606   6.476
 2023SOL    HW1 6968   0.059   0.535   6.423
 2023SOL    HW2 6969   0.127   0.683   6.415
 2024SOL     OW 6970   0.166   6.044   3.496
 2024SOL    HW1 6971   0.093   6.051   3.565
 2024SOL    HW2 6972   0.132   6.075   3.408
 2025SOL     OW 6973   3.968   0.941   3.439
 2025SOL    HW1 6974   4.062   0.954   3.471
 2025SOL    HW2 6975   3.944   0.844   3.446
 2026SOL     OW 6976   6.276   3.090   5.658
 2026SOL    HW1 6977   6.243   3.004   5.620
 2026SOL    HW2 6978   6.357   3.074   5.715
 2027SOL     OW 6979   1.092   6.911   0.673
 2027SOL    HW1 6980   1.043   6.887   0.757
 2027SOL    HW2 6981   1.189   6.923   0.693
 2028SOL     OW 6982   2.985   5.324   4.263
 2028SOL    HW1 6983   2.933   5.258   4.317
 2028SOL    HW2 6984   3.079   5.290   4.251
 2029SOL     OW 6985   6.185   1.649   0.079
 2029SOL    HW1 6986   6.132   1.591   0.017
 2029SOL    HW2 6987   6.264   1.598   0.113
 2030SOL     OW 6988   3.157   0.749   3.865
 2030SOL    HW1 6989   3.193   0.766   3.773
 2030SOL    HW2 6990   3.224   0.778   3.933
 2031SOL     OW 6991   6.938   5.894   1.756
 2031SOL    HW1 6992   6.987   5.980   1.745
 2031SOL    HW2 6993   7.004   5.821   1.777
 2032SOL     OW 6994   4.019   0.735   2.142
 2032SOL    HW1 6995   4.111   0.696   2.141
 2032SOL    HW2 6996   3.980   0.728   2.234
 2033SOL     OW 6997   2.989   2.827   0.128
 2033SOL    HW1 6998   2.960   2.759   0.061
 2033SOL    HW2 6999   2.915   2.841   0.194
 2034SOL     OW 7000   2.522   5.137   5.208
 2034SOL    HW1 7001   2.551   5.188   5.289
 2034SOL    HW2 7002   2.534   5.039   5.224
 2035SOL     OW 7003   6.238   6.412   3.385
 2035SOL    HW1 7004   6.235   6.431   3.483
 2035SOL    HW2 7005   6.158   6.452   3.341
 2036SOL     OW 7006   0.929   3.243   2.748
 2036SOL    HW1 7007   0.865   3.183   2.797
 2036SOL    HW2 7008   1.018   3.240   2.793
 2037SOL     OW 7009   6.200   3.065   5.969
 2037SOL    HW1 7010   6.209   2.995   6.041
 2037SOL    HW2 7011   6.261   3.042   5.894
 2038SOL     OW 7012   1.904   1.521   0.360
 2038SOL    HW1 7013   1.881   1.470   0.443
 2038SOL    HW2 7014   1.982   1.477   0.315
 2039SOL     OW 7015   6.837   5.882   3.401
 2039SOL    HW1 7016   6.743   5.913   3.411
 2039SOL    HW2 7017   6.839   5.782   3.392
 2040SOL     OW 7018   1.755   2.792   6.490
 2040SOL    HW1 7019   1.771   2.709   6.542
 2040SOL    HW2 7020   1.659   2.819   6.498
 2041SOL     OW 7021   1.235   6.352   5.136
 2041SOL    HW1 7022   1.213   6.302   5.220
 2041SOL    HW2 7023   1.166   6.331   5.066
 2042SOL     OW 7024   4.498   6.171   6.791
 2042SOL    HW1 7025   4.428   6.117   6.744
 2042SOL    HW2 7026   4.542   6.114   6.861
 2043SOL     OW 7027   6.322   3.471   3.483
 2043SOL    HW1 7028   6.229   3.436   3.472
 2043SOL    HW2 7029   6.370   3.415   3.550
 2044SOL     OW 7030   6.389   0.862   1.379
 2044SOL    HW1 7031   6.329   0.855   1.459
 2044SOL    HW2 7032   6.364   0.943   1.326
 2045SOL     OW 7033   1.825   5.596   4.504
 2045SOL    HW1 7034   1.896   5.642   4.558
 2045SOL    HW2 7035   1.765   5.665   4.463
 2046SOL     OW 7036   6.473   1.857   4.493
 2046SOL    HW1 7037   6.465   1.871   4.394
 2046SOL    HW2 7038   6.414   1.922   4.541
 2047SOL     OW 7039   6.766   2.496   0.111
 2047SOL    HW1 7040   6.677   2.537   0.130
 2047SOL    HW2 7041   6.754   2.414   0.055
 2048SOL     OW 7042   0.695   6.735   5.754
 2048SOL    HW1 7043   0.729   6.665   5.816
 2048SOL    HW2 7044   0.729   6.825   5.783
 2049SOL     OW 7045   5.921   1.328   4.283
 2049SOL    HW1 7046   5.995   1.325   4.350
 2049SOL    HW2 7047   5.867   1.244   4.289
 2050SOL     OW 7048   6.147   3.028   3.854
 2050SOL    HW1 7049   6.059   3.029   3.902
 2050SOL    HW2 7050   6.207   3.099   3.892
 2051SOL     OW 7051   1.589   5.820   6.342
 2051SOL    HW1 7052   1.652   5.776   6.406
 2051SOL    HW2 7053   1.614   5.916   6.329
 2052SOL     OW 7054   1.695   2.902   1.250
 2052SOL    HW1 7055   1.750   2.831   1.294
 2052SOL    HW2 7056   1.599   2.875   1.249
 2053SOL     OW 7057   6.991   5.919   4.736
 2053SOL    HW1 7058   6.920   5.934   4.668
 2053SOL    HW2 7059   6.996   5.821   4.758
 2054SOL     OW 7060   3.474   4.053   3.420
 2054SOL    HW1 7061   3.482   3.954   3.426
 2054SOL    HW2 7062   3.382   4.081   3.447
 2055SOL     OW 7063   5.853   3.393   4.685
 2055SOL    HW1 7064   5.820   3.356   4.598
 2055SOL    HW2 7065   5.783   3.454   4.723
 2056SOL     OW 7066   4.583   5.218   1.248
 2056SOL    HW1 7067   4.506   5.253   1.301
 2056SOL    HW2 7068   4.573   5.119   1.236
 2057SOL     OW 7069   4.871   4.039   6.008
 2057SOL    HW1 7070   4.936   4.070   5.939
 2057SOL    HW2 7071   4.920   4.015   6.092
 2058SOL     OW 7072   0.277   6.632   2.789
 2058SOL    HW1 7073   0.339   6.583   2.850
 2058SOL    HW2 7074   0.276   6.729   2.815
 2059SOL     OW 7075   1.904   5.859   6.207
 2059SOL    HW1 7076   1.957   5.828   6.286
 2059SOL    HW2 7077   1.966   5.895   6.137
 2060SOL     OW 7078   0.360   4.004   1.342
 2060SOL    HW1 7079   0.308   3.921   1.322
 2060SOL    HW2 7080   0.424   3.986   1.417
 2061SOL     OW 7081   1.492   1.664   1.906
 2061SOL    HW1 7082   1.577   1.611   1.912
 2061SOL    HW2 7083   1.509   1.747   1.854
 2062SOL     OW 7084   6.978   5.552   5.078
 2062SOL    HW1 7085   7.000   5.481   5.146
 2062SOL    HW2 7086   6.895   5.601   5.106
 2063SOL     OW 7087   1.361   6.604   5.074
 2063SOL    HW1 7088   1.294   6.673   5.047
 2063SOL    HW2 7089   1.324   6.513   5.057
 2064SOL     OW 7090   0.312   2.149   4.751
 2064SOL    HW1 7091   0.308   2.056   4.715
 2064SOL    HW2 7092   0.323   2.213   4.676
 2065SOL     OW 7093   5.763   2.968   6.086
 2065SOL    HW1 7094   5.772   2.983   5.987
 2065SOL    HW2 7095   5.802   3.047   6.134
 2066SOL     OW 7096   0.101   4.030   5.342
 2066SOL    HW1 7097   0.080   4.103   5.277
 2066SOL    HW2 7098   0.041   4.039   5.421
 2067SOL     OW 7099   0.218   5.009   0.848
 2067SOL    HW1 7100   0.170   5.019   0.760
 2067SOL    HW2 7101   0.214   4.913   0.877
 2068SOL     OW 7102   3.037   0.297   3.815
 2068SOL    HW1 7103   3.031   0.369   3.884
 2068SOL    HW2 7104   2.969   0.315   3.743
 2069SOL     OW 7105   6.337   2.403   4.002
 2069SOL    HW1 7106   6.364   2.311   3.971
 2069SOL    HW2 7107   6.416   2.448   4.043
 2070SOL     OW 7108   1.054   1.588   0.797
 2070SOL    HW1 7109   1.023   1.531   0.721
 2070SOL    HW2 7110   1.148   1.563   0.821
 2071SOL     OW 7111   6.208   0.338   5.580
 2071SOL    HW1 7112   6.180   0.380   5.494
 2071SOL    HW2 7113   6.140   0.356   5.651
 2072SOL     OW 7114   4.915   5.394   4.535
 2072SOL    HW1 7115   4.916   5.428   4.440
 2072SOL    HW2 7116   4.909   5.472   4.598
 2073SOL     OW 7117   4.592   6.483   4.932
 2073SOL    HW1 7118   4.663   6.522   4.875
 2073SOL    HW2 7119   4.537   6.419   4.877
 2074SOL     OW 7120   2.342   2.508   6.195
 2074SOL    HW1 7121   2.335   2.410   6.211
 2074SOL    HW2 7122   2.374   2.554   6.278
 2075SOL     OW 7123   6.787   2.416   2.960
 2075SOL    HW1 7124   6.854   2.404   3.034
 2075SOL    HW2 7125   6.715   2.347   2.970
 2076SOL     OW 7126   5.155   6.429   6.462
 2076SOL    HW1 7127   5.094   6.503   6.491
 2076SOL    HW2 7128   5.245   6.443   6.503
 2077SOL     OW 7129   6.627   2.325   2.013
 2077SOL    HW1 7130   6.554   2.310   2.080
 2077SOL    HW2 7131   6.709   2.360   2.060
 2078SOL     OW 7132   2.141   5.201   6.180
 2078SOL    HW1 7133   2.119   5.177   6.275
 2078SOL    HW2 7134   2.070   5.260   6.144
 2079SOL     OW 7135   0.289   1.330   2.561
 2079SOL    HW1 7136   0.250   1.364   2.476
 2079SOL    HW2 7137   0.317   1.234   2.550
 2080SOL     OW 7138   2.504   0.599   5.156
 2080SOL    HW1 7139   2.595   0.623   5.189
 2080SOL    HW2 7140   2.456   0.546   5.226
 2081SOL     OW 7141   1.251   6.652   4.578
 2081SOL    HW1 7142   1.314   6.582   4.544
 2081SOL    HW2 7143   1.157   6.622   4.564
 2082SOL     OW 7144   0.855   6.361   3.110
 2082SOL    HW1 7145   0.794   6.441   3.108
 2082SOL    HW2 7146   0.799   6.278   3.109
 2083SOL     OW 7147   1.389   5.721   5.048
 2083SOL    HW1 7148   1.447   5.802   5.049
 2083SOL    HW2 7149   1.293   5.748   5.044
 2084SOL     OW 7150   0.885   3.484   2.651
 2084SOL    HW1 7151   0.892   3.443   2.560
 2084SOL    HW2 7152   0.911   3.416   2.720
 2085SOL     OW 7153   4.980   0.563   0.902
 2085SOL    HW1 7154   4.886   0.563   0.936
 2085SOL    HW2 7155   5.022   0.474   0.919
 2086SOL     OW 7156   3.574   6.256   7.017
 2086SOL    HW1 7157   3.520   6.196   0.055
 2086SOL    HW2 7158   3.630   6.200   6.956
 2087SOL     OW 7159   4.874   1.842   1.810
 2087SOL    HW1 7160   4.802   1.828   1.742
 2087SOL    HW2 7161   4.934   1.762   1.812
 2088SOL     OW 7162   1.396   6.046   6.452
 2088SOL    HW1 7163   1.302   6.012   6.445
 2088SOL    HW2 7164   1.419   6.096   6.369
 2089SOL     OW 7165   4.878   2.333   5.670
 2089SOL    HW1 7166   4.849   2.373   5.757
 2089SOL    HW2 7167   4.975   2.352   5.655
 2090SOL     OW 7168   4.747   3.459   5.643
 2090SOL    HW1 7169   4.688   3.537   5.663
 2090SOL    HW2 7170   4.718   3.380   5.697
 2091SOL     OW 7171   7.017   5.113   1.268
 2091SOL    HW1 7172   6.947   5.084   1.333
 2091SOL    HW2 7173   0.036   5.199   1.299
 2092SOL     OW 7174   5.613   3.188   0.676
 2092SOL    HW1 7175   5.656   3.204   0.587
 2092SOL    HW2 7176   5.515   3.174   0.664
 2093SOL     OW 7177   3.223   2.308   1.694
 2093SOL    HW1 7178   3.230   2.244   1.771
 2093SOL    HW2 7179   3.201   2.257   1.610
 2094SOL     OW 7180   5.123   1.500   1.340
 2094SOL    HW1 7181   5.220   1.518   1.325
 2094SOL    HW2 7182   5.093   1.543   1.425
 2095SOL     OW 7183   5.935   6.033   4.781
 2095SOL    HW1 7184   5.885   6.032   4.867
 2095SOL    HW2 7185   5.886   6.089   4.714
 2096SOL     OW 7186   5.269   5.812   3.603
 2096SOL    HW1 7187   5.204   5.750   3.648
 2096SOL    HW2 7188   5.303   5.769   3.519
 2097SOL     OW 7189   2.814   3.219   0.036
 2097SOL    HW1 7190   2.788   3.240   0.130
 2097SOL    HW2 7191   2.857   3.299   7.017
 2098SOL     OW 7192   4.569   5.899   2.364
 2098SOL    HW1 7193   4.514   5.861   2.290
 2098SOL    HW2 7194   4.529   5.873   2.452
 2099SOL     OW 7195   3.677   1.675   0.313
 2099SOL    HW1 7196   3.659   1.675   0.411
 2099SOL    HW2 7197   3.741   1.601   0.291
 2100SOL     OW 7198   5.305   1.364   0.682
 2100SOL    HW1 7199   5.344   1.455   0.693
 2100SOL    HW2 7200   5.380   1.297   0.672
 2101SOL     OW 7201   6.733   6.517   1.205
 2101SOL    HW1 7202   6.668   6.583   1.165
 2101SOL    HW2 7203   6.692   6.426   1.204
 2102SOL     OW 7204   4.926   3.809   1.996
 2102SOL    HW1 7205   4.856   3.832   1.929
 2102SOL    HW2 7206   4.967   3.721   1.973
 2103SOL     OW 7207   3.719   3.727   6.947
 2103SOL    HW1 7208   3.646   3.699   7.010
 2103SOL    HW2 7209   3.748   3.648   6.893
 2104SOL     OW 7210   1.526   4.498   2.060
 2104SOL    HW1 7211   1.445   4.439   2.061
 2104SOL    HW2 7212   1.527   4.551   1.975
 2105SOL     OW 7213   4.971   5.013   6.917
 2105SOL    HW1 7214   5.035   4.968   6.980
 2105SOL    HW2 7215   5.023   5.070   6.853
 2106SOL     OW 7216   4.608   3.681   1.686
 2106SOL    HW1 7217   4.688   3.624   1.705
 2106SOL    HW2 7218   4.615   3.718   1.593
 2107SOL     OW 7219   5.968   2.815   5.650
 2107SOL    HW1 7220   6.056   2.837   5.607
 2107SOL    HW2 7221   5.930   2.732   5.608
 2108SOL     OW 7222   6.454   5.765   5.357
 2108SOL    HW1 7223   6.474   5.675   5.396
 2108SOL    HW2 7224   6.356   5.781   5.361
 2109SOL     OW 7225   3.311   5.997   2.601
 2109SOL    HW1 7226   3.258   5.965   2.522
 2109SOL    HW2 7227   3.406   5.966   2.593
 2110SOL     OW 7228   3.213   0.951   6.840
 2110SOL    HW1 7229   3.237   0.873   6.783
 2110SOL    HW2 7230   3.114   0.956   6.852
 2111SOL     OW 7231   2.504   3.598   6.118
 2111SOL    HW1 7232   2.476   3.522   6.177
 2111SOL    HW2 7233   2.450   3.597   6.034
 2112SOL     OW 7234   5.095   2.294   0.904
 2112SOL    HW1 7235   5.004   2.325   0.878
 2112SOL    HW2 7236   5.144   2.262   0.822
 2113SOL     OW 7237   2.327   0.557   4.964
 2113SOL    HW1 7238   2.238   0.555   5.008
 2113SOL    HW2 7239   2.397   0.579   5.031
 2114SOL     OW 7240   3.106   2.437   6.711
 2114SOL    HW1 7241   3.124   2.534   6.693
 2114SOL    HW2 7242   3.028   2.429   6.773
 2115SOL     OW 7243   0.931   4.275   2.379
 2115SOL    HW1 7244   0.863   4.293   2.307
 2115SOL    HW2 7245   0.928   4.350   2.446
 2116SOL     OW 7246   1.057   3.058   1.889
 2116SOL    HW1 7247   1.135   3.085   1.946
 2116SOL    HW2 7248   0.973   3.087   1.934
 2117SOL     OW 7249   5.447   4.039   1.098
 2117SOL    HW1 7250   5.484   4.128   1.071
 2117SOL    HW2 7251   5.477   4.017   1.191
 2118SOL     OW 7252   6.881   3.430   3.111
 2118SOL    HW1 7253   6.808   3.429   3.043
 2118SOL    HW2 7254   6.846   3.468   3.197
 2119SOL     OW 7255   1.659   0.989   0.853
 2119SOL    HW1 7256   1.665   0.946   0.943
 2119SOL    HW2 7257   1.675   1.088   0.862
 2120SOL     OW 7258   0.353   3.560   2.152
 2120SOL    HW1 7259   0.255   3.544   2.150
 2120SOL    HW2 7260   0.398   3.494   2.212
 2121SOL     OW 7261   1.565   2.915   5.882
 2121SOL    HW1 7262   1.592   2.861   5.802
 2121SOL    HW2 7263   1.597   2.870   5.965
 2122SOL     OW 7264   5.288   6.089   6.608
 2122SOL    HW1 7265   5.335   6.002   6.626
 2122SOL    HW2 7266   5.354   6.156   6.576
 2123SOL     OW 7267   6.468   6.085   1.456
 2123SOL    HW1 7268   6.471   6.163   1.393
 2123SOL    HW2 7269   6.529   6.013   1.423
 2124SOL     OW 7270   2.600   1.344   6.985
 2124SOL    HW1 7271   2.649   1.381   0.042
 2124SOL    HW2 7272   2.551   1.261   7.012
 2125SOL     OW 7273   0.996   5.707   2.022
 2125SOL    HW1 7274   1.036   5.709   1.930
 2125SOL    HW2 7275   1.055   5.758   2.085
 2126SOL     OW 7276   3.286   2.585   6.404
 2126SOL    HW1 7277   3.344   2.665   6.384
 2126SOL    HW2 7278   3.286   2.568   6.503
 2127SOL     OW 7279   0.611   2.030   5.465
 2127SOL    HW1 7280   0.671   1.960   5.504
 2127SOL    HW2 7281   0.594   2.101   5.533
 2128SOL     OW 7282   6.268   2.329   2.462
 2128SOL    HW1 7283   6.292   2.271   2.384
 2128SOL    HW2 7284   6.233   2.417   2.428
 2129SOL     OW 7285   4.473   4.665   4.880
 2129SOL    HW1 7286   4.418   4.607   4.939
 2129SOL    HW2 7287   4.567   4.668   4.914
 2130SOL     OW 7288   2.736   0.890   2.042
 2130SOL    HW1 7289   2.724   0.806   1.989
 2130SOL    HW2 7290   2.646   0.934   2.053
 2131SOL     OW 7291   5.232   1.027   0.777
 2131SOL    HW1 7292   5.251   0.946   0.832
 2131SOL    HW2 7293   5.133   1.034   0.761
 2132SOL     OW 7294   2.975   1.500   6.868
 2132SOL    HW1 7295   2.976   1.412   6.916
 2132SOL    HW2 7296   2.908   1.560   6.911
 2133SOL     OW 7297   3.202   2.215   1.227
 2133SOL    HW1 7298   3.193   2.122   1.193
 2133SOL    HW2 7299   3.287   2.224   1.280
 2134SOL     OW 7300   0.884   0.838   4.864
 2134SOL    HW1 7301   0.804   0.881   4.822
 2134SOL    HW2 7302   0.967   0.880   4.826
 2135SOL     OW 7303   0.428   1.859   4.728
 2135SOL    HW1 7304   0.436   1.898   4.820
 2135SOL    HW2 7305   0.517   1.863   4.683
 2136SOL     OW 7306   1.260   3.739   4.791
 2136SOL    HW1 7307   1.184   3.796   4.822
 2136SOL    HW2 7308   1.338   3.798   4.767
 2137SOL     OW 7309   0.230   6.741   4.546
 2137SOL    HW1 7310   0.159   6.706   4.485
 2137SOL    HW2 7311   0.312   6.762   4.493
 2138SOL     OW 7312   6.266   2.383   2.009
 2138SOL    HW1 7313   6.240   2.302   1.956
 2138SOL    HW2 7314   6.281   2.460   1.947
 2139SOL     OW 7315   3.930   0.847   2.694
 2139SOL    HW1 7316   3.970   0.920   2.639
 2139SOL    HW2 7317   3.987   0.831   2.774
 2140SOL     OW 7318   3.297   6.050   3.149
 2140SOL    HW1 7319   3.310   6.102   3.064
 2140SOL    HW2 7320   3.230   5.977   3.133
 2141SOL     OW 7321   0.235   3.451   1.366
 2141SOL    HW1 7322   0.186   3.384   1.309
 2141SOL    HW2 7323   0.184   3.466   1.450
 2142SOL     OW 7324   1.370   2.284   3.026
 2142SOL    HW1 7325   1.338   2.379   3.021
 2142SOL    HW2 7326   1.292   2.222   3.030
 2143SOL     OW 7327   3.200   4.846   0.867
 2143SOL    HW1 7328   3.209   4.748   0.849
 2143SOL    HW2 7329   3.108   4.865   0.900
 2144SOL     OW 7330   1.480   0.183   2.649
 2144SOL    HW1 7331   1.449   0.148   2.737
 2144SOL    HW2 7332   1.472   0.282   2.648
 2145SOL     OW 7333   4.134   5.471   3.623
 2145SOL    HW1 7334   4.097   5.445   3.534
 2145SOL    HW2 7335   4.068   5.528   3.672
 2146SOL     OW 7336   2.777   3.393   1.919
 2146SOL    HW1 7337   2.770   3.365   1.823
 2146SOL    HW2 7338   2.685   3.405   1.957
 2147SOL     OW 7339   6.792   0.580   6.715
 2147SOL    HW1 7340   6.699   0.557   6.745
 2147SOL    HW2 7341   6.847   0.497   6.708
 2148SOL     OW 7342   4.766   2.980   4.386
 2148SOL    HW1 7343   4.787   2.994   4.482
 2148SOL    HW2 7344   4.726   2.890   4.372
 2149SOL     OW 7345   3.402   1.083   1.333
 2149SOL    HW1 7346   3.306   1.112   1.325
 2149SOL    HW2 7347   3.431   1.042   1.247
 2150SOL     OW 7348   2.498   2.401   2.577
 2150SOL    HW1 7349   2.525   2.357   2.492
 2150SOL    HW2 7350   2.545   2.357   2.654
 2151SOL     OW 7351   2.036   1.493   4.166
 2151SOL    HW1 7352   2.123   1.447   4.149
 2151SOL    HW2 7353   1.973   1.430   4.212
 2152SOL     OW 7354   4.137   5.800   1.250
 2152SOL    HW1 7355   4.150   5.708   1.215
 2152SOL    HW2 7356   4.039   5.818   1.263
 2153SOL     OW 7357   3.592   0.177   3.485
 2153SOL    HW1 7358   3.500   0.205   3.510
 2153SOL    HW2 7359   3.659   0.222   3.545
 2154SOL     OW 7360   3.747   6.465   4.816
 2154SOL    HW1 7361   3.808   6.407   4.871
 2154SOL    HW2 7362   3.740   6.555   4.859
 2155SOL     OW 7363   1.575   5.526   6.843
 2155SOL    HW1 7364   1.491   5.477   6.869
 2155SOL    HW2 7365   1.552   5.615   6.805
 2156SOL     OW 7366   2.568   0.614   2.240
 2156SOL    HW1 7367   2.566   0.553   2.162
 2156SOL    HW2 7368   2.549   0.708   2.210
 2157SOL     OW 7369   6.173   1.182   2.899
 2157SOL    HW1 7370   6.247   1.183   2.832
 2157SOL    HW2 7371   6.096   1.236   2.864
 2158SOL     OW 7372   3.868   6.356   0.651
 2158SOL    HW1 7373   3.896   6.284   0.588
 2158SOL    HW2 7374   3.883   6.446   0.608
 2159SOL     OW 7375   1.862   6.155   5.816
 2159SOL    HW1 7376   1.840   6.161   5.914
 2159SOL    HW2 7377   1.782   6.179   5.762
 2160SOL     OW 7378   4.574   3.142   1.432
 2160SOL    HW1 7379   4.506   3.173   1.366
 2160SOL    HW2 7380   4.659   3.120   1.385
 2161SOL     OW 7381   5.507   2.868   3.407
 2161SOL    HW1 7382   5.548   2.782   3.438
 2161SOL    HW2 7383   5.572   2.916   3.349
 2162SOL     OW 7384   2.753   0.457   0.012
 2162SOL    HW1 7385   2.667   0.477   0.059
 2162SOL    HW2 7386   2.824   0.440   0.080
 2163SOL     OW 7387   0.122   5.547   6.034
 2163SOL    HW1 7388   0.056   5.576   5.965
 2163SOL    HW2 7389   0.172   5.627   6.068
 2164SOL     OW 7390   1.442   2.053   0.068
 2164SOL    HW1 7391   1.370   1.990   0.040
 2164SOL    HW2 7392   1.528   2.029   0.022
 2165SOL     OW 7393   0.843   1.411   2.664
 2165SOL    HW1 7394   0.903   1.338   2.632
 2165SOL    HW2 7395   0.779   1.374   2.732
 2166SOL     OW 7396   2.165   2.507   5.644
 2166SOL    HW1 7397   2.164   2.606   5.658
 2166SOL    HW2 7398   2.087   2.466   5.693
 2167SOL     OW 7399   2.352   0.582   3.071
 2167SOL    HW1 7400   2.426   0.630   3.117
 2167SOL    HW2 7401   2.348   0.487   3.103
 2168SOL     OW 7402   6.722   2.138   3.799
 2168SOL    HW1 7403   6.759   2.216   3.747
 2168SOL    HW2 7404   6.622   2.142   3.799
 2169SOL     OW 7405   5.721   2.303   5.753
 2169SOL    HW1 7406   5.787   2.240   5.713
 2169SOL    HW2 7407   5.770   2.374   5.804
 2170SOL     OW 7408   5.994   5.027   5.656
 2170SOL    HW1 7409   6.051   4.962   5.606
 2170SOL    HW2 7410   5.922   5.063   5.596
 2171SOL     OW 7411   5.793   2.920   0.426
 2171SOL    HW1 7412   5.794   2.940   0.524
 2171SOL    HW2 7413   5.774   2.823   0.411
 2172SOL     OW 7414   2.485   2.038   0.793
 2172SOL    HW1 7415   2.484   1.950   0.745
 2172SOL    HW2 7416   2.437   2.107   0.738
 2173SOL     OW 7417   3.635   0.069   5.516
 2173SOL    HW1 7418   3.654   6.998   5.545
 2173SOL    HW2 7419   3.566   0.110   5.576
 2174SOL     OW 7420   5.907   4.947   5.982
 2174SOL    HW1 7421   5.826   4.912   6.029
 2174SOL    HW2 7422   5.878   4.997   5.900
 2175SOL     OW 7423   3.310   1.987   3.486
 2175SOL    HW1 7424   3.222   1.942   3.501
 2175SOL    HW2 7425   3.351   2.011   3.574
 2176SOL     OW 7426   1.235   2.247   1.176
 2176SOL    HW1 7427   1.145   2.267   1.215
 2176SOL    HW2 7428   1.256   2.150   1.188
 2177SOL     OW 7429   6.312   0.752   2.491
 2177SOL    HW1 7430   6.341   0.815   2.419
 2177SOL    HW2 7431   6.332   0.792   2.580
 2178SOL     OW 7432   2.065   4.343   0.481
 2178SOL    HW1 7433   2.067   4.256   0.432
 2178SOL    HW2 7434   2.039   4.417   0.418
 2179SOL     OW 7435   2.457   5.297   4.479
 2179SOL    HW1 7436   2.365   5.324   4.509
 2179SOL    HW2 7437   2.491   5.222   4.537
 2180SOL     OW 7438   3.032   3.042   1.948
 2180SOL    HW1 7439   2.981   3.025   1.863
 2180SOL    HW2 7440   2.987   3.116   1.999
 2181SOL     OW 7441   5.274   4.531   5.737
 2181SOL    HW1 7442   5.327   4.558   5.817
 2181SOL    HW2 7443   5.213   4.456   5.761
 2182SOL     OW 7444   6.538   3.188   5.356
 2182SOL    HW1 7445   6.634   3.158   5.352
 2182SOL    HW2 7446   6.535   3.288   5.360
 2183SOL     OW 7447   3.923   3.911   6.769
 2183SOL    HW1 7448   3.877   3.954   6.691
 2183SOL    HW2 7449   3.874   3.932   6.853
 2184SOL     OW 7450   3.673   1.359   4.939
 2184SOL    HW1 7451   3.754   1.356   4.998
 2184SOL    HW2 7452   3.647   1.454   4.922
 2185SOL     OW 7453   1.887   2.175   0.572
 2185SOL    HW1 7454   1.985   2.184   0.556
 2185SOL    HW2 7455   1.868   2.192   0.669
 2186SOL     OW 7456   6.793   4.834   2.368
 2186SOL    HW1 7457   6.838   4.882   2.293
 2186SOL    HW2 7458   6.723   4.774   2.331
 2187SOL     OW 7459   0.956   1.491   1.960
 2187SOL    HW1 7460   0.942   1.537   2.048
 2187SOL    HW2 7461   0.868   1.468   1.920
 2188SOL     OW 7462   5.657   5.971   3.708
 2188SOL    HW1 7463   5.687   5.880   3.679
 2188SOL    HW2 7464   5.599   5.963   3.788
 2189SOL     OW 7465   1.932   6.256   6.481
 2189SOL    HW1 7466   1.991   6.202   6.420
 2189SOL    HW2 7467   1.956   6.236   6.576
 2190SOL     OW 7468   6.606   2.548   1.859
 2190SOL    HW1 7469   6.636   2.532   1.764
 2190SOL    HW2 7470   6.604   2.461   1.908
 2191SOL     OW 7471   2.905   1.817   6.380
 2191SOL    HW1 7472   2.900   1.718   6.372
 2191SOL    HW2 7473   3.001   1.845   6.386
 2192SOL     OW 7474   3.807   0.461   4.116
 2192SOL    HW1 7475   3.785   0.400   4.192
 2192SOL    HW2 7476   3.867   0.414   4.051
 2193SOL     OW 7477   6.787   5.819   6.136
 2193SOL    HW1 7478   6.737   5.902   6.111
 2193SOL    HW2 7479   6.845   5.837   6.215
 2194SOL     OW 7480   2.298   4.684   6.889
 2194SOL    HW1 7481   2.276   4.593   6.924
 2194SOL    HW2 7482   2.394   4.687   6.862
 2195SOL     OW 7483   0.311   6.685   2.354
 2195SOL    HW1 7484   0.226   6.713   2.309
 2195SOL    HW2 7485   0.384   6.676   2.286
 2196SOL     OW 7486   2.255   0.485   6.300
 2196SOL    HW1 7487   2.313   0.404   6.294
 2196SOL    HW2 7488   2.267   0.539   6.217
 2197SOL     OW 7489   4.929   3.644   1.591
 2197SOL    HW1 7490   4.863   3.708   1.551
 2197SOL    HW2 7491   5.008   3.695   1.625
 2198SOL     OW 7492   6.791   1.760   0.134
 2198SOL    HW1 7493   6.759   1.744   0.228
 2198SOL    HW2 7494   6.888   1.783   0.136
 2199SOL     OW 7495   5.554   0.564   1.251
 2199SOL    HW1 7496   5.461   0.533   1.229
 2199SOL    HW2 7497   5.577   0.537   1.344
 2200SOL     OW 7498   4.094   0.522   4.897
 2200SOL    HW1 7499   4.148   0.507   4.814
 2200SOL    HW2 7500   4.130   0.601   4.946
 2201SOL     OW 7501   6.436   3.284   2.394
 2201SOL    HW1 7502   6.472   3.370   2.359
 2201SOL    HW2 7503   6.442   3.214   2.323
 2202SOL     OW 7504   3.471   4.962   4.363
 2202SOL    HW1 7505   3.565   4.939   4.339
 2202SOL    HW2 7506   3.409   4.933   4.289
 2203SOL     OW 7507   2.203   2.152   2.035
 2203SOL    HW1 7508   2.296   2.116   2.041
 2203SOL    HW2 7509   2.192   2.201   1.948
 2204SOL     OW 7510   3.283   1.451   6.859
 2204SOL    HW1 7511   3.314   1.451   6.954
 2204SOL    HW2 7512   3.187   1.476   6.855
 2205SOL     OW 7513   1.245   0.221   6.552
 2205SOL    HW1 7514   1.332   0.263   6.576
 2205SOL    HW2 7515   1.261   0.144   6.490
 2206SOL     OW 7516   3.090   4.370   5.292
 2206SOL    HW1 7517   3.030   4.427   5.235
 2206SOL    HW2 7518   3.035   4.322   5.360
 2207SOL     OW 7519   2.122   3.700   6.487
 2207SOL    HW1 7520   2.052   3.762   6.453
 2207SOL    HW2 7521   2.083   3.608   6.497
 2208SOL     OW 7522   1.852   4.352   2.071
 2208SOL    HW1 7523   1.907   4.398   2.002
 2208SOL    HW2 7524   1.873   4.391   2.161
 2209SOL     OW 7525   1.526   6.076   5.632
 2209SOL    HW1 7526   1.609   6.023   5.650
 2209SOL    HW2 7527   1.461   6.062   5.707
 2210SOL     OW 7528   0.174   4.835   3.629
 2210SOL    HW1 7529   0.265   4.811   3.597
 2210SOL    HW2 7530   0.181   4.905   3.701
 2211SOL     OW 7531   5.606   1.325   6.385
 2211SOL    HW1 7532   5.533   1.300   6.322
 2211SOL    HW2 7533   5.585   1.414   6.426
 2212SOL     OW 7534   1.357   6.157   0.427
 2212SOL    HW1 7535   1.305   6.072   0.437
 2212SOL    HW2 7536   1.402   6.158   0.338
 2213SOL     OW 7537   4.458   2.809   5.272
 2213SOL    HW1 7538   4.409   2.823   5.357
 2213SOL    HW2 7539   4.512   2.890   5.250
 2214SOL     OW 7540   4.703   0.989   5.400
 2214SOL    HW1 7541   4.783   0.936   5.373
 2214SOL    HW2 7542   4.685   1.060   5.331
 2215SOL     OW 7543   6.838   1.384   5.533
 2215SOL    HW1 7544   6.831   1.434   5.446
 2215SOL    HW2 7545   6.816   1.446   5.608
 2216SOL     OW 7546   1.641   0.869   6.868
 2216SOL    HW1 7547   1.578   0.856   6.792
 2216SOL    HW2 7548   1.634   0.791   6.931
 2217SOL     OW 7549   3.148   0.499   1.223
 2217SOL    HW1 7550   3.186   0.422   1.275
 2217SOL    HW2 7551   3.211   0.576   1.230
 2218SOL     OW 7552   1.497   6.420   0.337
 2218SOL    HW1 7553   1.459   6.472   0.414
 2218SOL    HW2 7554   1.585   6.459   0.310
 2219SOL     OW 7555   1.242   4.281   3.319
 2219SOL    HW1 7556   1.243   4.235   3.408
 2219SOL    HW2 7557   1.303   4.233   3.257
 2220SOL     OW 7558   0.799   1.357   4.218
 2220SOL    HW1 7559   0.802   1.420   4.296
 2220SOL    HW2 7560   0.711   1.366   4.172
 2221SOL     OW 7561   6.559   0.595   0.046
 2221SOL    HW1 7562   6.575   0.580   0.143
 2221SOL    HW2 7563   6.599   0.682   0.019
 2222SOL     OW 7564   3.653   1.156   0.634
 2222SOL    HW1 7565   3.605   1.198   0.710
 2222SOL    HW2 7566   3.618   1.063   0.620
 2223SOL     OW 7567   5.823   6.379   3.789
 2223SOL    HW1 7568   5.834   6.477   3.808
 2223SOL    HW2 7569   5.828   6.364   3.691
 2224SOL     OW 7570   2.092   4.676   1.434
 2224SOL    HW1 7571   2.115   4.768   1.465
 2224SOL    HW2 7572   2.015   4.681   1.370
 2225SOL     OW 7573   6.187   5.675   3.242
 2225SOL    HW1 7574   6.283   5.652   3.223
 2225SOL    HW2 7575   6.128   5.618   3.185
 2226SOL     OW 7576   4.158   3.439   0.292
 2226SOL    HW1 7577   4.076   3.416   0.344
 2226SOL    HW2 7578   4.192   3.358   0.245
 2227SOL     OW 7579   5.917   4.411   0.281
 2227SOL    HW1 7580   5.899   4.434   0.185
 2227SOL    HW2 7581   5.832   4.379   0.324
 2228SOL     OW 7582   3.539   5.862   0.757
 2228SOL    HW1 7583   3.581   5.822   0.675
 2228SOL    HW2 7584   3.440   5.865   0.745
 2229SOL     OW 7585   4.085   1.485   4.125
 2229SOL    HW1 7586   4.072   1.430   4.042
 2229SOL    HW2 7587   3.996   1.515   4.159
 2230SOL     OW 7588   0.855   6.325   4.204
 2230SOL    HW1 7589   0.875   6.336   4.106
 2230SOL    HW2 7590   0.762   6.290   4.215
 2231SOL     OW 7591   1.911   1.898   1.868
 2231SOL    HW1 7592   1.897   1.872   1.772
 2231SOL    HW2 7593   1.960   1.825   1.916
 2232SOL     OW 7594   0.881   3.025   4.076
 2232SOL    HW1 7595   0.916   2.957   4.012
 2232SOL    HW2 7596   0.833   2.979   4.151
 2233SOL     OW 7597   2.929   4.880   0.450
 2233SOL    HW1 7598   2.966   4.928   0.530
 2233SOL    HW2 7599   3.002   4.833   0.402
 2234SOL     OW 7600   4.590   2.237   1.480
 2234SOL    HW1 7601   4.590   2.228   1.579
 2234SOL    HW2 7602   4.604   2.147   1.438
 2235SOL     OW 7603   1.463   0.302   0.271
 2235SOL    HW1 7604   1.421   0.367   0.333
 2235SOL    HW2 7605   1.562   0.299   0.286
 2236SOL     OW 7606   1.248   4.862   0.630
 2236SOL    HW1 7607   1.229   4.942   0.574
 2236SOL    HW2 7608   1.221   4.779   0.581
 2237SOL     OW 7609   6.041   3.670   4.952
 2237SOL    HW1 7610   6.079   3.730   4.882
 2237SOL    HW2 7611   6.081   3.579   4.944
 2238SOL     OW 7612   6.259   5.158   2.858
 2238SOL    HW1 7613   6.233   5.169   2.762
 2238SOL    HW2 7614   6.358   5.150   2.866
 2239SOL     OW 7615   4.240   5.008   3.445
 2239SOL    HW1 7616   4.219   4.918   3.484
 2239SOL    HW2 7617   4.320   5.001   3.386
 2240SOL     OW 7618   5.723   5.287   4.139
 2240SOL    HW1 7619   5.653   5.220   4.164
 2240SOL    HW2 7620   5.751   5.272   4.045
 2241SOL     OW 7621   0.217   6.259   2.704
 2241SOL    HW1 7622   0.306   6.217   2.724
 2241SOL    HW2 7623   0.230   6.336   2.643
 2242SOL     OW 7624   5.498   2.054   3.389
 2242SOL    HW1 7625   5.577   2.111   3.410
 2242SOL    HW2 7626   5.526   1.978   3.331
 2243SOL     OW 7627   2.910   6.188   5.275
 2243SOL    HW1 7628   2.811   6.195   5.260
 2243SOL    HW2 7629   2.953   6.153   5.191
 2244SOL     OW 7630   3.854   0.344   3.136
 2244SOL    HW1 7631   3.864   0.275   3.064
 2244SOL    HW2 7632   3.944   0.363   3.176
 2245SOL     OW 7633   0.510   2.079   1.983
 2245SOL    HW1 7634   0.492   2.104   1.888
 2245SOL    HW2 7635   0.591   2.127   2.016
 2246SOL     OW 7636   1.592   2.077   5.124
 2246SOL    HW1 7637   1.599   2.019   5.206
 2246SOL    HW2 7638   1.611   2.172   5.149
 2247SOL     OW 7639   2.096   2.353   6.742
 2247SOL    HW1 7640   2.189   2.320   6.729
 2247SOL    HW2 7641   2.039   2.324   6.665
 2248SOL     OW 7642   4.995   3.984   5.645
 2248SOL    HW1 7643   4.993   3.910   5.711
 2248SOL    HW2 7644   5.050   3.957   5.566
 2249SOL     OW 7645   6.047   6.608   2.700
 2249SOL    HW1 7646   5.967   6.658   2.731
 2249SOL    HW2 7647   6.031   6.510   2.707
 2250SOL     OW 7648   5.197   3.788   1.213
 2250SOL    HW1 7649   5.175   3.716   1.148
 2250SOL    HW2 7650   5.224   3.871   1.163
 2251SOL     OW 7651   5.697   1.198   0.384
 2251SOL    HW1 7652   5.753   1.164   0.308
 2251SOL    HW2 7653   5.601   1.180   0.365
 2252SOL     OW 7654   6.624   2.512   4.497
 2252SOL    HW1 7655   6.545   2.489   4.440
 2252SOL    HW2 7656   6.594   2.562   4.578
 2253SOL     OW 7657   1.066   2.940   6.611
 2253SOL    HW1 7658   1.134   2.993   6.559
 2253SOL    HW2 7659   1.038   2.992   6.692
 2254SOL     OW 7660   2.574   2.870   6.049
 2254SOL    HW1 7661   2.486   2.822   6.047
 2254SOL    HW2 7662   2.598   2.898   5.956
 2255SOL     OW 7663   6.124   2.629   1.028
 2255SOL    HW1 7664   6.093   2.595   0.939
 2255SOL    HW2 7665   6.092   2.568   1.100
 2256SOL     OW 7666   4.025   5.765   1.600
 2256SOL    HW1 7667   3.948   5.774   1.536
 2256SOL    HW2 7668   3.997   5.707   1.677
 2257SOL     OW 7669   0.934   2.608   4.619
 2257SOL    HW1 7670   0.992   2.611   4.537
 2257SOL    HW2 7671   0.992   2.600   4.700
 2258SOL     OW 7672   1.082   5.897   4.548
 2258SOL    HW1 7673   1.094   5.814   4.494
 2258SOL    HW2 7674   1.048   5.971   4.489
 2259SOL     OW 7675   5.102   3.635   6.119
 2259SOL    HW1 7676   5.114   3.729   6.150
 2259SOL    HW2 7677   5.186   3.584   6.137
 2260SOL     OW 7678   4.536   4.441   3.168
 2260SOL    HW1 7679   4.500   4.436   3.261
 2260SOL    HW2 7680   4.621   4.389   3.163
 2261SOL     OW 7681   5.999   6.541   0.815
 2261SOL    HW1 7682   6.064   6.519   0.888
 2261SOL    HW2 7683   5.911   6.567   0.855
 2262SOL     OW 7684   5.700   2.336   2.672
 2262SOL    HW1 7685   5.783   2.284   2.650
 2262SOL    HW2 7686   5.622   2.273   2.678
 2263SOL     OW 7687   2.670   5.811   6.189
 2263SOL    HW1 7688   2.689   5.771   6.278
 2263SOL    HW2 7689   2.723   5.764   6.119
 2264SOL     OW 7690   3.264   4.022   2.838
 2264SOL    HW1 7691   3.230   4.058   2.751
 2264SOL    HW2 7692   3.314   3.937   2.821
 2265SOL     OW 7693   0.347   0.763   3.507
 2265SOL    HW1 7694   0.380   0.817   3.430
 2265SOL    HW2 7695   0.258   0.797   3.537
 2266SOL     OW 7696   6.651   1.653   1.353
 2266SOL    HW1 7697   6.562   1.632   1.315
 2266SOL    HW2 7698   6.640   1.702   1.440
 2267SOL     OW 7699   5.391   2.697   4.567
 2267SOL    HW1 7700   5.372   2.608   4.608
 2267SOL    HW2 7701   5.488   2.703   4.543
 2268SOL     OW 7702   6.891   5.102   0.421
 2268SOL    HW1 7703   6.952   5.179   0.400
 2268SOL    HW2 7704   6.810   5.135   0.469
 2269SOL     OW 7705   6.184   5.802   5.320
 2269SOL    HW1 7706   6.191   5.762   5.228
 2269SOL    HW2 7707   6.105   5.863   5.324
 2270SOL     OW 7708   3.789   4.066   0.637
 2270SOL    HW1 7709   3.741   4.086   0.723
 2270SOL    HW2 7710   3.745   4.115   0.562
 2271SOL     OW 7711   6.222   4.005   1.582
 2271SOL    HW1 7712   6.214   4.104   1.585
 2271SOL    HW2 7713   6.312   3.978   1.618
 2272SOL     OW 7714   6.356   2.085   4.735
 2272SOL    HW1 7715   6.444   2.118   4.769
 2272SOL    HW2 7716   6.299   2.058   4.813
 2273SOL     OW 7717   1.259   1.846   2.086
 2273SOL    HW1 7718   1.331   1.794   2.040
 2273SOL    HW2 7719   1.215   1.907   2.021
 2274SOL     OW 7720   1.055   3.485   5.396
 2274SOL    HW1 7721   1.049   3.566   5.454
 2274SOL    HW2 7722   1.031   3.404   5.450
 2275SOL     OW 7723   4.845   6.857   4.552
 2275SOL    HW1 7724   4.867   6.913   4.472
 2275SOL    HW2 7725   4.902   6.775   4.551
 2276SOL     OW 7726   3.364   4.692   1.373
 2276SOL    HW1 7727   3.350   4.784   1.408
 2276SOL    HW2 7728   3.422   4.641   1.436
 2277SOL     OW 7729   3.052   3.752   4.915
 2277SOL    HW1 7730   3.052   3.851   4.903
 2277SOL    HW2 7731   2.981   3.726   4.980
 2278SOL     OW 7732   4.883   6.714   3.706
 2278SOL    HW1 7733   4.926   6.628   3.735
 2278SOL    HW2 7734   4.918   6.739   3.616
 2279SOL     OW 7735   5.998   4.831   4.527
 2279SOL    HW1 7736   6.096   4.818   4.543
 2279SOL    HW2 7737   5.981   4.927   4.502
 2280SOL     OW 7738   5.754   6.082   5.018
 2280SOL    HW1 7739   5.669   6.074   5.071
 2280SOL    HW2 7740   5.799   6.169   5.041
 2281SOL     OW 7741   3.378   1.411   1.881
 2281SOL    HW1 7742   3.429   1.388   1.964
 2281SOL    HW2 7743   3.280   1.406   1.900
 2282SOL     OW 7744   5.008   6.174   5.263
 2282SOL    HW1 7745   5.068   6.194   5.340
 2282SOL    HW2 7746   4.924   6.227   5.272
 2283SOL     OW 7747   6.913   4.095   1.780
 2283SOL    HW1 7748   6.933   4.000   1.805
 2283SOL    HW2 7749   6.988   4.153   1.811
 2284SOL     OW 7750   1.888   1.966   1.251
 2284SOL    HW1 7751   1.880   1.872   1.283
 2284SOL    HW2 7752   1.812   2.021   1.287
 2285SOL     OW 7753   2.163   3.345   6.869
 2285SOL    HW1 7754   2.158   3.278   6.795
 2285SOL    HW2 7755   2.071   3.375   6.894
 2286SOL     OW 7756   6.597   6.199   5.000
 2286SOL    HW1 7757   6.672   6.198   5.065
 2286SOL    HW2 7758   6.593   6.288   4.955
 2287SOL     OW 7759   2.571   2.743   1.762
 2287SOL    HW1 7760   2.498   2.677   1.773
 2287SOL    HW2 7761   2.658   2.702   1.791
 2288SOL     OW 7762   0.159   5.722   4.228
 2288SOL    HW1 7763   0.110   5.791   4.281
 2288SOL    HW2 7764   0.168   5.639   4.282
 2289SOL     OW 7765   6.056   3.452   2.377
 2289SOL    HW1 7766   6.050   3.371   2.320
 2289SOL    HW2 7767   6.015   3.530   2.330
 2290SOL     OW 7768   2.402   3.850   1.497
 2290SOL    HW1 7769   2.369   3.929   1.549
 2290SOL    HW2 7770   2.494   3.826   1.528
 2291SOL     OW 7771   2.082   2.316   0.904
 2291SOL    HW1 7772   1.997   2.300   0.854
 2291SOL    HW2 7773   2.082   2.261   0.988
 2292SOL     OW 7774   5.186   3.217   3.924
 2292SOL    HW1 7775   5.280   3.211   3.891
 2292SOL    HW2 7776   5.170   3.148   3.994
 2293SOL     OW 7777   6.182   0.999   0.775
 2293SOL    HW1 7778   6.122   0.966   0.848
 2293SOL    HW2 7779   6.240   1.073   0.811
 2294SOL     OW 7780   3.074   2.240   6.312
 2294SOL    HW1 7781   3.146   2.261   6.245
 2294SOL    HW2 7782   3.014   2.169   6.276
 2295SOL     OW 7783   6.725   1.101   2.443
 2295SOL    HW1 7784   6.740   1.032   2.372
 2295SOL    HW2 7785   6.778   1.077   2.524
 2296SOL     OW 7786   2.599   4.995   2.937
 2296SOL    HW1 7787   2.566   4.922   2.997
 2296SOL    HW2 7788   2.694   4.977   2.912
 2297SOL     OW 7789   4.722   4.792   6.058
 2297SOL    HW1 7790   4.763   4.747   5.979
 2297SOL    HW2 7791   4.630   4.755   6.074
 2298SOL     OW 7792   3.275   3.792   3.087
 2298SOL    HW1 7793   3.196   3.823   3.140
 2298SOL    HW2 7794   3.262   3.696   3.060
 2299SOL     OW 7795   4.692   4.200   5.235
 2299SOL    HW1 7796   4.628   4.240   5.169
 2299SOL    HW2 7797   4.642   4.139   5.297
 2300SOL     OW 7798   3.480   6.952   3.684
 2300SOL    HW1 7799   3.516   7.022   3.621
 2300SOL    HW2 7800   3.404   6.990   3.736
 2301SOL     OW 7801   3.626   2.855   3.832
 2301SOL    HW1 7802   3.533   2.885   3.810
 2301SOL    HW2 7803   3.633   2.841   3.931
 2302SOL     OW 7804   3.534   0.238   1.624
 2302SOL    HW1 7805   3.591   0.161   1.594
 2302SOL    HW2 7806   3.590   0.301   1.678
 2303SOL     OW 7807   2.232   2.864   1.486
 2303SOL    HW1 7808   2.314   2.906   1.525
 2303SOL    HW2 7809   2.214   2.904   1.396
 2304SOL     OW 7810   5.685   5.578   4.162
 2304SOL    HW1 7811   5.724   5.637   4.233
 2304SOL    HW2 7812   5.692   5.483   4.191
 2305SOL     OW 7813   2.223   0.490   3.584
 2305SOL    HW1 7814   2.244   0.530   3.673
 2305SOL    HW2 7815   2.301   0.435   3.553
 2306SOL     OW 7816   1.533   5.337   2.243
 2306SOL    HW1 7817   1.630   5.336   2.265
 2306SOL    HW2 7818   1.482   5.377   2.319
 2307SOL     OW 7819   0.649   3.355   5.308
 2307SOL    HW1 7820   0.587   3.429   5.333
 2307SOL    HW2 7821   0.597   3.282   5.264
 2308SOL     OW 7822   2.832   4.285   1.189
 2308SOL    HW1 7823   2.914   4.257   1.238
 2308SOL    HW2 7824   2.855   4.309   1.095
 2309SOL     OW 7825   1.458   1.056   4.244
 2309SOL    HW1 7826   1.522   0.982   4.266
 2309SOL    HW2 7827   1.368   1.034   4.280
 2310SOL     OW 7828   6.395   6.075   2.399
 2310SOL    HW1 7829   6.439   5.997   2.444
 2310SOL    HW2 7830   6.465   6.138   2.365
 2311SOL     OW 7831   2.484   5.647   0.151
 2311SOL    HW1 7832   2.525   5.561   0.181
 2311SOL    HW2 7833   2.543   5.690   0.083
 2312SOL     OW 7834   4.170   5.339   3.382
 2312SOL    HW1 7835   4.135   5.275   3.450
 2312SOL    HW2 7836   4.113   5.335   3.300
 2313SOL     OW 7837   4.971   5.189   1.941
 2313SOL    HW1 7838   4.962   5.249   2.021
 2313SOL    HW2 7839   5.044   5.224   1.882
 2314SOL     OW 7840   3.629   6.762   3.152
 2314SOL    HW1 7841   3.569   6.684   3.134
 2314SOL    HW2 7842   3.588   6.821   3.221
 2315SOL     OW 7843   5.260   3.615   5.640
 2315SOL    HW1 7844   5.329   3.646   5.575
 2315SOL    HW2 7845   5.276   3.658   5.729
 2316SOL     OW 7846   5.139   2.309   3.673
 2316SOL    HW1 7847   5.158   2.212   3.688
 2316SOL    HW2 7848   5.158   2.333   3.578
 2317SOL     OW 7849   0.027   4.902   3.419
 2317SOL    HW1 7850   0.001   4.990   3.459
 2317SOL    HW2 7851   0.070   4.844   3.488
 2318SOL     OW 7852   0.549   2.554   3.864
 2318SOL    HW1 7853   0.558   2.473   3.805
 2318SOL    HW2 7854   0.593   2.632   3.821
 2319SOL     OW 7855   1.284   4.237   4.810
 2319SOL    HW1 7856   1.374   4.274   4.832
 2319SOL    HW2 7857   1.287   4.190   4.722
 2320SOL     OW 7858   0.308   2.776   4.225
 2320SOL    HW1 7859   0.237   2.713   4.257
 2320SOL    HW2 7860   0.268   2.867   4.213
 2321SOL     OW 7861   3.461   0.621   5.241
 2321SOL    HW1 7862   3.508   0.703   5.273
 2321SOL    HW2 7863   3.524   0.567   5.185
 2322SOL     OW 7864   2.002   2.118   5.643
 2322SOL    HW1 7865   1.981   2.199   5.698
 2322SOL    HW2 7866   2.078   2.137   5.581
 2323SOL     OW 7867   2.851   4.922   2.875
 2323SOL    HW1 7868   2.849   4.867   2.792
 2323SOL    HW2 7869   2.946   4.944   2.898
 2324SOL     OW 7870   0.094   6.159   2.987
 2324SOL    HW1 7871   0.181   6.208   3.000
 2324SOL    HW2 7872   0.093   6.117   2.896
 2325SOL     OW 7873   1.177   3.626   2.116
 2325SOL    HW1 7874   1.209   3.562   2.046
 2325SOL    HW2 7875   1.112   3.690   2.076
 2326SOL     OW 7876   2.782   3.641   6.032
 2326SOL    HW1 7877   2.701   3.682   6.075
 2326SOL    HW2 7878   2.803   3.554   6.077
 2327SOL     OW 7879   4.802   2.816   4.693
 2327SOL    HW1 7880   4.844   2.751   4.756
 2327SOL    HW2 7881   4.752   2.766   4.622
 2328SOL     OW 7882   4.916   0.982   3.626
 2328SOL    HW1 7883   4.972   0.917   3.679
 2328SOL    HW2 7884   4.827   0.993   3.671
 2329SOL     OW 7885   1.132   5.638   4.434
 2329SOL    HW1 7886   1.215   5.588   4.411
 2329SOL    HW2 7887   1.107   5.620   4.529
 2330SOL     OW 7888   0.021   4.513   2.515
 2330SOL    HW1 7889   0.086   4.538   2.443
 2330SOL    HW2 7890   0.066   4.520   2.604
 2331SOL     OW 7891   6.087   4.856   6.652
 2331SOL    HW1 7892   6.132   4.942   6.676
 2331SOL    HW2 7893   6.153   4.795   6.608
 2332SOL     OW 7894   5.162   2.108   5.432
 2332SOL    HW1 7895   5.098   2.086   5.506
 2332SOL    HW2 7896   5.153   2.205   5.408
 2333SOL     OW 7897   6.832   5.239   2.784
 2333SOL    HW1 7898   6.907   5.173   2.774
 2333SOL    HW2 7899   6.860   5.311   2.849
 2334SOL     OW 7900   3.013   6.603   0.002
 2334SOL    HW1 7901   2.964   6.648   0.077
 2334SOL    HW2 7902   3.010   6.661   6.943
 2335SOL     OW 7903   6.260   1.270   3.147
 2335SOL    HW1 7904   6.249   1.236   3.054
 2335SOL    HW2 7905   6.336   1.222   3.191
 2336SOL     OW 7906   4.735   1.145   5.660
 2336SOL    HW1 7907   4.710   1.089   5.581
 2336SOL    HW2 7908   4.652   1.171   5.709
 2337SOL     OW 7909   4.869   0.674   3.957
 2337SOL    HW1 7910   4.905   0.586   3.926
 2337SOL    HW2 7911   4.779   0.689   3.916
 2338SOL     OW 7912   0.743   6.622   6.779
 2338SOL    HW1 7913   0.777   6.708   6.740
 2338SOL    HW2 7914   0.656   6.639   6.826
 2339SOL     OW 7915   3.420   3.539   5.627
 2339SOL    HW1 7916   3.448   3.627   5.665
 2339SOL    HW2 7917   3.397   3.549   5.530
 2340SOL     OW 7918   3.889   6.817   5.690
 2340SOL    HW1 7919   3.848   6.907   5.711
 2340SOL    HW2 7920   3.868   6.792   5.596
 2341SOL     OW 7921   5.090   3.913   0.203
 2341SOL    HW1 7922   5.053   3.875   0.288
 2341SOL    HW2 7923   5.156   3.985   0.223
 2342SOL     OW 7924   0.725   6.178   4.972
 2342SOL    HW1 7925   0.722   6.094   5.027
 2342SOL    HW2 7926   0.688   6.161   4.881
 2343SOL     OW 7927   1.593   0.045   0.615
 2343SOL    HW1 7928   1.665   0.098   0.659
 2343SOL    HW2 7929   1.509   0.100   0.611
 2344SOL     OW 7930   2.456   2.073   2.011
 2344SOL    HW1 7931   2.501   1.990   2.045
 2344SOL    HW2 7932   2.410   2.052   1.924
 2345SOL     OW 7933   1.576   6.827   5.193
 2345SOL    HW1 7934   1.668   6.833   5.153
 2345SOL    HW2 7935   1.510   6.807   5.121
 2346SOL     OW 7936   4.697   2.981   5.189
 2346SOL    HW1 7937   4.731   2.988   5.096
 2346SOL    HW2 7938   4.757   3.032   5.251
 2347SOL     OW 7939   1.971   4.079   2.219
 2347SOL    HW1 7940   2.058   4.092   2.172
 2347SOL    HW2 7941   1.900   4.135   2.177
 2348SOL     OW 7942   1.902   6.264   3.578
 2348SOL    HW1 7943   1.956   6.192   3.622
 2348SOL    HW2 7944   1.874   6.233   3.487
 2349SOL     OW 7945   0.928   6.310   6.459
 2349SOL    HW1 7946   1.005   6.367   6.488
 2349SOL    HW2 7947   0.960   6.216   6.446
 2350SOL     OW 7948   3.367   0.064   5.834
 2350SOL    HW1 7949   3.326   0.075   5.924
 2350SOL    HW2 7950   3.462   0.033   5.844
 2351SOL     OW 7951   3.613   4.894   3.720
 2351SOL    HW1 7952   3.527   4.871   3.766
 2351SOL    HW2 7953   3.594   4.928   3.629
 2352SOL     OW 7954   6.842   4.098   3.388
 2352SOL    HW1 7955   6.870   4.185   3.349
 2352SOL    HW2 7956   6.921   4.037   3.396
 2353SOL     OW 7957   2.254   4.257   5.184
 2353SOL    HW1 7958   2.296   4.174   5.147
 2353SOL    HW2 7959   2.324   4.313   5.228
 2354SOL     OW 7960   3.682   2.291   6.784
 2354SOL    HW1 7961   3.638   2.275   6.695
 2354SOL    HW2 7962   3.751   2.363   6.774
 2355SOL     OW 7963   0.710   6.390   0.421
 2355SOL    HW1 7964   0.786   6.415   0.362
 2355SOL    HW2 7965   0.696   6.462   0.489
 2356SOL     OW 7966   2.269   4.396   1.797
 2356SOL    HW1 7967   2.319   4.431   1.876
 2356SOL    HW2 7968   2.330   4.389   1.718
 2357SOL     OW 7969   5.032   4.953   4.026
 2357SOL    HW1 7970   5.004   4.863   3.992
 2357SOL    HW2 7971   5.114   4.983   3.978
 2358SOL     OW 7972   3.210   6.696   4.077
 2358SOL    HW1 7973   3.201   6.762   4.151
 2358SOL    HW2 7974   3.148   6.721   4.002
 2359SOL     OW 7975   2.459   1.340   5.925
 2359SOL    HW1 7976   2.530   1.395   5.970
 2359SOL    HW2 7977   2.433   1.384   5.838
 2360SOL     OW 7978   4.066   4.704   0.026
 2360SOL    HW1 7979   4.009   4.771   0.073
 2360SOL    HW2 7980   4.081   4.625   0.085
 2361SOL     OW 7981   2.848   7.008   4.101
 2361SOL    HW1 7982   2.809   6.919   4.079
 2361SOL    HW2 7983   2.889   7.005   4.193
 2362SOL     OW 7984   4.792   6.296   5.030
 2362SOL    HW1 7985   4.811   6.346   5.115
 2362SOL    HW2 7986   4.719   6.343   4.979
 2363SOL     OW 7987   4.677   2.257   5.478
 2363SOL    HW1 7988   4.605   2.243   5.546
 2363SOL    HW2 7989   4.761   2.286   5.524
 2364SOL     OW 7990   5.530   1.534   1.561
 2364SOL    HW1 7991   5.475   1.538   1.644
 2364SOL    HW2 7992   5.477   1.570   1.484
 2365SOL     OW 7993   6.156   4.876   5.518
 2365SOL    HW1 7994   6.126   4.782   5.533
 2365SOL    HW2 7995   6.193   4.885   5.425
 2366SOL     OW 7996   0.781   3.765   5.959
 2366SOL    HW1 7997   0.705   3.725   6.012
 2366SOL    HW2 7998   0.819   3.696   5.898
 2367SOL     OW 7999   0.305   3.118   5.778
 2367SOL    HW1 8000   0.259   3.186   5.835
 2367SOL    HW2 8001   0.311   3.032   5.828
 2368SOL     OW 8002   4.355   1.253   5.315
 2368SOL    HW1 8003   4.416   1.203   5.254
 2368SOL    HW2 8004   4.260   1.224   5.300
 2369SOL     OW 8005   2.594   1.785   3.606
 2369SOL    HW1 8006   2.626   1.744   3.520
 2369SOL    HW2 8007   2.494   1.786   3.608
 2370SOL     OW 8008   4.608   2.896   0.436
 2370SOL    HW1 8009   4.684   2.957   0.414
 2370SOL    HW2 8010   4.572   2.919   0.526
 2371SOL     OW 8011   0.783   6.219   2.593
 2371SOL    HW1 8012   0.882   6.227   2.605
 2371SOL    HW2 8013   0.764   6.139   2.536
 2372SOL     OW 8014   6.762   0.641   6.451
 2372SOL    HW1 8015   6.782   0.622   6.547
 2372SOL    HW2 8016   6.668   0.675   6.442
 2373SOL     OW 8017   6.105   0.447   5.991
 2373SOL    HW1 8018   6.058   0.439   6.079
 2373SOL    HW2 8019   6.045   0.415   5.918
 2374SOL     OW 8020   5.861   5.757   2.998
 2374SOL    HW1 8021   5.782   5.816   2.983
 2374SOL    HW2 8022   5.938   5.812   3.033
 2375SOL     OW 8023   0.753   0.733   3.832
 2375SOL    HW1 8024   0.760   0.698   3.925
 2375SOL    HW2 8025   0.678   0.686   3.784
 2376SOL     OW 8026   6.129   2.537   3.412
 2376SOL    HW1 8027   6.227   2.546   3.431
 2376SOL    HW2 8028   6.081   2.517   3.498
 2377SOL     OW 8029   3.488   3.988   5.315
 2377SOL    HW1 8030   3.412   3.929   5.341
 2377SOL    HW2 8031   3.459   4.051   5.243
 2378SOL     OW 8032   5.542   1.657   0.275
 2378SOL    HW1 8033   5.484   1.690   0.349
 2378SOL    HW2 8034   5.572   1.735   0.219
 2379SOL     OW 8035   6.556   4.118   0.236
 2379SOL    HW1 8036   6.601   4.056   0.171
 2379SOL    HW2 8037   6.463   4.084   0.254
 2380SOL     OW 8038   5.851   1.343   5.284
 2380SOL    HW1 8039   5.772   1.395   5.316
 2380SOL    HW2 8040   5.822   1.278   5.214
 2381SOL     OW 8041   1.498   5.090   4.751
 2381SOL    HW1 8042   1.521   5.093   4.654
 2381SOL    HW2 8043   1.402   5.063   4.762
 2382SOL     OW 8044   2.392   6.082   2.719
 2382SOL    HW1 8045   2.451   6.004   2.698
 2382SOL    HW2 8046   2.416   6.159   2.659
 2383SOL     OW 8047   5.310   5.715   6.410
 2383SOL    HW1 8048   5.271   5.756   6.327
 2383SOL    HW2 8049   5.371   5.781   6.454
 2384SOL     OW 8050   1.283   2.395   0.941
 2384SOL    HW1 8051   1.371   2.388   0.894
 2384SOL    HW2 8052   1.289   2.352   1.031
 2385SOL     OW 8053   0.829   1.081   0.124
 2385SOL    HW1 8054   0.810   1.056   0.029
 2385SOL    HW2 8055   0.801   1.007   0.184
 2386SOL     OW 8056   3.789   4.907   4.573
 2386SOL    HW1 8057   3.800   4.877   4.478
 2386SOL    HW2 8058   3.694   4.896   4.601
 2387SOL     OW 8059   6.883   3.549   4.776
 2387SOL    HW1 8060   6.857   3.474   4.716
 2387SOL    HW2 8061   6.913   3.627   4.722
 2388SOL     OW 8062   0.280   1.639   5.693
 2388SOL    HW1 8063   0.288   1.613   5.789
 2388SOL    HW2 8064   0.364   1.685   5.663
 2389SOL     OW 8065   4.924   4.704   3.927
 2389SOL    HW1 8066   4.879   4.631   3.979
 2389SOL    HW2 8067   5.013   4.673   3.896
 2390SOL     OW 8068   3.474   3.879   4.844
 2390SOL    HW1 8069   3.462   3.853   4.748
 2390SOL    HW2 8070   3.403   3.834   4.899
 2391SOL     OW 8071   3.579   4.055   6.000
 2391SOL    HW1 8072   3.652   3.997   6.037
 2391SOL    HW2 8073   3.491   4.023   6.034
 2392SOL     OW 8074   3.061   4.146   6.465
 2392SOL    HW1 8075   3.143   4.106   6.506
 2392SOL    HW2 8076   3.022   4.082   6.398
 2393SOL     OW 8077   3.837   5.305   1.494
 2393SOL    HW1 8078   3.931   5.329   1.517
 2393SOL    HW2 8079   3.829   5.291   1.395
 2394SOL     OW 8080   0.356   3.476   4.070
 2394SOL    HW1 8081   0.416   3.534   4.124
 2394SOL    HW2 8082   0.262   3.510   4.077
 2395SOL     OW 8083   0.135   3.168   0.349
 2395SOL    HW1 8084   0.121   3.267   0.357
 2395SOL    HW2 8085   0.224   3.150   0.307
 2396SOL     OW 8086   5.577   6.369   0.610
 2396SOL    HW1 8087   5.534   6.430   0.543
 2396SOL    HW2 8088   5.584   6.278   0.571
 2397SOL     OW 8089   0.022   4.666   0.913
 2397SOL    HW1 8090   6.985   4.718   0.852
 2397SOL    HW2 8091   0.062   4.727   0.981
 2398SOL     OW 8092   2.838   4.985   5.075
 2398SOL    HW1 8093   2.766   4.981   5.006
 2398SOL    HW2 8094   2.907   4.915   5.057
 2399SOL     OW 8095   3.521   2.048   3.700
 2399SOL    HW1 8096   3.440   2.106   3.707
 2399SOL    HW2 8097   3.498   1.955   3.731
 2400SOL     OW 8098   2.084   3.897   0.029
 2400SOL    HW1 8099   2.054   3.917   6.958
 2400SOL    HW2 8100   2.154   3.963   0.058
 2401SOL     OW 8101   3.532   0.375   4.304
 2401SOL    HW1 8102   3.504   0.451   4.364
 2401SOL    HW2 8103   3.576   0.413   4.222
 2402SOL     OW 8104   6.761   1.490   3.750
 2402SOL    HW1 8105   6.702   1.556   3.797
 2402SOL    HW2 8106   6.821   1.446   3.817
 2403SOL     OW 8107   3.803   3.311   0.783
 2403SOL    HW1 8108   3.858   3.275   0.709
 2403SOL    HW2 8109   3.716   3.262   0.788
 2404SOL     OW 8110   5.768   1.676   1.839
 2404SOL    HW1 8111   5.721   1.699   1.924
 2404SOL    HW2 8112   5.766   1.754   1.777
 2405SOL     OW 8113   3.233   4.745   5.825
 2405SOL    HW1 8114   3.260   4.649   5.817
 2405SOL    HW2 8115   3.285   4.789   5.898
 2406SOL     OW 8116   2.360   6.543   4.059
 2406SOL    HW1 8117   2.303   6.464   4.082
 2406SOL    HW2 8118   2.435   6.514   3.998
 2407SOL     OW 8119   4.303   2.363   3.051
 2407SOL    HW1 8120   4.315   2.416   2.967
 2407SOL    HW2 8121   4.363   2.399   3.122
 2408SOL     OW 8122   2.317   4.996   3.029
 2408SOL    HW1 8123   2.398   4.938   3.032
 2408SOL    HW2 8124   2.267   4.979   2.945
 2409SOL     OW 8125   2.652   3.055   0.751
 2409SOL    HW1 8126   2.674   2.971   0.701
 2409SOL    HW2 8127   2.561   3.046   0.792
 2410SOL     OW 8128   6.101   3.206   6.163
 2410SOL    HW1 8129   6.126   3.302   6.151
 2410SOL    HW2 8130   6.156   3.149   6.103
 2411SOL     OW 8131   3.053   3.750   5.986
 2411SOL    HW1 8132   3.115   3.686   5.940
 2411SOL    HW2 8133   2.960   3.712   5.986
 2412SOL     OW 8134   2.893   2.663   0.588
 2412SOL    HW1 8135   2.976   2.661   0.644
 2412SOL    HW2 8136   2.863   2.569   0.570
 2413SOL     OW 8137   5.448   3.488   6.316
 2413SOL    HW1 8138   5.480   3.408   6.266
 2413SOL    HW2 8139   5.406   3.459   6.402
 2414SOL     OW 8140   5.798   3.261   3.794
 2414SOL    HW1 8141   5.745   3.316   3.858
 2414SOL    HW2 8142   5.809   3.169   3.830
 2415SOL     OW 8143   1.766   0.160   0.789
 2415SOL    HW1 8144   1.865   0.147   0.784
 2415SOL    HW2 8145   1.729   0.108   0.866
 2416SOL     OW 8146   1.526   2.764   3.994
 2416SOL    HW1 8147   1.545   2.772   4.091
 2416SOL    HW2 8148   1.537   2.669   3.965
 2417SOL     OW 8149   5.118   2.262   0.206
 2417SOL    HW1 8150   5.073   2.313   0.278
 2417SOL    HW2 8151   5.049   2.222   0.145
 2418SOL     OW 8152   3.259   3.434   4.756
 2418SOL    HW1 8153   3.281   3.529   4.779
 2418SOL    HW2 8154   3.254   3.380   4.840
 2419SOL     OW 8155   1.721   0.024   4.027
 2419SOL    HW1 8156   1.640   7.022   4.080
 2419SOL    HW2 8157   1.711   0.117   3.990
 2420SOL     OW 8158   3.456   5.764   1.578
 2420SOL    HW1 8159   3.472   5.834   1.647
 2420SOL    HW2 8160   3.440   5.676   1.623
 2421SOL     OW 8161   3.650   6.711   3.928
 2421SOL    HW1 8162   3.703   6.741   3.848
 2421SOL    HW2 8163   3.669   6.615   3.946
 2422SOL     OW 8164   4.223   0.011   0.905
 2422SOL    HW1 8165   4.206   6.941   0.939
 2422SOL    HW2 8166   4.145   0.070   0.925
 2423SOL     OW 8167   1.660   5.310   1.181
 2423SOL    HW1 8168   1.644   5.323   1.279
 2423SOL    HW2 8169   1.757   5.288   1.166
 2424SOL     OW 8170   5.313   6.403   6.783
 2424SOL    HW1 8171   5.282   6.318   6.740
 2424SOL    HW2 8172   5.331   6.471   6.713
 2425SOL     OW 8173   5.474   6.550   5.553
 2425SOL    HW1 8174   5.395   6.599   5.517
 2425SOL    HW2 8175   5.545   6.545   5.482
 2426SOL     OW 8176   1.455   5.682   3.730
 2426SOL    HW1 8177   1.512   5.604   3.754
 2426SOL    HW2 8178   1.414   5.667   3.640
 2427SOL     OW 8179   4.927   6.054   0.417
 2427SOL    HW1 8180   4.917   6.014   0.508
 2427SOL    HW2 8181   5.020   6.089   0.406
 2428SOL     OW 8182   0.378   0.628   3.174
 2428SOL    HW1 8183   0.295   0.620   3.119
 2428SOL    HW2 8184   0.381   0.718   3.218
 2429SOL     OW 8185   5.445   4.874   3.038
 2429SOL    HW1 8186   5.544   4.864   3.035
 2429SOL    HW2 8187   5.402   4.786   3.017
 2430SOL     OW 8188   5.384   2.802   0.309
 2430SOL    HW1 8189   5.340   2.886   0.276
 2430SOL    HW2 8190   5.457   2.776   0.245
 2431SOL     OW 8191   4.814   1.108   0.853
 2431SOL    HW1 8192   4.802   1.066   0.943
 2431SOL    HW2 8193   4.849   1.201   0.865
 2432SOL     OW 8194   2.892   6.756   1.626
 2432SOL    HW1 8195   2.859   6.850   1.618
 2432SOL    HW2 8196   2.822   6.694   1.592
 2433SOL     OW 8197   1.530   0.076   0.111
 2433SOL    HW1 8198   1.615   0.097   0.063
 2433SOL    HW2 8199   1.502   0.155   0.166
 2434SOL     OW 8200   5.840   1.821   3.151
 2434SOL    HW1 8201   5.775   1.792   3.222
 2434SOL    HW2 8202   5.889   1.741   3.116
 2435SOL     OW 8203   5.340   5.126   0.109
 2435SOL    HW1 8204   5.382   5.163   0.026
 2435SOL    HW2 8205   5.323   5.201   0.173
 2436SOL     OW 8206   1.688   0.408   0.904
 2436SOL    HW1 8207   1.720   0.349   0.830
 2436SOL    HW2 8208   1.765   0.433   0.962
 2437SOL     OW 8209   5.112   6.625   1.174
 2437SOL    HW1 8210   5.133   6.543   1.121
 2437SOL    HW2 8211   5.147   6.615   1.267
 2438SOL     OW 8212   3.946   1.326   3.933
 2438SOL    HW1 8213   3.898   1.400   3.886
 2438SOL    HW2 8214   4.025   1.297   3.879
 2439SOL     OW 8215   0.850   4.835   0.857
 2439SOL    HW1 8216   0.941   4.864   0.825
 2439SOL    HW2 8217   0.834   4.741   0.830
 2440SOL     OW 8218   3.992   0.095   6.230
 2440SOL    HW1 8219   4.010   0.105   6.132
 2440SOL    HW2 8220   3.898   0.121   6.250
 2441SOL     OW 8221   6.023   1.509   6.920
 2441SOL    HW1 8222   6.079   1.432   6.950
 2441SOL    HW2 8223   5.945   1.475   6.869
 2442SOL     OW 8224   5.489   5.124   2.989
 2442SOL    HW1 8225   5.446   5.033   2.984
 2442SOL    HW2 8226   5.439   5.181   3.054
 2443SOL     OW 8227   2.857   0.139   6.611
 2443SOL    HW1 8228   2.917   0.079   6.558
 2443SOL    HW2 8229   2.907   0.175   6.689
 2444SOL     OW 8230   3.682   3.874   0.361
 2444SOL    HW1 8231   3.758   3.810   0.367
 2444SOL    HW2 8232   3.653   3.901   0.453
 2445SOL     OW 8233   5.927   1.461   1.847
 2445SOL    HW1 8234   5.988   1.480   1.924
 2445SOL    HW2 8235   5.852   1.527   1.847
 2446SOL     OW 8236   1.373   2.655   4.432
 2446SOL    HW1 8237   1.428   2.738   4.440
 2446SOL    HW2 8238   1.391   2.595   4.510
 2447SOL     OW 8239   2.286   0.420   1.020
 2447SOL    HW1 8240   2.377   0.458   1.008
 2447SOL    HW2 8241   2.259   0.372   0.937
 2448SOL     OW 8242   6.427   1.097   4.186
 2448SOL    HW1 8243   6.364   1.160   4.139
 2448SOL    HW2 8244   6.450   1.135   4.276
 2449SOL     OW 8245   1.510   3.756   1.484
 2449SOL    HW1 8246   1.472   3.834   1.534
 2449SOL    HW2 8247   1.489   3.672   1.533
 2450SOL     OW 8248   3.368   4.397   6.174
 2450SOL    HW1 8249   3.359   4.343   6.090
 2450SOL    HW2 8250   3.280   4.398   6.222
 2451SOL     OW 8251   1.246   0.443   3.434
 2451SOL    HW1 8252   1.169   0.507   3.432
 2451SOL    HW2 8253   1.326   0.488   3.474
 2452SOL     OW 8254   3.240   2.098   4.090
 2452SOL    HW1 8255   3.181   2.031   4.135
 2452SOL    HW2 8256   3.213   2.190   4.117
 2453SOL     OW 8257   0.726   3.061   0.461
 2453SOL    HW1 8258   0.704   3.153   0.429
 2453SOL    HW2 8259   0.808   3.028   0.413
 2454SOL     OW 8260   2.833   6.993   6.936
 2454SOL    HW1 8261   2.901   6.960   6.870
 2454SOL    HW2 8262   2.750   7.021   6.887
 2455SOL     OW 8263   3.892   0.877   0.269
 2455SOL    HW1 8264   3.948   0.947   0.224
 2455SOL    HW2 8265   3.886   0.897   0.367
 2456SOL     OW 8266   6.988   2.448   6.821
 2456SOL    HW1 8267   6.988   2.458   6.921
 2456SOL    HW2 8268   0.005   2.360   6.796
 2457SOL     OW 8269   6.561   0.690   6.212
 2457SOL    HW1 8270   6.646   0.718   6.167
 2457SOL    HW2 8271   6.549   0.591   6.200
 2458SOL     OW 8272   1.620   6.557   3.787
 2458SOL    HW1 8273   1.656   6.466   3.807
 2458SOL    HW2 8274   1.597   6.603   3.873
 2459SOL     OW 8275   2.943   6.470   5.362
 2459SOL    HW1 8276   2.952   6.385   5.310
 2459SOL    HW2 8277   3.033   6.512   5.373
 2460SOL     OW 8278   1.266   1.159   0.833
 2460SOL    HW1 8279   1.245   1.236   0.773
 2460SOL    HW2 8280   1.303   1.083   0.779
 2461SOL     OW 8281   5.084   0.552   4.261
 2461SOL    HW1 8282   5.145   0.546   4.340
 2461SOL    HW2 8283   5.058   0.647   4.245
 2462SOL     OW 8284   2.037   5.050   6.684
 2462SOL    HW1 8285   2.052   4.952   6.695
 2462SOL    HW2 8286   2.058   5.097   6.769
 2463SOL     OW 8287   5.979   2.189   6.406
 2463SOL    HW1 8288   5.963   2.096   6.371
 2463SOL    HW2 8289   5.898   2.221   6.455
 2464SOL     OW 8290   2.214   3.916   3.142
 2464SOL    HW1 8291   2.172   3.828   3.119
 2464SOL    HW2 8292   2.289   3.901   3.207
 2465SOL     OW 8293   1.211   6.571   6.837
 2465SOL    HW1 8294   1.199   6.662   6.876
 2465SOL    HW2 8295   1.177   6.502   6.901
 2466SOL     OW 8296   2.165   1.969   2.575
 2466SOL    HW1 8297   2.231   1.910   2.527
 2466SOL    HW2 8298   2.211   2.054   2.603
 2467SOL     OW 8299   5.040   2.169   5.114
 2467SOL    HW1 8300   4.999   2.115   5.187
 2467SOL    HW2 8301   4.980   2.168   5.034
 2468SOL     OW 8302   4.010   0.203   0.730
 2468SOL    HW1 8303   4.055   0.198   0.819
 2468SOL    HW2 8304   3.920   0.160   0.735
 2469SOL     OW 8305   4.116   3.737   4.825
 2469SOL    HW1 8306   4.142   3.655   4.876
 2469SOL    HW2 8307   4.199   3.783   4.793
 2470SOL     OW 8308   4.330   4.224   5.848
 2470SOL    HW1 8309   4.357   4.272   5.932
 2470SOL    HW2 8310   4.352   4.127   5.857
 2471SOL     OW 8311   3.360   5.829   0.056
 2471SOL    HW1 8312   3.264   5.800   0.061
 2471SOL    HW2 8313   3.393   5.851   0.148
 2472SOL     OW 8314   4.741   2.025   3.418
 2472SOL    HW1 8315   4.828   1.990   3.452
 2472SOL    HW2 8316   4.677   1.950   3.405
 2473SOL     OW 8317   1.458   3.522   4.675
 2473SOL    HW1 8318   1.422   3.432   4.649
 2473SOL    HW2 8319   1.410   3.555   4.755
 2474SOL     OW 8320   0.308   6.116   1.619
 2474SOL    HW1 8321   0.309   6.028   1.667
 2474SOL    HW2 8322   0.400   6.155   1.618
 2475SOL     OW 8323   3.943   0.728   2.429
 2475SOL    HW1 8324   3.952   0.795   2.503
 2475SOL    HW2 8325   3.847   0.722   2.401
 2476SOL     OW 8326   6.584   1.395   2.955
 2476SOL    HW1 8327   6.618   1.319   2.900
 2476SOL    HW2 8328   6.520   1.449   2.901
 2477SOL     OW 8329   3.997   1.435   2.462
 2477SOL    HW1 8330   3.987   1.493   2.544
 2477SOL    HW2 8331   3.917   1.447   2.403
 2478SOL     OW 8332   6.038   1.577   1.586
 2478SOL    HW1 8333   5.957   1.520   1.570
 2478SOL    HW2 8334   6.101   1.528   1.645
 2479SOL     OW 8335   0.585   2.808   2.155
 2479SOL    HW1 8336   0.642   2.883   2.189
 2479SOL    HW2 8337   0.624   2.721   2.186
 2480SOL     OW 8338   5.014   3.750   0.449
 2480SOL    HW1 8339   5.066   3.668   0.470
 2480SOL    HW2 8340   4.917   3.728   0.444
 2481SOL     OW 8341   3.610   6.459   6.849
 2481SOL    HW1 8342   3.703   6.488   6.829
 2481SOL    HW2 8343   3.611   6.392   6.923
 2482SOL     OW 8344   5.567   3.801   5.630
 2482SOL    HW1 8345   5.582   3.886   5.681
 2482SOL    HW2 8346   5.651   3.776   5.583
 2483SOL     OW 8347   1.876   1.748   0.145
 2483SOL    HW1 8348   1.814   1.787   0.213
 2483SOL    HW2 8349   1.938   1.683   0.189
 2484SOL     OW 8350   3.624   0.744   6.872
 2484SOL    HW1 8351   3.644   0.792   6.957
 2484SOL    HW2 8352   3.529   0.713   6.873
 2485SOL     OW 8353   6.288   3.674   1.603
 2485SOL    HW1 8354   6.375   3.659   1.555
 2485SOL    HW2 8355   6.249   3.761   1.574
 2486SOL     OW 8356   2.196   4.923   4.526
 2486SOL    HW1 8357   2.131   4.869   4.473
 2486SOL    HW2 8358   2.164   4.932   4.620
 2487SOL     OW 8359   4.216   5.919   0.370
 2487SOL    HW1 8360   4.152   5.924   0.447
 2487SOL    HW2 8361   4.298   5.973   0.391
 2488SOL     OW 8362   1.653   4.427   2.298
 2488SOL    HW1 8363   1.644   4.464   2.205
 2488SOL    HW2 8364   1.562   4.404   2.334
 2489SOL     OW 8365   1.526   6.421   3.299
 2489SOL    HW1 8366   1.524   6.483   3.378
 2489SOL    HW2 8367   1.558   6.471   3.218
 2490SOL     OW 8368   0.044   4.946   1.484
 2490SOL    HW1 8369   0.130   4.916   1.527
 2490SOL    HW2 8370   0.017   4.879   1.415
 2491SOL     OW 8371   2.266   5.027   0.366
 2491SOL    HW1 8372   2.187   5.087   0.382
 2491SOL    HW2 8373   2.253   4.942   0.418
 2492SOL     OW 8374   4.877   3.207   1.026
 2492SOL    HW1 8375   4.792   3.155   1.016
 2492SOL    HW2 8376   4.888   3.266   0.946
 2493SOL     OW 8377   5.652   0.354   1.991
 2493SOL    HW1 8378   5.746   0.333   2.019
 2493SOL    HW2 8379   5.611   0.418   2.056
 2494SOL     OW 8380   5.132   4.492   2.797
 2494SOL    HW1 8381   5.079   4.457   2.874
 2494SOL    HW2 8382   5.177   4.416   2.751
 2495SOL     OW 8383   4.992   6.888   4.296
 2495SOL    HW1 8384   4.975   6.790   4.281
 2495SOL    HW2 8385   5.082   6.912   4.261
 2496SOL     OW 8386   6.744   3.383   6.061
 2496SOL    HW1 8387   6.652   3.343   6.054
 2496SOL    HW2 8388   6.739   3.481   6.043
 2497SOL     OW 8389   0.530   0.486   0.794
 2497SOL    HW1 8390   0.619   0.528   0.809
 2497SOL    HW2 8391   0.496   0.449   0.880
 2498SOL     OW 8392   3.047   1.954   4.225
 2498SOL    HW1 8393   2.979   2.022   4.252
 2498SOL    HW2 8394   3.103   1.929   4.304
 2499SOL     OW 8395   6.002   2.600   1.917
 2499SOL    HW1 8396   5.966   2.531   1.980
 2499SOL    HW2 8397   6.048   2.553   1.841
 2500SOL     OW 8398   4.597   3.578   6.844
 2500SOL    HW1 8399   4.526   3.634   6.802
 2500SOL    HW2 8400   4.683   3.591   6.795
 2501SOL     OW 8401   6.234   4.830   1.024
 2501SOL    HW1 8402   6.184   4.771   1.088
 2501SOL    HW2 8403   6.194   4.823   0.933
 2502SOL     OW 8404   1.342   6.437   2.987
 2502SOL    HW1 8405   1.425   6.462   3.038
 2502SOL    HW2 8406   1.367   6.388   2.904
 2503SOL     OW 8407   2.553   6.352   3.975
 2503SOL    HW1 8408   2.605   6.412   3.914
 2503SOL    HW2 8409   2.575   6.256   3.954
 2504SOL     OW 8410   3.644   5.343   4.458
 2504SOL    HW1 8411   3.660   5.346   4.360
 2504SOL    HW2 8412   3.573   5.409   4.483
 2505SOL     OW 8413   0.880   6.665   2.837
 2505SOL    HW1 8414   0.928   6.675   2.750
 2505SOL    HW2 8415   0.947   6.653   2.911
 2506SOL     OW 8416   6.063   4.183   5.409
 2506SOL    HW1 8417   6.156   4.157   5.434
 2506SOL    HW2 8418   6.028   4.121   5.339
 2507SOL     OW 8419   1.083   4.250   0.491
 2507SOL    HW1 8420   1.164   4.273   0.544
 2507SOL    HW2 8421   1.108   4.231   0.396
 2508SOL     OW 8422   2.082   1.502   3.307
 2508SOL    HW1 8423   2.007   1.508   3.373
 2508SOL    HW2 8424   2.101   1.593   3.271
 2509SOL     OW 8425   6.870   2.627   0.747
 2509SOL    HW1 8426   6.965   2.654   0.758
 2509SOL    HW2 8427   6.851   2.611   0.650
 2510SOL     OW 8428   2.527   4.172   1.683
 2510SOL    HW1 8429   2.488   4.264   1.680
 2510SOL    HW2 8430   2.611   4.170   1.627
 2511SOL     OW 8431   3.983   2.122   4.376
 2511SOL    HW1 8432   3.884   2.107   4.375
 2511SOL    HW2 8433   4.016   2.116   4.470
 2512SOL     OW 8434   5.727   3.859   5.228
 2512SOL    HW1 8435   5.655   3.898   5.170
 2512SOL    HW2 8436   5.690   3.841   5.320
 2513SOL     OW 8437   1.467   4.085   5.415
 2513SOL    HW1 8438   1.520   4.167   5.392
 2513SOL    HW2 8439   1.529   4.014   5.450
 2514SOL     OW 8440   6.366   2.926   4.778
 2514SOL    HW1 8441   6.290   2.985   4.805
 2514SOL    HW2 8442   6.447   2.950   4.831
 2515SOL     OW 8443   2.172   6.581   0.575
 2515SOL    HW1 8444   2.131   6.543   0.658
 2515SOL    HW2 8445   2.129   6.539   0.494
 2516SOL     OW 8446   6.001   1.095   2.514
 2516SOL    HW1 8447   5.916   1.088   2.463
 2516SOL    HW2 8448   6.028   1.191   2.521
 2517SOL     OW 8449   1.302   6.124   5.813
 2517SOL    HW1 8450   1.209   6.087   5.806
 2517SOL    HW2 8451   1.333   6.118   5.908
 2518SOL     OW 8452   1.180   4.540   0.114
 2518SOL    HW1 8453   1.227   4.621   0.150
 2518SOL    HW2 8454   1.234   4.458   0.136
 2519SOL     OW 8455   4.364   6.508   3.121
 2519SOL    HW1 8456   4.403   6.515   3.030
 2519SOL    HW2 8457   4.437   6.499   3.189
 2520SOL     OW 8458   2.779   2.011   0.663
 2520SOL    HW1 8459   2.725   2.082   0.709
 2520SOL    HW2 8460   2.866   1.999   0.711
 2521SOL     OW 8461   1.764   0.720   4.998
 2521SOL    HW1 8462   1.764   0.625   4.968
 2521SOL    HW2 8463   1.670   0.753   5.005
 2522SOL     OW 8464   0.461   3.927   5.087
 2522SOL    HW1 8465   0.475   3.935   5.186
 2522SOL    HW2 8466   0.509   3.846   5.053
 2523SOL     OW 8467   0.176   3.005   1.413
 2523SOL    HW1 8468   0.230   3.070   1.359
 2523SOL    HW2 8469   0.222   2.916   1.412
 2524SOL     OW 8470   1.444   6.322   4.955
 2524SOL    HW1 8471   1.376   6.307   4.883
 2524SOL    HW2 8472   1.398   6.337   5.042
 2525SOL     OW 8473   0.936   2.213   5.651
 2525SOL    HW1 8474   0.985   2.154   5.586
 2525SOL    HW2 8475   0.970   2.196   5.743
 2526SOL     OW 8476   1.710   4.092   5.729
 2526SOL    HW1 8477   1.694   4.078   5.826
 2526SOL    HW2 8478   1.662   4.022   5.676
 2527SOL     OW 8479   5.049   5.934   5.019
 2527SOL    HW1 8480   5.036   5.836   5.010
 2527SOL    HW2 8481   4.961   5.977   5.041
 2528SOL     OW 8482   5.728   4.670   0.676
 2528SOL    HW1 8483   5.769   4.739   0.615
 2528SOL    HW2 8484   5.795   4.642   0.744
 2529SOL     OW 8485   6.406   6.806   6.131
 2529SOL    HW1 8486   6.410   6.806   6.231
 2529SOL    HW2 8487   6.324   6.758   6.101
 2530SOL     OW 8488   2.591   0.044   5.448
 2530SOL    HW1 8489   2.661   0.047   5.519
 2530SOL    HW2 8490   2.510   0.093   5.477
 2531SOL     OW 8491   4.964   6.101   4.327
 2531SOL    HW1 8492   5.038   6.036   4.347
 2531SOL    HW2 8493   4.880   6.051   4.306
 2532SOL     OW 8494   0.292   6.560   1.173
 2532SOL    HW1 8495   0.376   6.606   1.143
 2532SOL    HW2 8496   0.213   6.610   1.138
 2533SOL     OW 8497   3.224   6.427   3.571
 2533SOL    HW1 8498   3.246   6.395   3.479
 2533SOL    HW2 8499   3.238   6.526   3.577
 2534SOL     OW 8500   3.421   0.594   3.263
 2534SOL    HW1 8501   3.511   0.638   3.260
 2534SOL    HW2 8502   3.424   0.517   3.326
 2535SOL     OW 8503   3.864   2.102   5.100
 2535SOL    HW1 8504   3.887   2.117   5.004
 2535SOL    HW2 8505   3.947   2.083   5.151
 2536SOL     OW 8506   1.160   2.070   5.065
 2536SOL    HW1 8507   1.082   2.029   5.017
 2536SOL    HW2 8508   1.133   2.159   5.102
 2537SOL     OW 8509   3.760   0.633   6.372
 2537SOL    HW1 8510   3.760   0.581   6.287
 2537SOL    HW2 8511   3.836   0.698   6.371
 2538SOL     OW 8512   1.415   4.672   4.388
 2538SOL    HW1 8513   1.374   4.602   4.447
 2538SOL    HW2 8514   1.515   4.666   4.394
 2539SOL     OW 8515   5.073   1.458   5.795
 2539SOL    HW1 8516   4.982   1.495   5.814
 2539SOL    HW2 8517   5.142   1.525   5.821
 2540SOL     OW 8518   4.142   1.360   2.739
 2540SOL    HW1 8519   4.206   1.315   2.676
 2540SOL    HW2 8520   4.164   1.458   2.744
 2541SOL     OW 8521   2.601   0.020   5.171
 2541SOL    HW1 8522   2.616   0.043   5.267
 2541SOL    HW2 8523   2.549   0.094   5.128
 2542SOL     OW 8524   4.138   1.519   6.456
 2542SOL    HW1 8525   4.137   1.610   6.415
 2542SOL    HW2 8526   4.055   1.470   6.432
 2543SOL     OW 8527   1.366   1.119   3.081
 2543SOL    HW1 8528   1.394   1.032   3.040
 2543SOL    HW2 8529   1.277   1.146   3.042
 2544SOL     OW 8530   0.414   5.863   1.320
 2544SOL    HW1 8531   0.432   5.768   1.348
 2544SOL    HW2 8532   0.325   5.892   1.355
 2545SOL     OW 8533   1.685   0.452   1.409
 2545SOL    HW1 8534   1.784   0.453   1.398
 2545SOL    HW2 8535   1.654   0.357   1.422
 2546SOL     OW 8536   0.093   1.753   1.592
 2546SOL    HW1 8537   0.138   1.840   1.576
 2546SOL    HW2 8538   0.144   1.701   1.661
 2547SOL     OW 8539   6.339   4.996   0.540
 2547SOL    HW1 8540   6.429   5.037   0.532
 2547SOL    HW2 8541   6.300   4.982   0.449
 2548SOL     OW 8542   2.077   6.945   6.037
 2548SOL    HW1 8543   2.148   6.897   5.986
 2548SOL    HW2 8544   2.115   0.006   6.076
 2549SOL     OW 8545   2.203   1.188   0.906
 2549SOL    HW1 8546   2.252   1.272   0.930
 2549SOL    HW2 8547   2.249   1.110   0.950
 2550SOL     OW 8548   6.947   0.248   6.085
 2550SOL    HW1 8549   6.855   0.216   6.062
 2550SOL    HW2 8550   7.012   0.216   6.016
 2551SOL     OW 8551   3.582   4.737   0.867
 2551SOL    HW1 8552   3.564   4.692   0.954
 2551SOL    HW2 8553   3.606   4.833   0.883
 2552SOL     OW 8554   2.329   6.214   5.280
 2552SOL    HW1 8555   2.246   6.207   5.336
 2552SOL    HW2 8556   2.307   6.261   5.194
 2553SOL     OW 8557   4.699   2.859   5.515
 2553SOL    HW1 8558   4.793   2.846   5.547
 2553SOL    HW2 8559   4.692   2.833   5.419
 2554SOL     OW 8560   2.469   6.462   0.839
 2554SOL    HW1 8561   2.466   6.405   0.757
 2554SOL    HW2 8562   2.467   6.404   0.920
 2555SOL     OW 8563   5.979   6.978   6.272
 2555SOL    HW1 8564   6.013   0.050   6.275
 2555SOL    HW2 8565   6.054   6.915   6.293
 2556SOL     OW 8566   4.366   5.690   0.682
 2556SOL    HW1 8567   4.374   5.634   0.600
 2556SOL    HW2 8568   4.383   5.786   0.658
 2557SOL     OW 8569   2.822   3.568   6.357
 2557SOL    HW1 8570   2.792   3.475   6.375
 2557SOL    HW2 8571   2.758   3.633   6.399
 2558SOL     OW 8572   5.130   1.759   5.392
 2558SOL    HW1 8573   5.200   1.736   5.325
 2558SOL    HW2 8574   5.160   1.838   5.446
 2559SOL     OW 8575   6.695   3.993   4.182
 2559SOL    HW1 8576   6.778   4.005   4.237
 2559SOL    HW2 8577   6.699   4.052   4.102
 2560SOL     OW 8578   6.264   3.105   4.469
 2560SOL    HW1 8579   6.268   3.145   4.378
 2560SOL    HW2 8580   6.195   3.032   4.470
 2561SOL     OW 8581   3.240   6.406   4.530
 2561SOL    HW1 8582   3.150   6.405   4.572
 2561SOL    HW2 8583   3.232   6.433   4.434
 2562SOL     OW 8584   1.155   5.119   2.152
 2562SOL    HW1 8585   1.157   5.205   2.203
 2562SOL    HW2 8586   1.172   5.137   2.056
 2563SOL     OW 8587   4.125   2.106   0.767
 2563SOL    HW1 8588   4.182   2.101   0.849
 2563SOL    HW2 8589   4.056   2.034   0.771
 2564SOL     OW 8590   2.359   6.142   5.818
 2564SOL    HW1 8591   2.427   6.071   5.801
 2564SOL    HW2 8592   2.272   6.115   5.777
 2565SOL     OW 8593   0.321   0.280   6.936
 2565SOL    HW1 8594   0.329   0.194   6.885
 2565SOL    HW2 8595   0.231   0.321   6.917
 2566SOL     OW 8596   2.411   0.006   0.372
 2566SOL    HW1 8597   2.419   6.946   0.317
 2566SOL    HW2 8598   2.456   0.082   0.324
 2567SOL     OW 8599   0.518   1.134   1.150
 2567SOL    HW1 8600   0.449   1.062   1.151
 2567SOL    HW2 8601   0.593   1.107   1.090
 2568SOL     OW 8602   3.956   0.456   0.093
 2568SOL    HW1 8603   3.950   0.512   0.011
 2568SOL    HW2 8604   3.909   0.502   0.169
 2569SOL     OW 8605   3.111   1.391   1.901
 2569SOL    HW1 8606   3.043   1.444   1.850
 2569SOL    HW2 8607   3.069   1.307   1.936
 2570SOL     OW 8608   5.306   0.223   6.200
 2570SOL    HW1 8609   5.382   0.211   6.264
 2570SOL    HW2 8610   5.255   0.138   6.191
 2571SOL     OW 8611   2.471   4.504   5.003
 2571SOL    HW1 8612   2.463   4.474   5.098
 2571SOL    HW2 8613   2.519   4.591   5.000
 2572SOL     OW 8614   2.100   5.638   6.934
 2572SOL    HW1 8615   2.028   5.702   6.958
 2572SOL    HW2 8616   2.131   5.590   7.016
 2573SOL     OW 8617   6.337   2.577   1.794
 2573SOL    HW1 8618   6.304   2.541   1.706
 2573SOL    HW2 8619   6.436   2.566   1.799
 2574SOL     OW 8620   6.263   3.695   0.042
 2574SOL    HW1 8621   6.191   3.667   0.106
 2574SOL    HW2 8622   6.232   3.678   6.970
 2575SOL     OW 8623   5.493   5.140   0.861
 2575SOL    HW1 8624   5.435   5.210   0.904
 2575SOL    HW2 8625   5.436   5.075   0.812
 2576SOL     OW 8626   3.848   6.892   4.394
 2576SOL    HW1 8627   3.831   6.848   4.306
 2576SOL    HW2 8628   3.779   6.859   4.460
 2577SOL     OW 8629   3.474   0.004   2.216
 2577SOL    HW1 8630   3.461   6.987   2.307
 2577SOL    HW2 8631   3.405   0.074   2.200
 2578SOL     OW 8632   4.777   1.144   3.939
 2578SOL    HW1 8633   4.747   1.067   3.882
 2578SOL    HW2 8634   4.757   1.230   3.891
 2579SOL     OW 8635   1.303   6.047   2.644
 2579SOL    HW1 8636   1.307   6.146   2.660
 2579SOL    HW2 8637   1.309   6.029   2.546
 2580SOL     OW 8638   2.761   3.306   6.407
 2580SOL    HW1 8639   2.704   3.253   6.471
 2580SOL    HW2 8640   2.850   3.262   6.398
 2581SOL     OW 8641   0.751   4.966   1.057
 2581SOL    HW1 8642   0.792   4.931   0.973
 2581SOL    HW2 8643   0.812   4.949   1.134
 2582SOL     OW 8644   0.248   5.003   2.502
 2582SOL    HW1 8645   0.327   5.008   2.563
 2582SOL    HW2 8646   0.257   5.072   2.431
 2583SOL     OW 8647   0.800   1.086   0.733
 2583SOL    HW1 8648   0.740   1.011   0.705
 2583SOL    HW2 8649   0.889   1.075   0.689
 2584SOL     OW 8650   4.362   5.797   6.963
 2584SOL    HW1 8651   4.459   5.792   6.942
 2584SOL    HW2 8652   4.344   5.752   0.028
 2585SOL     OW 8653   5.042   2.380   0.411
 2585SOL    HW1 8654   5.103   2.452   0.444
 2585SOL    HW2 8655   4.961   2.375   0.469
 2586SOL     OW 8656   3.493   1.266   3.462
 2586SOL    HW1 8657   3.517   1.171   3.441
 2586SOL    HW2 8658   3.498   1.321   3.378
 2587SOL     OW 8659   0.525   0.668   3.691
 2587SOL    HW1 8660   0.540   0.581   3.644
 2587SOL    HW2 8661   0.464   0.726   3.636
 2588SOL     OW 8662   4.516   0.577   6.620
 2588SOL    HW1 8663   4.567   0.552   6.538
 2588SOL    HW2 8664   4.420   0.588   6.597
 2589SOL     OW 8665   0.857   5.562   6.533
 2589SOL    HW1 8666   0.947   5.523   6.553
 2589SOL    HW2 8667   0.801   5.495   6.484
 2590SOL     OW 8668   3.714   5.784   0.960
 2590SOL    HW1 8669   3.811   5.775   0.938
 2590SOL    HW2 8670   3.666   5.823   0.882
 2591SOL     OW 8671   6.609   4.827   3.176
 2591SOL    HW1 8672   6.557   4.825   3.091
 2591SOL    HW2 8673   6.704   4.853   3.158
 2592SOL     OW 8674   3.571   4.841   0.293
 2592SOL    HW1 8675   3.625   4.789   0.228
 2592SOL    HW2 8676   3.619   4.926   0.316
 2593SOL     OW 8677   3.509   5.144   0.655
 2593SOL    HW1 8678   3.503   5.069   0.590
 2593SOL    HW2 8679   3.429   5.203   0.645
 2594SOL     OW 8680   1.512   4.984   6.269
 2594SOL    HW1 8681   1.490   4.915   6.338
 2594SOL    HW2 8682   1.476   4.955   6.180
 2595SOL     OW 8683   6.202   1.233   4.085
 2595SOL    HW1 8684   6.219   1.331   4.096
 2595SOL    HW2 8685   6.106   1.219   4.060
 2596SOL     OW 8686   2.897   1.827   1.602
 2596SOL    HW1 8687   2.985   1.795   1.566
 2596SOL    HW2 8688   2.853   1.885   1.534
 2597SOL     OW 8689   1.832   5.321   5.394
 2597SOL    HW1 8690   1.930   5.312   5.377
 2597SOL    HW2 8691   1.782   5.257   5.336
 2598SOL     OW 8692   6.936   1.355   2.568
 2598SOL    HW1 8693   6.983   1.268   2.555
 2598SOL    HW2 8694   6.917   1.369   2.665
 2599SOL     OW 8695   1.682   6.451   1.406
 2599SOL    HW1 8696   1.615   6.524   1.418
 2599SOL    HW2 8697   1.636   6.367   1.380
 2600SOL     OW 8698   5.255   3.318   4.759
 2600SOL    HW1 8699   5.240   3.339   4.856
 2600SOL    HW2 8700   5.167   3.298   4.716
 2601SOL     OW 8701   2.332   1.343   2.097
 2601SOL    HW1 8702   2.426   1.318   2.120
 2601SOL    HW2 8703   2.324   1.442   2.091
 2602SOL     OW 8704   1.378   4.440   4.531
 2602SOL    HW1 8705   1.363   4.345   4.558
 2602SOL    HW2 8706   1.476   4.459   4.532
 2603SOL     OW 8707   2.676   0.913   4.248
 2603SOL    HW1 8708   2.704   0.968   4.170
 2603SOL    HW2 8709   2.705   0.957   4.333
 2604SOL     OW 8710   4.714   1.926   2.575
 2604SOL    HW1 8711   4.796   1.921   2.632
 2604SOL    HW2 8712   4.646   1.861   2.608
 2605SOL     OW 8713   2.198   3.038   3.576
 2605SOL    HW1 8714   2.201   3.127   3.622
 2605SOL    HW2 8715   2.236   2.968   3.636
 2606SOL     OW 8716   5.329   4.602   1.895
 2606SOL    HW1 8717   5.314   4.594   1.994
 2606SOL    HW2 8718   5.416   4.558   1.871
 2607SOL     OW 8719   1.608   1.735   1.575
 2607SOL    HW1 8720   1.591   1.822   1.620
 2607SOL    HW2 8721   1.538   1.718   1.506
 2608SOL     OW 8722   5.150   5.192   0.768
 2608SOL    HW1 8723   5.213   5.116   0.780
 2608SOL    HW2 8724   5.071   5.162   0.715
 2609SOL     OW 8725   6.213   1.266   1.574
 2609SOL    HW1 8726   6.243   1.357   1.602
 2609SOL    HW2 8727   6.115   1.256   1.595
 2610SOL     OW 8728   1.095   4.509   4.555
 2610SOL    HW1 8729   1.076   4.491   4.651
 2610SOL    HW2 8730   1.192   4.493   4.536
 2611SOL     OW 8731   4.156   0.134   0.513
 2611SOL    HW1 8732   4.104   0.162   0.432
 2611SOL    HW2 8733   4.126   0.188   0.592
 2612SOL     OW 8734   6.333   0.095   5.247
 2612SOL    HW1 8735   6.407   0.123   5.185
 2612SOL    HW2 8736   6.336   0.151   5.329
 2613SOL     OW 8737   2.776   5.388   6.107
 2613SOL    HW1 8738   2.693   5.396   6.052
 2613SOL    HW2 8739   2.754   5.351   6.197
 2614SOL     OW 8740   6.386   1.664   6.136
 2614SOL    HW1 8741   6.315   1.726   6.172
 2614SOL    HW2 8742   6.342   1.588   6.088
 2615SOL     OW 8743   0.576   3.407   2.344
 2615SOL    HW1 8744   0.588   3.401   2.443
 2615SOL    HW2 8745   0.601   3.321   2.302
 2616SOL     OW 8746   3.252   2.973   6.038
 2616SOL    HW1 8747   3.230   3.040   6.109
 2616SOL    HW2 8748   3.271   3.020   5.952
 2617SOL     OW 8749   3.724   6.955   0.255
 2617SOL    HW1 8750   3.626   6.954   0.272
 2617SOL    HW2 8751   3.768   6.882   0.308
 2618SOL     OW 8752   6.410   0.394   3.663
 2618SOL    HW1 8753   6.315   0.383   3.632
 2618SOL    HW2 8754   6.441   0.487   3.642
 2619SOL     OW 8755   4.233   2.261   2.700
 2619SOL    HW1 8756   4.179   2.227   2.777
 2619SOL    HW2 8757   4.310   2.199   2.684
 2620SOL     OW 8758   6.455   6.727   3.238
 2620SOL    HW1 8759   6.480   6.734   3.334
 2620SOL    HW2 8760   6.527   6.679   3.187
 2621SOL     OW 8761   0.598   5.212   1.822
 2621SOL    HW1 8762   0.623   5.300   1.783
 2621SOL    HW2 8763   0.657   5.141   1.784
 2622SOL     OW 8764   1.739   3.629   5.084
 2622SOL    HW1 8765   1.788   3.648   4.999
 2622SOL    HW2 8766   1.664   3.694   5.095
 2623SOL     OW 8767   0.335   1.301   5.574
 2623SOL    HW1 8768   0.256   1.240   5.590
 2623SOL    HW2 8769   0.318   1.356   5.492
 2624SOL     OW 8770   0.048   1.164   4.563
 2624SOL    HW1 8771   6.980   1.206   4.569
 2624SOL    HW2 8772   0.111   1.226   4.516
 2625SOL     OW 8773   2.452   3.766   5.518
 2625SOL    HW1 8774   2.435   3.779   5.420
 2625SOL    HW2 8775   2.389   3.698   5.554
 2626SOL     OW 8776   0.242   0.388   5.570
 2626SOL    HW1 8777   0.153   0.359   5.536
 2626SOL    HW2 8778   0.309   0.384   5.496
 2627SOL     OW 8779   0.675   0.845   6.121
 2627SOL    HW1 8780   0.677   0.932   6.073
 2627SOL    HW2 8781   0.756   0.791   6.095
 2628SOL     OW 8782   1.996   4.337   5.772
 2628SOL    HW1 8783   1.978   4.243   5.798
 2628SOL    HW2 8784   2.027   4.340   5.676
 2629SOL     OW 8785   3.823   3.375   2.196
 2629SOL    HW1 8786   3.875   3.418   2.270
 2629SOL    HW2 8787   3.873   3.295   2.163
 2630SOL     OW 8788   2.865   1.964   2.838
 2630SOL    HW1 8789   2.923   1.884   2.849
 2630SOL    HW2 8790   2.921   2.047   2.838
 2631SOL     OW 8791   5.509   0.677   6.120
 2631SOL    HW1 8792   5.426   0.725   6.091
 2631SOL    HW2 8793   5.489   0.623   6.202
 2632SOL     OW 8794   5.547   3.243   6.768
 2632SOL    HW1 8795   5.572   3.149   6.793
 2632SOL    HW2 8796   5.626   3.303   6.780
 2633SOL     OW 8797   0.645   1.967   4.513
 2633SOL    HW1 8798   0.636   2.066   4.502
 2633SOL    HW2 8799   0.736   1.945   4.547
 2634SOL     OW 8800   0.665   4.568   3.690
 2634SOL    HW1 8801   0.694   4.524   3.775
 2634SOL    HW2 8802   0.667   4.668   3.701
 2635SOL     OW 8803   6.806   6.103   5.162
 2635SOL    HW1 8804   6.771   6.034   5.225
 2635SOL    HW2 8805   6.883   6.065   5.111
 2636SOL     OW 8806   4.118   0.576   5.445
 2636SOL    HW1 8807   4.049   0.585   5.373
 2636SOL    HW2 8808   4.073   0.567   5.534
 2637SOL     OW 8809   5.745   1.793   3.740
 2637SOL    HW1 8810   5.718   1.802   3.836
 2637SOL    HW2 8811   5.843   1.814   3.730
 2638SOL     OW 8812   0.057   6.949   3.765
 2638SOL    HW1 8813   0.021   6.965   3.857
 2638SOL    HW2 8814   0.032   0.003   3.706
 2639SOL     OW 8815   0.761   5.652   0.106
 2639SOL    HW1 8816   0.747   5.688   0.014
 2639SOL    HW2 8817   0.728   5.558   0.109
 2640SOL     OW 8818   0.052   6.215   5.674
 2640SOL    HW1 8819   7.016   6.205   5.755
 2640SOL    HW2 8820   7.022   6.189   5.592
 2641SOL     OW 8821   5.672   3.091   2.090
 2641SOL    HW1 8822   5.755   3.045   2.123
 2641SOL    HW2 8823   5.629   3.140   2.166
 2642SOL     OW 8824   5.715   0.597   3.590
 2642SOL    HW1 8825   5.699   0.594   3.491
 2642SOL    HW2 8826   5.743   0.689   3.617
 2643SOL     OW 8827   0.907   3.777   3.405
 2643SOL    HW1 8828   0.973   3.742   3.471
 2643SOL    HW2 8829   0.843   3.705   3.380
 2644SOL     OW 8830   4.775   5.254   5.336
 2644SOL    HW1 8831   4.770   5.350   5.362
 2644SOL    HW2 8832   4.870   5.230   5.314
 2645SOL     OW 8833   4.150   5.848   3.436
 2645SOL    HW1 8834   4.209   5.913   3.388
 2645SOL    HW2 8835   4.068   5.896   3.468
 2646SOL     OW 8836   6.277   1.540   6.636
 2646SOL    HW1 8837   6.336   1.497   6.705
 2646SOL    HW2 8838   6.333   1.597   6.576
 2647SOL     OW 8839   6.365   0.044   1.733
 2647SOL    HW1 8840   6.425   6.997   1.772
 2647SOL    HW2 8841   6.269   0.019   1.750
 2648SOL     OW 8842   1.044   6.637   3.070
 2648SOL    HW1 8843   0.983   6.673   3.141
 2648SOL    HW2 8844   1.100   6.563   3.109
 2649SOL     OW 8845   6.943   3.491   0.760
 2649SOL    HW1 8846   6.885   3.448   0.691
 2649SOL    HW2 8847   6.900   3.575   0.792
 2650SOL     OW 8848   1.310   4.883   3.859
 2650SOL    HW1 8849   1.229   4.924   3.818
 2650SOL    HW2 8850   1.339   4.804   3.804
 2651SOL     OW 8851   2.370   1.379   0.978
 2651SOL    HW1 8852   2.381   1.416   1.070
 2651SOL    HW2 8853   2.429   1.428   0.914
 2652SOL     OW 8854   4.241   3.266   5.313
 2652SOL    HW1 8855   4.159   3.218   5.280
 2652SOL    HW2 8856   4.312   3.199   5.333
 2653SOL     OW 8857   4.581   6.767   5.735
 2653SOL    HW1 8858   4.629   6.813   5.660
 2653SOL    HW2 8859   4.648   6.734   5.802
 2654SOL     OW 8860   4.492   6.998   1.888
 2654SOL    HW1 8861   4.485   6.969   1.983
 2654SOL    HW2 8862   4.412   0.030   1.863
 2655SOL     OW 8863   5.745   6.660   3.832
 2655SOL    HW1 8864   5.809   6.733   3.808
 2655SOL    HW2 8865   5.658   6.675   3.786
 2656SOL     OW 8866   3.223   5.202   4.246
 2656SOL    HW1 8867   3.238   5.162   4.336
 2656SOL    HW2 8868   3.296   5.269   4.227
 2657SOL     OW 8869   0.876   4.196   6.916
 2657SOL    HW1 8870   0.889   4.281   6.967
 2657SOL    HW2 8871   0.809   4.138   6.964
 2658SOL     OW 8872   4.988   4.853   0.620
 2658SOL    HW1 8873   4.894   4.829   0.645
 2658SOL    HW2 8874   4.992   4.950   0.596
 2659SOL     OW 8875   4.886   3.006   4.994
 2659SOL    HW1 8876   4.873   3.086   4.934
 2659SOL    HW2 8877   4.983   2.997   5.016
 2660SOL     OW 8878   1.269   6.626   1.896
 2660SOL    HW1 8879   1.317   6.580   1.821
 2660SOL    HW2 8880   1.175   6.645   1.868
 2661SOL     OW 8881   2.251   6.910   1.387
 2661SOL    HW1 8882   2.174   6.963   1.354
 2661SOL    HW2 8883   2.218   6.824   1.426
 2662SOL     OW 8884   3.782   6.451   5.642
 2662SOL    HW1 8885   3.850   6.412   5.580
 2662SOL    HW2 8886   3.827   6.478   5.727
 2663SOL     OW 8887   3.532   4.489   6.916
 2663SOL    HW1 8888   3.588   4.440   6.983
 2663SOL    HW2 8889   3.436   4.464   6.928
 2664SOL     OW 8890   4.367   3.679   5.667
 2664SOL    HW1 8891   4.322   3.664   5.579
 2664SOL    HW2 8892   4.305   3.652   5.741
 2665SOL     OW 8893   2.947   3.173   5.185
 2665SOL    HW1 8894   2.856   3.163   5.225
 2665SOL    HW2 8895   2.961   3.103   5.115
 2666SOL     OW 8896   0.439   5.270   1.399
 2666SOL    HW1 8897   0.510   5.340   1.387
 2666SOL    HW2 8898   0.377   5.297   1.472
 2667SOL     OW 8899   1.103   5.658   3.940
 2667SOL    HW1 8900   1.020   5.713   3.929
 2667SOL    HW2 8901   1.183   5.718   3.944
 2668SOL     OW 8902   0.125   3.077   5.017
 2668SOL    HW1 8903   0.180   3.143   5.068
 2668SOL    HW2 8904   0.172   3.051   4.933
 2669SOL     OW 8905   2.990   4.837   5.921
 2669SOL    HW1 8906   2.986   4.923   5.870
 2669SOL    HW2 8907   3.073   4.788   5.895
 2670SOL     OW 8908   6.027   3.863   5.608
 2670SOL    HW1 8909   6.126   3.873   5.619
 2670SOL    HW2 8910   5.980   3.928   5.668
 2671SOL     OW 8911   4.142   5.477   6.911
 2671SOL    HW1 8912   4.118   5.476   6.814
 2671SOL    HW2 8913   4.240   5.495   6.920
 2672SOL     OW 8914   2.545   5.290   1.131
 2672SOL    HW1 8915   2.643   5.290   1.109
 2672SOL    HW2 8916   2.492   5.297   1.047
 2673SOL     OW 8917   6.373   1.825   1.690
 2673SOL    HW1 8918   6.316   1.830   1.608
 2673SOL    HW2 8919   6.317   1.793   1.767
 2674SOL     OW 8920   1.428   4.632   3.778
 2674SOL    HW1 8921   1.421   4.536   3.806
 2674SOL    HW2 8922   1.393   4.643   3.685
 2675SOL     OW 8923   6.185   5.691   4.091
 2675SOL    HW1 8924   6.090   5.716   4.111
 2675SOL    HW2 8925   6.247   5.759   4.131
 2676SOL     OW 8926   3.339   2.721   1.177
 2676SOL    HW1 8927   3.399   2.801   1.183
 2676SOL    HW2 8928   3.294   2.707   1.265
 2677SOL     OW 8929   2.676   4.174   0.000
 2677SOL    HW1 8930   2.594   4.186   6.967
 2677SOL    HW2 8931   2.753   4.148   6.963
 2678SOL     OW 8932   6.950   2.197   2.433
 2678SOL    HW1 8933   6.867   2.159   2.475
 2678SOL    HW2 8934   6.958   2.163   2.340
 2679SOL     OW 8935   2.185   5.066   1.742
 2679SOL    HW1 8936   2.093   5.102   1.759
 2679SOL    HW2 8937   2.253   5.123   1.787
 2680SOL     OW 8938   0.968   1.894   0.981
 2680SOL    HW1 8939   0.915   1.974   1.010
 2680SOL    HW2 8940   0.968   1.889   0.881
 2681SOL     OW 8941   1.403   2.301   5.622
 2681SOL    HW1 8942   1.437   2.268   5.710
 2681SOL    HW2 8943   1.329   2.366   5.637
 2682SOL     OW 8944   4.713   4.240   3.638
 2682SOL    HW1 8945   4.686   4.302   3.712
 2682SOL    HW2 8946   4.746   4.154   3.678
 2683SOL     OW 8947   2.597   5.424   2.000
 2683SOL    HW1 8948   2.535   5.462   1.931
 2683SOL    HW2 8949   2.583   5.472   2.087
 2684SOL     OW 8950   4.227   6.416   1.740
 2684SOL    HW1 8951   4.218   6.515   1.728
 2684SOL    HW2 8952   4.259   6.375   1.655
 2685SOL     OW 8953   6.247   5.744   6.394
 2685SOL    HW1 8954   6.175   5.811   6.406
 2685SOL    HW2 8955   6.231   5.666   6.456
 2686SOL     OW 8956   1.968   1.672   6.001
 2686SOL    HW1 8957   1.978   1.689   5.903
 2686SOL    HW2 8958   2.057   1.648   6.040
 2687SOL     OW 8959   5.241   5.618   1.773
 2687SOL    HW1 8960   5.236   5.654   1.680
 2687SOL    HW2 8961   5.226   5.692   1.839
 2688SOL     OW 8962   3.067   3.079   0.488
 2688SOL    HW1 8963   3.064   3.120   0.579
 2688SOL    HW2 8964   2.995   3.010   0.480
 2689SOL     OW 8965   0.776   4.000   2.257
 2689SOL    HW1 8966   0.855   4.018   2.316
 2689SOL    HW2 8967   0.695   3.984   2.314
 2690SOL     OW 8968   3.762   3.447   5.013
 2690SOL    HW1 8969   3.781   3.434   4.916
 2690SOL    HW2 8970   3.677   3.499   5.024
 2691SOL     OW 8971   0.831   5.333   3.915
 2691SOL    HW1 8972   0.911   5.326   3.856
 2691SOL    HW2 8973   0.803   5.429   3.921
 2692SOL     OW 8974   2.663   6.192   3.576
 2692SOL    HW1 8975   2.566   6.214   3.567
 2692SOL    HW2 8976   2.674   6.095   3.598
 2693SOL     OW 8977   2.125   5.460   3.507
 2693SOL    HW1 8978   2.151   5.364   3.493
 2693SOL    HW2 8979   2.076   5.470   3.593
 2694SOL     OW 8980   4.114   6.474   3.001
 2694SOL    HW1 8981   4.042   6.543   3.001
 2694SOL    HW2 8982   4.191   6.506   3.056
 2695SOL     OW 8983   5.761   1.064   2.379
 2695SOL    HW1 8984   5.719   0.976   2.400
 2695SOL    HW2 8985   5.693   1.124   2.337
 2696SOL     OW 8986   3.517   2.845   5.948
 2696SOL    HW1 8987   3.420   2.829   5.967
 2696SOL    HW2 8988   3.536   2.823   5.853
 2697SOL     OW 8989   3.284   1.450   3.108
 2697SOL    HW1 8990   3.308   1.520   3.175
 2697SOL    HW2 8991   3.357   1.441   3.041
 2698SOL     OW 8992   2.152   4.611   0.673
 2698SOL    HW1 8993   2.079   4.660   0.625
 2698SOL    HW2 8994   2.115   4.526   0.711
 2699SOL     OW 8995   2.651   5.601   0.854
 2699SOL    HW1 8996   2.715   5.672   0.882
 2699SOL    HW2 8997   2.573   5.599   0.916
 2700SOL     OW 8998   2.606   2.751   0.600
 2700SOL    HW1 8999   2.548   2.682   0.644
 2700SOL    HW2 9000   2.702   2.722   0.606
 2701SOL     OW 9001   5.417   1.784   6.484
 2701SOL    HW1 9002   5.366   1.811   6.402
 2701SOL    HW2 9003   5.363   1.808   6.565
 2702SOL     OW 9004   0.458   2.618   3.476
 2702SOL    HW1 9005   0.466   2.537   3.534
 2702SOL    HW2 9006   0.533   2.681   3.497
 2703SOL     OW 9007   1.136   6.530   0.392
 2703SOL    HW1 9008   1.182   6.454   0.436
 2703SOL    HW2 9009   1.039   6.508   0.381
 2704SOL     OW 9010   6.465   5.977   1.966
 2704SOL    HW1 9011   6.432   5.999   1.874
 2704SOL    HW2 9012   6.398   5.919   2.013
 2705SOL     OW 9013   6.639   6.940   5.089
 2705SOL    HW1 9014   6.567   6.895   5.036
 2705SOL    HW2 9015   6.667   6.881   5.165
 2706SOL     OW 9016   6.149   4.829   3.224
 2706SOL    HW1 9017   6.221   4.829   3.295
 2706SOL    HW2 9018   6.186   4.867   3.140
 2707SOL     OW 9019   3.793   0.456   4.501
 2707SOL    HW1 9020   3.772   0.391   4.574
 2707SOL    HW2 9021   3.874   0.425   4.451
 2708SOL     OW 9022   6.681   2.704   0.950
 2708SOL    HW1 9023   6.605   2.758   0.915
 2708SOL    HW2 9024   6.750   2.693   0.879
 2709SOL     OW 9025   5.346   0.202   0.146
 2709SOL    HW1 9026   5.279   0.274   0.128
 2709SOL    HW2 9027   5.327   0.123   0.087
 2710SOL     OW 9028   1.163   3.076   4.171
 2710SOL    HW1 9029   1.073   3.032   4.164
 2710SOL    HW2 9030   1.211   3.067   4.084
 2711SOL     OW 9031   2.716   1.297   3.676
 2711SOL    HW1 9032   2.653   1.258   3.610
 2711SOL    HW2 9033   2.665   1.331   3.755
 2712SOL     OW 9034   2.669   4.591   1.211
 2712SOL    HW1 9035   2.697   4.684   1.184
 2712SOL    HW2 9036   2.746   4.546   1.256
 2713SOL     OW 9037   2.148   2.811   6.349
 2713SOL    HW1 9038   2.229   2.756   6.329
 2713SOL    HW2 9039   2.104   2.778   6.432
 2714SOL     OW 9040   4.472   2.183   0.121
 2714SOL    HW1 9041   4.446   2.087   0.121
 2714SOL    HW2 9042   4.457   2.222   0.212
 2715SOL     OW 9043   5.480   2.645   1.200
 2715SOL    HW1 9044   5.471   2.674   1.295
 2715SOL    HW2 9045   5.537   2.563   1.196
 2716SOL     OW 9046   5.167   3.309   3.572
 2716SOL    HW1 9047   5.197   3.254   3.650
 2716SOL    HW2 9048   5.150   3.249   3.494
 2717SOL     OW 9049   0.177   0.178   2.685
 2717SOL    HW1 9050   0.110   0.252   2.682
 2717SOL    HW2 9051   0.173   0.125   2.600
 2718SOL     OW 9052   1.344   1.228   5.253
 2718SOL    HW1 9053   1.392   1.215   5.339
 2718SOL    HW2 9054   1.344   1.325   5.228
 2719SOL     OW 9055   0.578   5.003   1.657
 2719SOL    HW1 9056   0.653   5.006   1.591
 2719SOL    HW2 9057   0.509   5.072   1.633
 2720SOL     OW 9058   1.728   6.481   2.280
 2720SOL    HW1 9059   1.816   6.438   2.300
 2720SOL    HW2 9060   1.738   6.543   2.202
 2721SOL     OW 9061   3.516   6.158   3.496
 2721SOL    HW1 9062   3.583   6.130   3.427
 2721SOL    HW2 9063   3.561   6.215   3.565
 2722SOL     OW 9064   6.014   5.045   0.639
 2722SOL    HW1 9065   5.997   5.110   0.713
 2722SOL    HW2 9066   6.112   5.039   0.622
 2723SOL     OW 9067   1.194   5.861   6.145
 2723SOL    HW1 9068   1.202   5.825   6.238
 2723SOL    HW2 9069   1.106   5.833   6.106
 2724SOL     OW 9070   2.359   5.696   6.750
 2724SOL    HW1 9071   2.283   5.691   6.814
 2724SOL    HW2 9072   2.358   5.785   6.705
 2725SOL     OW 9073   4.749   4.693   4.954
 2725SOL    HW1 9074   4.814   4.767   4.937
 2725SOL    HW2 9075   4.770   4.648   5.041
 2726SOL     OW 9076   0.083   2.314   1.736
 2726SOL    HW1 9077   0.140   2.364   1.801
 2726SOL    HW2 9078   0.134   2.301   1.651
 2727SOL     OW 9079   0.711   4.805   3.817
 2727SOL    HW1 9080   0.766   4.875   3.772
 2727SOL    HW2 9081   0.648   4.849   3.881
 2728SOL     OW 9082   4.564   6.771   4.914
 2728SOL    HW1 9083   4.464   6.769   4.920
 2728SOL    HW2 9084   4.591   6.825   4.834
 2729SOL     OW 9085   0.371   5.996   0.229
 2729SOL    HW1 9086   0.424   6.073   0.266
 2729SOL    HW2 9087   0.276   6.005   0.258
 2730SOL     OW 9088   1.365   5.441   2.076
 2730SOL    HW1 9089   1.428   5.399   2.141
 2730SOL    HW2 9090   1.407   5.522   2.037
 2731SOL     OW 9091   2.938   3.386   3.480
 2731SOL    HW1 9092   2.940   3.481   3.510
 2731SOL    HW2 9093   2.912   3.383   3.383
 2732SOL     OW 9094   5.740   2.405   1.822
 2732SOL    HW1 9095   5.750   2.352   1.907
 2732SOL    HW2 9096   5.696   2.492   1.843
 2733SOL     OW 9097   6.420   2.029   5.077
 2733SOL    HW1 9098   6.329   2.048   5.113
 2733SOL    HW2 9099   6.444   1.934   5.096
 2734SOL     OW 9100   3.179   5.576   0.852
 2734SOL    HW1 9101   3.231   5.661   0.851
 2734SOL    HW2 9102   3.093   5.589   0.803
 2735SOL     OW 9103   1.455   3.185   1.718
 2735SOL    HW1 9104   1.461   3.160   1.621
 2735SOL    HW2 9105   1.496   3.275   1.732
 2736SOL     OW 9106   6.021   5.874   4.584
 2736SOL    HW1 9107   6.060   5.788   4.615
 2736SOL    HW2 9108   5.958   5.909   4.654
 2737SOL     OW 9109   2.727   4.351   5.302
 2737SOL    HW1 9110   2.777   4.299   5.371
 2737SOL    HW2 9111   2.791   4.404   5.247
 2738SOL     OW 9112   5.277   6.409   2.144
 2738SOL    HW1 9113   5.193   6.449   2.106
 2738SOL    HW2 9114   5.262   6.311   2.159
 2739SOL     OW 9115   1.523   5.221   0.979
 2739SOL    HW1 9116   1.576   5.238   1.062
 2739SOL    HW2 9117   1.523   5.123   0.959
 2740SOL     OW 9118   6.695   4.357   1.969
 2740SOL    HW1 9119   6.717   4.436   1.912
 2740SOL    HW2 9120   6.731   4.372   2.061
 2741SOL     OW 9121   6.155   0.336   4.708
 2741SOL    HW1 9122   6.230   0.278   4.742
 2741SOL    HW2 9123   6.118   0.389   4.784
 2742SOL     OW 9124   1.632   5.394   0.314
 2742SOL    HW1 9125   1.583   5.445   0.385
 2742SOL    HW2 9126   1.567   5.348   0.254
 2743SOL     OW 9127   6.815   4.445   2.651
 2743SOL    HW1 9128   6.893   4.431   2.589
 2743SOL    HW2 9129   6.812   4.541   2.679
 2744SOL     OW 9130   4.689   2.346   0.411
 2744SOL    HW1 9131   4.714   2.438   0.441
 2744SOL    HW2 9132   4.663   2.291   0.490
 2745SOL     OW 9133   6.952   0.789   4.679
 2745SOL    HW1 9134   6.960   0.693   4.651
 2745SOL    HW2 9135   6.977   0.848   4.602
 2746SOL     OW 9136   1.111   2.590   4.823
 2746SOL    HW1 9137   1.135   2.494   4.808
 2746SOL    HW2 9138   1.168   2.628   4.895
 2747SOL     OW 9139   4.804   4.883   6.727
 2747SOL    HW1 9140   4.845   4.924   6.808
 2747SOL    HW2 9141   4.865   4.895   6.649
 2748SOL     OW 9142   4.573   1.248   2.396
 2748SOL    HW1 9143   4.642   1.187   2.356
 2748SOL    HW2 9144   4.549   1.215   2.488
 2749SOL     OW 9145   0.318   4.286   1.334
 2749SOL    HW1 9146   0.331   4.335   1.247
 2749SOL    HW2 9147   0.341   4.189   1.320
 2750SOL     OW 9148   1.490   3.455   0.778
 2750SOL    HW1 9149   1.405   3.403   0.784
 2750SOL    HW2 9150   1.567   3.397   0.804
 2751SOL     OW 9151   1.220   3.251   1.351
 2751SOL    HW1 9152   1.165   3.288   1.276
 2751SOL    HW2 9153   1.184   3.285   1.438
 2752SOL     OW 9154   3.565   4.890   5.230
 2752SOL    HW1 9155   3.546   4.862   5.324
 2752SOL    HW2 9156   3.663   4.896   5.216
 2753SOL     OW 9157   6.938   6.332   5.130
 2753SOL    HW1 9158   6.898   6.248   5.167
 2753SOL    HW2 9159   0.014   6.332   5.147
 2754SOL     OW 9160   0.772   0.225   1.182
 2754SOL    HW1 9161   0.839   0.234   1.256
 2754SOL    HW2 9162   0.744   0.316   1.151
 2755SOL     OW 9163   2.502   0.089   2.616
 2755SOL    HW1 9164   2.540   0.154   2.550
 2755SOL    HW2 9165   2.569   0.017   2.634
 2756SOL     OW 9166   5.876   5.271   0.304
 2756SOL    HW1 9167   5.785   5.230   0.295
 2756SOL    HW2 9168   5.945   5.204   0.277
 2757SOL     OW 9169   2.514   6.632   6.643
 2757SOL    HW1 9170   2.585   6.628   6.572
 2757SOL    HW2 9171   2.481   6.726   6.652
 2758SOL     OW 9172   3.746   6.079   4.234
 2758SOL    HW1 9173   3.805   6.160   4.243
 2758SOL    HW2 9174   3.723   6.044   4.324
 2759SOL     OW 9175   5.160   6.840   5.861
 2759SOL    HW1 9176   5.102   6.812   5.938
 2759SOL    HW2 9177   5.252   6.803   5.875
 2760SOL     OW 9178   0.863   6.337   1.880
 2760SOL    HW1 9179   0.810   6.256   1.905
 2760SOL    HW2 9180   0.909   6.321   1.793
 2761SOL     OW 9181   2.059   5.808   4.362
 2761SOL    HW1 9182   2.002   5.833   4.440
 2761SOL    HW2 9183   2.075   5.709   4.362
 2762SOL     OW 9184   1.371   1.517   5.229
 2762SOL    HW1 9185   1.354   1.614   5.218
 2762SOL    HW2 9186   1.466   1.497   5.208
 2763SOL     OW 9187   5.305   1.393   3.407
 2763SOL    HW1 9188   5.319   1.339   3.325
 2763SOL    HW2 9189   5.212   1.429   3.409
 2764SOL     OW 9190   5.699   0.996   1.020
 2764SOL    HW1 9191   5.727   1.088   1.046
 2764SOL    HW2 9192   5.647   0.954   1.094
 2765SOL     OW 9193   5.926   6.759   1.005
 2765SOL    HW1 9194   5.936   6.660   1.010
 2765SOL    HW2 9195   5.858   6.783   0.936
 2766SOL     OW 9196   5.196   2.047   0.499
 2766SOL    HW1 9197   5.169   2.067   0.405
 2766SOL    HW2 9198   5.114   2.034   0.555
 2767SOL     OW 9199   0.064   5.293   0.351
 2767SOL    HW1 9200   0.106   5.368   0.401
 2767SOL    HW2 9201   0.011   5.329   0.274
 2768SOL     OW 9202   4.096   0.765   0.838
 2768SOL    HW1 9203   4.194   0.786   0.838
 2768SOL    HW2 9204   4.079   0.683   0.784
 2769SOL     OW 9205   1.905   4.203   4.277
 2769SOL    HW1 9206   1.854   4.150   4.210
 2769SOL    HW2 9207   1.995   4.228   4.240
 2770SOL     OW 9208   4.127   5.828   5.441
 2770SOL    HW1 9209   4.113   5.896   5.512
 2770SOL    HW2 9210   4.126   5.737   5.481
 2771SOL     OW 9211   6.450   1.074   3.497
 2771SOL    HW1 9212   6.471   1.084   3.594
 2771SOL    HW2 9213   6.529   1.033   3.450
 2772SOL     OW 9214   4.169   1.475   1.110
 2772SOL    HW1 9215   4.097   1.484   1.179
 2772SOL    HW2 9216   4.130   1.440   1.025
 2773SOL     OW 9217   6.182   2.169   5.166
 2773SOL    HW1 9218   6.176   2.252   5.111
 2773SOL    HW2 9219   6.117   2.101   5.131
 2774SOL     OW 9220   5.833   3.483   3.234
 2774SOL    HW1 9221   5.805   3.555   3.298
 2774SOL    HW2 9222   5.908   3.515   3.177
 2775SOL     OW 9223   6.952   5.903   6.356
 2775SOL    HW1 9224   7.003   5.854   6.427
 2775SOL    HW2 9225   7.013   5.968   6.310
 2776SOL     OW 9226   4.101   5.006   5.559
 2776SOL    HW1 9227   4.170   5.078   5.553
 2776SOL    HW2 9228   4.143   4.922   5.594
 2777SOL     OW 9229   2.542   1.172   2.460
 2777SOL    HW1 9230   2.447   1.166   2.490
 2777SOL    HW2 9231   2.569   1.085   2.418
 2778SOL     OW 9232   1.480   6.938   5.624
 2778SOL    HW1 9233   1.471   6.940   5.525
 2778SOL    HW2 9234   1.518   6.850   5.652
 2779SOL     OW 9235   4.858   6.430   1.105
 2779SOL    HW1 9236   4.843   6.366   1.180
 2779SOL    HW2 9237   4.950   6.417   1.067
 2780SOL     OW 9238   6.516   6.644   6.850
 2780SOL    HW1 9239   6.555   6.628   6.759
 2780SOL    HW2 9240   6.555   6.726   6.890
 2781SOL     OW 9241   5.473   6.517   1.998
 2781SOL    HW1 9242   5.515   6.599   2.036
 2781SOL    HW2 9243   5.403   6.483   2.061
 2782SOL     OW 9244   3.975   1.739   6.048
 2782SOL    HW1 9245   3.893   1.797   6.051
 2782SOL    HW2 9246   3.996   1.706   6.140
 2783SOL     OW 9247   5.015   4.272   3.888
 2783SOL    HW1 9248   5.084   4.236   3.951
 2783SOL    HW2 9249   4.924   4.259   3.927
 2784SOL     OW 9250   3.516   1.353   2.114
 2784SOL    HW1 9251   3.444   1.329   2.179
 2784SOL    HW2 9252   3.605   1.341   2.157
 2785SOL     OW 9253   4.549   1.313   0.861
 2785SOL    HW1 9254   4.576   1.353   0.949
 2785SOL    HW2 9255   4.628   1.311   0.800
 2786SOL     OW 9256   5.018   0.196   2.086
 2786SOL    HW1 9257   5.101   0.245   2.114
 2786SOL    HW2 9258   4.984   0.141   2.163
 2787SOL     OW 9259   4.102   1.754   6.310
 2787SOL    HW1 9260   4.193   1.790   6.287
 2787SOL    HW2 9261   4.049   1.826   6.355
 2788SOL     OW 9262   2.008   4.826   5.792
 2788SOL    HW1 9263   1.910   4.813   5.804
 2788SOL    HW2 9264   2.040   4.773   5.713
 2789SOL     OW 9265   1.754   2.058   3.609
 2789SOL    HW1 9266   1.686   2.055   3.536
 2789SOL    HW2 9267   1.720   2.113   3.685
 2790SOL     OW 9268   2.993   6.198   1.994
 2790SOL    HW1 9269   2.900   6.173   2.019
 2790SOL    HW2 9270   3.046   6.115   1.976
 2791SOL     OW 9271   0.765   3.092   2.905
 2791SOL    HW1 9272   0.733   2.998   2.910
 2791SOL    HW2 9273   0.717   3.148   2.973
 2792SOL     OW 9274   2.040   6.706   3.981
 2792SOL    HW1 9275   2.063   6.614   3.949
 2792SOL    HW2 9276   1.961   6.741   3.929
 2793SOL     OW 9277   5.463   3.924   3.027
 2793SOL    HW1 9278   5.408   3.964   3.100
 2793SOL    HW2 9279   5.404   3.899   2.951
 2794SOL     OW 9280   0.071   2.803   6.906
 2794SOL    HW1 9281   0.071   2.813   6.806
 2794SOL    HW2 9282   7.022   2.739   6.933
 2795SOL     OW 9283   1.387   2.800   0.541
 2795SOL    HW1 9284   1.374   2.717   0.596
 2795SOL    HW2 9285   1.350   2.786   0.450
 2796SOL     OW 9286   6.872   6.051   3.055
 2796SOL    HW1 9287   6.825   6.066   3.141
 2796SOL    HW2 9288   6.955   6.107   3.052
 2797SOL     OW 9289   5.513   5.436   4.488
 2797SOL    HW1 9290   5.603   5.443   4.444
 2797SOL    HW2 9291   5.476   5.528   4.504
 2798SOL     OW 9292   0.357   5.240   1.961
 2798SOL    HW1 9293   0.440   5.219   1.909
 2798SOL    HW2 9294   0.374   5.224   2.059
 2799SOL     OW 9295   5.732   5.920   0.094
 2799SOL    HW1 9296   5.826   5.952   0.104
 2799SOL    HW2 9297   5.722   5.830   0.136
 2800SOL     OW 9298   4.671   5.910   0.462
 2800SOL    HW1 9299   4.619   5.938   0.382
 2800SOL    HW2 9300   4.769   5.913   0.441
 2801SOL     OW 9301   6.386   5.935   6.138
 2801SOL    HW1 9302   6.286   5.939   6.129
 2801SOL    HW2 9303   6.410   5.898   6.227
 2802SOL     OW 9304   5.325   1.387   5.287
 2802SOL    HW1 9305   5.272   1.315   5.331
 2802SOL    HW2 9306   5.291   1.401   5.194
 2803SOL     OW 9307   3.829   5.840   6.639
 2803SOL    HW1 9308   3.771   5.877   6.711
 2803SOL    HW2 9309   3.773   5.792   6.572
 2804SOL     OW 9310   0.135   4.852   4.958
 2804SOL    HW1 9311   0.191   4.849   5.040
 2804SOL    HW2 9312   0.193   4.874   4.879
 2805SOL     OW 9313   5.604   3.208   1.627
 2805SOL    HW1 9314   5.625   3.202   1.530
 2805SOL    HW2 9315   5.679   3.255   1.675
 2806SOL     OW 9316   0.068   4.965   5.924
 2806SOL    HW1 9317   0.074   4.893   5.854
 2806SOL    HW2 9318   7.004   5.014   5.914
 2807SOL     OW 9319   5.100   6.328   4.419
 2807SOL    HW1 9320   5.172   6.279   4.468
 2807SOL    HW2 9321   5.051   6.264   4.359
 2808SOL     OW 9322   5.440   4.214   2.245
 2808SOL    HW1 9323   5.462   4.253   2.335
 2808SOL    HW2 9324   5.444   4.114   2.250
 2809SOL     OW 9325   6.068   3.311   0.910
 2809SOL    HW1 9326   6.117   3.350   0.988
 2809SOL    HW2 9327   6.056   3.381   0.839
 2810SOL     OW 9328   3.383   5.175   3.298
 2810SOL    HW1 9329   3.391   5.190   3.396
 2810SOL    HW2 9330   3.435   5.246   3.249
 2811SOL     OW 9331   1.038   1.772   3.235
 2811SOL    HW1 9332   0.995   1.692   3.277
 2811SOL    HW2 9333   1.042   1.759   3.136
 2812SOL     OW 9334   4.976   4.032   6.256
 2812SOL    HW1 9335   4.927   4.033   6.343
 2812SOL    HW2 9336   5.067   4.071   6.267
 2813SOL     OW 9337   6.936   6.852   6.179
 2813SOL    HW1 9338   6.865   6.788   6.206
 2813SOL    HW2 9339   7.014   6.844   6.241
 2814SOL     OW 9340   3.956   3.535   5.452
 2814SOL    HW1 9341   4.046   3.518   5.494
 2814SOL    HW2 9342   3.948   3.631   5.428
 2815SOL     OW 9343   6.039   6.955   5.516
 2815SOL    HW1 9344   5.981   7.008   5.578
 2815SOL    HW2 9345   6.133   6.990   5.519
 2816SOL     OW 9346   6.486   5.688   3.249
 2816SOL    HW1 9347   6.492   5.764   3.314
 2816SOL    HW2 9348   6.512   5.719   3.158
 2817SOL     OW 9349   2.686   0.249   1.458
 2817SOL    HW1 9350   2.665   0.282   1.550
 2817SOL    HW2 9351   2.629   0.169   1.438
 2818SOL     OW 9352   0.324   0.704   0.658
 2818SOL    HW1 9353   0.323   0.728   0.561
 2818SOL    HW2 9354   0.346   0.607   0.668
 2819SOL     OW 9355   0.592   1.236   1.672
 2819SOL    HW1 9356   0.532   1.305   1.630
 2819SOL    HW2 9357   0.586   1.244   1.772
 2820SOL     OW 9358   0.694   2.859   3.032
 2820SOL    HW1 9359   0.736   2.771   3.012
 2820SOL    HW2 9360   0.601   2.861   2.996
 2821SOL     OW 9361   4.324   3.227   6.833
 2821SOL    HW1 9362   4.312   3.133   6.865
 2821SOL    HW2 9363   4.297   3.233   6.737
 2822SOL     OW 9364   4.185   1.599   0.302
 2822SOL    HW1 9365   4.209   1.619   0.207
 2822SOL    HW2 9366   4.156   1.683   0.348
 2823SOL     OW 9367   4.548   0.077   0.409
 2823SOL    HW1 9368   4.548   0.173   0.381
 2823SOL    HW2 9369   4.463   0.034   0.380
 2824SOL     OW 9370   2.907   1.434   3.510
 2824SOL    HW1 9371   2.840   1.407   3.580
 2824SOL    HW2 9372   2.980   1.488   3.552
 2825SOL     OW 9373   6.068   0.382   6.638
 2825SOL    HW1 9374   6.064   0.447   6.562
 2825SOL    HW2 9375   6.116   0.424   6.715
 2826SOL     OW 9376   5.015   1.256   6.643
 2826SOL    HW1 9377   4.932   1.220   6.685
 2826SOL    HW2 9378   4.997   1.348   6.607
 2827SOL     OW 9379   0.067   0.700   5.006
 2827SOL    HW1 9380   0.007   0.647   4.946
 2827SOL    HW2 9381   0.134   0.751   4.952
 2828SOL     OW 9382   2.759   0.914   0.046
 2828SOL    HW1 9383   2.810   0.880   0.125
 2828SOL    HW2 9384   2.821   0.925   6.991
 2829SOL     OW 9385   3.218   3.333   5.011
 2829SOL    HW1 9386   3.140   3.387   5.045
 2829SOL    HW2 9387   3.268   3.295   5.089
 2830SOL     OW 9388   1.691   3.253   5.902
 2830SOL    HW1 9389   1.664   3.327   5.963
 2830SOL    HW2 9390   1.743   3.185   5.952
 2831SOL     OW 9391   0.833   5.082   3.664
 2831SOL    HW1 9392   0.786   5.161   3.704
 2831SOL    HW2 9393   0.790   5.059   3.577
 2832SOL     OW 9394   0.504   2.472   2.222
 2832SOL    HW1 9395   0.511   2.406   2.297
 2832SOL    HW2 9396   0.448   2.550   2.251
 2833SOL     OW 9397   3.322   2.085   2.380
 2833SOL    HW1 9398   3.362   2.099   2.290
 2833SOL    HW2 9399   3.259   2.007   2.378
 2834SOL     OW 9400   3.938   5.097   6.405
 2834SOL    HW1 9401   3.976   5.064   6.318
 2834SOL    HW2 9402   3.882   5.178   6.388
 2835SOL     OW 9403   0.368   0.243   1.896
 2835SOL    HW1 9404   0.467   0.241   1.906
 2835SOL    HW2 9405   0.330   0.155   1.924
 2836SOL     OW 9406   6.741   6.921   2.361
 2836SOL    HW1 9407   6.658   6.959   2.319
 2836SOL    HW2 9408   6.799   6.996   2.393
 2837SOL     OW 9409   5.235   4.618   2.166
 2837SOL    HW1 9410   5.160   4.619   2.099
 2837SOL    HW2 9411   5.207   4.668   2.247
 2838SOL     OW 9412   2.439   3.949   0.755
 2838SOL    HW1 9413   2.368   3.883   0.729
 2838SOL    HW2 9414   2.411   3.996   0.839
 2839SOL     OW 9415   6.789   2.037   2.251
 2839SOL    HW1 9416   6.809   2.012   2.156
 2839SOL    HW2 9417   6.834   1.973   2.313
 2840SOL     OW 9418   1.734   0.729   3.215
 2840SOL    HW1 9419   1.796   0.750   3.290
 2840SOL    HW2 9420   1.776   0.661   3.154
 2841SOL     OW 9421   0.491   0.682   5.998
 2841SOL    HW1 9422   0.564   0.741   6.033
 2841SOL    HW2 9423   0.425   0.737   5.947
 2842SOL     OW 9424   0.678   3.858   4.225
 2842SOL    HW1 9425   0.689   3.841   4.127
 2842SOL    HW2 9426   0.607   3.927   4.239
 2843SOL     OW 9427   2.304   2.221   2.616
 2843SOL    HW1 9428   2.338   2.178   2.699
 2843SOL    HW2 9429   2.349   2.310   2.603
 2844SOL     OW 9430   0.025   5.037   0.637
 2844SOL    HW1 9431   0.001   5.075   0.548
 2844SOL    HW2 9432   7.014   4.942   0.642
 2845SOL     OW 9433   6.130   2.883   1.541
 2845SOL    HW1 9434   6.091   2.919   1.457
 2845SOL    HW2 9435   6.230   2.884   1.535
 2846SOL     OW 9436   4.060   0.976   6.807
 2846SOL    HW1 9437   4.010   0.904   6.758
 2846SOL    HW2 9438   4.000   1.020   6.872
 2847SOL     OW 9439   4.908   3.145   3.867
 2847SOL    HW1 9440   4.863   3.123   3.780
 2847SOL    HW2 9441   5.007   3.135   3.857
 2848SOL     OW 9442   1.563   2.483   5.040
 2848SOL    HW1 9443   1.618   2.566   5.055
 2848SOL    HW2 9444   1.575   2.421   5.118
 2849SOL     OW 9445   4.028   5.950   0.581
 2849SOL    HW1 9446   4.007   5.944   0.679
 2849SOL    HW2 9447   3.993   6.036   0.545
 2850SOL     OW 9448   1.555   0.345   2.368
 2850SOL    HW1 9449   1.530   0.400   2.288
 2850SOL    HW2 9450   1.520   0.252   2.358
 2851SOL     OW 9451   6.078   1.109   6.176
 2851SOL    HW1 9452   6.032   1.194   6.150
 2851SOL    HW2 9453   6.164   1.131   6.223
 2852SOL     OW 9454   5.745   4.218   6.703
 2852SOL    HW1 9455   5.763   4.279   6.625
 2852SOL    HW2 9456   5.787   4.257   6.785
 2853SOL     OW 9457   1.729   2.313   6.340
 2853SOL    HW1 9458   1.698   2.218   6.334
 2853SOL    HW2 9459   1.652   2.372   6.366
 2854SOL     OW 9460   4.219   1.717   5.364
 2854SOL    HW1 9461   4.264   1.686   5.448
 2854SOL    HW2 9462   4.159   1.794   5.385
 2855SOL     OW 9463   2.379   1.142   0.362
 2855SOL    HW1 9464   2.346   1.141   0.456
 2855SOL    HW2 9465   2.378   1.049   0.325
 2856SOL     OW 9466   0.970   2.935   5.555
 2856SOL    HW1 9467   0.949   2.984   5.639
 2856SOL    HW2 9468   0.888   2.889   5.520
 2857SOL     OW 9469   2.563   2.159   2.351
 2857SOL    HW1 9470   2.525   2.084   2.296
 2857SOL    HW2 9471   2.634   2.206   2.298
 2858SOL     OW 9472   4.769   4.086   2.307
 2858SOL    HW1 9473   4.727   4.175   2.322
 2858SOL    HW2 9474   4.810   4.084   2.216
 2859SOL     OW 9475   5.524   1.550   6.524
 2859SOL    HW1 9476   5.615   1.570   6.487
 2859SOL    HW2 9477   5.472   1.634   6.535
 2860SOL     OW 9478   3.108   1.098   1.680
 2860SOL    HW1 9479   3.206   1.108   1.664
 2860SOL    HW2 9480   3.091   1.084   1.778
 2861SOL     OW 9481   3.966   3.812   5.359
 2861SOL    HW1 9482   3.879   3.860   5.344
 2861SOL    HW2 9483   4.013   3.800   5.272
 2862SOL     OW 9484   5.728   1.352   2.978
 2862SOL    HW1 9485   5.654   1.367   2.913
 2862SOL    HW2 9486   5.768   1.262   2.962
 2863SOL     OW 9487   5.207   1.054   6.573
 2863SOL    HW1 9488   5.162   1.138   6.601
 2863SOL    HW2 9489   5.193   0.983   6.643
 2864SOL     OW 9490   4.657   1.796   1.667
 2864SOL    HW1 9491   4.580   1.805   1.730
 2864SOL    HW2 9492   4.635   1.729   1.596
 2865SOL     OW 9493   3.781   4.329   6.704
 2865SOL    HW1 9494   3.741   4.371   6.621
 2865SOL    HW2 9495   3.764   4.389   6.782
 2866SOL     OW 9496   6.649   5.607   0.476
 2866SOL    HW1 9497   6.648   5.553   0.560
 2866SOL    HW2 9498   6.732   5.587   0.424
 2867SOL     OW 9499   6.103   5.261   3.048
 2867SOL    HW1 9500   6.165   5.213   2.986
 2867SOL    HW2 9501   6.135   5.354   3.063
 2868SOL     OW 9502   0.803   1.834   5.541
 2868SOL    HW1 9503   0.836   1.757   5.487
 2868SOL    HW2 9504   0.850   1.837   5.629
 2869SOL     OW 9505   6.857   1.313   3.332
 2869SOL    HW1 9506   6.859   1.413   3.337
 2869SOL    HW2 9507   6.775   1.284   3.281
 2870SOL     OW 9508   0.455   1.484   4.814
 2870SOL    HW1 9509   0.459   1.531   4.902
 2870SOL    HW2 9510   0.470   1.386   4.827
 2871SOL     OW 9511   0.291   1.870   6.777
 2871SOL    HW1 9512   0.296   1.895   6.874
 2871SOL    HW2 9513   0.325   1.945   6.721
 2872SOL     OW 9514   2.643   1.776   2.643
 2872SOL    HW1 9515   2.727   1.727   2.618
 2872SOL    HW2 9516   2.652   1.872   2.616
 2873SOL     OW 9517   6.934   5.481   2.910
 2873SOL    HW1 9518   6.892   5.567   2.938
 2873SOL    HW2 9519   6.995   5.449   2.983
 2874SOL     OW 9520   4.072   6.791   3.186
 2874SOL    HW1 9521   4.149   6.756   3.240
 2874SOL    HW2 9522   4.013   6.846   3.245
 2875SOL     OW 9523   4.261   6.967   0.645
 2875SOL    HW1 9524   4.256   7.011   0.734
 2875SOL    HW2 9525   4.228   0.008   0.575
 2876SOL     OW 9526   1.414   0.138   1.362
 2876SOL    HW1 9527   1.506   0.155   1.328
 2876SOL    HW2 9528   1.360   0.222   1.353
 2877SOL     OW 9529   3.250   2.620   5.286
 2877SOL    HW1 9530   3.231   2.536   5.234
 2877SOL    HW2 9531   3.318   2.600   5.356
 2878SOL     OW 9532   4.346   5.196   4.723
 2878SOL    HW1 9533   4.377   5.113   4.769
 2878SOL    HW2 9534   4.374   5.192   4.627
 2879SOL     OW 9535   5.440   5.229   0.572
 2879SOL    HW1 9536   5.508   5.155   0.576
 2879SOL    HW2 9537   5.448   5.286   0.654
 2880SOL     OW 9538   6.877   0.562   1.882
 2880SOL    HW1 9539   6.950   0.531   1.943
 2880SOL    HW2 9540   6.826   0.483   1.848
 2881SOL     OW 9541   5.162   6.060   0.087
 2881SOL    HW1 9542   5.077   6.007   0.077
 2881SOL    HW2 9543   5.227   6.031   0.017
 2882SOL     OW 9544   0.595   4.833   2.807
 2882SOL    HW1 9545   0.500   4.832   2.838
 2882SOL    HW2 9546   0.625   4.739   2.792
 2883SOL     OW 9547   5.724   0.059   3.383
 2883SOL    HW1 9548   5.735   0.068   3.482
 2883SOL    HW2 9549   5.729   0.149   3.341
 2884SOL     OW 9550   0.727   0.086   2.755
 2884SOL    HW1 9551   0.743   0.163   2.816
 2884SOL    HW2 9552   0.759   0.001   2.798
 2885SOL     OW 9553   0.754   3.564   2.876
 2885SOL    HW1 9554   0.831   3.627   2.888
 2885SOL    HW2 9555   0.760   3.523   2.785
 2886SOL     OW 9556   1.881   4.080   5.491
 2886SOL    HW1 9557   1.934   4.161   5.466
 2886SOL    HW2 9558   1.818   4.104   5.566
 2887SOL     OW 9559   0.331   0.663   4.878
 2887SOL    HW1 9560   0.324   0.682   4.780
 2887SOL    HW2 9561   0.382   0.738   4.922
 2888SOL     OW 9562   0.817   4.327   0.152
 2888SOL    HW1 9563   0.866   4.248   0.186
 2888SOL    HW2 9564   0.880   4.389   0.105
 2889SOL     OW 9565   2.004   6.822   2.214
 2889SOL    HW1 9566   1.971   6.824   2.308
 2889SOL    HW2 9567   1.927   6.831   2.151
 2890SOL     OW 9568   2.549   5.696   0.581
 2890SOL    HW1 9569   2.587   5.691   0.673
 2890SOL    HW2 9570   2.478   5.626   0.570
 2891SOL     OW 9571   0.752   4.198   3.990
 2891SOL    HW1 9572   0.843   4.217   4.026
 2891SOL    HW2 9573   0.706   4.284   3.966
 2892SOL     OW 9574   5.024   3.152   7.004
 2892SOL    HW1 9575   4.968   3.231   6.978
 2892SOL    HW2 9576   5.121   3.176   6.996
 2893SOL     OW 9577   0.531   5.995   4.816
 2893SOL    HW1 9578   0.575   5.905   4.819
 2893SOL    HW2 9579   0.461   6.000   4.887
 2894SOL     OW 9580   1.593   2.608   1.549
 2894SOL    HW1 9581   1.638   2.697   1.548
 2894SOL    HW2 9582   1.557   2.591   1.641
 2895SOL     OW 9583   4.531   2.200   6.036
 2895SOL    HW1 9584   4.557   2.165   6.126
 2895SOL    HW2 9585   4.456   2.145   5.999
 2896SOL     OW 9586   4.644   5.888   6.010
 2896SOL    HW1 9587   4.653   5.915   6.106
 2896SOL    HW2 9588   4.548   5.870   5.990
 2897SOL     OW 9589   3.820   5.132   2.960
 2897SOL    HW1 9590   3.881   5.140   3.039
 2897SOL    HW2 9591   3.867   5.082   2.887
 2898SOL     OW 9592   4.382   5.121   4.454
 2898SOL    HW1 9593   4.288   5.154   4.466
 2898SOL    HW2 9594   4.428   5.175   4.384
 2899SOL     OW 9595   1.022   1.516   0.497
 2899SOL    HW1 9596   0.962   1.481   0.425
 2899SOL    HW2 9597   1.042   1.613   0.480
 2900SOL     OW 9598   1.641   4.545   5.345
 2900SOL    HW1 9599   1.652   4.500   5.257
 2900SOL    HW2 9600   1.719   4.607   5.361
 2901SOL     OW 9601   2.978   5.685   3.708
 2901SOL    HW1 9602   2.951   5.667   3.613
 2901SOL    HW2 9603   3.076   5.665   3.719
 2902SOL     OW 9604   5.166   6.855   2.201
 2902SOL    HW1 9605   5.081   6.849   2.253
 2902SOL    HW2 9606   5.243   6.866   2.264
 2903SOL     OW 9607   3.261   0.752   0.533
 2903SOL    HW1 9608   3.269   0.829   0.596
 2903SOL    HW2 9609   3.321   0.766   0.455
 2904SOL     OW 9610   2.157   3.816   5.069
 2904SOL    HW1 9611   2.136   3.769   4.983
 2904SOL    HW2 9612   2.215   3.895   5.049
 2905SOL     OW 9613   1.657   2.580   4.291
 2905SOL    HW1 9614   1.624   2.508   4.351
 2905SOL    HW2 9615   1.747   2.554   4.255
 2906SOL     OW 9616   4.360   5.492   1.583
 2906SOL    HW1 9617   4.418   5.486   1.665
 2906SOL    HW2 9618   4.357   5.587   1.552
 2907SOL     OW 9619   0.450   1.692   3.434
 2907SOL    HW1 9620   0.511   1.617   3.411
 2907SOL    HW2 9621   0.414   1.679   3.527
 2908SOL     OW 9622   4.805   6.212   4.067
 2908SOL    HW1 9623   4.787   6.130   4.011
 2908SOL    HW2 9624   4.885   6.196   4.124
 2909SOL     OW 9625   1.819   6.033   3.244
 2909SOL    HW1 9626   1.762   6.081   3.310
 2909SOL    HW2 9627   1.769   5.953   3.209
 2910SOL     OW 9628   4.287   6.817   4.269
 2910SOL    HW1 9629   4.348   6.811   4.190
 2910SOL    HW2 9630   4.332   6.776   4.348
 2911SOL     OW 9631   0.951   5.677   3.428
 2911SOL    HW1 9632   0.993   5.655   3.340
 2911SOL    HW2 9633   1.021   5.678   3.499
 2912SOL     OW 9634   4.745   0.502   6.969
 2912SOL    HW1 9635   4.808   0.481   0.021
 2912SOL    HW2 9636   4.702   0.418   6.937
 2913SOL     OW 9637   2.806   4.754   3.084
 2913SOL    HW1 9638   2.731   4.694   3.057
 2913SOL    HW2 9639   2.815   4.828   3.018
 2914SOL     OW 9640   6.081   6.252   6.668
 2914SOL    HW1 9641   6.149   6.230   6.599
 2914SOL    HW2 9642   6.102   6.204   6.753
 2915SOL     OW 9643   5.561   1.689   4.210
 2915SOL    HW1 9644   5.471   1.652   4.188
 2915SOL    HW2 9645   5.557   1.789   4.207
 2916SOL     OW 9646   0.987   6.610   0.024
 2916SOL    HW1 9647   1.066   6.669   0.007
 2916SOL    HW2 9648   0.933   6.602   6.963
 2917SOL     OW 9649   2.478   0.041   3.085
 2917SOL    HW1 9650   2.420   7.015   3.151
 2917SOL    HW2 9651   2.435   0.039   2.995
 2918SOL     OW 9652   6.709   5.570   4.694
 2918SOL    HW1 9653   6.788   5.619   4.732
 2918SOL    HW2 9654   6.729   5.545   4.599
 2919SOL     OW 9655   6.760   1.237   1.369
 2919SOL    HW1 9656   6.845   1.282   1.396
 2919SOL    HW2 9657   6.687   1.262   1.432
 2920SOL     OW 9658   2.518   1.927   1.494
 2920SOL    HW1 9659   2.457   2.006   1.491
 2920SOL    HW2 9660   2.597   1.947   1.551
 2921SOL     OW 9661   0.972   0.288   3.580
 2921SOL    HW1 9662   0.959   0.267   3.483
 2921SOL    HW2 9663   1.057   0.246   3.612
 2922SOL     OW 9664   4.771   0.537   0.254
 2922SOL    HW1 9665   4.744   0.441   0.255
 2922SOL    HW2 9666   4.708   0.589   0.312
 2923SOL     OW 9667   6.580   5.462   1.737
 2923SOL    HW1 9668   6.674   5.491   1.716
 2923SOL    HW2 9669   6.547   5.401   1.665
 2924SOL     OW 9670   6.602   1.965   5.946
 2924SOL    HW1 9671   6.650   1.925   6.023
 2924SOL    HW2 9672   6.530   1.903   5.915
 2925SOL     OW 9673   4.378   0.682   2.400
 2925SOL    HW1 9674   4.289   0.659   2.361
 2925SOL    HW2 9675   4.367   0.701   2.498
 2926SOL     OW 9676   6.272   1.660   4.538
 2926SOL    HW1 9677   6.285   1.608   4.623
 2926SOL    HW2 9678   6.357   1.706   4.513
 2927SOL     OW 9679   0.639   2.591   1.838
 2927SOL    HW1 9680   0.580   2.511   1.847
 2927SOL    HW2 9681   0.708   2.591   1.910
 2928SOL     OW 9682   0.125   1.191   6.169
 2928SOL    HW1 9683   0.131   1.115   6.105
 2928SOL    HW2 9684   0.046   1.178   6.229
 2929SOL     OW 9685   0.209   2.216   6.753
 2929SOL    HW1 9686   0.289   2.156   6.743
 2929SOL    HW2 9687   0.219   2.296   6.694
 2930SOL     OW 9688   4.683   6.992   4.748
 2930SOL    HW1 9689   4.740   6.941   4.683
 2930SOL    HW2 9690   4.633   0.041   4.700
 2931SOL     OW 9691   5.647   5.099   0.346
 2931SOL    HW1 9692   5.593   5.035   0.290
 2931SOL    HW2 9693   5.702   5.047   0.411
 2932SOL     OW 9694   0.552   5.015   1.332
 2932SOL    HW1 9695   0.489   5.091   1.316
 2932SOL    HW2 9696   0.641   5.050   1.360
 2933SOL     OW 9697   6.355   4.644   3.520
 2933SOL    HW1 9698   6.395   4.634   3.611
 2933SOL    HW2 9699   6.303   4.563   3.496
 2934SOL     OW 9700   4.520   1.096   0.236
 2934SOL    HW1 9701   4.515   1.147   0.150
 2934SOL    HW2 9702   4.458   1.136   0.302
 2935SOL     OW 9703   5.997   2.694   0.345
 2935SOL    HW1 9704   6.072   2.637   0.311
 2935SOL    HW2 9705   6.024   2.738   0.431
 2936SOL     OW 9706   3.796   6.056   1.417
 2936SOL    HW1 9707   3.833   6.116   1.488
 2936SOL    HW2 9708   3.696   6.068   1.412
 2937SOL     OW 9709   4.818   4.597   0.455
 2937SOL    HW1 9710   4.755   4.525   0.484
 2937SOL    HW2 9711   4.793   4.683   0.500
 2938SOL     OW 9712   4.350   5.239   0.156
 2938SOL    HW1 9713   4.261   5.261   0.196
 2938SOL    HW2 9714   4.347   5.148   0.115
 2939SOL     OW 9715   1.384   0.874   3.621
 2939SOL    HW1 9716   1.457   0.847   3.559
 2939SOL    HW2 9717   1.403   0.839   3.712
 2940SOL     OW 9718   5.751   5.395   6.246
 2940SOL    HW1 9719   5.816   5.366   6.176
 2940SOL    HW2 9720   5.796   5.393   6.336
 2941SOL     OW 9721   1.813   3.228   4.599
 2941SOL    HW1 9722   1.845   3.134   4.610
 2941SOL    HW2 9723   1.784   3.243   4.505
 2942SOL     OW 9724   3.390   2.438   1.045
 2942SOL    HW1 9725   3.412   2.512   1.109
 2942SOL    HW2 9726   3.306   2.393   1.074
 2943SOL     OW 9727   4.566   4.877   2.736
 2943SOL    HW1 9728   4.479   4.829   2.729
 2943SOL    HW2 9729   4.641   4.811   2.734
 2944SOL     OW 9730   2.820   5.586   4.946
 2944SOL    HW1 9731   2.750   5.656   4.936
 2944SOL    HW2 9732   2.836   5.542   4.858
 2945SOL     OW 9733   3.617   4.183   4.088
 2945SOL    HW1 9734   3.551   4.186   4.163
 2945SOL    HW2 9735   3.706   4.150   4.122
 2946SOL     OW 9736   1.302   5.265   6.294
 2946SOL    HW1 9737   1.386   5.261   6.238
 2946SOL    HW2 9738   1.271   5.172   6.313
 2947SOL     OW 9739   0.702   3.253   0.936
 2947SOL    HW1 9740   0.701   3.218   0.842
 2947SOL    HW2 9741   0.795   3.246   0.973
 2948SOL     OW 9742   0.659   4.644   5.626
 2948SOL    HW1 9743   0.593   4.707   5.587
 2948SOL    HW2 9744   0.707   4.596   5.552
 2949SOL     OW 9745   2.960   4.958   0.899
 2949SOL    HW1 9746   2.941   5.003   0.811
 2949SOL    HW2 9747   2.880   4.904   0.927
 2950SOL     OW 9748   5.657   3.853   4.527
 2950SOL    HW1 9749   5.619   3.892   4.610
 2950SOL    HW2 9750   5.586   3.847   4.457
 2951SOL     OW 9751   5.995   1.442   1.063
 2951SOL    HW1 9752   5.943   1.495   1.131
 2951SOL    HW2 9753   6.023   1.502   0.988
 2952SOL     OW 9754   1.118   5.549   4.952
 2952SOL    HW1 9755   1.107   5.465   5.005
 2952SOL    HW2 9756   1.058   5.620   4.990
 2953SOL     OW 9757   5.126   3.355   3.031
 2953SOL    HW1 9758   5.065   3.281   3.057
 2953SOL    HW2 9759   5.189   3.374   3.107
 2954SOL     OW 9760   0.040   5.654   1.842
 2954SOL    HW1 9761   0.109   5.585   1.863
 2954SOL    HW2 9762   6.998   5.661   1.918
 2955SOL     OW 9763   1.213   3.921   1.307
 2955SOL    HW1 9764   1.289   3.960   1.255
 2955SOL    HW2 9765   1.131   3.919   1.250
 2956SOL     OW 9766   5.760   6.714   3.091
 2956SOL    HW1 9767   5.837   6.719   3.027
 2956SOL    HW2 9768   5.794   6.726   3.185
 2957SOL     OW 9769   6.004   3.190   1.932
 2957SOL    HW1 9770   6.083   3.147   1.974
 2957SOL    HW2 9771   5.973   3.135   1.855
 2958SOL     OW 9772   2.091   4.871   4.088
 2958SOL    HW1 9773   2.038   4.956   4.095
 2958SOL    HW2 9774   2.177   4.882   4.139
 2959SOL     OW 9775   4.691   4.317   0.603
 2959SOL    HW1 9776   4.625   4.242   0.610
 2959SOL    HW2 9777   4.737   4.329   0.691
 2960SOL     OW 9778   3.407   0.707   6.370
 2960SOL    HW1 9779   3.425   0.803   6.346
 2960SOL    HW2 9780   3.479   0.675   6.432
 2961SOL     OW 9781   4.859   3.266   3.266
 2961SOL    HW1 9782   4.838   3.363   3.253
 2961SOL    HW2 9783   4.847   3.218   3.179
 2962SOL     OW 9784   4.093   0.400   3.305
 2962SOL    HW1 9785   4.079   0.301   3.307
 2962SOL    HW2 9786   4.114   0.433   3.397
 2963SOL     OW 9787   1.881   0.130   6.506
 2963SOL    HW1 9788   1.935   0.051   6.536
 2963SOL    HW2 9789   1.791   0.129   6.551
 2964SOL     OW 9790   0.690   0.526   3.057
 2964SOL    HW1 9791   0.748   0.514   3.137
 2964SOL    HW2 9792   0.744   0.516   2.974
 2965SOL     OW 9793   6.582   1.538   4.770
 2965SOL    HW1 9794   6.610   1.634   4.774
 2965SOL    HW2 9795   6.483   1.532   4.781
 2966SOL     OW 9796   6.216   5.993   4.359
 2966SOL    HW1 9797   6.152   6.050   4.307
 2966SOL    HW2 9798   6.165   5.938   4.425
 2967SOL     OW 9799   5.847   0.882   4.479
 2967SOL    HW1 9800   5.944   0.894   4.500
 2967SOL    HW2 9801   5.837   0.806   4.415
 2968SOL     OW 9802   0.610   3.176   6.250
 2968SOL    HW1 9803   0.677   3.179   6.324
 2968SOL    HW2 9804   0.525   3.138   6.284
 2969SOL     OW 9805   5.471   1.178   4.271
 2969SOL    HW1 9806   5.483   1.148   4.366
 2969SOL    HW2 9807   5.530   1.258   4.254
 2970SOL     OW 9808   1.650   4.429   6.048
 2970SOL    HW1 9809   1.693   4.347   6.085
 2970SOL    HW2 9810   1.718   4.484   6.000
 2971SOL     OW 9811   4.950   4.078   6.752
 2971SOL    HW1 9812   4.973   4.167   6.792
 2971SOL    HW2 9813   4.924   4.014   6.824
 2972SOL     OW 9814   6.212   4.423   6.350
 2972SOL    HW1 9815   6.264   4.343   6.321
 2972SOL    HW2 9816   6.141   4.444   6.282
 2973SOL     OW 9817   5.411   0.741   2.896
 2973SOL    HW1 9818   5.482   0.812   2.895
 2973SOL    HW2 9819   5.452   0.653   2.872
 2974SOL     OW 9820   0.298   4.612   2.970
 2974SOL    HW1 9821   0.388   4.585   3.004
 2974SOL    HW2 9822   0.252   4.668   3.039
 2975SOL     OW 9823   6.218   2.960   5.151
 2975SOL    HW1 9824   6.298   2.921   5.105
 2975SOL    HW2 9825   6.135   2.940   5.099
 2976SOL     OW 9826   3.962   1.810   3.653
 2976SOL    HW1 9827   4.021   1.760   3.589
 2976SOL    HW2 9828   3.942   1.901   3.617
 2977SOL     OW 9829   2.631   6.707   3.602
 2977SOL    HW1 9830   2.541   6.689   3.562
 2977SOL    HW2 9831   2.694   6.633   3.578
 2978SOL     OW 9832   4.821   4.620   0.197
 2978SOL    HW1 9833   4.899   4.561   0.176
 2978SOL    HW2 9834   4.795   4.607   0.293
 2979SOL     OW 9835   4.741   1.356   4.561
 2979SOL    HW1 9836   4.749   1.258   4.544
 2979SOL    HW2 9837   4.823   1.388   4.609
 2980SOL     OW 9838   1.644   6.276   3.716
 2980SOL    HW1 9839   1.551   6.275   3.679
 2980SOL    HW2 9840   1.710   6.269   3.641
 2981SOL     OW 9841   2.264   0.868   6.149
 2981SOL    HW1 9842   2.294   0.811   6.226
 2981SOL    HW2 9843   2.340   0.922   6.115
 2982SOL     OW 9844   4.016   5.115   3.164
 2982SOL    HW1 9845   3.996   5.081   3.256
 2982SOL    HW2 9846   4.105   5.161   3.164
 2983SOL     OW 9847   0.894   1.546   3.347
 2983SOL    HW1 9848   0.884   1.484   3.424
 2983SOL    HW2 9849   0.921   1.494   3.265
 2984SOL     OW 9850   5.282   5.682   1.454
 2984SOL    HW1 9851   5.364   5.736   1.433
 2984SOL    HW2 9852   5.307   5.585   1.460
 2985SOL     OW 9853   1.087   3.105   5.828
 2985SOL    HW1 9854   0.991   3.079   5.817
 2985SOL    HW2 9855   1.109   3.181   5.766
 2986SOL     OW 9856   3.079   4.007   5.125
 2986SOL    HW1 9857   3.018   4.027   5.048
 2986SOL    HW2 9858   3.158   4.068   5.120
 2987SOL     OW 9859   6.315   0.944   4.898
 2987SOL    HW1 9860   6.257   1.013   4.856
 2987SOL    HW2 9861   6.408   0.981   4.909
 2988SOL     OW 9862   0.639   5.999   2.498
 2988SOL    HW1 9863   0.643   5.977   2.401
 2988SOL    HW2 9864   0.544   6.011   2.526
 2989SOL     OW 9865   6.735   6.205   6.777
 2989SOL    HW1 9866   6.783   6.245   6.699
 2989SOL    HW2 9867   6.708   6.111   6.755
 2990SOL     OW 9868   4.449   1.922   4.349
 2990SOL    HW1 9869   4.518   1.880   4.408
 2990SOL    HW2 9870   4.434   2.016   4.377
 2991SOL     OW 9871   6.290   4.447   5.700
 2991SOL    HW1 9872   6.294   4.508   5.779
 2991SOL    HW2 9873   6.205   4.463   5.650
 2992SOL     OW 9874   2.788   5.588   5.202
 2992SOL    HW1 9875   2.814   5.589   5.105
 2992SOL    HW2 9876   2.689   5.588   5.210
 2993SOL     OW 9877   0.687   5.511   0.949
 2993SOL    HW1 9878   0.739   5.499   1.034
 2993SOL    HW2 9879   0.640   5.426   0.926
 2994SOL     OW 9880   3.918   6.887   6.818
 2994SOL    HW1 9881   3.851   6.887   6.892
 2994SOL    HW2 9882   3.871   6.876   6.730
 2995SOL     OW 9883   3.107   2.699   6.635
 2995SOL    HW1 9884   3.169   2.761   6.684
 2995SOL    HW2 9885   3.083   2.740   6.547
 2996SOL     OW 9886   2.458   0.378   3.526
 2996SOL    HW1 9887   2.513   0.395   3.445
 2996SOL    HW2 9888   2.490   0.294   3.571
 2997SOL     OW 9889   5.396   1.034   2.587
 2997SOL    HW1 9890   5.317   1.041   2.525
 2997SOL    HW2 9891   5.410   1.121   2.633
 2998SOL     OW 9892   4.192   0.452   4.138
 2998SOL    HW1 9893   4.170   0.549   4.146
 2998SOL    HW2 9894   4.270   0.430   4.197
 2999SOL     OW 9895   2.991   5.002   4.583
 2999SOL    HW1 9896   2.956   4.933   4.646
 2999SOL    HW2 9897   2.926   5.078   4.577
 3000SOL     OW 9898   2.379   3.515   0.187
 3000SOL    HW1 9899   2.450   3.571   0.231
 3000SOL    HW2 9900   2.412   3.484   0.098
 3001SOL     OW 9901   5.404   6.420   6.119
 3001SOL    HW1 9902   5.412   6.418   6.019
 3001SOL    HW2 9903   5.437   6.333   6.157
 3002SOL     OW 9904   3.521   0.660   6.611
 3002SOL    HW1 9905   3.545   0.564   6.620
 3002SOL    HW2 9906   3.579   0.715   6.671
 3003SOL     OW 9907   2.099   6.535   0.246
 3003SOL    HW1 9908   2.043   6.496   0.173
 3003SOL    HW2 9909   2.181   6.576   0.206
 3004SOL     OW 9910   1.275   4.161   3.567
 3004SOL    HW1 9911   1.363   4.152   3.614
 3004SOL    HW2 9912   1.212   4.212   3.625
 3005SOL     OW 9913   3.752   2.315   0.074
 3005SOL    HW1 9914   3.714   2.407   0.087
 3005SOL    HW2 9915   3.798   2.310   7.008
 3006SOL     OW 9916   5.311   2.154   5.953
 3006SOL    HW1 9917   5.276   2.063   5.975
 3006SOL    HW2 9918   5.405   2.146   5.920
 3007SOL     OW 9919   5.906   5.257   1.109
 3007SOL    HW1 9920   5.841   5.328   1.082
 3007SOL    HW2 9921   5.986   5.262   1.049
 3008SOL     OW 9922   3.574   1.735   6.792
 3008SOL    HW1 9923   3.518   1.668   6.743
 3008SOL    HW2 9924   3.513   1.803   6.834
 3009SOL     OW 9925   0.645   0.796   2.738
 3009SOL    HW1 9926   0.730   0.835   2.704
 3009SOL    HW2 9927   0.579   0.869   2.754
 3010SOL     OW 9928   3.213   5.838   2.823
 3010SOL    HW1 9929   3.116   5.858   2.834
 3010SOL    HW2 9930   3.260   5.921   2.793
 3011SOL     OW 9931   5.394   1.328   1.193
 3011SOL    HW1 9932   5.417   1.267   1.118
 3011SOL    HW2 9933   5.472   1.337   1.254
 3012SOL     OW 9934   1.021   3.709   5.593
 3012SOL    HW1 9935   0.952   3.668   5.652
 3012SOL    HW2 9936   0.998   3.805   5.577
 3013SOL     OW 9937   5.494   5.724   5.429
 3013SOL    HW1 9938   5.425   5.654   5.412
 3013SOL    HW2 9939   5.451   5.802   5.474
 3014SOL     OW 9940   5.106   2.328   4.852
 3014SOL    HW1 9941   5.192   2.322   4.800
 3014SOL    HW2 9942   5.126   2.353   4.946
 3015SOL     OW 9943   3.475   2.210   0.252
 3015SOL    HW1 9944   3.551   2.154   0.286
 3015SOL    HW2 9945   3.413   2.153   0.198
 3016SOL     OW 9946   3.068   6.321   4.008
 3016SOL    HW1 9947   3.138   6.355   4.071
 3016SOL    HW2 9948   3.060   6.384   3.930
 3017SOL     OW 9949   6.652   5.137   1.890
 3017SOL    HW1 9950   6.661   5.045   1.852
 3017SOL    HW2 9951   6.651   5.204   1.815
 3018SOL     OW 9952   3.198   6.129   5.875
 3018SOL    HW1 9953   3.172   6.033   5.886
 3018SOL    HW2 9954   3.115   6.185   5.867
 3019SOL     OW 9955   0.745   0.199   6.872
 3019SOL    HW1 9956   0.679   0.164   6.805
 3019SOL    HW2 9957   0.742   0.299   6.872
 3020SOL     OW 9958   3.951   3.093   1.797
 3020SOL    HW1 9959   3.902   3.006   1.810
 3020SOL    HW2 9960   4.034   3.077   1.744
 3021SOL     OW 9961   3.237   6.939   0.040
 3021SOL    HW1 9962   3.165   6.984   0.093
 3021SOL    HW2 9963   3.211   6.935   6.966
 3022SOL     OW 9964   3.999   5.230   4.109
 3022SOL    HW1 9965   4.027   5.224   4.014
 3022SOL    HW2 9966   3.979   5.138   4.143
 3023SOL     OW 9967   4.133   0.150   2.707
 3023SOL    HW1 9968   4.042   0.110   2.691
 3023SOL    HW2 9969   4.131   0.202   2.793
 3024SOL     OW 9970   3.945   6.478   5.303
 3024SOL    HW1 9971   3.852   6.459   5.270
 3024SOL    HW2 9972   3.963   6.421   5.383
 3025SOL     OW 9973   3.258   1.201   0.688
 3025SOL    HW1 9974   3.170   1.224   0.730
 3025SOL    HW2 9975   3.309   1.285   0.670
 3026SOL     OW 9976   1.022   0.836   0.603
 3026SOL    HW1 9977   0.987   0.743   0.589
 3026SOL    HW2 9978   1.081   0.838   0.684
 3027SOL     OW 9979   3.694   0.565   3.055
 3027SOL    HW1 9980   3.722   0.556   2.959
 3027SOL    HW2 9981   3.740   0.496   3.110
 3028SOL     OW 9982   1.173   4.496   5.381
 3028SOL    HW1 9983   1.125   4.430   5.323
 3028SOL    HW2 9984   1.132   4.496   5.472
 3029SOL     OW 9985   0.313   2.515   4.564
 3029SOL    HW1 9986   0.324   2.419   4.539
 3029SOL    HW2 9987   0.391   2.545   4.619
 3030SOL     OW 9988   0.655   3.078   5.960
 3030SOL    HW1 9989   0.559   3.089   5.936
 3030SOL    HW2 9990   0.665   3.082   6.060
 3031SOL     OW 9991   0.695   3.306   0.395
 3031SOL    HW1 9992   0.733   3.383   0.446
 3031SOL    HW2 9993   0.729   3.309   0.301
 3032SOL     OW 9994   3.374   6.857   1.230
 3032SOL    HW1 9995   3.330   6.929   1.283
 3032SOL    HW2 9996   3.304   6.797   1.191
 3033SOL     OW 9997   6.519   2.189   1.815
 3033SOL    HW1 9998   6.523   2.093   1.843
 3033SOL    HW2 9999   6.568   2.245   1.882
 3034SOL     OW10000   1.464   5.574   2.984
 3034SOL    HW110001   1.480   5.636   3.060
 3034SOL    HW210002   1.367   5.551   2.979
 3035SOL     OW10003   0.065   3.179   6.848
 3035SOL    HW110004   0.011   3.116   6.792
 3035SOL    HW210005   0.123   3.126   6.911
 3036SOL     OW10006   1.653   2.058   6.246
 3036SOL    HW110007   1.563   2.018   6.231
 3036SOL    HW210008   1.718   1.986   6.270
 3037SOL     OW10009   6.679   5.880   5.341
 3037SOL    HW110010   6.582   5.859   5.347
 3037SOL    HW210011   6.726   5.846   5.423
 3038SOL     OW10012   5.892   6.352   6.317
 3038SOL    HW110013   5.991   6.349   6.309
 3038SOL    HW210014   5.865   6.318   6.407
 3039SOL     OW10015   0.000   3.926   1.251
 3039SOL    HW110016   7.021   3.997   1.181
 3039SOL    HW210017   6.988   3.964   1.337
 3040SOL     OW10018   3.858   3.562   6.253
 3040SOL    HW110019   3.929   3.628   6.279
 3040SOL    HW210020   3.867   3.479   6.308
 3041SOL     OW10021   2.167   2.825   4.108
 3041SOL    HW110022   2.179   2.920   4.136
 3041SOL    HW210023   2.191   2.815   4.012
 3042SOL     OW10024   4.347   6.377   2.006
 3042SOL    HW110025   4.299   6.293   2.034
 3042SOL    HW210026   4.313   6.406   1.916
 3043SOL     OW10027   1.510   5.616   1.596
 3043SOL    HW110028   1.587   5.650   1.650
 3043SOL    HW210029   1.530   5.523   1.564
 3044SOL     OW10030   3.400   3.645   6.000
 3044SOL    HW110031   3.374   3.649   5.904
 3044SOL    HW210032   3.496   3.618   6.008
 3045SOL     OW10033   4.420   0.615   2.905
 3045SOL    HW110034   4.414   0.700   2.958
 3045SOL    HW210035   4.516   0.597   2.883
 3046SOL     OW10036   2.063   1.041   6.109
 3046SOL    HW110037   2.125   0.967   6.137
 3046SOL    HW210038   1.974   1.003   6.086
 3047SOL     OW10039   5.902   0.306   2.387
 3047SOL    HW110040   5.880   0.253   2.306
 3047SOL    HW210041   5.987   0.272   2.427
 3048SOL     OW10042   3.870   2.440   1.690
 3048SOL    HW110043   3.802   2.399   1.750
 3048SOL    HW210044   3.894   2.531   1.723
 3049SOL     OW10045   0.566   6.971   1.953
 3049SOL    HW110046   0.589   0.045   1.938
 3049SOL    HW210047   0.550   6.955   2.050
 3050SOL     OW10048   2.988   1.353   2.253
 3050SOL    HW110049   3.045   1.422   2.298
 3050SOL    HW210050   3.029   1.263   2.263
 3051SOL     OW10051   2.200   4.259   6.899
 3051SOL    HW110052   2.121   4.271   6.959
 3051SOL    HW210053   2.174   4.280   6.805
 3052SOL     OW10054   5.690   6.873   1.872
 3052SOL    HW110055   5.657   6.959   1.833
 3052SOL    HW210056   5.760   6.891   1.941
 3053SOL     OW10057   6.681   1.641   6.692
 3053SOL    HW110058   6.780   1.642   6.697
 3053SOL    HW210059   6.642   1.658   6.783
 3054SOL     OW10060   6.580   1.906   0.441
 3054SOL    HW110061   6.533   1.874   0.359
 3054SOL    HW210062   6.560   1.844   0.517
 3055SOL     OW10063   5.544   0.040   3.822
 3055SOL    HW110064   5.456   0.008   3.855
 3055SOL    HW210065   5.599   0.072   3.899
 3056SOL     OW10066   5.908   0.707   4.933
 3056SOL    HW110067   5.967   0.771   4.982
 3056SOL    HW210068   5.953   0.618   4.927
 3057SOL     OW10069   3.815   6.187   2.971
 3057SOL    HW110070   3.841   6.240   2.891
 3057SOL    HW210071   3.824   6.244   3.053
 3058SOL     OW10072   7.018   5.712   0.924
 3058SOL    HW110073   7.000   5.642   0.855
 3058SOL    HW210074   6.993   5.801   0.887
 3059SOL     OW10075   2.571   2.452   4.596
 3059SOL    HW110076   2.661   2.454   4.639
 3059SOL    HW210077   2.503   2.489   4.659
 3060SOL     OW10078   0.510   5.318   0.474
 3060SOL    HW110079   0.481   5.320   0.378
 3060SOL    HW210080   0.529   5.224   0.501
 3061SOL     OW10081   6.665   6.871   5.376
 3061SOL    HW110082   6.746   6.835   5.330
 3061SOL    HW210083   6.692   6.943   5.440
 3062SOL     OW10084   1.728   0.133   6.895
 3062SOL    HW110085   1.819   0.169   6.873
 3062SOL    HW210086   1.732   0.034   6.902
 3063SOL     OW10087   2.730   5.803   1.581
 3063SOL    HW110088   2.797   5.779   1.651
 3063SOL    HW210089   2.749   5.751   1.498
 3064SOL     OW10090   5.460   4.449   3.183
 3064SOL    HW110091   5.380   4.501   3.212
 3064SOL    HW210092   5.535   4.511   3.162
 3065SOL     OW10093   2.355   0.657   0.436
 3065SOL    HW110094   2.424   0.715   0.479
 3065SOL    HW210095   2.281   0.714   0.401
 3066SOL     OW10096   5.620   4.861   1.061
 3066SOL    HW110097   5.643   4.828   0.969
 3066SOL    HW210098   5.696   4.915   1.096
 3067SOL     OW10099   3.777   1.867   5.555
 3067SOL    HW110100   3.771   1.884   5.654
 3067SOL    HW210101   3.685   1.857   5.518
 3068SOL     OW10102   6.437   6.743   1.989
 3068SOL    HW110103   6.462   6.653   2.026
 3068SOL    HW210104   6.349   6.737   1.942
 3069SOL     OW10105   6.782   6.284   1.775
 3069SOL    HW110106   6.755   6.321   1.686
 3069SOL    HW210107   6.867   6.326   1.805
 3070SOL     OW10108   1.857   1.318   1.017
 3070SOL    HW110109   1.935   1.323   1.079
 3070SOL    HW210110   1.866   1.387   0.945
 3071SOL     OW10111   6.524   6.249   2.718
 3071SOL    HW110112   6.526   6.342   2.756
 3071SOL    HW210113   6.564   6.186   2.785
 3072SOL     OW10114   2.184   6.681   7.007
 3072SOL    HW110115   2.190   6.590   6.965
 3072SOL    HW210116   2.141   6.745   6.943
 3073SOL     OW10117   6.009   2.831   4.513
 3073SOL    HW110118   6.073   2.803   4.584
 3073SOL    HW210119   6.015   2.768   4.436
 3074SOL     OW10120   6.211   3.615   0.990
 3074SOL    HW110121   6.141   3.611   0.919
 3074SOL    HW210122   6.222   3.525   1.031
 3075SOL     OW10123   2.504   5.983   1.758
 3075SOL    HW110124   2.494   5.935   1.671
 3075SOL    HW210125   2.601   5.992   1.780
 3076SOL     OW10126   6.668   0.113   4.842
 3076SOL    HW110127   6.654   0.038   4.908
 3076SOL    HW210128   6.766   0.126   4.829
 3077SOL     OW10129   4.856   6.296   2.113
 3077SOL    HW110130   4.926   6.224   2.106
 3077SOL    HW210131   4.789   6.271   2.182
 3078SOL     OW10132   0.683   3.038   2.251
 3078SOL    HW110133   0.779   3.012   2.247
 3078SOL    HW210134   0.657   3.054   2.346
 3079SOL     OW10135   2.607   2.182   3.612
 3079SOL    HW110136   2.521   2.185   3.561
 3079SOL    HW210137   2.591   2.141   3.701
 3080SOL     OW10138   4.829   3.859   3.504
 3080SOL    HW110139   4.851   3.916   3.425
 3080SOL    HW210140   4.760   3.904   3.560
 3081SOL     OW10141   0.384   2.393   5.538
 3081SOL    HW110142   0.463   2.443   5.501
 3081SOL    HW210143   0.363   2.428   5.629
 3082SOL     OW10144   2.819   6.710   4.195
 3082SOL    HW110145   2.885   6.725   4.269
 3082SOL    HW210146   2.822   6.614   4.167
 3083SOL     OW10147   4.259   6.139   3.750
 3083SOL    HW110148   4.247   6.224   3.699
 3083SOL    HW210149   4.352   6.105   3.737
 3084SOL     OW10150   5.806   3.988   4.885
 3084SOL    HW110151   5.764   3.909   4.842
 3084SOL    HW210152   5.874   3.958   4.952
 3085SOL     OW10153   6.580   4.521   1.211
 3085SOL    HW110154   6.560   4.607   1.257
 3085SOL    HW210155   6.548   4.445   1.267
 3086SOL     OW10156   4.401   1.578   1.690
 3086SOL    HW110157   4.387   1.676   1.696
 3086SOL    HW210158   4.368   1.534   1.774
 3087SOL     OW10159   0.074   5.583   3.667
 3087SOL    HW110160   0.136   5.506   3.683
 3087SOL    HW210161   0.070   5.641   3.749
 3088SOL     OW10162   1.785   4.540   4.993
 3088SOL    HW110163   1.795   4.569   4.898
 3088SOL    HW210164   1.873   4.506   5.027
 3089SOL     OW10165   1.486   3.418   6.929
 3089SOL    HW110166   1.408   3.355   6.931
 3089SOL    HW210167   1.548   3.392   6.855
 3090SOL     OW10168   1.817   2.338   1.868
 3090SOL    HW110169   1.765   2.380   1.943
 3090SOL    HW210170   1.861   2.254   1.902
 3091SOL     OW10171   1.708   1.129   1.285
 3091SOL    HW110172   1.648   1.203   1.315
 3091SOL    HW210173   1.733   1.142   1.189
 3092SOL     OW10174   4.271   0.401   0.754
 3092SOL    HW110175   4.338   0.430   0.685
 3092SOL    HW210176   4.320   0.365   0.834
 3093SOL     OW10177   5.315   6.316   5.391
 3093SOL    HW110178   5.333   6.342   5.296
 3093SOL    HW210179   5.394   6.268   5.428
 3094SOL     OW10180   2.832   6.779   4.550
 3094SOL    HW110181   2.886   6.700   4.521
 3094SOL    HW210182   2.747   6.748   4.593
 3095SOL     OW10183   2.160   5.484   5.637
 3095SOL    HW110184   2.214   5.408   5.602
 3095SOL    HW210185   2.066   5.454   5.653
 3096SOL     OW10186   1.855   6.138   5.071
 3096SOL    HW110187   1.763   6.121   5.106
 3096SOL    HW210188   1.850   6.200   4.993
 3097SOL     OW10189   5.915   2.368   0.560
 3097SOL    HW110190   5.861   2.435   0.508
 3097SOL    HW210191   6.002   2.352   0.513
 3098SOL     OW10192   3.172   3.176   0.841
 3098SOL    HW110193   3.158   3.212   0.933
 3098SOL    HW210194   3.182   3.077   0.845
 3099SOL     OW10195   0.430   6.549   3.031
 3099SOL    HW110196   0.528   6.559   3.018
 3099SOL    HW210197   0.395   6.628   3.081
 3100SOL     OW10198   6.821   6.663   4.896
 3100SOL    HW110199   6.726   6.693   4.904
 3100SOL    HW210200   6.824   6.566   4.871
 3101SOL     OW10201   5.224   6.978   6.120
 3101SOL    HW110202   5.190   7.017   6.034
 3101SOL    HW210203   5.146   6.946   6.174
 3102SOL     OW10204   0.304   5.035   2.189
 3102SOL    HW110205   0.372   5.092   2.233
 3102SOL    HW210206   0.344   4.991   2.108
 3103SOL     OW10207   3.744   0.365   2.189
 3103SOL    HW110208   3.813   0.313   2.239
 3103SOL    HW210209   3.775   0.460   2.179
 3104SOL     OW10210   5.184   6.785   5.269
 3104SOL    HW110211   5.203   6.737   5.183
 3104SOL    HW210212   5.176   6.883   5.251
 3105SOL     OW10213   6.043   4.445   2.209
 3105SOL    HW110214   6.087   4.366   2.250
 3105SOL    HW210215   5.957   4.465   2.258
 3106SOL     OW10216   6.620   2.004   3.211
 3106SOL    HW110217   6.637   2.015   3.309
 3106SOL    HW210218   6.583   2.090   3.174
 3107SOL     OW10219   4.390   1.082   4.872
 3107SOL    HW110220   4.378   1.166   4.820
 3107SOL    HW210221   4.433   1.012   4.814
 3108SOL     OW10222   1.177   6.782   4.060
 3108SOL    HW110223   1.099   6.770   4.121
 3108SOL    HW210224   1.247   6.713   4.081
 3109SOL     OW10225   5.771   6.368   2.881
 3109SOL    HW110226   5.756   6.290   2.941
 3109SOL    HW210227   5.684   6.400   2.844
 3110SOL     OW10228   1.576   2.084   3.121
 3110SOL    HW110229   1.592   2.026   3.041
 3110SOL    HW210230   1.497   2.143   3.103
 3111SOL     OW10231   6.311   6.060   3.894
 3111SOL    HW110232   6.215   6.081   3.877
 3111SOL    HW210233   6.321   6.017   3.984
 3112SOL     OW10234   4.679   2.558   6.374
 3112SOL    HW110235   4.623   2.496   6.319
 3112SOL    HW210236   4.767   2.516   6.395
 3113SOL     OW10237   2.148   5.978   3.565
 3113SOL    HW110238   2.133   5.930   3.479
 3113SOL    HW210239   2.191   5.916   3.631
 3114SOL     OW10240   4.357   2.045   0.955
 3114SOL    HW110241   4.315   1.962   0.918
 3114SOL    HW210242   4.454   2.029   0.971
 3115SOL     OW10243   4.218   3.280   6.038
 3115SOL    HW110244   4.174   3.341   5.971
 3115SOL    HW210245   4.316   3.280   6.023
 3116SOL     OW10246   0.354   3.096   0.200
 3116SOL    HW110247   0.404   3.027   0.252
 3116SOL    HW210248   0.327   3.058   0.111
 3117SOL     OW10249   4.346   3.517   5.274
 3117SOL    HW110250   4.443   3.536   5.257
 3117SOL    HW210251   4.332   3.418   5.279
 3118SOL     OW10252   0.389   4.920   1.915
 3118SOL    HW110253   0.367   4.822   1.921
 3118SOL    HW210254   0.387   4.949   1.820
 3119SOL     OW10255   1.854   3.433   5.528
 3119SOL    HW110256   1.876   3.485   5.611
 3119SOL    HW210257   1.916   3.354   5.522
 3120SOL     OW10258   3.435   6.778   4.898
 3120SOL    HW110259   3.352   6.806   4.946
 3120SOL    HW210260   3.412   6.707   4.832
 3121SOL     OW10261   6.680   1.314   3.585
 3121SOL    HW110262   6.723   1.382   3.644
 3121SOL    HW210263   6.750   1.260   3.540
 3122SOL     OW10264   3.486   6.713   6.146
 3122SOL    HW110265   3.389   6.719   6.170
 3122SOL    HW210266   3.498   6.647   6.072
 3123SOL     OW10267   4.227   1.533   3.830
 3123SOL    HW110268   4.293   1.512   3.902
 3123SOL    HW210269   4.248   1.624   3.792
 3124SOL     OW10270   4.016   0.398   4.365
 3124SOL    HW110271   4.080   0.410   4.290
 3124SOL    HW210272   4.044   0.320   4.421
 3125SOL     OW10273   6.474   2.167   5.323
 3125SOL    HW110274   6.429   2.253   5.303
 3125SOL    HW210275   6.464   2.105   5.245
 3126SOL     OW10276   4.411   4.900   6.165
 3126SOL    HW110277   4.366   4.982   6.128
 3126SOL    HW210278   4.459   4.924   6.250
 3127SOL     OW10279   0.962   3.469   3.960
 3127SOL    HW110280   0.928   3.538   3.896
 3127SOL    HW210281   0.905   3.387   3.955
 3128SOL     OW10282   2.434   0.549   6.677
 3128SOL    HW110283   2.522   0.504   6.685
 3128SOL    HW210284   2.423   0.615   6.751
 3129SOL     OW10285   0.423   3.770   6.808
 3129SOL    HW110286   0.357   3.696   6.792
 3129SOL    HW210287   0.376   3.849   6.847
 3130SOL     OW10288   1.962   4.214   1.210
 3130SOL    HW110289   2.010   4.274   1.275
 3130SOL    HW210290   1.952   4.123   1.250
 3131SOL     OW10291   0.079   2.688   1.027
 3131SOL    HW110292   0.018   2.763   1.003
 3131SOL    HW210293   0.171   2.723   1.041
 3132SOL     OW10294   4.378   5.927   5.984
 3132SOL    HW110295   4.294   5.956   6.030
 3132SOL    HW210296   4.385   5.827   5.990
 3133SOL     OW10297   3.689   2.079   3.892
 3133SOL    HW110298   3.631   2.055   3.970
 3133SOL    HW210299   3.634   2.076   3.808
 3134SOL     OW10300   5.036   4.652   0.945
 3134SOL    HW110301   5.071   4.565   0.911
 3134SOL    HW210302   5.014   4.644   1.042
 3135SOL     OW10303   5.548   0.487   5.803
 3135SOL    HW110304   5.636   0.517   5.838
 3135SOL    HW210305   5.475   0.518   5.865
 3136SOL     OW10306   5.710   0.493   0.769
 3136SOL    HW110307   5.623   0.452   0.795
 3136SOL    HW210308   5.716   0.586   0.806
 3137SOL     OW10309   6.133   0.804   3.233
 3137SOL    HW110310   6.041   0.838   3.212
 3137SOL    HW210311   6.190   0.880   3.265
 3138SOL     OW10312   6.417   3.675   3.978
 3138SOL    HW110313   6.342   3.711   4.033
 3138SOL    HW210314   6.499   3.730   3.993
 3139SOL     OW10315   5.048   6.682   0.245
 3139SOL    HW110316   5.061   6.654   0.150
 3139SOL    HW210317   5.121   6.744   0.272
 3140SOL     OW10318   5.895   6.919   6.723
 3140SOL    HW110319   5.993   6.934   6.735
 3140SOL    HW210320   5.880   6.840   6.665
 3141SOL     OW10321   0.090   6.085   6.221
 3141SOL    HW110322   0.181   6.068   6.259
 3141SOL    HW210323   0.092   6.169   6.167
 3142SOL     OW10324   3.715   0.030   1.556
 3142SOL    HW110325   3.740   7.004   1.472
 3142SOL    HW210326   3.683   6.987   1.625
 3143SOL     OW10327   6.929   1.432   6.662
 3143SOL    HW110328   7.015   1.381   6.670
 3143SOL    HW210329   6.875   1.394   6.586
 3144SOL     OW10330   4.345   4.221   1.375
 3144SOL    HW110331   4.266   4.207   1.434
 3144SOL    HW210332   4.427   4.230   1.431
 3145SOL     OW10333   2.114   5.877   1.428
 3145SOL    HW110334   2.087   5.815   1.355
 3145SOL    HW210335   2.048   5.952   1.433
 3146SOL     OW10336   1.459   6.783   2.985
 3146SOL    HW110337   1.412   6.818   2.904
 3146SOL    HW210338   1.504   6.858   3.033
 3147SOL     OW10339   3.172   4.978   0.599
 3147SOL    HW110340   3.250   4.941   0.550
 3147SOL    HW210341   3.185   4.964   0.698
 3148SOL     OW10342   5.158   5.887   4.631
 3148SOL    HW110343   5.170   5.963   4.695
 3148SOL    HW210344   5.234   5.822   4.641
 3149SOL     OW10345   2.648   1.409   6.305
 3149SOL    HW110346   2.669   1.319   6.344
 3149SOL    HW210347   2.561   1.442   6.342
 3150SOL     OW10348   6.724   6.182   3.994
 3150SOL    HW110349   6.693   6.193   4.088
 3150SOL    HW210350   6.720   6.270   3.947
 3151SOL     OW10351   4.421   1.551   6.086
 3151SOL    HW110352   4.510   1.579   6.120
 3151SOL    HW210353   4.432   1.500   6.000
 3152SOL     OW10354   1.856   6.097   0.087
 3152SOL    HW110355   1.777   6.131   0.036
 3152SOL    HW210356   1.826   6.064   0.176
 3153SOL     OW10357   6.537   4.726   1.956
 3153SOL    HW110358   6.550   4.709   2.053
 3153SOL    HW210359   6.610   4.679   1.904
 3154SOL     OW10360   6.376   0.977   6.695
 3154SOL    HW110361   6.322   1.006   6.615
 3154SOL    HW210362   6.317   0.967   6.774
 3155SOL     OW10363   6.478   4.339   1.357
 3155SOL    HW110364   6.378   4.331   1.352
 3155SOL    HW210365   6.504   4.362   1.451
 3156SOL     OW10366   3.467   3.363   3.478
 3156SOL    HW110367   3.483   3.396   3.571
 3156SOL    HW210368   3.507   3.272   3.467
 3157SOL     OW10369   2.158   3.007   4.698
 3157SOL    HW110370   2.166   3.043   4.790
 3157SOL    HW210371   2.240   2.954   4.675
 3158SOL     OW10372   4.602   0.420   3.152
 3158SOL    HW110373   4.678   0.402   3.214
 3158SOL    HW210374   4.635   0.473   3.073
 3159SOL     OW10375   5.184   1.155   0.049
 3159SOL    HW110376   5.085   1.163   0.057
 3159SOL    HW210377   5.221   1.114   0.132
 3160SOL     OW10378   0.137   5.774   5.196
 3160SOL    HW110379   0.192   5.831   5.257
 3160SOL    HW210380   0.115   5.688   5.241
 3161SOL     OW10381   1.612   1.819   3.399
 3161SOL    HW110382   1.529   1.767   3.379
 3161SOL    HW210383   1.690   1.776   3.354
 3162SOL     OW10384   1.226   6.303   1.914
 3162SOL    HW110385   1.269   6.348   1.835
 3162SOL    HW210386   1.153   6.362   1.950
 3163SOL     OW10387   3.982   1.962   6.469
 3163SOL    HW110388   3.896   1.940   6.513
 3163SOL    HW210389   3.990   2.062   6.459
 3164SOL     OW10390   4.649   4.244   1.452
 3164SOL    HW110391   4.743   4.222   1.426
 3164SOL    HW210392   4.649   4.291   1.540
 3165SOL     OW10393   0.849   5.912   0.527
 3165SOL    HW110394   0.750   5.895   0.537
 3165SOL    HW210395   0.863   6.005   0.494
 3166SOL     OW10396   4.573   1.877   5.523
 3166SOL    HW110397   4.625   1.831   5.451
 3166SOL    HW210398   4.490   1.917   5.484
 3167SOL     OW10399   6.999   3.833   1.828
 3167SOL    HW110400   6.983   3.751   1.883
 3167SOL    HW210401   0.074   3.838   1.803
 3168SOL     OW10402   4.687   2.318   0.018
 3168SOL    HW110403   4.769   2.264   0.037
 3168SOL    HW210404   4.607   2.267   0.049
 3169SOL     OW10405   1.573   3.370   5.026
 3169SOL    HW110406   1.542   3.465   5.027
 3169SOL    HW210407   1.558   3.329   5.116
 3170SOL     OW10408   4.037   1.185   1.251
 3170SOL    HW110409   3.948   1.149   1.223
 3170SOL    HW210410   4.105   1.167   1.180
 3171SOL     OW10411   0.171   6.485   1.400
 3171SOL    HW110412   0.215   6.509   1.313
 3171SOL    HW210413   0.072   6.498   1.391
 3172SOL     OW10414   0.574   5.150   6.141
 3172SOL    HW110415   0.606   5.057   6.123
 3172SOL    HW210416   0.486   5.164   6.096
 3173SOL     OW10417   3.153   2.352   0.611
 3173SOL    HW110418   3.181   2.429   0.667
 3173SOL    HW210419   3.061   2.323   0.638
 3174SOL     OW10420   2.963   2.984   6.591
 3174SOL    HW110421   2.983   2.928   6.511
 3174SOL    HW210422   3.027   2.963   6.665
 3175SOL     OW10423   6.614   6.936   0.376
 3175SOL    HW110424   6.713   6.919   0.379
 3175SOL    HW210425   6.565   6.849   0.381
 3176SOL     OW10426   1.809   4.622   4.752
 3176SOL    HW110427   1.766   4.713   4.749
 3176SOL    HW210428   1.815   4.586   4.659
 3177SOL     OW10429   4.589   4.496   4.403
 3177SOL    HW110430   4.640   4.580   4.421
 3177SOL    HW210431   4.525   4.479   4.478
 3178SOL     OW10432   6.422   2.233   0.324
 3178SOL    HW110433   6.407   2.245   0.226
 3178SOL    HW210434   6.495   2.166   0.339
 3179SOL     OW10435   1.823   2.639   2.218
 3179SOL    HW110436   1.777   2.715   2.171
 3179SOL    HW210437   1.854   2.670   2.308
 3180SOL     OW10438   4.518   1.036   6.825
 3180SOL    HW110439   4.523   0.991   6.736
 3180SOL    HW210440   4.560   0.977   6.894
 3181SOL     OW10441   1.057   0.985   2.705
 3181SOL    HW110442   1.035   1.079   2.679
 3181SOL    HW210443   0.991   0.953   2.773
 3182SOL     OW10444   2.302   1.901   4.963
 3182SOL    HW110445   2.224   1.925   5.020
 3182SOL    HW210446   2.357   1.832   5.009
 3183SOL     OW10447   4.333   3.911   1.578
 3183SOL    HW110448   4.257   3.976   1.585
 3183SOL    HW210449   4.412   3.948   1.627
 3184SOL     OW10450   1.235   2.519   2.696
 3184SOL    HW110451   1.286   2.602   2.719
 3184SOL    HW210452   1.300   2.447   2.671
 3185SOL     OW10453   5.997   6.209   0.183
 3185SOL    HW110454   6.044   6.217   0.271
 3185SOL    HW210455   5.901   6.233   0.194
 3186SOL     OW10456   3.856   2.112   2.358
 3186SOL    HW110457   3.828   2.128   2.264
 3186SOL    HW210458   3.949   2.146   2.372
 3187SOL     OW10459   4.700   4.049   0.799
 3187SOL    HW110460   4.690   3.999   0.886
 3187SOL    HW210461   4.610   4.072   0.764
 3188SOL     OW10462   3.849   6.303   5.024
 3188SOL    HW110463   3.781   6.347   5.082
 3188SOL    HW210464   3.897   6.232   5.076
 3189SOL     OW10465   1.713   1.461   1.638
 3189SOL    HW110466   1.695   1.555   1.609
 3189SOL    HW210467   1.674   1.398   1.571
 3190SOL     OW10468   0.060   6.373   0.922
 3190SOL    HW110469   0.029   6.388   1.016
 3190SOL    HW210470   0.159   6.362   0.921
 3191SOL     OW10471   4.108   6.772   0.564
 3191SOL    HW110472   4.124   6.696   0.627
 3191SOL    HW210473   4.161   6.851   0.594
 3192SOL     OW10474   0.284   2.543   0.842
 3192SOL    HW110475   0.362   2.592   0.804
 3192SOL    HW210476   0.217   2.608   0.876
 3193SOL     OW10477   4.045   1.532   5.903
 3193SOL    HW110478   3.982   1.455   5.896
 3193SOL    HW210479   4.004   1.602   5.962
 3194SOL     OW10480   0.345   3.542   6.188
 3194SOL    HW110481   0.281   3.516   6.260
 3194SOL    HW210482   0.370   3.461   6.134
 3195SOL     OW10483   2.595   2.024   2.864
 3195SOL    HW110484   2.671   2.012   2.801
 3195SOL    HW210485   2.628   2.014   2.958
 3196SOL     OW10486   0.240   0.601   5.219
 3196SOL    HW110487   0.231   0.507   5.253
 3196SOL    HW210488   0.163   0.623   5.160
 3197SOL     OW10489   1.645   6.190   3.383
 3197SOL    HW110490   1.590   6.150   3.457
 3197SOL    HW210491   1.600   6.274   3.351
 3198SOL     OW10492   6.404   2.179   5.729
 3198SOL    HW110493   6.458   2.171   5.645
 3198SOL    HW210494   6.464   2.167   5.808
 3199SOL     OW10495   4.879   2.835   2.010
 3199SOL    HW110496   4.817   2.758   2.000
 3199SOL    HW210497   4.829   2.921   1.998
 3200SOL     OW10498   6.780   2.705   2.008
 3200SOL    HW110499   6.837   2.630   2.040
 3200SOL    HW210500   6.724   2.674   1.930
 3201SOL     OW10501   5.212   4.349   4.662
 3201SOL    HW110502   5.295   4.294   4.656
 3201SOL    HW210503   5.194   4.371   4.758
 3202SOL     OW10504   1.419   4.746   2.132
 3202SOL    HW110505   1.484   4.799   2.186
 3202SOL    HW210506   1.442   4.649   2.139
 3203SOL     OW10507   6.207   2.376   6.878
 3203SOL    HW110508   6.291   2.323   6.863
 3203SOL    HW210509   6.132   2.314   6.898
 3204SOL     OW10510   4.973   6.624   1.491
 3204SOL    HW110511   5.049   6.676   1.531
 3204SOL    HW210512   5.002   6.530   1.473
 3205SOL     OW10513   0.198   4.154   6.781
 3205SOL    HW110514   0.145   4.209   6.846
 3205SOL    HW210515   0.295   4.171   6.795
 3206SOL     OW10516   0.292   6.615   6.147
 3206SOL    HW110517   0.224   6.671   6.195
 3206SOL    HW210518   0.271   6.614   6.049
 3207SOL     OW10519   0.357   1.273   5.951
 3207SOL    HW110520   0.312   1.226   6.027
 3207SOL    HW210521   0.349   1.371   5.963
 3208SOL     OW10522   4.888   6.214   5.578
 3208SOL    HW110523   4.946   6.291   5.551
 3208SOL    HW210524   4.823   6.244   5.647
 3209SOL     OW10525   3.680   5.637   2.883
 3209SOL    HW110526   3.654   5.716   2.938
 3209SOL    HW210527   3.609   5.619   2.815
 3210SOL     OW10528   0.862   4.335   1.765
 3210SOL    HW110529   0.909   4.336   1.853
 3210SOL    HW210530   0.806   4.417   1.756
 3211SOL     OW10531   2.719   3.146   1.081
 3211SOL    HW110532   2.737   3.084   1.004
 3211SOL    HW210533   2.620   3.156   1.094
 3212SOL     OW10534   3.008   1.468   0.226
 3212SOL    HW110535   2.912   1.442   0.235
 3212SOL    HW210536   3.049   1.417   0.150
 3213SOL     OW10537   6.209   5.765   2.211
 3213SOL    HW110538   6.254   5.722   2.133
 3213SOL    HW210539   6.243   5.723   2.295
 3214SOL     OW10540   4.723   5.501   0.336
 3214SOL    HW110541   4.764   5.420   0.293
 3214SOL    HW210542   4.768   5.517   0.424
 3215SOL     OW10543   0.252   3.077   0.951
 3215SOL    HW110544   0.296   3.020   0.881
 3215SOL    HW210545   0.316   3.147   0.982
 3216SOL     OW10546   5.612   5.340   1.898
 3216SOL    HW110547   5.563   5.352   1.984
 3216SOL    HW210548   5.546   5.342   1.822
 3217SOL     OW10549   0.302   5.502   2.710
 3217SOL    HW110550   0.345   5.444   2.780
 3217SOL    HW210551   0.352   5.588   2.704
 3218SOL     OW10552   3.863   6.684   3.354
 3218SOL    HW110553   3.774   6.644   3.378
 3218SOL    HW210554   3.928   6.666   3.427
 3219SOL     OW10555   6.913   1.712   3.698
 3219SOL    HW110556   6.994   1.700   3.641
 3219SOL    HW210557   6.859   1.628   3.698
 3220SOL     OW10558   6.822   5.833   5.804
 3220SOL    HW110559   6.748   5.855   5.867
 3220SOL    HW210560   6.860   5.917   5.765
 3221SOL     OW10561   2.965   0.328   1.647
 3221SOL    HW110562   2.923   0.415   1.619
 3221SOL    HW210563   2.924   0.299   1.734
 3222SOL     OW10564   4.439   1.533   3.340
 3222SOL    HW110565   4.348   1.558   3.308
 3222SOL    HW210566   4.450   1.434   3.337
 3223SOL     OW10567   1.826   5.037   6.324
 3223SOL    HW110568   1.739   5.025   6.372
 3223SOL    HW210569   1.900   5.006   6.383
 3224SOL     OW10570   4.205   4.009   6.702
 3224SOL    HW110571   4.156   3.926   6.676
 3224SOL    HW210572   4.143   4.087   6.698
 3225SOL     OW10573   4.496   3.170   5.391
 3225SOL    HW110574   4.567   3.104   5.368
 3225SOL    HW210575   4.529   3.262   5.373
 3226SOL     OW10576   1.285   1.630   4.513
 3226SOL    HW110577   1.186   1.637   4.496
 3226SOL    HW210578   1.306   1.666   4.603
 3227SOL     OW10579   2.986   2.508   6.382
 3227SOL    HW110580   3.055   2.575   6.355
 3227SOL    HW210581   3.018   2.416   6.356
 3228SOL     OW10582   5.519   3.692   3.217
 3228SOL    HW110583   5.517   3.769   3.154
 3228SOL    HW210584   5.582   3.623   3.184
 3229SOL     OW10585   3.534   1.826   5.439
 3229SOL    HW110586   3.450   1.781   5.470
 3229SOL    HW210587   3.576   1.774   5.365
 3230SOL     OW10588   1.316   3.010   3.959
 3230SOL    HW110589   1.270   2.922   3.952
 3230SOL    HW210590   1.358   3.033   3.871
 3231SOL     OW10591   2.599   0.269   2.167
 3231SOL    HW110592   2.686   0.315   2.152
 3231SOL    HW210593   2.528   0.337   2.185
 3232SOL     OW10594   4.051   4.945   4.072
 3232SOL    HW110595   4.150   4.954   4.075
 3232SOL    HW210596   4.025   4.893   3.991
 3233SOL     OW10597   1.432   3.073   1.352
 3233SOL    HW110598   1.418   2.977   1.330
 3233SOL    HW210599   1.344   3.119   1.361
 3234SOL     OW10600   0.314   2.101   0.644
 3234SOL    HW110601   0.245   2.048   0.596
 3234SOL    HW210602   0.282   2.195   0.656
 3235SOL     OW10603   4.482   0.025   1.399
 3235SOL    HW110604   4.448   7.001   1.318
 3235SOL    HW210605   4.476   0.124   1.386
 3236SOL     OW10606   1.569   3.232   0.347
 3236SOL    HW110607   1.539   3.296   0.276
 3236SOL    HW210608   1.638   3.276   0.404
 3237SOL     OW10609   5.726   1.116   3.496
 3237SOL    HW110610   5.736   1.212   3.474
 3237SOL    HW210611   5.629   1.095   3.510
 3238SOL     OW10612   0.423   4.919   0.432
 3238SOL    HW110613   0.503   4.978   0.447
 3238SOL    HW210614   0.345   4.975   0.402
 3239SOL     OW10615   5.688   1.477   0.465
 3239SOL    HW110616   5.627   1.526   0.403
 3239SOL    HW210617   5.719   1.392   0.421
 3240SOL     OW10618   1.092   5.774   5.277
 3240SOL    HW110619   1.030   5.831   5.331
 3240SOL    HW210620   1.183   5.817   5.275
 3241SOL     OW10621   4.887   1.165   4.355
 3241SOL    HW110622   4.819   1.137   4.289
 3241SOL    HW210623   4.978   1.141   4.322
 3242SOL     OW10624   2.976   4.487   1.423
 3242SOL    HW110625   3.041   4.499   1.498
 3242SOL    HW210626   3.023   4.448   1.344
 3243SOL     OW10627   5.968   4.722   0.075
 3243SOL    HW110628   5.930   4.764   7.015
 3243SOL    HW210629   5.928   4.631   0.087
 3244SOL     OW10630   4.897   5.926   0.660
 3244SOL    HW110631   4.816   5.956   0.711
 3244SOL    HW210632   4.976   5.922   0.722
 3245SOL     OW10633   5.155   2.239   5.772
 3245SOL    HW110634   5.211   2.217   5.852
 3245SOL    HW210635   5.085   2.169   5.760
 3246SOL     OW10636   5.882   0.831   3.136
 3246SOL    HW110637   5.838   0.747   3.105
 3246SOL    HW210638   5.916   0.882   3.057
 3247SOL     OW10639   6.364   5.175   3.707
 3247SOL    HW110640   6.445   5.139   3.661
 3247SOL    HW210641   6.321   5.101   3.760
 3248SOL     OW10642   6.204   3.461   1.779
 3248SOL    HW110643   6.163   3.387   1.725
 3248SOL    HW210644   6.229   3.536   1.718
 3249SOL     OW10645   3.545   3.609   5.004
 3249SOL    HW110646   3.449   3.614   5.032
 3249SOL    HW210647   3.559   3.667   4.924
 3250SOL     OW10648   5.455   0.305   2.469
 3250SOL    HW110649   5.408   0.266   2.391
 3250SOL    HW210650   5.388   0.342   2.534
 3251SOL     OW10651   4.045   1.015   2.536
 3251SOL    HW110652   3.959   1.054   2.505
 3251SOL    HW210653   4.117   1.085   2.534
 3252SOL     OW10654   2.319   1.672   2.239
 3252SOL    HW110655   2.276   1.757   2.208
 3252SOL    HW210656   2.383   1.639   2.170
 3253SOL     OW10657   5.346   2.937   2.796
 3253SOL    HW110658   5.287   3.008   2.757
 3253SOL    HW210659   5.291   2.872   2.847
 3254SOL     OW10660   4.403   5.869   5.557
 3254SOL    HW110661   4.420   5.789   5.500
 3254SOL    HW210662   4.323   5.918   5.523
 3255SOL     OW10663   4.755   6.021   1.447
 3255SOL    HW110664   4.745   6.065   1.358
 3255SOL    HW210665   4.748   6.090   1.519
 3256SOL     OW10666   5.435   0.378   6.962
 3256SOL    HW110667   5.443   0.343   0.034
 3256SOL    HW210668   5.397   0.470   6.964
 3257SOL     OW10669   1.476   2.354   1.288
 3257SOL    HW110670   1.499   2.329   1.382
 3257SOL    HW210671   1.379   2.335   1.272
 3258SOL     OW10672   3.977   5.310   2.069
 3258SOL    HW110673   3.910   5.383   2.082
 3258SOL    HW210674   4.007   5.308   1.973
 3259SOL     OW10675   5.129   6.053   3.909
 3259SOL    HW110676   5.063   6.039   3.835
 3259SOL    HW210677   5.103   5.997   3.988
 3260SOL     OW10678   2.141   1.875   1.680
 3260SOL    HW110679   2.062   1.933   1.660
 3260SOL    HW210680   2.207   1.926   1.735
 3261SOL     OW10681   4.433   5.950   0.598
 3261SOL    HW110682   4.412   6.028   0.657
 3261SOL    HW210683   4.504   5.975   0.533
 3262SOL     OW10684   3.614   2.001   2.406
 3262SOL    HW110685   3.707   2.029   2.383
 3262SOL    HW210686   3.552   2.025   2.332
 3263SOL     OW10687   3.956   0.612   3.893
 3263SOL    HW110688   4.016   0.540   3.856
 3263SOL    HW210689   3.866   0.606   3.849
 3264SOL     OW10690   1.715   5.227   0.762
 3264SOL    HW110691   1.640   5.275   0.808
 3264SOL    HW210692   1.795   5.225   0.823
 3265SOL     OW10693   4.455   1.850   5.759
 3265SOL    HW110694   4.358   1.826   5.761
 3265SOL    HW210695   4.491   1.837   5.667
 3266SOL     OW10696   1.127   2.394   0.272
 3266SOL    HW110697   1.210   2.343   0.247
 3266SOL    HW210698   1.123   2.406   0.371
 3267SOL     OW10699   3.786   2.073   0.649
 3267SOL    HW110700   3.796   2.170   0.627
 3267SOL    HW210701   3.846   2.049   0.725
 3268SOL     OW10702   1.266   4.074   6.658
 3268SOL    HW110703   1.212   4.106   6.736
 3268SOL    HW210704   1.251   3.976   6.646
 3269SOL     OW10705   4.372   5.245   1.435
 3269SOL    HW110706   4.342   5.337   1.463
 3269SOL    HW210707   4.292   5.189   1.416
 3270SOL     OW10708   1.595   4.725   5.074
 3270SOL    HW110709   1.522   4.686   5.019
 3270SOL    HW210710   1.679   4.672   5.061
 3271SOL     OW10711   5.495   3.485   3.049
 3271SOL    HW110712   5.467   3.531   2.965
 3271SOL    HW210713   5.425   3.498   3.119
 3272SOL     OW10714   3.618   4.070   0.165
 3272SOL    HW110715   3.660   3.979   0.158
 3272SOL    HW210716   3.574   4.079   0.255
 3273SOL     OW10717   0.473   6.631   2.134
 3273SOL    HW110718   0.569   6.648   2.158
 3273SOL    HW210719   0.464   6.540   2.093
 3274SOL     OW10720   3.946   1.902   0.797
 3274SOL    HW110721   3.884   1.889   0.875
 3274SOL    HW210722   3.962   1.815   0.752
 3275SOL     OW10723   1.246   0.685   6.436
 3275SOL    HW110724   1.319   0.620   6.450
 3275SOL    HW210725   1.181   0.680   6.512
 3276SOL     OW10726   3.239   5.213   6.790
 3276SOL    HW110727   3.201   5.166   6.870
 3276SOL    HW210728   3.337   5.228   6.803
 3277SOL     OW10729   4.991   6.678   6.801
 3277SOL    HW110730   5.046   6.753   6.839
 3277SOL    HW210731   5.022   6.658   6.708
 3278SOL     OW10732   6.547   0.802   5.814
 3278SOL    HW110733   6.463   0.764   5.776
 3278SOL    HW210734   6.581   0.743   5.887
 3279SOL     OW10735   7.018   0.966   0.994
 3279SOL    HW110736   0.054   0.889   0.967
 3279SOL    HW210737   0.047   1.051   0.987
 3280SOL     OW10738   3.171   5.068   5.573
 3280SOL    HW110739   3.219   5.002   5.631
 3280SOL    HW210740   3.237   5.127   5.526
 3281SOL     OW10741   2.229   5.499   0.909
 3281SOL    HW110742   2.265   5.408   0.928
 3281SOL    HW210743   2.174   5.496   0.825
 3282SOL     OW10744   2.188   5.572   4.272
 3282SOL    HW110745   2.152   5.502   4.210
 3282SOL    HW210746   2.257   5.626   4.225
 3283SOL     OW10747   3.086   1.123   1.341
 3283SOL    HW110748   3.006   1.119   1.281
 3283SOL    HW210749   3.132   1.035   1.341
 3284SOL     OW10750   5.709   6.430   0.100
 3284SOL    HW110751   5.703   6.392   0.007
 3284SOL    HW210752   5.665   6.519   0.103
 3285SOL     OW10753   5.814   2.680   3.298
 3285SOL    HW110754   5.900   2.644   3.262
 3285SOL    HW210755   5.751   2.697   3.222
 3286SOL     OW10756   4.050   3.485   3.529
 3286SOL    HW110757   3.998   3.528   3.603
 3286SOL    HW210758   4.111   3.415   3.568
 3287SOL     OW10759   1.540   5.889   0.390
 3287SOL    HW110760   1.586   5.977   0.379
 3287SOL    HW210761   1.448   5.894   0.350
 3288SOL     OW10762   1.176   5.042   0.048
 3288SOL    HW110763   1.203   5.054   0.144
 3288SOL    HW210764   1.233   4.972   0.006
 3289SOL     OW10765   2.003   6.739   5.673
 3289SOL    HW110766   1.968   6.768   5.762
 3289SOL    HW210767   2.059   6.657   5.684
 3290SOL     OW10768   0.418   6.777   1.863
 3290SOL    HW110769   0.486   6.851   1.867
 3290SOL    HW210770   0.425   6.721   1.946
 3291SOL     OW10771   1.486   6.197   6.677
 3291SOL    HW110772   1.581   6.200   6.645
 3291SOL    HW210773   1.429   6.155   6.607
 3292SOL     OW10774   0.252   0.701   6.733
 3292SOL    HW110775   0.230   0.639   6.657
 3292SOL    HW210776   0.310   0.775   6.700
 3293SOL     OW10777   6.726   3.448   2.812
 3293SOL    HW110778   6.806   3.489   2.767
 3293SOL    HW210779   6.717   3.353   2.782
 3294SOL     OW10780   0.419   0.429   5.976
 3294SOL    HW110781   0.450   0.524   5.989
 3294SOL    HW210782   0.453   0.396   5.888
 3295SOL     OW10783   1.524   2.845   1.817
 3295SOL    HW110784   1.511   2.804   1.907
 3295SOL    HW210785   1.434   2.863   1.775
 3296SOL     OW10786   1.918   6.330   1.496
 3296SOL    HW110787   1.836   6.367   1.453
 3296SOL    HW210788   1.999   6.371   1.454
 3297SOL     OW10789   2.969   0.621   5.263
 3297SOL    HW110790   3.036   0.675   5.313
 3297SOL    HW210791   3.000   0.527   5.256
 3298SOL     OW10792   6.299   1.965   3.704
 3298SOL    HW110793   6.314   1.925   3.614
 3298SOL    HW210794   6.206   2.002   3.710
 3299SOL     OW10795   2.264   6.206   3.287
 3299SOL    HW110796   2.331   6.216   3.213
 3299SOL    HW210797   2.179   6.250   3.260
 3300SOL     OW10798   0.613   0.733   5.510
 3300SOL    HW110799   0.520   0.740   5.473
 3300SOL    HW210800   0.677   0.715   5.435
 3301SOL     OW10801   1.818   3.661   3.382
 3301SOL    HW110802   1.883   3.727   3.345
 3301SOL    HW210803   1.860   3.613   3.460
 3302SOL     OW10804   1.742   6.044   4.417
 3302SOL    HW110805   1.711   6.098   4.495
 3302SOL    HW210806   1.689   5.959   4.411
 3303SOL     OW10807   3.805   3.049   1.406
 3303SOL    HW110808   3.710   3.044   1.435
 3303SOL    HW210809   3.839   3.142   1.417
 3304SOL     OW10810   1.623   5.585   3.944
 3304SOL    HW110811   1.666   5.497   3.966
 3304SOL    HW210812   1.669   5.658   3.995
 3305SOL     OW10813   2.920   1.053   2.993
 3305SOL    HW110814   2.978   0.976   3.015
 3305SOL    HW210815   2.969   1.138   3.009
 3306SOL     OW10816   2.438   5.526   4.067
 3306SOL    HW110817   2.370   5.573   4.011
 3306SOL    HW210818   2.410   5.431   4.080
 3307SOL     OW10819   0.311   5.510   6.326
 3307SOL    HW110820   0.241   5.499   6.396
 3307SOL    HW210821   0.298   5.598   6.280
 3308SOL     OW10822   4.814   6.120   0.163
 3308SOL    HW110823   4.816   6.220   0.168
 3308SOL    HW210824   4.860   6.081   0.243
 3309SOL     OW10825   0.719   5.455   1.709
 3309SOL    HW110826   0.735   5.547   1.675
 3309SOL    HW210827   0.802   5.420   1.752
 3310SOL     OW10828   6.894   4.325   4.576
 3310SOL    HW110829   6.840   4.403   4.609
 3310SOL    HW210830   6.989   4.354   4.565
 3311SOL     OW10831   2.504   4.424   1.594
 3311SOL    HW110832   2.465   4.506   1.552
 3311SOL    HW210833   2.603   4.435   1.602
 3312SOL     OW10834   3.498   4.625   6.099
 3312SOL    HW110835   3.444   4.549   6.136
 3312SOL    HW210836   3.523   4.687   6.174
 3313SOL     OW10837   6.523   4.915   2.742
 3313SOL    HW110838   6.577   4.995   2.769
 3313SOL    HW210839   6.464   4.940   2.665
 3314SOL     OW10840   1.612   2.067   4.758
 3314SOL    HW110841   1.655   1.977   4.753
 3314SOL    HW210842   1.668   2.128   4.814
 3315SOL     OW10843   6.628   3.423   4.106
 3315SOL    HW110844   6.681   3.472   4.037
 3315SOL    HW210845   6.637   3.468   4.194
 3316SOL     OW10846   3.758   1.522   6.099
 3316SOL    HW110847   3.667   1.484   6.116
 3316SOL    HW210848   3.753   1.622   6.100
 3317SOL     OW10849   4.926   3.022   1.730
 3317SOL    HW110850   4.863   3.027   1.808
 3317SOL    HW210851   4.922   2.930   1.690
 3318SOL     OW10852   2.988   7.017   0.154
 3318SOL    HW110853   2.925   0.007   0.077
 3318SOL    HW210854   2.947   0.033   0.237
 3319SOL     OW10855   6.173   7.002   4.114
 3319SOL    HW110856   6.107   6.933   4.084
 3319SOL    HW210857   6.149   0.068   4.074
 3320SOL     OW10858   5.078   1.137   6.012
 3320SOL    HW110859   5.168   1.122   5.971
 3320SOL    HW210860   5.018   1.182   5.946
 3321SOL     OW10861   3.484   2.386   1.616
 3321SOL    HW110862   3.391   2.356   1.637
 3321SOL    HW210863   3.544   2.368   1.694
 3322SOL     OW10864   5.147   3.282   1.860
 3322SOL    HW110865   5.205   3.201   1.854
 3322SOL    HW210866   5.072   3.264   1.924
 3323SOL     OW10867   1.793   4.108   6.989
 3323SOL    HW110868   1.860   4.143   0.032
 3323SOL    HW210869   1.838   4.085   6.903
 3324SOL     OW10870   0.810   3.926   6.817
 3324SOL    HW110871   0.834   3.864   6.741
 3324SOL    HW210872   0.834   4.019   6.792
 3325SOL     OW10873   2.444   3.329   6.533
 3325SOL    HW110874   2.471   3.240   6.570
 3325SOL    HW210875   2.472   3.401   6.596
 3326SOL     OW10876   5.210   1.378   1.941
 3326SOL    HW110877   5.110   1.373   1.949
 3326SOL    HW210878   5.236   1.468   1.908
 3327SOL     OW10879   3.012   6.149   1.375
 3327SOL    HW110880   2.972   6.057   1.369
 3327SOL    HW210881   3.069   6.155   1.457
 3328SOL     OW10882   4.326   2.001   2.809
 3328SOL    HW110883   4.228   1.995   2.793
 3328SOL    HW210884   4.373   2.021   2.723
 3329SOL     OW10885   5.039   0.471   5.375
 3329SOL    HW110886   4.974   0.546   5.369
 3329SOL    HW210887   5.091   0.464   5.289
 3330SOL     OW10888   5.765   6.317   1.702
 3330SOL    HW110889   5.812   6.307   1.790
 3330SOL    HW210890   5.802   6.397   1.654
 3331SOL     OW10891   0.992   3.353   2.129
 3331SOL    HW110892   0.936   3.338   2.048
 3331SOL    HW210893   1.078   3.302   2.121
 3332SOL     OW10894   6.576   4.458   0.081
 3332SOL    HW110895   6.538   4.427   0.168
 3332SOL    HW210896   6.540   4.402   0.007
 3333SOL     OW10897   3.131   3.288   6.954
 3333SOL    HW110898   3.074   3.316   6.877
 3333SOL    HW210899   3.228   3.296   6.930
 3334SOL     OW10900   2.006   3.465   2.363
 3334SOL    HW110901   2.068   3.513   2.301
 3334SOL    HW210902   2.059   3.431   2.441
 3335SOL     OW10903   4.933   6.266   6.363
 3335SOL    HW110904   4.968   6.172   6.368
 3335SOL    HW210905   5.005   6.329   6.392
 3336SOL     OW10906   2.148   6.621   4.426
 3336SOL    HW110907   2.136   6.693   4.494
 3336SOL    HW210908   2.244   6.594   4.422
 3337SOL     OW10909   2.960   4.094   1.375
 3337SOL    HW110910   2.873   4.095   1.425
 3337SOL    HW210911   2.993   4.000   1.367
 3338SOL     OW10912   0.205   2.648   1.594
 3338SOL    HW110913   0.107   2.658   1.574
 3338SOL    HW210914   0.257   2.696   1.524
 3339SOL     OW10915   1.183   6.899   6.663
 3339SOL    HW110916   1.231   6.926   6.747
 3339SOL    HW210917   1.244   6.915   6.584
 3340SOL     OW10918   3.814   1.229   4.154
 3340SOL    HW110919   3.864   1.255   4.071
 3340SOL    HW210920   3.718   1.255   4.144
 3341SOL     OW10921   2.057   4.461   3.873
 3341SOL    HW110922   2.040   4.557   3.854
 3341SOL    HW210923   2.129   4.427   3.812
 3342SOL     OW10924   1.029   0.638   3.413
 3342SOL    HW110925   1.081   0.721   3.389
 3342SOL    HW210926   0.973   0.656   3.493
 3343SOL     OW10927   5.640   4.683   6.563
 3343SOL    HW110928   5.714   4.743   6.534
 3343SOL    HW210929   5.555   4.710   6.517
 3344SOL     OW10930   6.359   3.403   4.012
 3344SOL    HW110931   6.310   3.489   4.003
 3344SOL    HW210932   6.458   3.421   4.011
 3345SOL     OW10933   0.878   4.342   6.499
 3345SOL    HW110934   0.801   4.378   6.446
 3345SOL    HW210935   0.857   4.250   6.531
 3346SOL     OW10936   1.173   1.143   6.857
 3346SOL    HW110937   1.110   1.190   6.795
 3346SOL    HW210938   1.257   1.120   6.808
 3347SOL     OW10939   0.835   3.076   5.766
 3347SOL    HW110940   0.801   3.112   5.679
 3347SOL    HW210941   0.760   3.073   5.832
 3348SOL     OW10942   4.173   3.506   4.982
 3348SOL    HW110943   4.253   3.499   5.041
 3348SOL    HW210944   4.103   3.442   5.013
 3349SOL     OW10945   2.140   4.608   2.825
 3349SOL    HW110946   2.123   4.642   2.917
 3349SOL    HW210947   2.080   4.530   2.807
 3350SOL     OW10948   0.005   2.569   6.080
 3350SOL    HW110949   0.038   2.657   6.047
 3350SOL    HW210950   0.080   2.502   6.077
 3351SOL     OW10951   4.479   1.200   1.933
 3351SOL    HW110952   4.521   1.143   1.862
 3351SOL    HW210953   4.550   1.236   1.992
 3352SOL     OW10954   5.923   2.896   1.187
 3352SOL    HW110955   5.891   2.904   1.282
 3352SOL    HW210956   5.856   2.938   1.126
 3353SOL     OW10957   2.654   6.035   1.153
 3353SOL    HW110958   2.640   6.029   1.054
 3353SOL    HW210959   2.679   6.129   1.177
 3354SOL     OW10960   4.395   2.628   5.485
 3354SOL    HW110961   4.370   2.671   5.572
 3354SOL    HW210962   4.481   2.578   5.496
 3355SOL     OW10963   2.206   1.598   6.076
 3355SOL    HW110964   2.290   1.649   6.057
 3355SOL    HW210965   2.218   1.503   6.046
 3356SOL     OW10966   1.487   5.878   6.039
 3356SOL    HW110967   1.565   5.823   6.071
 3356SOL    HW210968   1.409   5.818   6.024
 3357SOL     OW10969   3.387   3.646   2.167
 3357SOL    HW110970   3.360   3.720   2.228
 3357SOL    HW210971   3.404   3.563   2.221
 3358SOL     OW10972   4.533   1.605   2.859
 3358SOL    HW110973   4.522   1.661   2.777
 3358SOL    HW210974   4.540   1.664   2.939
 3359SOL     OW10975   6.906   5.734   3.009
 3359SOL    HW110976   6.816   5.755   3.046
 3359SOL    HW210977   6.912   5.767   2.914
 3360SOL     OW10978   0.581   2.351   6.123
 3360SOL    HW110979   0.520   2.275   6.100
 3360SOL    HW210980   0.632   2.378   6.041
 3361SOL     OW10981   0.710   5.773   4.437
 3361SOL    HW110982   0.739   5.731   4.523
 3361SOL    HW210983   0.786   5.772   4.372
 3362SOL     OW10984   3.544   1.804   2.616
 3362SOL    HW110985   3.463   1.748   2.601
 3362SOL    HW210986   3.552   1.871   2.543
 3363SOL     OW10987   6.945   2.475   1.530
 3363SOL    HW110988   6.953   2.568   1.564
 3363SOL    HW210989   6.970   2.410   1.602
 3364SOL     OW10990   2.506   4.549   3.346
 3364SOL    HW110991   2.451   4.594   3.416
 3364SOL    HW210992   2.587   4.605   3.326
 3365SOL     OW10993   0.317   3.286   4.990
 3365SOL    HW110994   0.364   3.368   4.957
 3365SOL    HW210995   0.219   3.305   4.999
 3366SOL     OW10996   5.393   4.938   4.072
 3366SOL    HW110997   5.417   4.847   4.037
 3366SOL    HW210998   5.324   4.979   4.014
 3367SOL     OW10999   3.244   3.536   3.040
 3367SOL    HW111000   3.297   3.493   2.968
 3367SOL    HW211001   3.203   3.466   3.098
 3368SOL     OW11002   1.100   5.415   6.485
 3368SOL    HW111003   1.096   5.470   6.402
 3368SOL    HW211004   1.194   5.414   6.520
 3369SOL     OW11005   4.644   1.752   1.328
 3369SOL    HW111006   4.729   1.734   1.279
 3369SOL    HW211007   4.622   1.675   1.387
 3370SOL     OW11008   6.331   6.239   1.232
 3370SOL    HW111009   6.237   6.243   1.266
 3370SOL    HW211010   6.375   6.328   1.247
 3371SOL     OW11011   1.995   3.402   1.820
 3371SOL    HW111012   2.078   3.447   1.855
 3371SOL    HW211013   1.921   3.415   1.885
 3372SOL     OW11014   0.039   2.153   6.934
 3372SOL    HW111015   0.109   2.165   6.864
 3372SOL    HW211016   6.974   2.132   6.891
 3373SOL     OW11017   0.262   2.216   3.955
 3373SOL    HW111018   0.238   2.225   3.858
 3373SOL    HW211019   0.239   2.301   4.003
 3374SOL     OW11020   1.079   7.017   3.820
 3374SOL    HW111021   1.136   0.046   3.885
 3374SOL    HW211022   1.132   6.941   3.782
 3375SOL     OW11023   0.109   4.399   0.823
 3375SOL    HW111024   0.085   4.496   0.823
 3375SOL    HW211025   0.127   4.368   0.916
 3376SOL     OW11026   3.230   2.971   4.501
 3376SOL    HW111027   3.207   3.046   4.440
 3376SOL    HW211028   3.151   2.910   4.510
 3377SOL     OW11029   6.816   5.077   5.852
 3377SOL    HW111030   6.825   5.142   5.927
 3377SOL    HW211031   6.743   5.012   5.873
 3378SOL     OW11032   1.434   6.145   0.170
 3378SOL    HW111033   1.373   6.135   0.091
 3378SOL    HW211034   1.493   6.225   0.157
 3379SOL     OW11035   0.916   1.926   4.597
 3379SOL    HW111036   0.979   2.000   4.571
 3379SOL    HW211037   0.938   1.895   4.689
 3380SOL     OW11038   4.655   6.277   5.720
 3380SOL    HW111039   4.616   6.361   5.757
 3380SOL    HW211040   4.592   6.201   5.738
 3381SOL     OW11041   6.589   2.645   1.342
 3381SOL    HW111042   6.491   2.657   1.326
 3381SOL    HW211043   6.627   2.584   1.273
 3382SOL     OW11044   0.234   2.993   6.984
 3382SOL    HW111045   0.173   2.914   6.980
 3382SOL    HW211046   0.302   2.986   6.910
 3383SOL     OW11047   3.350   5.060   0.890
 3383SOL    HW111048   3.299   4.974   0.890
 3383SOL    HW211049   3.411   5.063   0.811
 3384SOL     OW11050   2.398   3.675   1.068
 3384SOL    HW111051   2.464   3.743   1.100
 3384SOL    HW211052   2.326   3.721   1.016
 3385SOL     OW11053   6.554   3.386   4.738
 3385SOL    HW111054   6.654   3.384   4.738
 3385SOL    HW211055   6.519   3.337   4.659
 3386SOL     OW11056   5.473   4.064   6.939
 3386SOL    HW111057   5.404   4.128   6.974
 3386SOL    HW211058   5.495   3.998   7.011
 3387SOL     OW11059   5.011   0.396   3.282
 3387SOL    HW111060   5.018   0.489   3.245
 3387SOL    HW211061   4.992   0.331   3.209
 3388SOL     OW11062   5.286   3.282   2.814
 3388SOL    HW111063   5.247   3.305   2.903
 3388SOL    HW211064   5.363   3.342   2.794
 3389SOL     OW11065   6.750   5.554   5.990
 3389SOL    HW111066   6.653   5.576   5.976
 3389SOL    HW211067   6.796   5.631   6.035
 3390SOL     OW11068   5.062   6.782   6.248
 3390SOL    HW111069   5.070   6.703   6.188
 3390SOL    HW211070   4.965   6.802   6.263
 3391SOL     OW11071   4.893   2.419   3.394
 3391SOL    HW111072   4.948   2.493   3.432
 3391SOL    HW211073   4.861   2.444   3.303
 3392SOL     OW11074   3.693   6.822   4.619
 3392SOL    HW111075   3.685   6.779   4.709
 3392SOL    HW211076   3.620   6.890   4.608
 3393SOL     OW11077   5.900   5.882   0.720
 3393SOL    HW111078   5.998   5.862   0.717
 3393SOL    HW211079   5.861   5.871   0.629
 3394SOL     OW11080   4.809   3.681   0.664
 3394SOL    HW111081   4.889   3.650   0.716
 3394SOL    HW211082   4.760   3.750   0.717
 3395SOL     OW11083   5.304   1.853   2.876
 3395SOL    HW111084   5.371   1.790   2.916
 3395SOL    HW211085   5.256   1.902   2.948
 3396SOL     OW11086   5.828   0.815   3.898
 3396SOL    HW111087   5.908   0.760   3.925
 3396SOL    HW211088   5.848   0.863   3.813
 3397SOL     OW11089   3.736   5.032   6.181
 3397SOL    HW111090   3.689   5.039   6.093
 3397SOL    HW211091   3.831   5.059   6.170
 3398SOL     OW11092   1.255   0.107   5.140
 3398SOL    HW111093   1.330   0.046   5.116
 3398SOL    HW211094   1.214   0.077   5.226
 3399SOL     OW11095   5.767   5.358   3.357
 3399SOL    HW111096   5.774   5.258   3.363
 3399SOL    HW211097   5.732   5.384   3.267
 3400SOL     OW11098   5.667   3.729   0.040
 3400SOL    HW111099   5.640   3.693   6.973
 3400SOL    HW211100   5.685   3.653   0.102
 3401SOL     OW11101   5.872   4.207   6.950
 3401SOL    HW111102   5.847   4.253   0.013
 3401SOL    HW211103   5.906   4.115   6.972
 3402SOL     OW11104   5.752   5.626   6.937
 3402SOL    HW111105   5.763   5.531   6.967
 3402SOL    HW211106   5.765   5.687   7.014
 3403SOL     OW11107   4.782   5.408   6.871
 3403SOL    HW111108   4.861   5.466   6.849
 3403SOL    HW211109   4.796   5.366   6.961
 3404SOL     OW11110   5.167   2.513   0.141
 3404SOL    HW111111   5.080   2.554   0.170
 3404SOL    HW211112   5.159   2.413   0.143
 3405SOL     OW11113   5.863   4.419   6.538
 3405SOL    HW111114   5.933   4.362   6.494
 3405SOL    HW211115   5.806   4.461   6.467
 3406SOL     OW11116   1.421   3.262   2.258
 3406SOL    HW111117   1.406   3.341   2.318
 3406SOL    HW211118   1.483   3.288   2.184
 3407SOL     OW11119   2.005   4.503   0.292
 3407SOL    HW111120   2.104   4.511   0.283
 3407SOL    HW211121   1.964   4.492   0.201
 3408SOL     OW11122   4.946   3.248   4.748
 3408SOL    HW111123   4.961   3.297   4.663
 3408SOL    HW211124   4.929   3.313   4.822
 3409SOL     OW11125   3.767   6.136   0.221
 3409SOL    HW111126   3.700   6.152   0.148
 3409SOL    HW211127   3.855   6.176   0.196
 3410SOL     OW11128   6.382   6.253   2.027
 3410SOL    HW111129   6.302   6.232   1.970
 3410SOL    HW211130   6.415   6.169   2.070
 3411SOL     OW11131   0.666   2.801   0.736
 3411SOL    HW111132   0.764   2.806   0.717
 3411SOL    HW211133   0.623   2.735   0.674
 3412SOL     OW11134   5.232   3.332   1.604
 3412SOL    HW111135   5.250   3.430   1.602
 3412SOL    HW211136   5.197   3.306   1.694
 3413SOL     OW11137   6.495   1.420   6.748
 3413SOL    HW111138   6.566   1.490   6.740
 3413SOL    HW211139   6.509   1.369   6.833
 3414SOL     OW11140   3.256   2.178   5.943
 3414SOL    HW111141   3.181   2.113   5.928
 3414SOL    HW211142   3.223   2.255   5.998
 3415SOL     OW11143   2.735   2.316   4.029
 3415SOL    HW111144   2.694   2.388   3.973
 3415SOL    HW211145   2.662   2.261   4.071
 3416SOL     OW11146   5.642   0.291   0.454
 3416SOL    HW111147   5.561   0.287   0.513
 3416SOL    HW211148   5.617   0.264   0.361
 3417SOL     OW11149   6.998   6.385   3.862
 3417SOL    HW111150   7.021   6.481   3.847
 3417SOL    HW211151   6.898   6.374   3.864
 3418SOL     OW11152   4.273   6.044   3.293
 3418SOL    HW111153   4.326   6.109   3.237
 3418SOL    HW211154   4.185   6.084   3.316
 3419SOL     OW11155   3.582   5.035   5.957
 3419SOL    HW111156   3.503   4.976   5.970
 3419SOL    HW211157   3.627   5.013   5.871
 3420SOL     OW11158   5.503   3.552   4.501
 3420SOL    HW111159   5.515   3.623   4.570
 3420SOL    HW211160   5.509   3.462   4.544
 3421SOL     OW11161   5.595   1.575   3.452
 3421SOL    HW111162   5.569   1.645   3.519
 3421SOL    HW211163   5.518   1.513   3.437
 3422SOL     OW11164   2.576   0.458   0.459
 3422SOL    HW111165   2.630   0.541   0.473
 3422SOL    HW211166   2.480   0.482   0.451
 3423SOL     OW11167   0.362   4.561   6.380
 3423SOL    HW111168   0.396   4.527   6.293
 3423SOL    HW211169   0.283   4.621   6.364
 3424SOL     OW11170   3.053   7.017   1.238
 3424SOL    HW111171   2.977   0.059   1.248
 3424SOL    HW211172   3.131   0.028   1.290
 3425SOL     OW11173   4.927   4.489   2.291
 3425SOL    HW111174   4.904   4.578   2.330
 3425SOL    HW211175   4.842   4.438   2.274
 3426SOL     OW11176   5.190   2.621   1.106
 3426SOL    HW111177   5.275   2.651   1.151
 3426SOL    HW211178   5.213   2.566   1.026
 3427SOL     OW11179   0.665   2.292   2.061
 3427SOL    HW111180   0.609   2.363   2.103
 3427SOL    HW211181   0.749   2.281   2.113
 3428SOL     OW11182   3.956   4.512   0.277
 3428SOL    HW111183   3.880   4.452   0.253
 3428SOL    HW211184   4.037   4.488   0.223
 3429SOL     OW11185   0.595   1.671   1.025
 3429SOL    HW111186   0.600   1.763   0.987
 3429SOL    HW211187   0.636   1.606   0.960
 3430SOL     OW11188   2.390   5.461   5.127
 3430SOL    HW111189   2.363   5.405   5.206
 3430SOL    HW211190   2.480   5.433   5.095
 3431SOL     OW11191   1.320   6.101   1.543
 3431SOL    HW111192   1.396   6.068   1.599
 3431SOL    HW211193   1.264   6.023   1.514
 3432SOL     OW11194   2.737   4.591   6.619
 3432SOL    HW111195   2.643   4.597   6.586
 3432SOL    HW211196   2.769   4.681   6.646
 3433SOL     OW11197   1.092   1.593   5.365
 3433SOL    HW111198   1.088   1.686   5.329
 3433SOL    HW211199   1.157   1.540   5.311
 3434SOL     OW11200   3.928   1.808   1.543
 3434SOL    HW111201   3.828   1.801   1.547
 3434SOL    HW211202   3.959   1.801   1.449
 3435SOL     OW11203   2.005   1.149   0.730
 3435SOL    HW111204   2.074   1.155   0.803
 3435SOL    HW211205   1.926   1.097   0.763
 3436SOL     OW11206   3.386   5.699   0.467
 3436SOL    HW111207   3.430   5.623   0.514
 3436SOL    HW211208   3.290   5.677   0.451
 3437SOL     OW11209   2.766   6.327   5.557
 3437SOL    HW111210   2.794   6.377   5.475
 3437SOL    HW211211   2.667   6.313   5.557
 3438SOL     OW11212   0.531   3.954   1.544
 3438SOL    HW111213   0.549   3.856   1.538
 3438SOL    HW211214   0.612   4.001   1.581
 3439SOL     OW11215   3.361   6.097   4.063
 3439SOL    HW111216   3.401   6.071   4.151
 3439SOL    HW211217   3.262   6.105   4.072
 3440SOL     OW11218   4.067   3.245   2.722
 3440SOL    HW111219   4.089   3.332   2.766
 3440SOL    HW211220   4.052   3.259   2.625
 3441SOL     OW11221   0.109   5.816   6.552
 3441SOL    HW111222   0.094   5.773   6.641
 3441SOL    HW211223   0.206   5.809   6.528
 3442SOL     OW11224   2.626   3.599   1.487
 3442SOL    HW111225   2.693   3.525   1.488
 3442SOL    HW211226   2.539   3.565   1.450
 3443SOL     OW11227   3.215   6.420   1.913
 3443SOL    HW111228   3.200   6.510   1.955
 3443SOL    HW211229   3.240   6.432   1.817
 3444SOL     OW11230   4.677   5.735   0.701
 3444SOL    HW111231   4.702   5.816   0.647
 3444SOL    HW211232   4.608   5.682   0.650
 3445SOL     OW11233   6.253   5.378   3.546
 3445SOL    HW111234   6.314   5.457   3.538
 3445SOL    HW211235   6.306   5.298   3.576
 3446SOL     OW11236   5.906   0.674   1.765
 3446SOL    HW111237   5.867   0.678   1.673
 3446SOL    HW211238   5.833   0.662   1.832
 3447SOL     OW11239   5.324   6.951   0.645
 3447SOL    HW111240   5.413   6.994   0.661
 3447SOL    HW211241   5.256   7.021   0.622
 3448SOL     OW11242   3.392   6.395   6.317
 3448SOL    HW111243   3.373   6.465   6.385
 3448SOL    HW211244   3.397   6.306   6.362
 3449SOL     OW11245   5.993   5.145   4.476
 3449SOL    HW111246   6.086   5.162   4.442
 3449SOL    HW211247   5.988   5.171   4.573
 3450SOL     OW11248   0.609   1.406   6.362
 3450SOL    HW111249   0.578   1.496   6.330
 3450SOL    HW211250   0.595   1.398   6.460
 3451SOL     OW11251   2.236   6.078   6.819
 3451SOL    HW111252   2.186   6.031   6.891
 3451SOL    HW211253   2.329   6.040   6.813
 3452SOL     OW11254   5.779   0.120   6.601
 3452SOL    HW111255   5.812   0.050   6.664
 3452SOL    HW211256   5.834   0.118   6.518
 3453SOL     OW11257   5.696   5.723   6.364
 3453SOL    HW111258   5.623   5.700   6.300
 3453SOL    HW211259   5.769   5.655   6.358
 3454SOL     OW11260   0.801   4.378   4.980
 3454SOL    HW111261   0.835   4.356   5.071
 3454SOL    HW211262   0.775   4.474   4.976
 3455SOL     OW11263   2.713   1.712   4.159
 3455SOL    HW111264   2.765   1.627   4.158
 3455SOL    HW211265   2.673   1.728   4.068
 3456SOL     OW11266   4.654   5.225   2.102
 3456SOL    HW111267   4.576   5.243   2.041
 3456SOL    HW211268   4.731   5.284   2.076
 3457SOL     OW11269   4.452   5.776   4.402
 3457SOL    HW111270   4.542   5.736   4.418
 3457SOL    HW211271   4.426   5.833   4.480
 3458SOL     OW11272   4.533   1.724   2.596
 3458SOL    HW111273   4.586   1.652   2.550
 3458SOL    HW211274   4.442   1.729   2.556
 3459SOL     OW11275   4.835   1.787   3.146
 3459SOL    HW111276   4.788   1.770   3.233
 3459SOL    HW211277   4.854   1.885   3.138
 3460SOL     OW11278   2.902   2.042   6.219
 3460SOL    HW111279   2.909   1.966   6.283
 3460SOL    HW211280   2.806   2.071   6.211
 3461SOL     OW11281   5.265   3.782   6.874
 3461SOL    HW111282   5.219   3.871   6.872
 3461SOL    HW211283   5.296   3.763   6.967
 3462SOL     OW11284   0.802   4.112   5.296
 3462SOL    HW111285   0.805   4.019   5.259
 3462SOL    HW211286   0.710   4.150   5.286
 3463SOL     OW11287   0.713   4.549   1.005
 3463SOL    HW111288   0.744   4.483   1.074
 3463SOL    HW211289   0.760   4.532   0.919
 3464SOL     OW11290   0.581   4.689   6.498
 3464SOL    HW111291   0.553   4.764   6.439
 3464SOL    HW211292   0.517   4.613   6.488
 3465SOL     OW11293   2.204   2.508   2.038
 3465SOL    HW111294   2.294   2.517   2.081
 3465SOL    HW211295   2.179   2.594   1.994
 3466SOL     OW11296   6.980   5.280   6.216
 3466SOL    HW111297   0.000   5.348   6.157
 3466SOL    HW211298   0.029   5.228   6.264
 3467SOL     OW11299   1.463   2.684   6.803
 3467SOL    HW111300   1.546   2.663   6.751
 3467SOL    HW211301   1.484   2.683   6.900
 3468SOL     OW11302   4.050   6.063   2.780
 3468SOL    HW111303   3.954   6.049   2.802
 3468SOL    HW211304   4.106   6.001   2.834
 3469SOL     OW11305   5.814   1.374   3.467
 3469SOL    HW111306   5.756   1.455   3.473
 3469SOL    HW211307   5.901   1.392   3.513
 3470SOL     OW11308   6.892   4.506   1.143
 3470SOL    HW111309   6.827   4.431   1.153
 3470SOL    HW211310   6.843   4.591   1.125
 3471SOL     OW11311   3.824   5.333   4.830
 3471SOL    HW111312   3.922   5.350   4.837
 3471SOL    HW211313   3.807   5.268   4.755
 3472SOL     OW11314   2.559   0.610   3.578
 3472SOL    HW111315   2.624   0.640   3.508
 3472SOL    HW211316   2.499   0.539   3.541
 3473SOL     OW11317   5.873   1.408   5.739
 3473SOL    HW111318   5.781   1.431   5.706
 3473SOL    HW211319   5.933   1.389   5.661
 3474SOL     OW11320   3.111   5.250   2.017
 3474SOL    HW111321   3.070   5.215   1.933
 3474SOL    HW211322   3.167   5.178   2.059
 3475SOL     OW11323   1.359   6.528   4.075
 3475SOL    HW111324   1.343   6.504   3.979
 3475SOL    HW211325   1.389   6.447   4.125
 3476SOL     OW11326   3.240   1.300   3.563
 3476SOL    HW111327   3.230   1.398   3.546
 3476SOL    HW211328   3.336   1.274   3.556
 3477SOL     OW11329   2.849   5.804   2.168
 3477SOL    HW111330   2.851   5.718   2.220
 3477SOL    HW211331   2.920   5.803   2.098
 3478SOL     OW11332   2.945   5.896   5.700
 3478SOL    HW111333   2.964   5.851   5.613
 3478SOL    HW211334   2.919   5.991   5.684
 3479SOL     OW11335   0.545   0.468   3.300
 3479SOL    HW111336   0.639   0.458   3.267
 3479SOL    HW211337   0.493   0.524   3.235
 3480SOL     OW11338   6.583   0.391   4.842
 3480SOL    HW111339   6.636   0.462   4.888
 3480SOL    HW211340   6.636   0.306   4.839
 3481SOL     OW11341   4.813   0.086   6.899
 3481SOL    HW111342   4.881   0.062   6.969
 3481SOL    HW211343   4.722   0.090   6.940
 3482SOL     OW11344   5.428   1.134   0.588
 3482SOL    HW111345   5.408   1.109   0.682
 3482SOL    HW211346   5.448   1.052   0.535
 3483SOL     OW11347   2.867   0.820   1.339
 3483SOL    HW111348   2.801   0.760   1.294
 3483SOL    HW211349   2.952   0.822   1.286
 3484SOL     OW11350   2.836   3.436   1.545
 3484SOL    HW111351   2.834   3.371   1.469
 3484SOL    HW211352   2.919   3.422   1.599
 3485SOL     OW11353   1.263   0.837   4.621
 3485SOL    HW111354   1.352   0.865   4.584
 3485SOL    HW211355   1.274   0.810   4.717
 3486SOL     OW11356   2.980   2.186   2.418
 3486SOL    HW111357   3.035   2.178   2.335
 3486SOL    HW211358   2.986   2.100   2.470
 3487SOL     OW11359   5.876   1.617   5.928
 3487SOL    HW111360   5.856   1.544   5.863
 3487SOL    HW211361   5.921   1.692   5.880
 3488SOL     OW11362   5.813   3.186   4.109
 3488SOL    HW111363   5.785   3.146   4.196
 3488SOL    HW211364   5.807   3.118   4.037
 3489SOL     OW11365   2.712   7.014   0.720
 3489SOL    HW111366   2.737   6.973   0.632
 3489SOL    HW211367   2.720   6.945   0.792
 3490SOL     OW11368   4.592   4.513   0.037
 3490SOL    HW111369   4.600   4.548   6.967
 3490SOL    HW211370   4.658   4.560   0.096
 3491SOL     OW11371   6.277   3.171   4.978
 3491SOL    HW111372   6.240   3.129   5.060
 3491SOL    HW211373   6.356   3.228   5.002
 3492SOL     OW11374   0.942   5.710   0.316
 3492SOL    HW111375   0.898   5.734   0.403
 3492SOL    HW211376   0.879   5.654   0.262
 3493SOL     OW11377   6.594   5.324   0.073
 3493SOL    HW111378   6.611   5.419   0.047
 3493SOL    HW211379   6.665   5.266   0.032
 3494SOL     OW11380   3.816   0.397   1.135
 3494SOL    HW111381   3.758   0.316   1.146
 3494SOL    HW211382   3.859   0.394   1.044
 3495SOL     OW11383   4.372   5.095   2.385
 3495SOL    HW111384   4.332   5.161   2.322
 3495SOL    HW211385   4.470   5.112   2.394
 3496SOL     OW11386   0.758   2.923   1.369
 3496SOL    HW111387   0.824   2.926   1.445
 3496SOL    HW211388   0.671   2.962   1.400
 3497SOL     OW11389   3.886   0.158   2.920
 3497SOL    HW111390   3.893   0.163   2.820
 3497SOL    HW211391   3.850   0.069   2.946
 3498SOL     OW11392   2.460   2.573   0.736
 3498SOL    HW111393   2.371   2.571   0.782
 3498SOL    HW211394   2.502   2.482   0.741
 3499SOL     OW11395   5.432   3.129   4.470
 3499SOL    HW111396   5.493   3.131   4.390
 3499SOL    HW211397   5.461   3.198   4.536
 3500SOL     OW11398   0.456   4.115   5.607
 3500SOL    HW111399   0.457   4.211   5.580
 3500SOL    HW211400   0.401   4.105   5.690
 3501SOL     OW11401   0.543   5.205   4.451
 3501SOL    HW111402   0.486   5.198   4.369
 3501SOL    HW211403   0.612   5.133   4.449
 3502SOL     OW11404   6.665   2.302   2.499
 3502SOL    HW111405   6.722   2.337   2.574
 3502SOL    HW211406   6.620   2.379   2.454
 3503SOL     OW11407   5.570   5.323   5.562
 3503SOL    HW111408   5.666   5.339   5.586
 3503SOL    HW211409   5.512   5.351   5.638
 3504SOL     OW11410   2.607   3.090   1.430
 3504SOL    HW111411   2.650   3.179   1.415
 3504SOL    HW211412   2.625   3.060   1.523
 3505SOL     OW11413   5.993   5.045   5.081
 3505SOL    HW111414   5.904   5.022   5.120
 3505SOL    HW211415   5.988   5.133   5.035
 3506SOL     OW11416   3.988   5.779   4.766
 3506SOL    HW111417   3.997   5.838   4.845
 3506SOL    HW211418   3.893   5.749   4.757
 3507SOL     OW11419   1.457   0.825   6.669
 3507SOL    HW111420   1.401   0.754   6.712
 3507SOL    HW211421   1.516   0.783   6.600
 3508SOL     OW11422   4.096   2.341   6.109
 3508SOL    HW111423   4.026   2.367   6.176
 3508SOL    HW211424   4.162   2.280   6.152
 3509SOL     OW11425   5.807   5.663   6.648
 3509SOL    HW111426   5.755   5.715   6.580
 3509SOL    HW211427   5.754   5.656   6.732
 3510SOL     OW11428   1.752   2.861   1.589
 3510SOL    HW111429   1.779   2.916   1.510
 3510SOL    HW211430   1.689   2.913   1.647
 3511SOL     OW11431   1.394   3.901   6.941
 3511SOL    HW111432   1.481   3.906   6.892
 3511SOL    HW211433   1.389   3.975   7.008
 3512SOL     OW11434   1.180   4.625   0.819
 3512SOL    HW111435   1.269   4.592   0.789
 3512SOL    HW211436   1.190   4.673   0.906
 3513SOL     OW11437   5.762   4.346   0.944
 3513SOL    HW111438   5.757   4.438   0.905
 3513SOL    HW211439   5.852   4.332   0.987
 3514SOL     OW11440   0.695   0.961   1.749
 3514SOL    HW111441   0.654   1.039   1.703
 3514SOL    HW211442   0.672   0.964   1.847
 3515SOL     OW11443   3.868   6.218   2.388
 3515SOL    HW111444   3.949   6.232   2.446
 3515SOL    HW211445   3.795   6.279   2.419
 3516SOL     OW11446   3.981   1.030   1.472
 3516SOL    HW111447   4.040   1.064   1.399
 3516SOL    HW211448   4.033   1.030   1.558
 3517SOL     OW11449   0.389   1.835   0.019
 3517SOL    HW111450   0.405   1.749   0.067
 3517SOL    HW211451   0.406   1.912   0.080
 3518SOL     OW11452   4.915   4.264   5.362
 3518SOL    HW111453   4.966   4.185   5.327
 3518SOL    HW211454   4.824   4.265   5.322
 3519SOL     OW11455   1.433   0.415   6.631
 3519SOL    HW111456   1.410   0.487   6.697
 3519SOL    HW211457   1.471   0.456   6.548
 3520SOL     OW11458   3.696   4.199   1.393
 3520SOL    HW111459   3.617   4.173   1.449
 3520SOL    HW211460   3.675   4.184   1.296
 3521SOL     OW11461   5.710   2.948   1.835
 3521SOL    HW111462   5.716   2.858   1.878
 3521SOL    HW211463   5.678   3.015   1.902
 3522SOL     OW11464   3.022   5.767   1.979
 3522SOL    HW111465   3.120   5.746   1.977
 3522SOL    HW211466   2.983   5.753   1.888
 3523SOL     OW11467   2.965   4.586   5.614
 3523SOL    HW111468   2.945   4.625   5.524
 3523SOL    HW211469   2.924   4.643   5.685
 3524SOL     OW11470   2.196   0.397   1.297
 3524SOL    HW111471   2.213   0.391   1.198
 3524SOL    HW211472   2.206   0.492   1.326
 3525SOL     OW11473   0.898   3.597   1.859
 3525SOL    HW111474   0.949   3.582   1.774
 3525SOL    HW211475   0.865   3.509   1.894
 3526SOL     OW11476   1.248   0.554   3.985
 3526SOL    HW111477   1.195   0.486   3.935
 3526SOL    HW211478   1.185   0.617   4.030
 3527SOL     OW11479   5.253   2.895   5.020
 3527SOL    HW111480   5.250   2.835   4.939
 3527SOL    HW211481   5.227   2.843   5.101
 3528SOL     OW11482   0.960   5.967   3.391
 3528SOL    HW111483   0.950   5.881   3.442
 3528SOL    HW211484   0.873   5.991   3.349
 3529SOL     OW11485   3.826   0.057   5.741
 3529SOL    HW111486   3.895   0.120   5.777
 3529SOL    HW211487   3.750   0.111   5.703
 3530SOL     OW11488   1.824   5.033   2.380
 3530SOL    HW111489   1.760   4.968   2.340
 3530SOL    HW211490   1.804   5.125   2.346
 3531SOL     OW11491   5.123   3.998   0.771
 3531SOL    HW111492   5.053   4.016   0.701
 3531SOL    HW211493   5.198   3.947   0.730
 3532SOL     OW11494   3.057   0.589   0.440
 3532SOL    HW111495   3.091   0.495   0.442
 3532SOL    HW211496   3.131   0.652   0.466
 3533SOL     OW11497   1.182   2.064   3.074
 3533SOL    HW111498   1.169   2.046   3.171
 3533SOL    HW211499   1.097   2.096   3.034
 3534SOL     OW11500   5.607   1.446   5.396
 3534SOL    HW111501   5.625   1.489   5.485
 3534SOL    HW211502   5.512   1.417   5.392
 3535SOL     OW11503   0.032   5.955   0.785
 3535SOL    HW111504   0.011   6.003   0.870
 3535SOL    HW211505   0.131   5.957   0.770
 3536SOL     OW11506   2.183   3.284   3.740
 3536SOL    HW111507   2.161   3.226   3.819
 3536SOL    HW211508   2.181   3.380   3.768
 3537SOL     OW11509   2.311   4.301   0.913
 3537SOL    HW111510   2.363   4.347   0.986
 3537SOL    HW211511   2.315   4.202   0.927
 3538SOL     OW11512   2.774   1.063   4.002
 3538SOL    HW111513   2.841   1.122   3.957
 3538SOL    HW211514   2.725   1.009   3.933
 3539SOL     OW11515   5.870   3.356   5.998
 3539SOL    HW111516   5.937   3.293   5.958
 3539SOL    HW211517   5.916   3.439   6.027
 3540SOL     OW11518   2.311   2.010   6.144
 3540SOL    HW111519   2.364   1.987   6.062
 3540SOL    HW211520   2.362   2.074   6.200
 3541SOL     OW11521   2.743   2.985   6.988
 3541SOL    HW111522   2.773   3.080   6.998
 3541SOL    HW211523   2.820   2.930   6.955
 3542SOL     OW11524   5.500   2.498   0.613
 3542SOL    HW111525   5.565   2.534   0.546
 3542SOL    HW211526   5.515   2.399   0.623
 3543SOL     OW11527   1.607   3.465   3.453
 3543SOL    HW111528   1.640   3.549   3.410
 3543SOL    HW211529   1.543   3.488   3.526
 3544SOL     OW11530   2.170   4.286   6.655
 3544SOL    HW111531   2.162   4.188   6.633
 3544SOL    HW211532   2.238   4.328   6.595
 3545SOL     OW11533   3.884   4.743   0.709
 3545SOL    HW111534   3.811   4.770   0.772
 3545SOL    HW211535   3.871   4.648   0.681
 3546SOL     OW11536   6.529   4.608   3.303
 3546SOL    HW111537   6.559   4.686   3.247
 3546SOL    HW211538   6.465   4.640   3.373
 3547SOL     OW11539   6.581   4.122   4.813
 3547SOL    HW111540   6.504   4.174   4.777
 3547SOL    HW211541   6.551   4.029   4.836
 3548SOL     OW11542   5.809   0.557   5.502
 3548SOL    HW111543   5.793   0.626   5.431
 3548SOL    HW211544   5.813   0.466   5.460
 3549SOL     OW11545   1.448   4.894   5.581
 3549SOL    HW111546   1.428   4.803   5.545
 3549SOL    HW211547   1.524   4.934   5.529
 3550SOL     OW11548   5.679   2.730   4.494
 3550SOL    HW111549   5.681   2.631   4.485
 3550SOL    HW211550   5.764   2.761   4.538
 3551SOL     OW11551   3.128   2.005   5.071
 3551SOL    HW111552   3.177   1.947   5.005
 3551SOL    HW211553   3.128   2.099   5.039
 3552SOL     OW11554   5.575   5.149   2.234
 3552SOL    HW111555   5.533   5.228   2.189
 3552SOL    HW211556   5.541   5.065   2.193
 3553SOL     OW11557   3.550   5.246   6.179
 3553SOL    HW111558   3.527   5.307   6.254
 3553SOL    HW211559   3.599   5.166   6.214
 3554SOL     OW11560   4.365   3.623   0.235
 3554SOL    HW111561   4.407   3.560   0.171
 3554SOL    HW211562   4.278   3.585   0.267
 3555SOL     OW11563   1.726   2.170   4.076
 3555SOL    HW111564   1.648   2.210   4.124
 3555SOL    HW211565   1.743   2.078   4.109
 3556SOL     OW11566   3.878   1.064   3.666
 3556SOL    HW111567   3.924   1.005   3.733
 3556SOL    HW211568   3.870   1.015   3.579
 3557SOL     OW11569   0.845   0.470   3.285
 3557SOL    HW111570   0.869   0.373   3.290
 3557SOL    HW211571   0.922   0.525   3.315
 3558SOL     OW11572   2.458   4.895   0.965
 3558SOL    HW111573   2.401   4.970   1.000
 3558SOL    HW211574   2.409   4.848   0.892
 3559SOL     OW11575   1.922   6.335   4.155
 3559SOL    HW111576   1.998   6.270   4.160
 3559SOL    HW211577   1.911   6.366   4.060
 3560SOL     OW11578   2.317   5.254   3.394
 3560SOL    HW111579   2.245   5.200   3.349
 3560SOL    HW211580   2.329   5.340   3.345
 3561SOL     OW11581   5.338   4.848   6.053
 3561SOL    HW111582   5.327   4.947   6.058
 3561SOL    HW211583   5.402   4.826   5.979
 3562SOL     OW11584   3.606   2.059   4.750
 3562SOL    HW111585   3.601   2.080   4.848
 3562SOL    HW211586   3.518   2.080   4.708
 3563SOL     OW11587   6.185   1.913   6.089
 3563SOL    HW111588   6.137   1.874   6.168
 3563SOL    HW211589   6.118   1.936   6.018
 3564SOL     OW11590   0.405   4.998   3.202
 3564SOL    HW111591   0.306   5.004   3.197
 3564SOL    HW211592   0.435   4.907   3.173
 3565SOL     OW11593   3.346   5.069   2.583
 3565SOL    HW111594   3.424   5.070   2.646
 3565SOL    HW211595   3.268   5.026   2.629
 3566SOL     OW11596   6.087   0.739   5.675
 3566SOL    HW111597   6.181   0.749   5.644
 3566SOL    HW211598   6.086   0.718   5.772
 3567SOL     OW11599   0.343   2.475   5.807
 3567SOL    HW111600   0.367   2.441   5.898
 3567SOL    HW211601   0.245   2.490   5.802
 3568SOL     OW11602   6.046   3.790   5.218
 3568SOL    HW111603   6.023   3.738   5.136
 3568SOL    HW211604   6.014   3.884   5.208
 3569SOL     OW11605   2.971   1.762   5.429
 3569SOL    HW111606   2.993   1.727   5.337
 3569SOL    HW211607   3.008   1.854   5.439
 3570SOL     OW11608   4.717   0.446   6.164
 3570SOL    HW111609   4.693   0.474   6.071
 3570SOL    HW211610   4.816   0.437   6.172
 3571SOL     OW11611   0.223   5.304   7.002
 3571SOL    HW111612   0.133   5.320   6.963
 3571SOL    HW211613   0.284   5.379   6.975
 3572SOL     OW11614   5.410   3.974   3.882
 3572SOL    HW111615   5.311   3.959   3.877
 3572SOL    HW211616   5.457   3.901   3.833
 3573SOL     OW11617   0.414   4.747   3.857
 3573SOL    HW111618   0.457   4.773   3.771
 3573SOL    HW211619   0.457   4.796   3.933
 3574SOL     OW11620   0.379   4.712   0.649
 3574SOL    HW111621   0.370   4.742   0.554
 3574SOL    HW211622   0.464   4.749   0.687
 3575SOL     OW11623   5.257   4.546   3.356
 3575SOL    HW111624   5.330   4.560   3.424
 3575SOL    HW211625   5.223   4.635   3.325
 3576SOL     OW11626   2.108   1.662   5.742
 3576SOL    HW111627   2.089   1.586   5.680
 3576SOL    HW211628   2.186   1.714   5.707
 3577SOL     OW11629   0.982   3.370   5.865
 3577SOL    HW111630   0.963   3.320   5.950
 3577SOL    HW211631   1.079   3.364   5.843
 3578SOL     OW11632   3.866   2.910   0.610
 3578SOL    HW111633   3.803   2.850   0.561
 3578SOL    HW211634   3.862   2.889   0.708
 3579SOL     OW11635   0.132   4.076   4.634
 3579SOL    HW111636   0.116   4.170   4.602
 3579SOL    HW211637   0.163   4.078   4.729
 3580SOL     OW11638   6.058   1.610   0.843
 3580SOL    HW111639   6.005   1.556   0.778
 3580SOL    HW211640   6.023   1.703   0.847
 3581SOL     OW11641   6.448   0.056   4.140
 3581SOL    HW111642   6.366   0.001   4.123
 3581SOL    HW211643   6.469   0.110   4.058
 3582SOL     OW11644   0.726   1.630   5.789
 3582SOL    HW111645   0.798   1.699   5.793
 3582SOL    HW211646   0.755   1.555   5.729
 3583SOL     OW11647   0.995   3.841   6.553
 3583SOL    HW111648   0.950   3.929   6.537
 3583SOL    HW211649   1.095   3.854   6.550
 3584SOL     OW11650   5.957   5.525   0.362
 3584SOL    HW111651   5.880   5.590   0.358
 3584SOL    HW211652   5.927   5.436   0.330
 3585SOL     OW11653   3.676   5.582   5.122
 3585SOL    HW111654   3.636   5.656   5.067
 3585SOL    HW211655   3.652   5.494   5.082
 3586SOL     OW11656   6.928   1.990   5.282
 3586SOL    HW111657   6.974   1.992   5.370
 3586SOL    HW211658   6.967   1.917   5.225
 3587SOL     OW11659   2.641   4.659   7.012
 3587SOL    HW111660   2.586   4.716   6.950
 3587SOL    HW211661   2.618   4.681   0.084
 3588SOL     OW11662   0.845   2.569   4.930
 3588SOL    HW111663   0.835   2.597   5.026
 3588SOL    HW211664   0.927   2.610   4.891
 3589SOL     OW11665   3.986   1.748   4.169
 3589SOL    HW111666   3.950   1.781   4.081
 3589SOL    HW211667   4.073   1.793   4.188
 3590SOL     OW11668   0.397   3.760   5.776
 3590SOL    HW111669   0.481   3.708   5.762
 3590SOL    HW211670   0.327   3.727   5.712
 3591SOL     OW11671   4.976   3.365   6.306
 3591SOL    HW111672   5.059   3.351   6.252
 3591SOL    HW211673   4.903   3.307   6.271
 3592SOL     OW11674   6.124   4.231   2.742
 3592SOL    HW111675   6.069   4.234   2.658
 3592SOL    HW211676   6.178   4.146   2.743
 3593SOL     OW11677   2.253   6.059   4.366
 3593SOL    HW111678   2.222   6.092   4.276
 3593SOL    HW211679   2.180   6.073   4.433
 3594SOL     OW11680   3.744   0.590   2.792
 3594SOL    HW111681   3.725   0.667   2.731
 3594SOL    HW211682   3.838   0.596   2.825
 3595SOL     OW11683   2.331   5.448   6.221
 3595SOL    HW111684   2.343   5.399   6.135
 3595SOL    HW211685   2.364   5.392   6.297
 3596SOL     OW11686   6.076   2.390   2.892
 3596SOL    HW111687   6.143   2.340   2.836
 3596SOL    HW211688   5.990   2.339   2.894
 3597SOL     OW11689   2.359   6.566   5.238
 3597SOL    HW111690   2.438   6.548   5.296
 3597SOL    HW211691   2.346   6.665   5.228
 3598SOL     OW11692   1.001   6.553   6.184
 3598SOL    HW111693   1.068   6.481   6.167
 3598SOL    HW211694   1.013   6.589   6.276
 3599SOL     OW11695   0.540   2.182   5.693
 3599SOL    HW111696   0.549   2.230   5.780
 3599SOL    HW211697   0.478   2.231   5.633
 3600SOL     OW11698   1.105   3.383   0.197
 3600SOL    HW111699   1.160   3.441   0.138
 3600SOL    HW211700   1.008   3.404   0.185
 3601SOL     OW11701   6.544   4.364   0.402
 3601SOL    HW111702   6.585   4.386   0.491
 3601SOL    HW211703   6.568   4.270   0.377
 3602SOL     OW11704   1.724   1.726   0.823
 3602SOL    HW111705   1.642   1.754   0.773
 3602SOL    HW211706   1.747   1.795   0.891
 3603SOL     OW11707   3.608   6.429   3.694
 3603SOL    HW111708   3.656   6.365   3.755
 3603SOL    HW211709   3.516   6.446   3.729
 3604SOL     OW11710   6.757   4.912   3.971
 3604SOL    HW111711   6.685   4.874   4.029
 3604SOL    HW211712   6.739   4.888   3.875
 3605SOL     OW11713   5.073   4.729   5.722
 3605SOL    HW111714   5.153   4.669   5.733
 3605SOL    HW211715   5.059   4.748   5.625
 3606SOL     OW11716   6.836   5.349   5.357
 3606SOL    HW111717   6.851   5.261   5.312
 3606SOL    HW211718   6.789   5.334   5.444
 3607SOL     OW11719   5.111   6.399   1.012
 3607SOL    HW111720   5.061   6.362   0.934
 3607SOL    HW211721   5.148   6.324   1.067
 3608SOL     OW11722   6.392   1.848   2.181
 3608SOL    HW111723   6.317   1.860   2.247
 3608SOL    HW211724   6.479   1.847   2.230
 3609SOL     OW11725   0.632   0.225   3.845
 3609SOL    HW111726   0.698   0.157   3.877
 3609SOL    HW211727   0.677   0.314   3.839
 3610SOL     OW11728   1.092   0.665   5.539
 3610SOL    HW111729   1.187   0.677   5.570
 3610SOL    HW211730   1.087   0.684   5.441
 3611SOL     OW11731   4.020   5.980   5.647
 3611SOL    HW111732   3.949   5.950   5.710
 3611SOL    HW211733   4.092   6.026   5.698
 3612SOL     OW11734   6.147   0.070   5.904
 3612SOL    HW111735   6.213   0.129   5.950
 3612SOL    HW211736   6.065   0.061   5.960
 3613SOL     OW11737   4.586   5.172   1.569
 3613SOL    HW111738   4.507   5.206   1.517
 3613SOL    HW211739   4.649   5.125   1.508
 3614SOL     OW11740   3.514   3.375   2.570
 3614SOL    HW111741   3.542   3.280   2.557
 3614SOL    HW211742   3.579   3.436   2.524
 3615SOL     OW11743   4.984   6.270   6.953
 3615SOL    HW111744   4.945   6.264   6.861
 3615SOL    HW211745   4.989   6.178   6.993
 3616SOL     OW11746   6.899   2.428   6.255
 3616SOL    HW111747   6.958   2.465   6.183
 3616SOL    HW211748   6.948   2.432   6.342
 3617SOL     OW11749   4.957   0.712   6.624
 3617SOL    HW111750   4.876   0.696   6.681
 3617SOL    HW211751   4.928   0.735   6.531
 3618SOL     OW11752   2.065   1.694   4.918
 3618SOL    HW111753   2.060   1.779   4.969
 3618SOL    HW211754   2.112   1.710   4.831
 3619SOL     OW11755   6.386   3.156   3.931
 3619SOL    HW111756   6.388   3.247   3.970
 3619SOL    HW211757   6.462   3.102   3.967
 3620SOL     OW11758   6.112   5.913   6.149
 3620SOL    HW111759   6.096   5.815   6.141
 3620SOL    HW211760   6.079   5.945   6.238
 3621SOL     OW11761   2.974   2.585   5.730
 3621SOL    HW111762   2.999   2.494   5.697
 3621SOL    HW211763   3.028   2.654   5.681
 3622SOL     OW11764   2.004   2.470   3.742
 3622SOL    HW111765   1.989   2.435   3.650
 3622SOL    HW211766   1.933   2.536   3.765
 3623SOL     OW11767   6.113   6.045   3.677
 3623SOL    HW111768   6.043   5.995   3.729
 3623SOL    HW211769   6.070   6.121   3.627
 3624SOL     OW11770   1.477   6.866   2.368
 3624SOL    HW111771   1.539   6.793   2.395
 3624SOL    HW211772   1.398   6.827   2.321
 3625SOL     OW11773   5.614   3.580   6.830
 3625SOL    HW111774   5.542   3.624   6.777
 3625SOL    HW211775   5.687   3.548   6.769
 3626SOL     OW11776   1.434   3.606   5.361
 3626SOL    HW111777   1.378   3.627   5.441
 3626SOL    HW211778   1.529   3.631   5.380
 3627SOL     OW11779   3.642   2.926   3.232
 3627SOL    HW111780   3.730   2.958   3.268
 3627SOL    HW211781   3.651   2.907   3.134
 3628SOL     OW11782   1.425   6.931   1.497
 3628SOL    HW111783   1.462   6.944   1.589
 3628SOL    HW211784   1.433   7.017   1.446
 3629SOL     OW11785   6.164   2.122   4.548
 3629SOL    HW111786   6.239   2.110   4.613
 3629SOL    HW211787   6.116   2.035   4.536
 3630SOL     OW11788   5.110   2.600   3.457
 3630SOL    HW111789   5.152   2.509   3.446
 3630SOL    HW211790   5.176   2.670   3.432
 3631SOL     OW11791   2.111   0.127   3.708
 3631SOL    HW111792   2.195   0.143   3.655
 3631SOL    HW211793   2.101   0.198   3.777
 3632SOL     OW11794   4.731   6.795   0.691
 3632SOL    HW111795   4.632   6.787   0.681
 3632SOL    HW211796   4.770   6.706   0.714
 3633SOL     OW11797   2.930   1.857   5.779
 3633SOL    HW111798   2.852   1.857   5.716
 3633SOL    HW211799   3.014   1.836   5.728
 3634SOL     OW11800   0.798   5.358   4.489
 3634SOL    HW111801   0.840   5.309   4.565
 3634SOL    HW211802   0.702   5.376   4.510
 3635SOL     OW11803   2.677   6.532   6.440
 3635SOL    HW111804   2.661   6.434   6.447
 3635SOL    HW211805   2.737   6.550   6.362
 3636SOL     OW11806   0.547   5.616   6.423
 3636SOL    HW111807   0.625   5.625   6.362
 3636SOL    HW211808   0.476   5.560   6.379
 3637SOL     OW11809   5.732   1.888   1.615
 3637SOL    HW111810   5.803   1.877   1.544
 3637SOL    HW211811   5.722   1.986   1.636
 3638SOL     OW11812   0.126   4.768   4.606
 3638SOL    HW111813   0.181   4.701   4.556
 3638SOL    HW211814   0.184   4.820   4.669
 3639SOL     OW11815   3.611   4.532   1.407
 3639SOL    HW111816   3.671   4.478   1.348
 3639SOL    HW211817   3.613   4.496   1.500
 3640SOL     OW11818   3.347   0.671   6.922
 3640SOL    HW111819   3.272   0.732   6.896
 3640SOL    HW211820   3.343   0.588   6.866
 3641SOL     OW11821   4.933   3.443   4.214
 3641SOL    HW111822   4.875   3.378   4.263
 3641SOL    HW211823   4.910   3.441   4.116
 3642SOL     OW11824   4.593   0.880   0.566
 3642SOL    HW111825   4.531   0.847   0.495
 3642SOL    HW211826   4.543   0.941   0.628
 3643SOL     OW11827   3.379   5.623   4.784
 3643SOL    HW111828   3.282   5.606   4.804
 3643SOL    HW211829   3.427   5.535   4.773
 3644SOL     OW11830   6.251   1.501   1.725
 3644SOL    HW111831   6.225   1.571   1.791
 3644SOL    HW211832   6.322   1.443   1.765
 3645SOL     OW11833   6.993   2.688   3.863
 3645SOL    HW111834   0.064   2.719   3.845
 3645SOL    HW211835   6.991   2.588   3.863
 3646SOL     OW11836   6.409   4.192   6.915
 3646SOL    HW111837   6.395   4.102   6.956
 3646SOL    HW211838   6.397   4.185   6.816
 3647SOL     OW11839   2.171   3.334   0.121
 3647SOL    HW111840   2.231   3.412   0.140
 3647SOL    HW211841   2.164   3.322   0.022
 3648SOL     OW11842   3.123   4.973   2.962
 3648SOL    HW111843   3.111   4.926   3.050
 3648SOL    HW211844   3.108   5.071   2.974
 3649SOL     OW11845   5.193   3.091   2.110
 3649SOL    HW111846   5.250   3.022   2.065
 3649SOL    HW211847   5.117   3.046   2.157
 3650SOL     OW11848   0.539   4.387   0.728
 3650SOL    HW111849   0.471   4.428   0.668
 3650SOL    HW211850   0.493   4.343   0.805
 3651SOL     OW11851   0.582   6.928   3.988
 3651SOL    HW111852   0.541   6.854   3.934
 3651SOL    HW211853   0.665   6.960   3.943
 3652SOL     OW11854   6.025   6.370   3.083
 3652SOL    HW111855   6.066   6.459   3.101
 3652SOL    HW211856   5.943   6.382   3.027
 3653SOL     OW11857   0.685   1.598   4.374
 3653SOL    HW111858   0.772   1.638   4.346
 3653SOL    HW211859   0.612   1.666   4.366
 3654SOL     OW11860   2.851   5.561   0.283
 3654SOL    HW111861   2.853   5.661   0.293
 3654SOL    HW211862   2.759   5.532   0.255
 3655SOL     OW11863   2.724   6.967   3.741
 3655SOL    HW111864   2.702   6.954   3.838
 3655SOL    HW211865   2.696   6.887   3.689
 3656SOL     OW11866   0.917   3.828   2.063
 3656SOL    HW111867   0.891   3.735   2.036
 3656SOL    HW211868   0.854   3.861   2.133
 3657SOL     OW11869   4.942   5.214   6.522
 3657SOL    HW111870   5.016   5.208   6.589
 3657SOL    HW211871   4.967   5.162   6.440
 3658SOL     OW11872   1.707   6.154   4.192
 3658SOL    HW111873   1.791   6.202   4.167
 3658SOL    HW211874   1.723   6.098   4.273
 3659SOL     OW11875   2.256   3.255   5.556
 3659SOL    HW111876   2.274   3.239   5.459
 3659SOL    HW211877   2.166   3.219   5.580
 3660SOL     OW11878   4.536   0.259   2.696
 3660SOL    HW111879   4.513   0.251   2.793
 3660SOL    HW211880   4.453   0.271   2.642
 3661SOL     OW11881   5.141   1.361   6.206
 3661SOL    HW111882   5.138   1.287   6.138
 3661SOL    HW211883   5.071   1.345   6.275
 3662SOL     OW11884   3.748   0.515   3.658
 3662SOL    HW111885   3.693   0.565   3.590
 3662SOL    HW211886   3.689   0.450   3.707
 3663SOL     OW11887   1.283   2.186   0.488
 3663SOL    HW111888   1.244   2.177   0.580
 3663SOL    HW211889   1.328   2.275   0.479
 3664SOL     OW11890   4.966   1.614   2.192
 3664SOL    HW111891   4.872   1.647   2.206
 3664SOL    HW211892   4.992   1.554   2.267
 3665SOL     OW11893   1.807   6.088   5.418
 3665SOL    HW111894   1.816   6.008   5.358
 3665SOL    HW211895   1.793   6.058   5.512
 3666SOL     OW11896   1.462   4.184   3.163
 3666SOL    HW111897   1.400   4.198   3.085
 3666SOL    HW211898   1.553   4.215   3.138
 3667SOL     OW11899   0.082   0.863   1.576
 3667SOL    HW111900   0.065   0.838   1.481
 3667SOL    HW211901   0.180   0.875   1.591
 3668SOL     OW11902   1.482   1.143   2.129
 3668SOL    HW111903   1.563   1.093   2.160
 3668SOL    HW211904   1.502   1.191   2.044
 3669SOL     OW11905   5.364   1.332   3.662
 3669SOL    HW111906   5.283   1.362   3.714
 3669SOL    HW211907   5.353   1.358   3.567
 3670SOL     OW11908   2.323   4.722   0.441
 3670SOL    HW111909   2.400   4.682   0.392
 3670SOL    HW211910   2.309   4.673   0.527
 3671SOL     OW11911   6.172   0.308   4.194
 3671SOL    HW111912   6.150   0.283   4.100
 3671SOL    HW211913   6.110   0.261   4.257
 3672SOL     OW11914   5.684   2.149   1.704
 3672SOL    HW111915   5.634   2.094   1.771
 3672SOL    HW211916   5.737   2.219   1.750
 3673SOL     OW11917   4.468   6.757   6.507
 3673SOL    HW111918   4.396   6.731   6.570
 3673SOL    HW211919   4.441   6.841   6.459
 3674SOL     OW11920   0.550   6.811   4.954
 3674SOL    HW111921   0.521   6.848   4.866
 3674SOL    HW211922   0.529   6.877   5.026
 3675SOL     OW11923   1.581   3.192   4.797
 3675SOL    HW111924   1.661   3.220   4.744
 3675SOL    HW211925   1.563   3.259   4.869
 3676SOL     OW11926   5.103   4.387   4.931
 3676SOL    HW111927   5.100   4.408   5.028
 3676SOL    HW211928   5.064   4.296   4.916
 3677SOL     OW11929   2.273   6.264   2.888
 3677SOL    HW111930   2.184   6.217   2.890
 3677SOL    HW211931   2.329   6.224   2.815
 3678SOL     OW11932   0.166   2.779   4.875
 3678SOL    HW111933   0.108   2.854   4.910
 3678SOL    HW211934   0.107   2.705   4.842
 3679SOL     OW11935   1.545   0.562   2.843
 3679SOL    HW111936   1.525   0.500   2.768
 3679SOL    HW211937   1.551   0.656   2.809
 3680SOL     OW11938   5.452   2.129   3.638
 3680SOL    HW111939   5.470   2.224   3.612
 3680SOL    HW211940   5.437   2.074   3.556
 3681SOL     OW11941   0.508   0.487   5.116
 3681SOL    HW111942   0.414   0.511   5.142
 3681SOL    HW211943   0.509   0.394   5.078
 3682SOL     OW11944   5.567   2.439   6.819
 3682SOL    HW111945   5.529   2.450   6.911
 3682SOL    HW211946   5.667   2.430   6.826
 3683SOL     OW11947   6.960   0.240   3.306
 3683SOL    HW111948   0.017   0.282   3.262
 3683SOL    HW211949   6.948   0.147   3.273
 3684SOL     OW11950   1.697   4.769   6.731
 3684SOL    HW111951   1.690   4.766   6.831
 3684SOL    HW211952   1.615   4.811   6.693
 3685SOL     OW11953   6.669   6.079   6.125
 3685SOL    HW111954   6.618   6.096   6.209
 3685SOL    HW211955   6.752   6.134   6.124
 3686SOL     OW11956   5.576   6.140   3.248
 3686SOL    HW111957   5.641   6.148   3.324
 3686SOL    HW211958   5.625   6.150   3.161
 3687SOL     OW11959   3.982   6.327   5.528
 3687SOL    HW111960   3.941   6.235   5.530
 3687SOL    HW211961   4.069   6.325   5.578
 3688SOL     OW11962   6.387   3.726   6.438
 3688SOL    HW111963   6.386   3.637   6.483
 3688SOL    HW211964   6.372   3.714   6.340
 3689SOL     OW11965   1.967   0.802   6.832
 3689SOL    HW111966   1.869   0.812   6.816
 3689SOL    HW211967   2.013   0.775   6.748
 3690SOL     OW11968   4.828   6.572   0.411
 3690SOL    HW111969   4.838   6.550   0.508
 3690SOL    HW211970   4.878   6.656   0.390
 3691SOL     OW11971   3.256   2.754   0.236
 3691SOL    HW111972   3.219   2.683   0.297
 3691SOL    HW211973   3.181   2.804   0.193
 3692SOL     OW11974   0.516   5.750   5.088
 3692SOL    HW111975   0.440   5.772   5.028
 3692SOL    HW211976   0.526   5.822   5.157
 3693SOL     OW11977   1.863   2.722   3.001
 3693SOL    HW111978   1.845   2.769   3.087
 3693SOL    HW211979   1.788   2.658   2.981
 3694SOL     OW11980   1.409   5.247   3.133
 3694SOL    HW111981   1.492   5.257   3.189
 3694SOL    HW211982   1.329   5.250   3.192
 3695SOL     OW11983   6.943   2.923   1.982
 3695SOL    HW111984   6.884   2.842   1.984
 3695SOL    HW211985   0.014   2.897   1.957
 3696SOL     OW11986   3.356   5.416   5.149
 3696SOL    HW111987   3.436   5.376   5.105
 3696SOL    HW211988   3.287   5.346   5.164
 3697SOL     OW11989   0.098   6.380   3.269
 3697SOL    HW111990   0.085   6.456   3.205
 3697SOL    HW211991   0.014   6.325   3.273
 3698SOL     OW11992   2.255   0.382   4.449
 3698SOL    HW111993   2.211   0.296   4.477
 3698SOL    HW211994   2.240   0.451   4.520
 3699SOL     OW11995   0.828   3.162   3.337
 3699SOL    HW111996   0.847   3.134   3.431
 3699SOL    HW211997   0.912   3.197   3.295
 3700SOL     OW11998   0.442   7.005   5.130
 3700SOL    HW111999   0.496   6.984   5.212
 3700SOL    HW212000   0.346   7.016   5.155
 3701SOL     OW12001   1.246   0.254   3.613
 3701SOL    HW112002   1.292   0.286   3.696
 3701SOL    HW212003   1.229   0.331   3.551
 3702SOL     OW12004   5.976   6.332   2.735
 3702SOL    HW112005   5.890   6.362   2.776
 3702SOL    HW212006   5.989   6.235   2.754
 3703SOL     OW12007   4.433   1.529   6.449
 3703SOL    HW112008   4.404   1.599   6.384
 3703SOL    HW212009   4.361   1.460   6.459
 3704SOL     OW12010   3.639   1.430   1.722
 3704SOL    HW112011   3.672   1.522   1.740
 3704SOL    HW212012   3.553   1.415   1.770
 3705SOL     OW12013   5.076   5.663   3.730
 3705SOL    HW112014   5.048   5.587   3.671
 3705SOL    HW212015   5.109   5.626   3.817
 3706SOL     OW12016   1.579   3.881   5.629
 3706SOL    HW112017   1.576   3.792   5.583
 3706SOL    HW212018   1.491   3.898   5.675
 3707SOL     OW12019   5.453   4.172   5.646
 3707SOL    HW112020   5.489   4.205   5.559
 3707SOL    HW212021   5.356   4.194   5.653
 3708SOL     OW12022   6.767   1.006   6.128
 3708SOL    HW112023   6.672   1.027   6.152
 3708SOL    HW212024   6.810   0.958   6.205
 3709SOL     OW12025   3.357   0.786   0.935
 3709SOL    HW112026   3.367   0.830   0.846
 3709SOL    HW212027   3.261   0.788   0.962
 3710SOL     OW12028   6.874   5.532   6.749
 3710SOL    HW112029   6.849   5.589   6.671
 3710SOL    HW212030   6.840   5.574   6.833
 3711SOL     OW12031   0.765   0.022   3.432
 3711SOL    HW112032   0.820   7.007   3.507
 3711SOL    HW212033   0.668   0.010   3.452
 3712SOL     OW12034   0.144   5.795   6.984
 3712SOL    HW112035   0.168   5.877   6.932
 3712SOL    HW212036   0.224   5.761   0.010
 3713SOL     OW12037   1.700   6.331   4.889
 3713SOL    HW112038   1.607   6.301   4.914
 3713SOL    HW212039   1.701   6.430   4.877
 3714SOL     OW12040   4.698   6.020   5.471
 3714SOL    HW112041   4.748   6.101   5.503
 3714SOL    HW212042   4.668   5.967   5.550
 3715SOL     OW12043   5.775   3.936   2.526
 3715SOL    HW112044   5.743   3.952   2.433
 3715SOL    HW212045   5.775   3.838   2.546
 3716SOL     OW12046   6.063   6.461   5.288
 3716SOL    HW112047   6.144   6.517   5.268
 3716SOL    HW212048   5.999   6.514   5.343
 3717SOL     OW12049   5.430   5.871   6.661
 3717SOL    HW112050   5.439   5.771   6.668
 3717SOL    HW212051   5.504   5.914   6.713
 3718SOL     OW12052   1.642   0.633   7.017
 3718SOL    HW112053   1.611   0.538   0.003
 3718SOL    HW212054   1.612   0.685   0.074
 3719SOL     OW12055   5.445   4.640   0.833
 3719SOL    HW112056   5.403   4.722   0.794
 3719SOL    HW212057   5.469   4.576   0.760
 3720SOL     OW12058   6.392   2.301   6.299
 3720SOL    HW112059   6.368   2.298   6.396
 3720SOL    HW212060   6.356   2.219   6.253
 3721SOL     OW12061   5.107   4.253   1.903
 3721SOL    HW112062   5.032   4.215   1.848
 3721SOL    HW212063   5.174   4.296   1.842
 3722SOL     OW12064   6.471   6.129   1.026
 3722SOL    HW112065   6.467   6.191   0.948
 3722SOL    HW212066   6.417   6.167   1.101
 3723SOL     OW12067   6.527   6.468   1.953
 3723SOL    HW112068   6.602   6.423   1.904
 3723SOL    HW212069   6.471   6.399   1.999
 3724SOL     OW12070   1.661   4.261   5.378
 3724SOL    HW112071   1.742   4.270   5.320
 3724SOL    HW212072   1.675   4.312   5.463
 3725SOL     OW12073   6.208   5.153   1.239
 3725SOL    HW112074   6.159   5.121   1.320
 3725SOL    HW212075   6.181   5.097   1.160
 3726SOL     OW12076   6.451   4.568   0.744
 3726SOL    HW112077   6.371   4.508   0.749
 3726SOL    HW212078   6.529   4.517   0.709
 3727SOL     OW12079   6.888   1.774   5.576
 3727SOL    HW112080   6.847   1.846   5.633
 3727SOL    HW212081   6.987   1.776   5.588
 3728SOL     OW12082   0.973   4.452   6.979
 3728SOL    HW112083   1.048   4.501   0.001
 3728SOL    HW212084   0.968   4.480   6.883
 3729SOL     OW12085   0.886   2.111   3.308
 3729SOL    HW112086   0.949   2.039   3.278
 3729SOL    HW212087   0.868   2.100   3.406
 3730SOL     OW12088   2.756   5.308   6.378
 3730SOL    HW112089   2.737   5.331   6.473
 3730SOL    HW212090   2.824   5.234   6.375
 3731SOL     OW12091   5.585   0.219   1.036
 3731SOL    HW112092   5.526   0.151   1.079
 3731SOL    HW212093   5.554   0.236   0.942
 3732SOL     OW12094   2.477   1.950   5.915
 3732SOL    HW112095   2.564   1.965   5.867
 3732SOL    HW212096   2.413   2.023   5.892
 3733SOL     OW12097   1.263   3.464   1.925
 3733SOL    HW112098   1.360   3.476   1.902
 3733SOL    HW212099   1.208   3.472   1.842
 3734SOL     OW12100   4.941   1.189   2.152
 3734SOL    HW112101   4.976   1.122   2.087
 3734SOL    HW212102   5.018   1.237   2.195
 3735SOL     OW12103   2.687   0.920   3.815
 3735SOL    HW112104   2.706   0.948   3.721
 3735SOL    HW212105   2.638   0.833   3.815
 3736SOL     OW12106   6.980   2.291   0.555
 3736SOL    HW112107   6.893   2.307   0.600
 3736SOL    HW212108   6.966   2.290   0.456
 3737SOL     OW12109   4.652   0.101   3.273
 3737SOL    HW112110   4.671   0.042   3.352
 3737SOL    HW212111   4.693   0.191   3.288
 3738SOL     OW12112   0.190   6.030   1.995
 3738SOL    HW112113   0.172   6.034   1.897
 3738SOL    HW212114   0.213   6.121   2.029
 3739SOL     OW12115   2.520   4.728   1.640
 3739SOL    HW112116   2.595   4.737   1.706
 3739SOL    HW212117   2.435   4.758   1.683
 3740SOL     OW12118   5.857   0.452   0.504
 3740SOL    HW112119   5.796   0.379   0.473
 3740SOL    HW212120   5.822   0.491   0.589
 3741SOL     OW12121   5.501   3.009   1.381
 3741SOL    HW112122   5.506   2.966   1.290
 3741SOL    HW212123   5.556   2.956   1.446
 3742SOL     OW12124   2.380   2.249   6.661
 3742SOL    HW112125   2.478   2.235   6.645
 3742SOL    HW212126   2.342   2.168   6.705
 3743SOL     OW12127   5.271   2.976   0.948
 3743SOL    HW112128   5.172   2.965   0.957
 3743SOL    HW212129   5.300   2.944   0.858
 3744SOL     OW12130   0.719   6.233   2.871
 3744SOL    HW112131   0.765   6.173   2.935
 3744SOL    HW212132   0.761   6.224   2.780
 3745SOL     OW12133   3.791   5.047   1.916
 3745SOL    HW112134   3.757   4.967   1.868
 3745SOL    HW212135   3.729   5.124   1.902
 3746SOL     OW12136   5.774   1.085   2.736
 3746SOL    HW112137   5.784   1.170   2.686
 3746SOL    HW212138   5.862   1.038   2.740
 3747SOL     OW12139   2.816   0.087   5.622
 3747SOL    HW112140   2.860   0.054   5.706
 3747SOL    HW212141   2.783   0.181   5.636
 3748SOL     OW12142   5.830   0.121   1.760
 3748SOL    HW112143   5.919   0.167   1.758
 3748SOL    HW212144   5.844   0.023   1.747
 3749SOL     OW12145   1.847   6.250   3.883
 3749SOL    HW112146   1.847   6.163   3.933
 3749SOL    HW212147   1.762   6.258   3.831
 3750SOL     OW12148   1.420   4.096   0.705
 3750SOL    HW112149   1.516   4.073   0.720
 3750SOL    HW212150   1.366   4.012   0.702
 3751SOL     OW12151   6.713   3.541   1.953
 3751SOL    HW112152   6.709   3.459   2.011
 3751SOL    HW212153   6.795   3.592   1.975
 3752SOL     OW12154   5.437   0.816   6.552
 3752SOL    HW112155   5.411   0.858   6.639
 3752SOL    HW212156   5.363   0.756   6.521
 3753SOL     OW12157   6.895   0.574   5.566
 3753SOL    HW112158   6.839   0.521   5.629
 3753SOL    HW212159   6.837   0.638   5.515
 3754SOL     OW12160   1.642   0.195   1.248
 3754SOL    HW112161   1.681   0.135   1.178
 3754SOL    HW212162   1.660   0.290   1.224
 3755SOL     OW12163   4.507   5.595   5.118
 3755SOL    HW112164   4.409   5.608   5.100
 3755SOL    HW212165   4.522   5.501   5.150
 3756SOL     OW12166   2.994   5.240   6.019
 3756SOL    HW112167   2.915   5.288   6.056
 3756SOL    HW212168   3.078   5.275   6.060
 3757SOL     OW12169   6.331   4.918   1.978
 3757SOL    HW112170   6.404   4.856   1.949
 3757SOL    HW212171   6.362   5.013   1.969
 3758SOL     OW12172   2.437   1.542   4.775
 3758SOL    HW112173   2.424   1.639   4.791
 3758SOL    HW212174   2.349   1.495   4.777
 3759SOL     OW12175   4.198   0.365   5.839
 3759SOL    HW112176   4.202   0.419   5.924
 3759SOL    HW212177   4.145   0.415   5.770
 3760SOL     OW12178   0.844   1.753   4.191
 3760SOL    HW112179   0.910   1.826   4.172
 3760SOL    HW212180   0.838   1.692   4.112
 3761SOL     OW12181   6.684   1.168   5.613
 3761SOL    HW112182   6.728   1.250   5.575
 3761SOL    HW212183   6.742   1.131   5.685
 3762SOL     OW12184   1.380   4.532   1.369
 3762SOL    HW112185   1.345   4.625   1.356
 3762SOL    HW212186   1.380   4.484   1.282
 3763SOL     OW12187   0.621   3.649   6.974
 3763SOL    HW112188   0.553   3.681   6.909
 3763SOL    HW212189   0.587   3.662   0.045
 3764SOL     OW12190   1.187   6.858   2.298
 3764SOL    HW112191   1.181   6.889   2.392
 3764SOL    HW212192   1.121   6.909   2.242
 3765SOL     OW12193   5.790   1.257   1.073
 3765SOL    HW112194   5.880   1.301   1.072
 3765SOL    HW212195   5.740   1.281   0.990
 3766SOL     OW12196   1.927   2.334   4.209
 3766SOL    HW112197   2.005   2.274   4.227
 3766SOL    HW212198   1.846   2.278   4.188
 3767SOL     OW12199   3.266   4.453   0.375
 3767SOL    HW112200   3.337   4.519   0.399
 3767SOL    HW212201   3.225   4.416   0.458
 3768SOL     OW12202   0.895   6.800   4.726
 3768SOL    HW112203   0.860   6.740   4.798
 3768SOL    HW212204   0.841   6.884   4.724
 3769SOL     OW12205   5.988   5.316   4.948
 3769SOL    HW112206   5.902   5.367   4.955
 3769SOL    HW212207   6.062   5.370   4.988
 3770SOL     OW12208   0.894   0.805   6.860
 3770SOL    HW112209   0.923   0.772   6.950
 3770SOL    HW212210   0.799   0.781   6.845
 3771SOL     OW12211   5.198   4.173   0.248
 3771SOL    HW112212   5.107   4.172   0.291
 3771SOL    HW212213   5.257   4.236   0.298
 3772SOL     OW12214   0.282   0.303   0.226
 3772SOL    HW112215   0.295   0.299   0.127
 3772SOL    HW212216   0.232   0.222   0.256
 3773SOL     OW12217   6.085   3.338   5.524
 3773SOL    HW112218   6.171   3.373   5.489
 3773SOL    HW212219   6.010   3.397   5.495
 3774SOL     OW12220   5.667   5.504   1.601
 3774SOL    HW112221   5.633   5.574   1.665
 3774SOL    HW212222   5.682   5.546   1.512
 3775SOL     OW12223   4.973   5.452   2.679
 3775SOL    HW112224   5.046   5.504   2.724
 3775SOL    HW212225   4.936   5.384   2.742
 3776SOL     OW12226   3.882   2.440   6.838
 3776SOL    HW112227   3.967   2.466   6.792
 3776SOL    HW212228   3.866   2.502   6.915
 3777SOL     OW12229   2.887   4.968   3.434
 3777SOL    HW112230   2.961   5.034   3.450
 3777SOL    HW212231   2.837   4.953   3.520
 3778SOL     OW12232   2.716   5.233   3.020
 3778SOL    HW112233   2.748   5.208   3.111
 3778SOL    HW212234   2.638   5.175   2.995
 3779SOL     OW12235   0.677   4.771   1.378
 3779SOL    HW112236   0.605   4.834   1.348
 3779SOL    HW212237   0.766   4.805   1.349
 3780SOL     OW12238   6.345   4.252   4.804
 3780SOL    HW112239   6.391   4.341   4.801
 3780SOL    HW212240   6.248   4.264   4.785
 3781SOL     OW12241   0.358   6.902   3.812
 3781SOL    HW112242   0.396   6.970   3.875
 3781SOL    HW212243   0.270   6.935   3.778
 3782SOL     OW12244   2.640   0.431   2.833
 3782SOL    HW112245   2.545   0.429   2.801
 3782SOL    HW212246   2.665   0.524   2.860
 3783SOL     OW12247   6.020   5.495   4.395
 3783SOL    HW112248   6.026   5.471   4.298
 3783SOL    HW212249   6.104   5.467   4.441
 3784SOL     OW12250   5.016   2.912   2.893
 3784SOL    HW112251   4.938   2.905   2.956
 3784SOL    HW212252   5.038   3.009   2.879
 3785SOL     OW12253   1.439   3.341   5.330
 3785SOL    HW112254   1.436   3.440   5.321
 3785SOL    HW212255   1.531   3.313   5.358
 3786SOL     OW12256   2.294   4.108   2.950
 3786SOL    HW112257   2.279   4.025   3.003
 3786SOL    HW212258   2.388   4.140   2.965
 3787SOL     OW12259   5.730   0.838   2.038
 3787SOL    HW112260   5.789   0.917   2.057
 3787SOL    HW212261   5.634   0.865   2.047
 3788SOL     OW12262   0.074   4.478   4.802
 3788SOL    HW112263   0.146   4.529   4.850
 3788SOL    HW212264   0.002   4.542   4.775
 3789SOL     OW12265   6.834   3.634   3.895
 3789SOL    HW112266   6.903   3.688   3.847
 3789SOL    HW212267   6.838   3.539   3.863
 3790SOL     OW12268   1.137   5.347   5.745
 3790SOL    HW112269   1.216   5.288   5.761
 3790SOL    HW212270   1.058   5.311   5.794
 3791SOL     OW12271   4.771   1.702   6.650
 3791SOL    HW112272   4.830   1.768   6.603
 3791SOL    HW212273   4.777   1.717   6.749
 3792SOL     OW12274   1.222   2.049   3.337
 3792SOL    HW112275   1.217   1.961   3.385
 3792SOL    HW212276   1.317   2.077   3.328
 3793SOL     OW12277   4.364   6.683   1.767
 3793SOL    HW112278   4.344   6.752   1.837
 3793SOL    HW212279   4.419   6.724   1.695
 3794SOL     OW12280   2.625   2.994   1.716
 3794SOL    HW112281   2.548   3.058   1.725
 3794SOL    HW212282   2.591   2.900   1.730
 3795SOL     OW12283   4.894   6.027   1.046
 3795SOL    HW112284   4.825   6.057   0.980
 3795SOL    HW212285   4.885   5.928   1.059
 3796SOL     OW12286   4.466   2.125   2.602
 3796SOL    HW112287   4.564   2.103   2.596
 3796SOL    HW212288   4.422   2.100   2.516
 3797SOL     OW12289   0.648   3.408   3.091
 3797SOL    HW112290   0.689   3.457   3.167
 3797SOL    HW212291   0.655   3.463   3.008
 3798SOL     OW12292   2.447   6.309   2.583
 3798SOL    HW112293   2.542   6.333   2.566
 3798SOL    HW212294   2.388   6.388   2.561
 3799SOL     OW12295   6.562   2.850   3.722
 3799SOL    HW112296   6.562   2.796   3.638
 3799SOL    HW212297   6.574   2.789   3.801
 3800SOL     OW12298   5.536   1.334   3.868
 3800SOL    HW112299   5.483   1.331   3.783
 3800SOL    HW212300   5.531   1.425   3.907
 3801SOL     OW12301   6.237   6.766   1.824
 3801SOL    HW112302   6.144   6.730   1.824
 3801SOL    HW212303   6.283   6.738   1.740
 3802SOL     OW12304   1.305   1.972   1.406
 3802SOL    HW112305   1.251   1.975   1.322
 3802SOL    HW212306   1.363   1.891   1.406
 3803SOL     OW12307   4.002   3.776   3.076
 3803SOL    HW112308   3.991   3.731   2.987
 3803SOL    HW212309   4.047   3.714   3.139
 3804SOL     OW12310   4.251   1.055   3.279
 3804SOL    HW112311   4.228   1.151   3.264
 3804SOL    HW212312   4.344   1.047   3.314
 3805SOL     OW12313   1.984   3.111   1.984
 3805SOL    HW112314   2.043   3.173   2.036
 3805SOL    HW212315   1.888   3.131   2.003
 3806SOL     OW12316   3.741   3.864   5.667
 3806SOL    HW112317   3.832   3.822   5.667
 3806SOL    HW212318   3.748   3.959   5.634
 3807SOL     OW12319   1.911   5.156   2.914
 3807SOL    HW112320   1.981   5.226   2.901
 3807SOL    HW212321   1.823   5.199   2.934
 3808SOL     OW12322   4.061   1.347   0.126
 3808SOL    HW112323   4.152   1.346   0.084
 3808SOL    HW212324   4.049   1.432   0.178
 3809SOL     OW12325   5.641   2.608   1.605
 3809SOL    HW112326   5.544   2.595   1.585
 3809SOL    HW212327   5.696   2.555   1.540
 3810SOL     OW12328   5.718   2.889   3.713
 3810SOL    HW112329   5.786   2.821   3.686
 3810SOL    HW212330   5.716   2.963   3.647
 3811SOL     OW12331   0.078   6.318   4.728
 3811SOL    HW112332   0.120   6.230   4.747
 3811SOL    HW212333   0.146   6.391   4.740
 3812SOL     OW12334   4.343   5.257   5.240
 3812SOL    HW112335   4.441   5.268   5.225
 3812SOL    HW212336   4.312   5.173   5.194
 3813SOL     OW12337   5.534   3.929   0.146
 3813SOL    HW112338   5.592   3.855   0.111
 3813SOL    HW212339   5.439   3.898   0.148
 3814SOL     OW12340   6.566   0.245   5.100
 3814SOL    HW112341   6.533   0.318   5.160
 3814SOL    HW212342   6.651   0.208   5.136
 3815SOL     OW12343   3.789   1.848   1.024
 3815SOL    HW112344   3.791   1.750   1.044
 3815SOL    HW212345   3.702   1.872   0.981
 3816SOL     OW12346   1.436   4.959   6.592
 3816SOL    HW112347   1.366   4.976   6.661
 3816SOL    HW212348   1.409   4.879   6.537
 3817SOL     OW12349   4.914   3.380   2.254
 3817SOL    HW112350   5.013   3.386   2.263
 3817SOL    HW212351   4.888   3.388   2.158
 3818SOL     OW12352   6.164   1.305   0.009
 3818SOL    HW112353   6.262   1.293   7.018
 3818SOL    HW212354   6.125   1.222   0.049
 3819SOL     OW12355   5.818   5.510   2.794
 3819SOL    HW112356   5.824   5.545   2.887
 3819SOL    HW212357   5.837   5.411   2.794
 3820SOL     OW12358   5.298   0.142   3.930
 3820SOL    HW112359   5.269   0.230   3.892
 3820SOL    HW212360   5.311   0.151   4.028
 3821SOL     OW12361   1.703   0.828   1.868
 3821SOL    HW112362   1.706   0.846   1.967
 3821SOL    HW212363   1.628   0.880   1.827
 3822SOL     OW12364   2.490   6.558   0.256
 3822SOL    HW112365   2.584   6.524   0.264
 3822SOL    HW212366   2.455   6.583   0.347
 3823SOL     OW12367   3.071   4.010   5.994
 3823SOL    HW112368   3.057   3.910   5.992
 3823SOL    HW212369   3.083   4.043   5.901
 3824SOL     OW12370   0.575   2.689   0.304
 3824SOL    HW112371   0.660   2.669   0.255
 3824SOL    HW212372   0.518   2.607   0.306
 3825SOL     OW12373   0.656   5.091   0.522
 3825SOL    HW112374   0.741   5.076   0.470
 3825SOL    HW212375   0.658   5.037   0.606
 3826SOL     OW12376   1.262   3.701   0.459
 3826SOL    HW112377   1.196   3.756   0.407
 3826SOL    HW212378   1.231   3.605   0.458
 3827SOL     OW12379   1.125   0.894   1.783
 3827SOL    HW112380   1.189   0.940   1.723
 3827SOL    HW212381   1.078   0.962   1.841
 3828SOL     OW12382   3.491   3.267   3.772
 3828SOL    HW112383   3.586   3.273   3.742
 3828SOL    HW212384   3.464   3.171   3.781
 3829SOL     OW12385   0.752   4.888   2.483
 3829SOL    HW112386   0.828   4.914   2.423
 3829SOL    HW212387   0.742   4.788   2.482
 3830SOL     OW12388   1.093   0.732   5.292
 3830SOL    HW112389   1.046   0.679   5.221
 3830SOL    HW212390   1.161   0.793   5.249
 3831SOL     OW12391   4.667   2.307   2.813
 3831SOL    HW112392   4.628   2.228   2.861
 3831SOL    HW212393   4.743   2.344   2.866
 3832SOL     OW12394   0.239   0.872   3.002
 3832SOL    HW112395   0.175   0.943   2.973
 3832SOL    HW212396   0.194   0.783   3.000
 3833SOL     OW12397   0.374   5.805   6.526
 3833SOL    HW112398   0.409   5.823   6.618
 3833SOL    HW212399   0.435   5.741   6.479
 3834SOL     OW12400   3.597   4.082   0.835
 3834SOL    HW112401   3.531   4.083   0.760
 3834SOL    HW212402   3.555   4.040   0.916
 3835SOL     OW12403   4.024   5.943   4.567
 3835SOL    HW112404   4.012   5.863   4.626
 3835SOL    HW212405   3.941   6.000   4.571
 3836SOL     OW12406   0.358   4.819   5.973
 3836SOL    HW112407   0.361   4.889   5.901
 3836SOL    HW212408   0.320   4.858   6.057
 3837SOL     OW12409   4.543   4.247   6.390
 3837SOL    HW112410   4.574   4.195   6.469
 3837SOL    HW212411   4.585   4.338   6.390
 3838SOL     OW12412   0.911   3.076   3.628
 3838SOL    HW112413   0.984   3.129   3.584
 3838SOL    HW212414   0.950   3.022   3.703
 3839SOL     OW12415   5.502   1.796   3.260
 3839SOL    HW112416   5.467   1.731   3.327
 3839SOL    HW212417   5.475   1.767   3.168
 3840SOL     OW12418   3.190   1.772   6.612
 3840SOL    HW112419   3.209   1.812   6.702
 3840SOL    HW212420   3.169   1.846   6.548
 3841SOL     OW12421   0.176   3.354   4.557
 3841SOL    HW112422   0.105   3.327   4.492
 3841SOL    HW212423   0.264   3.355   4.511
 3842SOL     OW12424   1.672   2.468   2.081
 3842SOL    HW112425   1.662   2.381   2.128
 3842SOL    HW212426   1.731   2.528   2.135
 3843SOL     OW12427   5.349   4.346   2.778
 3843SOL    HW112428   5.394   4.431   2.751
 3843SOL    HW212429   5.380   4.318   2.868
 3844SOL     OW12430   1.074   2.620   5.509
 3844SOL    HW112431   1.119   2.583   5.590
 3844SOL    HW212432   1.141   2.670   5.454
 3845SOL     OW12433   3.291   4.444   5.764
 3845SOL    HW112434   3.312   4.380   5.838
 3845SOL    HW212435   3.341   4.417   5.682
 3846SOL     OW12436   6.846   4.905   3.104
 3846SOL    HW112437   6.902   4.975   3.149
 3846SOL    HW212438   6.844   4.923   3.006
 3847SOL     OW12439   4.978   3.181   4.348
 3847SOL    HW112440   4.907   3.113   4.327
 3847SOL    HW212441   5.065   3.134   4.365
 3848SOL     OW12442   4.426   4.494   2.719
 3848SOL    HW112443   4.391   4.439   2.794
 3848SOL    HW212444   4.408   4.591   2.737
 3849SOL     OW12445   0.841   1.364   5.757
 3849SOL    HW112446   0.861   1.342   5.661
 3849SOL    HW212447   0.750   1.329   5.780
 3850SOL     OW12448   2.238   3.728   1.739
 3850SOL    HW112449   2.276   3.652   1.792
 3850SOL    HW212450   2.301   3.753   1.666
 3851SOL     OW12451   0.984   4.541   2.499
 3851SOL    HW112452   0.995   4.487   2.583
 3851SOL    HW212453   0.894   4.583   2.497
 3852SOL     OW12454   4.030   6.287   3.943
 3852SOL    HW112455   3.960   6.235   3.893
 3852SOL    HW212456   4.121   6.258   3.912
 3853SOL     OW12457   0.451   4.214   3.914
 3853SOL    HW112458   0.405   4.303   3.926
 3853SOL    HW212459   0.433   4.179   3.822
 3854SOL     OW12460   1.769   1.930   2.445
 3854SOL    HW112461   1.800   1.950   2.538
 3854SOL    HW212462   1.836   1.962   2.379
 3855SOL     OW12463   5.159   6.504   6.197
 3855SOL    HW112464   5.158   6.462   6.287
 3855SOL    HW212465   5.245   6.481   6.150
 3856SOL     OW12466   6.569   0.426   6.155
 3856SOL    HW112467   6.627   0.391   6.228
 3856SOL    HW212468   6.597   0.386   6.067
 3857SOL     OW12469   0.686   5.975   6.970
 3857SOL    HW112470   0.600   6.024   6.986
 3857SOL    HW212471   0.727   5.951   0.035
 3858SOL     OW12472   2.290   0.931   5.606
 3858SOL    HW112473   2.256   0.981   5.686
 3858SOL    HW212474   2.247   0.966   5.523
 3859SOL     OW12475   5.431   1.100   1.867
 3859SOL    HW112476   5.340   1.084   1.829
 3859SOL    HW212477   5.500   1.083   1.796
 3860SOL     OW12478   2.197   1.376   4.720
 3860SOL    HW112479   2.132   1.302   4.737
 3860SOL    HW212480   2.192   1.404   4.625
 3861SOL     OW12481   4.317   5.255   3.063
 3861SOL    HW112482   4.329   5.352   3.045
 3861SOL    HW212483   4.340   5.202   2.982
 3862SOL     OW12484   0.625   0.692   4.992
 3862SOL    HW112485   0.583   0.620   5.047
 3862SOL    HW212486   0.585   0.780   5.015
 3863SOL     OW12487   5.567   2.762   0.036
 3863SOL    HW112488   5.537   2.853   0.008
 3863SOL    HW212489   5.664   2.764   0.057
 3864SOL     OW12490   2.341   0.874   5.244
 3864SOL    HW112491   2.362   0.807   5.174
 3864SOL    HW212492   2.420   0.886   5.304
 3865SOL     OW12493   3.603   0.907   0.561
 3865SOL    HW112494   3.700   0.928   0.549
 3865SOL    HW212495   3.578   0.829   0.504
 3866SOL     OW12496   3.285   0.426   0.886
 3866SOL    HW112497   3.263   0.464   0.976
 3866SOL    HW212498   3.307   0.329   0.896
 3867SOL     OW12499   0.599   5.178   4.000
 3867SOL    HW112500   0.567   5.197   3.907
 3867SOL    HW212501   0.697   5.195   4.005
 3868SOL     OW12502   2.948   6.715   0.239
 3868SOL    HW112503   2.941   6.701   0.338
 3868SOL    HW212504   2.947   6.813   0.219
 3869SOL     OW12505   6.176   4.060   4.928
 3869SOL    HW112506   6.255   4.115   4.955
 3869SOL    HW212507   6.105   4.121   4.892
 3870SOL     OW12508   6.003   5.925   0.161
 3870SOL    HW112509   5.979   6.022   0.157
 3870SOL    HW212510   6.052   5.906   0.246
 3871SOL     OW12511   3.084   0.282   2.863
 3871SOL    HW112512   3.169   0.273   2.811
 3871SOL    HW212513   3.006   0.273   2.802
 3872SOL     OW12514   3.854   3.006   4.066
 3872SOL    HW112515   3.763   2.970   4.087
 3872SOL    HW212516   3.918   2.979   4.138
 3873SOL     OW12517   6.855   2.891   1.100
 3873SOL    HW112518   6.798   2.812   1.078
 3873SOL    HW212519   6.875   2.892   1.198
 3874SOL     OW12520   4.338   6.037   6.613
 3874SOL    HW112521   4.295   6.117   6.572
 3874SOL    HW212522   4.268   5.975   6.648
 3875SOL     OW12523   2.104   3.340   2.580
 3875SOL    HW112524   2.064   3.249   2.566
 3875SOL    HW212525   2.162   3.339   2.661
 3876SOL     OW12526   3.771   5.624   1.176
 3876SOL    HW112527   3.794   5.677   1.095
 3876SOL    HW212528   3.742   5.532   1.149
 3877SOL     OW12529   5.836   2.589   0.902
 3877SOL    HW112530   5.899   2.608   0.827
 3877SOL    HW212531   5.875   2.621   0.988
 3878SOL     OW12532   3.356   0.233   4.455
 3878SOL    HW112533   3.422   0.290   4.407
 3878SOL    HW212534   3.289   0.197   4.390
 3879SOL     OW12535   5.373   5.398   1.460
 3879SOL    HW112536   5.299   5.372   1.397
 3879SOL    HW212537   5.460   5.396   1.411
 3880SOL     OW12538   5.217   4.707   4.787
 3880SOL    HW112539   5.172   4.669   4.707
 3880SOL    HW212540   5.316   4.692   4.780
 3881SOL     OW12541   1.208   3.401   1.605
 3881SOL    HW112542   1.298   3.445   1.610
 3881SOL    HW212543   1.136   3.471   1.605
 3882SOL     OW12544   1.576   1.149   5.683
 3882SOL    HW112545   1.538   1.057   5.691
 3882SOL    HW212546   1.503   1.214   5.664
 3883SOL     OW12547   3.877   0.929   3.077
 3883SOL    HW112548   3.840   1.009   3.124
 3883SOL    HW212549   3.936   0.878   3.140
 3884SOL     OW12550   0.521   5.509   3.310
 3884SOL    HW112551   0.444   5.545   3.256
 3884SOL    HW212552   0.511   5.410   3.321
 3885SOL     OW12553   6.694   0.177   2.978
 3885SOL    HW112554   6.639   0.107   3.024
 3885SOL    HW212555   6.768   0.133   2.927
 3886SOL     OW12556   5.889   5.841   5.218
 3886SOL    HW112557   5.799   5.814   5.182
 3886SOL    HW212558   5.922   5.921   5.168
 3887SOL     OW12559   0.094   0.663   6.062
 3887SOL    HW112560   0.173   0.656   6.001
 3887SOL    HW212561   0.014   0.621   6.018
 3888SOL     OW12562   0.034   0.359   5.146
 3888SOL    HW112563   6.995   0.280   5.134
 3888SOL    HW212564   0.117   0.344   5.093
 3889SOL     OW12565   6.893   3.860   6.443
 3889SOL    HW112566   6.834   3.804   6.501
 3889SOL    HW212567   6.978   3.881   6.492
 3890SOL     OW12568   5.747   5.367   3.088
 3890SOL    HW112569   5.788   5.322   3.008
 3890SOL    HW212570   5.659   5.406   3.062
 3891SOL     OW12571   5.467   4.569   5.191
 3891SOL    HW112572   5.402   4.609   5.256
 3891SOL    HW212573   5.458   4.614   5.103
 3892SOL     OW12574   0.266   2.255   1.529
 3892SOL    HW112575   0.354   2.298   1.547
 3892SOL    HW212576   0.247   2.256   1.431
 3893SOL     OW12577   4.539   4.071   1.158
 3893SOL    HW112578   4.500   4.027   1.239
 3893SOL    HW212579   4.616   4.129   1.186
 3894SOL     OW12580   3.274   1.806   1.548
 3894SOL    HW112581   3.245   1.772   1.459
 3894SOL    HW212582   3.254   1.738   1.618
 3895SOL     OW12583   1.711   0.831   5.684
 3895SOL    HW112584   1.616   0.855   5.703
 3895SOL    HW212585   1.719   0.732   5.673
 3896SOL     OW12586   6.942   0.581   5.852
 3896SOL    HW112587   6.886   0.503   5.825
 3896SOL    HW212588   0.014   0.565   5.825
 3897SOL     OW12589   3.434   5.716   2.442
 3897SOL    HW112590   3.454   5.791   2.506
 3897SOL    HW212591   3.520   5.682   2.403
 3898SOL     OW12592   3.302   3.708   5.027
 3898SOL    HW112593   3.294   3.758   5.113
 3898SOL    HW212594   3.213   3.703   4.982
 3899SOL     OW12595   5.680   0.014   4.975
 3899SOL    HW112596   5.734   6.959   4.943
 3899SOL    HW212597   5.590   7.004   5.006
 3900SOL     OW12598   5.073   2.885   3.997
 3900SOL    HW112599   5.002   2.955   4.003
 3900SOL    HW212600   5.061   2.818   4.071
 3901SOL     OW12601   3.125   0.420   5.745
 3901SOL    HW112602   3.125   0.454   5.651
 3901SOL    HW212603   3.131   0.498   5.808
 3902SOL     OW12604   5.876   3.664   2.198
 3902SOL    HW112605   5.931   3.630   2.123
 3902SOL    HW212606   5.864   3.763   2.190
 3903SOL     OW12607   4.310   5.663   0.272
 3903SOL    HW112608   4.306   5.755   0.311
 3903SOL    HW212609   4.344   5.599   0.341
 3904SOL     OW12610   2.255   0.584   4.695
 3904SOL    HW112611   2.160   0.612   4.681
 3904SOL    HW212612   2.272   0.572   4.793
 3905SOL     OW12613   6.798   6.798   5.810
 3905SOL    HW112614   6.782   6.772   5.715
 3905SOL    HW212615   6.713   6.789   5.862
 3906SOL     OW12616   3.941   5.178   5.087
 3906SOL    HW112617   3.845   5.176   5.113
 3906SOL    HW212618   3.979   5.269   5.104
 3907SOL     OW12619   6.138   6.802   5.284
 3907SOL    HW112620   6.213   6.849   5.331
 3907SOL    HW212621   6.066   6.780   5.350
 3908SOL     OW12622   0.848   0.868   0.337
 3908SOL    HW112623   0.912   0.902   0.406
 3908SOL    HW212624   0.758   0.854   0.379
 3909SOL     OW12625   0.264   5.427   5.465
 3909SOL    HW112626   0.299   5.463   5.379
 3909SOL    HW212627   0.332   5.366   5.506
 3910SOL     OW12628   3.499   3.810   1.969
 3910SOL    HW112629   3.430   3.851   1.909
 3910SOL    HW212630   3.453   3.760   2.043
 3911SOL     OW12631   4.280   1.351   6.960
 3911SOL    HW112632   4.250   1.280   6.897
 3911SOL    HW212633   4.371   1.327   6.996
 3912SOL     OW12634   2.976   0.829   6.325
 3912SOL    HW112635   2.942   0.800   6.414
 3912SOL    HW212636   2.907   0.809   6.255
 3913SOL     OW12637   2.090   5.933   6.025
 3913SOL    HW112638   2.119   6.029   6.032
 3913SOL    HW212639   2.167   5.873   6.044
 3914SOL     OW12640   3.741   1.425   1.256
 3914SOL    HW112641   3.833   1.458   1.273
 3914SOL    HW212642   3.712   1.367   1.333
 3915SOL     OW12643   3.589   6.416   1.703
 3915SOL    HW112644   3.611   6.321   1.681
 3915SOL    HW212645   3.494   6.423   1.732
 3916SOL     OW12646   1.791   5.911   2.903
 3916SOL    HW112647   1.737   5.995   2.916
 3916SOL    HW212648   1.806   5.895   2.806
 3917SOL     OW12649   1.331   4.740   6.472
 3917SOL    HW112650   1.271   4.694   6.406
 3917SOL    HW212651   1.402   4.676   6.502
 3918SOL     OW12652   5.599   6.874   2.690
 3918SOL    HW112653   5.541   6.817   2.632
 3918SOL    HW212654   5.545   6.949   2.728
 3919SOL     OW12655   3.019   6.051   6.690
 3919SOL    HW112656   3.059   5.959   6.698
 3919SOL    HW212657   3.089   6.115   6.659
 3920SOL     OW12658   2.805   2.570   6.692
 3920SOL    HW112659   2.717   2.532   6.664
 3920SOL    HW212660   2.867   2.571   6.613
 3921SOL     OW12661   7.006   3.026   0.935
 3921SOL    HW112662   0.079   3.020   0.965
 3921SOL    HW212663   6.947   2.977   1.000
 3922SOL     OW12664   5.514   4.509   1.340
 3922SOL    HW112665   5.607   4.519   1.374
 3922SOL    HW212666   5.485   4.413   1.348
 3923SOL     OW12667   6.891   1.870   0.442
 3923SOL    HW112668   6.881   1.771   0.428
 3923SOL    HW212669   6.801   1.911   0.458
 3924SOL     OW12670   0.081   5.743   3.194
 3924SOL    HW112671   0.106   5.835   3.224
 3924SOL    HW212672   7.020   5.747   3.140
 3925SOL     OW12673   3.668   4.182   1.119
 3925SOL    HW112674   3.584   4.206   1.072
 3925SOL    HW212675   3.747   4.212   1.064
 3926SOL     OW12676   6.579   5.640   2.443
 3926SOL    HW112677   6.604   5.706   2.372
 3926SOL    HW212678   6.489   5.601   2.421
 3927SOL     OW12679   0.059   3.796   3.808
 3927SOL    HW112680   0.100   3.873   3.759
 3927SOL    HW212681   0.096   3.792   3.901
 3928SOL     OW12682   3.005   5.271   4.829
 3928SOL    HW112683   2.971   5.212   4.756
 3928SOL    HW212684   2.942   5.268   4.906
 3929SOL     OW12685   0.455   2.047   6.384
 3929SOL    HW112686   0.506   1.964   6.408
 3929SOL    HW212687   0.454   2.058   6.285
 3930SOL     OW12688   1.899   1.603   3.959
 3930SOL    HW112689   1.943   1.681   3.916
 3930SOL    HW212690   1.958   1.567   4.031
 3931SOL     OW12691   2.001   1.693   2.845
 3931SOL    HW112692   2.025   1.608   2.799
 3931SOL    HW212693   1.964   1.758   2.778
 3932SOL     OW12694   1.197   4.297   2.917
 3932SOL    HW112695   1.166   4.335   2.830
 3932SOL    HW212696   1.233   4.371   2.974
 3933SOL     OW12697   2.274   6.871   6.460
 3933SOL    HW112698   2.339   6.905   6.528
 3933SOL    HW212699   2.317   6.873   6.370
 3934SOL     OW12700   0.274   0.973   1.152
 3934SOL    HW112701   0.216   1.003   1.227
 3934SOL    HW212702   0.219   0.960   1.069
 3935SOL     OW12703   2.054   0.272   5.730
 3935SOL    HW112704   1.955   0.264   5.719
 3935SOL    HW212705   2.075   0.308   5.821
 3936SOL     OW12706   0.198   5.139   5.542
 3936SOL    HW112707   0.102   5.161   5.557
 3936SOL    HW212708   0.231   5.187   5.461
 3937SOL     OW12709   0.616   0.194   2.225
 3937SOL    HW112710   0.519   0.208   2.247
 3937SOL    HW212711   0.670   0.270   2.261
 3938SOL     OW12712   6.547   2.550   3.866
 3938SOL    HW112713   6.494   2.482   3.815
 3938SOL    HW212714   6.601   2.503   3.936
 3939SOL     OW12715   2.990   1.904   2.474
 3939SOL    HW112716   2.981   1.837   2.548
 3939SOL    HW212717   2.939   1.871   2.394
 3940SOL     OW12718   4.118   5.020   2.044
 3940SOL    HW112719   4.162   5.006   1.956
 3940SOL    HW212720   4.184   5.003   2.117
 3941SOL     OW12721   5.260   1.520   6.391
 3941SOL    HW112722   5.246   1.457   6.315
 3941SOL    HW212723   5.358   1.534   6.406
 3942SOL     OW12724   0.515   7.009   5.396
 3942SOL    HW112725   0.581   6.996   5.469
 3942SOL    HW212726   0.428   6.965   5.421
 3943SOL     OW12727   0.768   3.731   2.622
 3943SOL    HW112728   0.715   3.731   2.538
 3943SOL    HW212729   0.823   3.648   2.626
 3944SOL     OW12730   5.938   4.045   5.787
 3944SOL    HW112731   5.976   4.137   5.777
 3944SOL    HW212732   5.838   4.051   5.782
 3945SOL     OW12733   1.101   2.203   1.954
 3945SOL    HW112734   1.105   2.109   1.921
 3945SOL    HW212735   1.050   2.207   2.040
 3946SOL     OW12736   6.193   4.609   5.926
 3946SOL    HW112737   6.186   4.709   5.928
 3946SOL    HW212738   6.159   4.572   6.013
 3947SOL     OW12739   5.985   5.243   1.786
 3947SOL    HW112740   5.985   5.161   1.730
 3947SOL    HW212741   6.080   5.268   1.808
 3948SOL     OW12742   1.166   5.022   1.344
 3948SOL    HW112743   1.235   5.081   1.303
 3948SOL    HW212744   1.194   4.926   1.336
 3949SOL     OW12745   5.632   0.605   2.548
 3949SOL    HW112746   5.637   0.566   2.456
 3949SOL    HW212747   5.636   0.705   2.543
 3950SOL     OW12748   3.153   3.706   1.664
 3950SOL    HW112749   3.062   3.722   1.702
 3950SOL    HW212750   3.203   3.792   1.658
 3951SOL     OW12751   0.164   6.720   0.123
 3951SOL    HW112752   0.150   6.794   0.057
 3951SOL    HW212753   0.076   6.687   0.156
 3952SOL     OW12754   6.864   4.127   4.374
 3952SOL    HW112755   6.850   4.205   4.435
 3952SOL    HW212756   6.945   4.144   4.316
 3953SOL     OW12757   3.111   4.419   0.933
 3953SOL    HW112758   3.012   4.429   0.920
 3953SOL    HW212759   3.130   4.396   1.029
 3954SOL     OW12760   5.964   5.234   5.435
 3954SOL    HW112761   5.951   5.330   5.457
 3954SOL    HW212762   6.058   5.219   5.404
 3955SOL     OW12763   3.861   6.531   6.784
 3955SOL    HW112764   3.892   6.537   6.689
 3955SOL    HW212765   3.930   6.482   6.838
 3956SOL     OW12766   0.786   2.292   3.107
 3956SOL    HW112767   0.835   2.229   3.167
 3956SOL    HW212768   0.701   2.320   3.151
 3957SOL     OW12769   4.919   6.729   3.437
 3957SOL    HW112770   4.934   6.631   3.426
 3957SOL    HW212771   5.004   6.779   3.416
 3958SOL     OW12772   5.619   0.050   6.201
 3958SOL    HW112773   5.574   0.020   6.117
 3958SOL    HW212774   5.655   6.992   6.250
 3959SOL     OW12775   3.277   6.702   0.863
 3959SOL    HW112776   3.357   6.642   0.874
 3959SOL    HW212777   3.230   6.711   0.950
 3960SOL     OW12778   4.895   1.527   6.349
 3960SOL    HW112779   4.971   1.546   6.411
 3960SOL    HW212780   4.891   1.429   6.331
 3961SOL     OW12781   5.674   2.608   2.114
 3961SOL    HW112782   5.658   2.652   2.026
 3961SOL    HW212783   5.772   2.596   2.128
 3962SOL     OW12784   2.039   5.384   6.804
 3962SOL    HW112785   2.065   5.470   6.848
 3962SOL    HW212786   2.055   5.309   6.867
 3963SOL     OW12787   4.635   4.390   3.856
 3963SOL    HW112788   4.599   4.476   3.818
 3963SOL    HW212789   4.684   4.410   3.941
 3964SOL     OW12790   4.781   4.714   3.675
 3964SOL    HW112791   4.689   4.676   3.688
 3964SOL    HW212792   4.824   4.729   3.763
 3965SOL     OW12793   3.788   3.176   5.872
 3965SOL    HW112794   3.740   3.250   5.919
 3965SOL    HW212795   3.815   3.106   5.938
 3966SOL     OW12796   6.193   5.544   0.573
 3966SOL    HW112797   6.262   5.472   0.574
 3966SOL    HW212798   6.115   5.516   0.517
 3967SOL     OW12799   1.601   4.155   2.863
 3967SOL    HW112800   1.622   4.177   2.768
 3967SOL    HW212801   1.668   4.089   2.898
 3968SOL     OW12802   6.420   0.196   1.194
 3968SOL    HW112803   6.416   0.257   1.115
 3968SOL    HW212804   6.508   0.206   1.239
 3969SOL     OW12805   1.440   3.469   2.463
 3969SOL    HW112806   1.459   3.552   2.410
 3969SOL    HW212807   1.377   3.490   2.537
 3970SOL     OW12808   5.427   5.532   4.038
 3970SOL    HW112809   5.522   5.558   4.020
 3970SOL    HW212810   5.422   5.477   4.122
 3971SOL     OW12811   2.565   4.996   2.021
 3971SOL    HW112812   2.528   5.039   1.938
 3971SOL    HW212813   2.598   4.904   1.999
 3972SOL     OW12814   1.687   5.690   0.569
 3972SOL    HW112815   1.648   5.769   0.522
 3972SOL    HW212816   1.705   5.713   0.664
 3973SOL     OW12817   1.224   4.183   5.792
 3973SOL    HW112818   1.239   4.208   5.696
 3973SOL    HW212819   1.262   4.254   5.851
 3974SOL     OW12820   0.763   0.151   4.969
 3974SOL    HW112821   0.852   0.120   4.937
 3974SOL    HW212822   0.761   0.150   5.069
 3975SOL     OW12823   5.290   0.490   6.210
 3975SOL    HW112824   5.306   0.543   6.294
 3975SOL    HW212825   5.292   0.392   6.232
 3976SOL     OW12826   1.317   5.260   1.530
 3976SOL    HW112827   1.260   5.341   1.516
 3976SOL    HW212828   1.261   5.178   1.518
 3977SOL     OW12829   3.189   4.624   5.383
 3977SOL    HW112830   3.126   4.549   5.364
 3977SOL    HW212831   3.170   4.660   5.475
 3978SOL     OW12832   5.244   0.255   4.566
 3978SOL    HW112833   5.199   0.250   4.655
 3978SOL    HW212834   5.177   0.236   4.494
 3979SOL     OW12835   2.773   5.989   1.940
 3979SOL    HW112836   2.828   5.975   1.857
 3979SOL    HW212837   2.793   5.917   2.006
 3980SOL     OW12838   0.481   5.115   6.522
 3980SOL    HW112839   0.401   5.163   6.558
 3980SOL    HW212840   0.557   5.179   6.512
 3981SOL     OW12841   1.714   1.642   6.082
 3981SOL    HW112842   1.800   1.658   6.034
 3981SOL    HW212843   1.732   1.606   6.173
 3982SOL     OW12844   2.107   0.716   4.158
 3982SOL    HW112845   2.174   0.652   4.195
 3982SOL    HW212846   2.155   0.790   4.109
 3983SOL     OW12847   4.375   5.017   4.066
 3983SOL    HW112848   4.393   5.091   4.130
 3983SOL    HW212849   4.460   4.969   4.044
 3984SOL     OW12850   1.008   0.521   2.980
 3984SOL    HW112851   1.020   0.605   3.032
 3984SOL    HW212852   1.098   0.483   2.956
 3985SOL     OW12853   3.933   4.788   6.386
 3985SOL    HW112854   3.857   4.731   6.419
 3985SOL    HW212855   3.941   4.778   6.287
 3986SOL     OW12856   6.517   2.159   2.675
 3986SOL    HW112857   6.561   2.220   2.608
 3986SOL    HW212858   6.584   2.094   2.709
 3987SOL     OW12859   3.456   5.590   3.929
 3987SOL    HW112860   3.446   5.582   3.830
 3987SOL    HW212861   3.407   5.515   3.973
 3988SOL     OW12862   3.612   3.330   6.555
 3988SOL    HW112863   3.696   3.355   6.506
 3988SOL    HW212864   3.552   3.410   6.562
 3989SOL     OW12865   6.603   1.697   6.987
 3989SOL    HW112866   6.537   1.639   0.013
 3989SOL    HW212867   6.670   1.733   0.030
 3990SOL     OW12868   5.420   2.312   3.199
 3990SOL    HW112869   5.402   2.346   3.107
 3990SOL    HW212870   5.492   2.243   3.196
 3991SOL     OW12871   5.706   1.086   1.748
 3991SOL    HW112872   5.675   1.031   1.670
 3991SOL    HW212873   5.754   1.167   1.715
 3992SOL     OW12874   3.887   2.092   6.849
 3992SOL    HW112875   3.827   2.171   6.836
 3992SOL    HW212876   3.970   2.104   6.795
 3993SOL     OW12877   0.478   2.624   3.113
 3993SOL    HW112878   0.421   2.579   3.043
 3993SOL    HW212879   0.420   2.682   3.170
 3994SOL     OW12880   0.512   1.434   6.642
 3994SOL    HW112881   0.421   1.397   6.658
 3994SOL    HW212882   0.508   1.534   6.643
 3995SOL     OW12883   1.837   3.799   4.249
 3995SOL    HW112884   1.850   3.855   4.167
 3995SOL    HW212885   1.798   3.711   4.223
 3996SOL     OW12886   0.975   1.158   4.519
 3996SOL    HW112887   0.918   1.239   4.503
 3996SOL    HW212888   0.933   1.079   4.474
 3997SOL     OW12889   4.974   2.468   3.859
 3997SOL    HW112890   5.053   2.447   3.801
 3997SOL    HW212891   4.926   2.548   3.823
 3998SOL     OW12892   4.198   1.245   2.473
 3998SOL    HW112893   4.233   1.272   2.384
 3998SOL    HW212894   4.112   1.293   2.491
 3999SOL     OW12895   5.584   3.359   3.933
 3999SOL    HW112896   5.567   3.294   4.007
 3999SOL    HW212897   5.537   3.445   3.952
 4000SOL     OW12898   3.044   4.847   3.215
 4000SOL    HW112899   2.999   4.886   3.295
 4000SOL    HW212900   2.985   4.777   3.174
 4001SOL     OW12901   2.557   2.172   4.196
 4001SOL    HW112902   2.602   2.167   4.285
 4001SOL    HW212903   2.588   2.096   4.139
 4002SOL     OW12904   3.221   2.525   0.376
 4002SOL    HW112905   3.204   2.465   0.454
 4002SOL    HW212906   3.307   2.498   0.332
 4003SOL     OW12907   2.700   6.370   4.741
 4003SOL    HW112908   2.740   6.460   4.757
 4003SOL    HW212909   2.657   6.337   4.826
 4004SOL     OW12910   5.839   1.896   4.343
 4004SOL    HW112911   5.821   1.901   4.441
 4004SOL    HW212912   5.842   1.800   4.314
 4005SOL     OW12913   5.704   5.458   1.017
 4005SOL    HW112914   5.691   5.541   1.072
 4005SOL    HW212915   5.757   5.480   0.935
 4006SOL     OW12916   4.022   5.157   2.359
 4006SOL    HW112917   4.003   5.071   2.407
 4006SOL    HW212918   4.121   5.167   2.348
 4007SOL     OW12919   0.962   2.924   1.539
 4007SOL    HW112920   1.036   2.870   1.497
 4007SOL    HW212921   1.001   3.004   1.583
 4008SOL     OW12922   3.712   2.098   4.374
 4008SOL    HW112923   3.718   2.175   4.310
 4008SOL    HW212924   3.617   2.072   4.385
 4009SOL     OW12925   5.007   3.182   0.277
 4009SOL    HW112926   5.027   3.277   0.299
 4009SOL    HW212927   5.020   3.166   0.179
 4010SOL     OW12928   2.270   3.223   1.391
 4010SOL    HW112929   2.257   3.140   1.337
 4010SOL    HW212930   2.228   3.211   1.481
 4011SOL     OW12931   0.757   0.717   1.505
 4011SOL    HW112932   0.748   0.774   1.586
 4011SOL    HW212933   0.774   0.775   1.425
 4012SOL     OW12934   4.408   5.295   1.939
 4012SOL    HW112935   4.442   5.206   1.907
 4012SOL    HW212936   4.334   5.326   1.879
 4013SOL     OW12937   2.939   0.095   0.421
 4013SOL    HW112938   2.846   0.130   0.411
 4013SOL    HW212939   3.005   0.169   0.405
 4014SOL     OW12940   4.095   5.760   3.171
 4014SOL    HW112941   4.017   5.698   3.185
 4014SOL    HW212942   4.109   5.814   3.254
 4015SOL     OW12943   4.493   5.627   6.217
 4015SOL    HW112944   4.420   5.683   6.256
 4015SOL    HW212945   4.582   5.670   6.234
 4016SOL     OW12946   1.777   5.649   6.485
 4016SOL    HW112947   1.728   5.602   6.411
 4016SOL    HW212948   1.847   5.590   6.522
 4017SOL     OW12949   0.232   6.284   0.598
 4017SOL    HW112950   0.264   6.307   0.506
 4017SOL    HW212951   0.152   6.225   0.591
 4018SOL     OW12952   5.581   6.932   2.335
 4018SOL    HW112953   5.647   6.930   2.410
 4018SOL    HW212954   5.493   6.966   2.369
 4019SOL     OW12955   6.026   3.541   3.029
 4019SOL    HW112956   6.035   3.631   3.073
 4019SOL    HW212957   6.079   3.541   2.944
 4020SOL     OW12958   5.608   2.496   5.462
 4020SOL    HW112959   5.543   2.440   5.515
 4020SOL    HW212960   5.574   2.506   5.368
 4021SOL     OW12961   3.089   3.319   5.381
 4021SOL    HW112962   3.098   3.315   5.481
 4021SOL    HW212963   3.066   3.228   5.346
 4022SOL     OW12964   4.533   0.362   0.274
 4022SOL    HW112965   4.566   0.319   0.190
 4022SOL    HW212966   4.434   0.348   0.281
 4023SOL     OW12967   6.508   1.771   5.097
 4023SOL    HW112968   6.509   1.671   5.091
 4023SOL    HW212969   6.527   1.799   5.191
 4024SOL     OW12970   3.158   5.103   3.991
 4024SOL    HW112971   3.182   5.157   4.071
 4024SOL    HW212972   3.081   5.043   4.013
 4025SOL     OW12973   1.021   6.288   4.444
 4025SOL    HW112974   0.995   6.192   4.434
 4025SOL    HW212975   0.990   6.340   4.365
 4026SOL     OW12976   5.941   5.856   3.828
 4026SOL    HW112977   5.951   5.790   3.903
 4026SOL    HW212978   5.869   5.824   3.766
 4027SOL     OW12979   3.299   4.035   2.162
 4027SOL    HW112980   3.202   4.044   2.182
 4027SOL    HW212981   3.343   3.980   2.233
 4028SOL     OW12982   1.246   2.423   3.899
 4028SOL    HW112983   1.270   2.331   3.868
 4028SOL    HW212984   1.247   2.486   3.821
 4029SOL     OW12985   2.623   4.274   6.637
 4029SOL    HW112986   2.587   4.241   6.550
 4029SOL    HW212987   2.647   4.371   6.627
 4030SOL     OW12988   1.531   1.697   6.386
 4030SOL    HW112989   1.624   1.732   6.396
 4030SOL    HW212990   1.534   1.604   6.349
 4031SOL     OW12991   4.420   5.934   2.894
 4031SOL    HW112992   4.466   5.856   2.850
 4031SOL    HW212993   4.412   6.009   2.828
 4032SOL     OW12994   6.151   0.513   2.748
 4032SOL    HW112995   6.228   0.449   2.746
 4032SOL    HW212996   6.134   0.542   2.842
 4033SOL     OW12997   3.175   2.967   3.435
 4033SOL    HW112998   3.139   2.874   3.430
 4033SOL    HW212999   3.239   2.983   3.360
 4034SOL     OW13000   6.166   1.929   4.910
 4034SOL    HW113001   6.069   1.949   4.900
 4034SOL    HW213002   6.181   1.882   4.997
 4035SOL     OW13003   0.015   3.095   0.670
 4035SOL    HW113004   7.005   3.076   0.762
 4035SOL    HW213005   0.077   3.173   0.672
 4036SOL     OW13006   5.461   0.017   2.914
 4036SOL    HW113007   5.519   7.009   2.990
 4036SOL    HW213008   5.399   0.089   2.945
 4037SOL     OW13009   1.588   2.072   0.539
 4037SOL    HW113010   1.532   2.011   0.482
 4037SOL    HW213011   1.669   2.099   0.487
 4038SOL     OW13012   4.919   4.676   1.838
 4038SOL    HW113013   4.936   4.613   1.914
 4038SOL    HW213014   4.821   4.679   1.818
 4039SOL     OW13015   5.071   4.983   1.239
 4039SOL    HW113016   5.164   4.967   1.207
 4039SOL    HW213017   5.023   5.043   1.175
 4040SOL     OW13018   2.996   6.981   6.467
 4040SOL    HW113019   3.093   6.957   6.478
 4040SOL    HW213020   2.982   7.019   6.375
 4041SOL     OW13021   1.757   5.669   1.703
 4041SOL    HW113022   1.820   5.654   1.779
 4041SOL    HW213023   1.755   5.767   1.681
 4042SOL     OW13024   6.020   4.548   2.713
 4042SOL    HW113025   6.120   4.558   2.713
 4042SOL    HW213026   5.997   4.452   2.697
 4043SOL     OW13027   5.323   2.427   4.627
 4043SOL    HW113028   5.281   2.371   4.555
 4043SOL    HW213029   5.387   2.371   4.679
 4044SOL     OW13030   4.638   0.476   4.181
 4044SOL    HW113031   4.732   0.509   4.170
 4044SOL    HW213032   4.626   0.391   4.130
 4045SOL     OW13033   2.582   4.575   6.225
 4045SOL    HW113034   2.681   4.560   6.221
 4045SOL    HW213035   2.535   4.492   6.196
 4046SOL     OW13036   0.723   1.590   3.708
 4046SOL    HW113037   0.710   1.491   3.704
 4046SOL    HW213038   0.724   1.628   3.616
 4047SOL     OW13039   3.000   2.590   1.142
 4047SOL    HW113040   3.053   2.515   1.104
 4047SOL    HW213041   2.977   2.571   1.237
 4048SOL     OW13042   5.483   1.413   1.914
 4048SOL    HW113043   5.429   1.333   1.941
 4048SOL    HW213044   5.578   1.400   1.943
 4049SOL     OW13045   6.395   6.176   6.788
 4049SOL    HW113046   6.383   6.077   6.782
 4049SOL    HW213047   6.372   6.207   6.880
 4050SOL     OW13048   1.973   6.369   0.488
 4050SOL    HW113049   2.011   6.303   0.423
 4050SOL    HW213050   1.945   6.322   0.572
 4051SOL     OW13051   4.118   2.935   6.920
 4051SOL    HW113052   4.085   2.978   7.003
 4051SOL    HW213053   4.063   2.966   6.842
 4052SOL     OW13054   1.035   0.619   1.648
 4052SOL    HW113055   0.963   0.685   1.626
 4052SOL    HW213056   1.087   0.651   1.727
 4053SOL     OW13057   3.399   4.931   3.883
 4053SOL    HW113058   3.383   4.893   3.974
 4053SOL    HW213059   3.320   4.986   3.855
 4054SOL     OW13060   1.440   2.820   1.235
 4054SOL    HW113061   1.376   2.862   1.170
 4054SOL    HW213062   1.403   2.733   1.267
 4055SOL     OW13063   2.988   3.570   5.617
 4055SOL    HW113064   2.986   3.575   5.517
 4055SOL    HW213065   2.895   3.565   5.652
 4056SOL     OW13066   4.398   2.583   6.771
 4056SOL    HW113067   4.372   2.506   6.830
 4056SOL    HW213068   4.497   2.594   6.773
 4057SOL     OW13069   5.340   2.898   6.764
 4057SOL    HW113070   5.270   2.868   6.700
 4057SOL    HW213071   5.304   2.892   6.857
 4058SOL     OW13072   1.514   1.501   4.550
 4058SOL    HW113073   1.431   1.555   4.535
 4058SOL    HW213074   1.594   1.562   4.549
 4059SOL     OW13075   1.875   2.233   3.132
 4059SOL    HW113076   1.885   2.332   3.146
 4059SOL    HW213077   1.779   2.211   3.114
 4060SOL     OW13078   4.118   5.384   5.136
 4060SOL    HW113079   4.156   5.455   5.076
 4060SOL    HW213080   4.190   5.318   5.160
 4061SOL     OW13081   3.430   4.751   1.638
 4061SOL    HW113082   3.499   4.711   1.699
 4061SOL    HW213083   3.465   4.836   1.600
 4062SOL     OW13084   3.472   1.612   3.289
 4062SOL    HW113085   3.410   1.586   3.363
 4062SOL    HW213086   3.465   1.711   3.272
 4063SOL     OW13087   4.963   6.851   5.001
 4063SOL    HW113088   5.010   6.884   4.919
 4063SOL    HW213089   4.890   6.915   5.026
 4064SOL     OW13090   1.684   6.749   3.317
 4064SOL    HW113091   1.706   6.834   3.364
 4064SOL    HW213092   1.754   6.681   3.337
 4065SOL     OW13093   1.605   6.650   0.131
 4065SOL    HW113094   1.660   6.680   0.209
 4065SOL    HW213095   1.516   6.695   0.133
 4066SOL     OW13096   5.023   4.965   2.603
 4066SOL    HW113097   4.933   5.002   2.623
 4066SOL    HW213098   5.037   4.963   2.504
 4067SOL     OW13099   5.894   3.196   2.306
 4067SOL    HW113100   5.892   3.161   2.213
 4067SOL    HW213101   5.807   3.239   2.328
 4068SOL     OW13102   4.248   0.526   4.669
 4068SOL    HW113103   4.339   0.494   4.641
 4068SOL    HW213104   4.219   0.600   4.608
 4069SOL     OW13105   4.141   3.489   6.892
 4069SOL    HW113106   4.190   3.452   6.813
 4069SOL    HW213107   4.129   3.587   6.881
 4070SOL     OW13108   1.226   3.510   2.655
 4070SOL    HW113109   1.154   3.579   2.671
 4070SOL    HW213110   1.184   3.420   2.644
 4071SOL     OW13111   1.078   1.052   4.802
 4071SOL    HW113112   1.102   1.147   4.781
 4071SOL    HW213113   1.150   0.991   4.770
 4072SOL     OW13114   0.916   6.382   3.506
 4072SOL    HW113115   0.849   6.370   3.579
 4072SOL    HW213116   0.987   6.446   3.536
 4073SOL     OW13117   2.404   5.466   5.801
 4073SOL    HW113118   2.361   5.397   5.859
 4073SOL    HW213119   2.361   5.465   5.710
 4074SOL     OW13120   1.059   2.691   2.371
 4074SOL    HW113121   1.056   2.611   2.430
 4074SOL    HW213122   1.104   2.668   2.285
 4075SOL     OW13123   4.864   2.406   2.976
 4075SOL    HW113124   4.887   2.450   3.062
 4075SOL    HW213125   4.944   2.359   2.939
 4076SOL     OW13126   2.203   3.842   5.817
 4076SOL    HW113127   2.116   3.830   5.769
 4076SOL    HW213128   2.219   3.764   5.878
 4077SOL     OW13129   3.259   6.461   0.533
 4077SOL    HW113130   3.290   6.383   0.478
 4077SOL    HW213131   3.159   6.466   0.529
 4078SOL     OW13132   6.459   5.380   2.004
 4078SOL    HW113133   6.523   5.393   1.928
 4078SOL    HW213134   6.502   5.407   2.090
 4079SOL     OW13135   1.234   1.107   3.486
 4079SOL    HW113136   1.223   1.203   3.462
 4079SOL    HW213137   1.308   1.097   3.553
 4080SOL     OW13138   2.737   2.879   0.241
 4080SOL    HW113139   2.664   2.811   0.253
 4080SOL    HW213140   2.734   2.915   0.148
 4081SOL     OW13141   1.906   1.251   4.298
 4081SOL    HW113142   1.817   1.271   4.338
 4081SOL    HW213143   1.897   1.173   4.235
 4082SOL     OW13144   1.752   1.754   0.413
 4082SOL    HW113145   1.809   1.679   0.378
 4082SOL    HW213146   1.801   1.802   0.486
 4083SOL     OW13147   5.688   4.076   3.669
 4083SOL    HW113148   5.703   4.006   3.738
 4083SOL    HW213149   5.703   4.166   3.709
 4084SOL     OW13150   5.102   3.164   3.363
 4084SOL    HW113151   5.174   3.123   3.307
 4084SOL    HW213152   5.031   3.202   3.304
 4085SOL     OW13153   2.930   5.281   0.310
 4085SOL    HW113154   2.900   5.374   0.329
 4085SOL    HW213155   2.854   5.217   0.326
 4086SOL     OW13156   0.609   4.848   0.694
 4086SOL    HW113157   0.676   4.846   0.768
 4086SOL    HW213158   0.656   4.857   0.606
 4087SOL     OW13159   2.276   1.107   2.542
 4087SOL    HW113160   2.209   1.169   2.583
 4087SOL    HW213161   2.338   1.074   2.613
 4088SOL     OW13162   6.332   0.755   5.587
 4088SOL    HW113163   6.363   0.664   5.617
 4088SOL    HW213164   6.358   0.769   5.492
 4089SOL     OW13165   6.810   5.706   4.304
 4089SOL    HW113166   6.728   5.749   4.341
 4089SOL    HW213167   6.806   5.708   4.204
 4090SOL     OW13168   1.687   5.688   5.151
 4090SOL    HW113169   1.628   5.706   5.229
 4090SOL    HW213170   1.782   5.701   5.178
 4091SOL     OW13171   0.829   5.638   6.831
 4091SOL    HW113172   0.894   5.713   6.838
 4091SOL    HW213173   0.839   5.593   6.742
 4092SOL     OW13174   5.441   2.990   4.108
 4092SOL    HW113175   5.409   2.932   4.034
 4092SOL    HW213176   5.489   2.934   4.176
 4093SOL     OW13177   5.629   6.129   1.512
 4093SOL    HW113178   5.688   6.170   1.581
 4093SOL    HW213179   5.569   6.062   1.555
 4094SOL     OW13180   1.218   4.453   6.538
 4094SOL    HW113181   1.128   4.480   6.573
 4094SOL    HW213182   1.215   4.358   6.506
 4095SOL     OW13183   0.862   3.515   0.195
 4095SOL    HW113184   0.877   3.594   0.136
 4095SOL    HW213185   0.829   3.545   0.284
 4096SOL     OW13186   2.756   1.043   6.236
 4096SOL    HW113187   2.792   1.079   6.323
 4096SOL    HW213188   2.656   1.034   6.243
 4097SOL     OW13189   5.831   4.754   5.376
 4097SOL    HW113190   5.743   4.733   5.418
 4097SOL    HW213191   5.838   4.852   5.359
 4098SOL     OW13192   1.941   3.290   1.394
 4098SOL    HW113193   1.861   3.237   1.421
 4098SOL    HW213194   2.013   3.281   1.463
 4099SOL     OW13195   3.154   4.789   0.319
 4099SOL    HW113196   3.222   4.853   0.283
 4099SOL    HW213197   3.190   4.696   0.317
 4100SOL     OW13198   1.405   1.140   3.995
 4100SOL    HW113199   1.429   1.085   4.075
 4100SOL    HW213200   1.474   1.127   3.924
 4101SOL     OW13201   0.215   1.467   6.605
 4101SOL    HW113202   0.209   1.551   6.551
 4101SOL    HW213203   0.202   1.388   6.546
 4102SOL     OW13204   2.197   0.452   0.559
 4102SOL    HW113205   2.262   0.523   0.532
 4102SOL    HW213206   2.109   0.469   0.515
 4103SOL     OW13207   6.959   6.609   1.917
 4103SOL    HW113208   0.000   6.575   1.847
 4103SOL    HW213209   6.941   6.536   1.984
 4104SOL     OW13210   0.486   5.275   3.736
 4104SOL    HW113211   0.445   5.197   3.689
 4104SOL    HW213212   0.551   5.320   3.675
 4105SOL     OW13213   5.134   0.625   2.369
 4105SOL    HW113214   5.153   0.590   2.460
 4105SOL    HW213215   5.131   0.548   2.304
 4106SOL     OW13216   0.475   1.957   3.426
 4106SOL    HW113217   0.438   1.984   3.515
 4106SOL    HW213218   0.456   1.860   3.411
 4107SOL     OW13219   1.569   5.900   7.020
 4107SOL    HW113220   1.502   5.947   0.056
 4107SOL    HW213221   1.525   5.874   6.934
 4108SOL     OW13222   6.844   5.226   4.555
 4108SOL    HW113223   6.895   5.248   4.638
 4108SOL    HW213224   6.822   5.311   4.507
 4109SOL     OW13225   5.635   6.651   4.548
 4109SOL    HW113226   5.593   6.582   4.607
 4109SOL    HW213227   5.702   6.704   4.601
 4110SOL     OW13228   3.842   3.083   6.248
 4110SOL    HW113229   3.870   3.012   6.313
 4110SOL    HW213230   3.749   3.065   6.218
 4111SOL     OW13231   6.241   5.084   6.652
 4111SOL    HW113232   6.284   5.050   6.568
 4111SOL    HW213233   6.312   5.106   6.719
 4112SOL     OW13234   4.599   6.827   4.303
 4112SOL    HW113235   4.640   6.788   4.386
 4112SOL    HW213236   4.646   6.911   4.279
 4113SOL     OW13237   4.816   5.631   4.655
 4113SOL    HW113238   4.744   5.579   4.699
 4113SOL    HW213239   4.846   5.704   4.717
 4114SOL     OW13240   6.881   1.613   3.189
 4114SOL    HW113241   6.916   1.699   3.225
 4114SOL    HW213242   6.891   1.612   3.090
 4115SOL     OW13243   3.078   5.141   3.499
 4115SOL    HW113244   3.071   5.216   3.434
 4115SOL    HW213245   3.089   5.177   3.592
 4116SOL     OW13246   4.768   1.745   3.665
 4116SOL    HW113247   4.794   1.657   3.625
 4116SOL    HW213248   4.669   1.757   3.660
 4117SOL     OW13249   1.446   2.681   3.497
 4117SOL    HW113250   1.453   2.766   3.446
 4117SOL    HW213251   1.506   2.612   3.456
 4118SOL     OW13252   5.354   6.584   6.581
 4118SOL    HW113253   5.343   6.664   6.522
 4118SOL    HW213254   5.439   6.594   6.634
 4119SOL     OW13255   3.074   1.268   3.337
 4119SOL    HW113256   3.122   1.258   3.424
 4119SOL    HW213257   2.998   1.332   3.348
 4120SOL     OW13258   3.510   1.408   6.145
 4120SOL    HW113259   3.430   1.425   6.088
 4120SOL    HW213260   3.481   1.372   6.234
 4121SOL     OW13261   6.356   0.165   3.051
 4121SOL    HW113262   6.366   0.199   2.958
 4121SOL    HW213263   6.389   0.071   3.057
 4122SOL     OW13264   1.990   6.421   4.927
 4122SOL    HW113265   1.967   6.405   4.831
 4122SOL    HW213266   2.064   6.360   4.955
 4123SOL     OW13267   4.040   4.826   3.827
 4123SOL    HW113268   3.999   4.752   3.774
 4123SOL    HW213269   4.025   4.913   3.780
 4124SOL     OW13270   6.683   0.182   1.245
 4124SOL    HW113271   6.697   0.279   1.225
 4124SOL    HW213272   6.732   0.127   1.177
 4125SOL     OW13273   4.383   2.457   2.790
 4125SOL    HW113274   4.310   2.431   2.726
 4125SOL    HW213275   4.467   2.408   2.765
 4126SOL     OW13276   2.046   3.506   2.847
 4126SOL    HW113277   1.959   3.498   2.798
 4126SOL    HW213278   2.088   3.416   2.855
 4127SOL     OW13279   5.585   2.647   5.216
 4127SOL    HW113280   5.548   2.711   5.282
 4127SOL    HW213281   5.670   2.684   5.178
 4128SOL     OW13282   0.911   3.529   1.380
 4128SOL    HW113283   0.961   3.453   1.337
 4128SOL    HW213284   0.854   3.574   1.312
 4129SOL     OW13285   3.251   1.126   0.405
 4129SOL    HW113286   3.220   1.148   0.498
 4129SOL    HW213287   3.190   1.057   0.365
 4130SOL     OW13288   6.158   1.791   0.567
 4130SOL    HW113289   6.098   1.851   0.514
 4130SOL    HW213290   6.146   1.696   0.536
 4131SOL     OW13291   0.312   1.205   2.848
 4131SOL    HW113292   0.308   1.228   2.751
 4131SOL    HW213293   0.342   1.285   2.900
 4132SOL     OW13294   5.209   3.853   4.750
 4132SOL    HW113295   5.127   3.841   4.807
 4132SOL    HW213296   5.184   3.843   4.653
 4133SOL     OW13297   4.109   6.014   1.684
 4133SOL    HW113298   4.027   6.070   1.691
 4133SOL    HW213299   4.084   5.923   1.648
 4134SOL     OW13300   2.266   3.991   0.511
 4134SOL    HW113301   2.362   3.981   0.536
 4134SOL    HW213302   2.243   3.925   0.440
 4135SOL     OW13303   0.238   2.591   2.239
 4135SOL    HW113304   0.214   2.513   2.297
 4135SOL    HW213305   0.279   2.663   2.295
 4136SOL     OW13306   1.090   3.632   2.410
 4136SOL    HW113307   1.063   3.538   2.432
 4136SOL    HW213308   1.104   3.640   2.311
 4137SOL     OW13309   1.925   3.523   0.199
 4137SOL    HW113310   2.004   3.500   0.142
 4137SOL    HW213311   1.841   3.504   0.149
 4138SOL     OW13312   3.295   5.103   2.145
 4138SOL    HW113313   3.325   5.149   2.228
 4138SOL    HW213314   3.375   5.071   2.094
 4139SOL     OW13315   1.493   1.600   3.789
 4139SOL    HW113316   1.401   1.562   3.800
 4139SOL    HW213317   1.491   1.697   3.813
 4140SOL     OW13318   3.564   1.667   4.106
 4140SOL    HW113319   3.473   1.675   4.147
 4140SOL    HW213320   3.560   1.601   4.030
 4141SOL     OW13321   5.476   6.894   1.099
 4141SOL    HW113322   5.543   6.852   1.038
 4141SOL    HW213323   5.384   6.872   1.068
 4142SOL     OW13324   6.003   3.857   1.655
 4142SOL    HW113325   5.916   3.907   1.657
 4142SOL    HW213326   6.077   3.920   1.633
 4143SOL     OW13327   5.792   2.538   0.399
 4143SOL    HW113328   5.872   2.594   0.379
 4143SOL    HW213329   5.712   2.597   0.409
 4144SOL     OW13330   4.811   1.429   0.223
 4144SOL    HW113331   4.878   1.500   0.246
 4144SOL    HW213332   4.718   1.466   0.232
 4145SOL     OW13333   1.125   6.240   0.256
 4145SOL    HW113334   1.200   6.287   0.303
 4145SOL    HW213335   1.142   6.242   0.158
 4146SOL     OW13336   6.523   0.676   3.548
 4146SOL    HW113337   6.508   0.735   3.628
 4146SOL    HW213338   6.598   0.613   3.567
 4147SOL     OW13339   4.721   4.451   6.314
 4147SOL    HW113340   4.801   4.509   6.298
 4147SOL    HW213341   4.639   4.496   6.280
 4148SOL     OW13342   2.702   0.586   5.331
 4148SOL    HW113343   2.789   0.579   5.282
 4148SOL    HW213344   2.716   0.635   5.417
 4149SOL     OW13345   0.509   3.457   1.281
 4149SOL    HW113346   0.411   3.465   1.299
 4149SOL    HW213347   0.556   3.428   1.365
 4150SOL     OW13348   0.042   1.816   5.088
 4150SOL    HW113349   0.082   1.746   5.146
 4150SOL    HW213350   0.017   1.777   5.000
 4151SOL     OW13351   2.812   6.087   6.041
 4151SOL    HW113352   2.808   5.992   6.011
 4151SOL    HW213353   2.818   6.090   6.141
 4152SOL     OW13354   4.113   5.567   1.111
 4152SOL    HW113355   4.204   5.534   1.089
 4152SOL    HW213356   4.047   5.493   1.098
 4153SOL     OW13357   5.722   5.227   1.580
 4153SOL    HW113358   5.791   5.198   1.513
 4153SOL    HW213359   5.682   5.314   1.551
 4154SOL     OW13360   0.159   6.250   4.017
 4154SOL    HW113361   0.081   6.298   3.978
 4154SOL    HW213362   0.127   6.184   4.085
 4155SOL     OW13363   0.254   1.448   0.999
 4155SOL    HW113364   0.236   1.503   1.081
 4155SOL    HW213365   0.352   1.440   0.985
 4156SOL     OW13366   6.190   5.473   5.091
 4156SOL    HW113367   6.136   5.505   5.169
 4156SOL    HW213368   6.273   5.528   5.083
 4157SOL     OW13369   5.227   6.325   3.697
 4157SOL    HW113370   5.305   6.265   3.715
 4157SOL    HW213371   5.162   6.277   3.638
 4158SOL     OW13372   0.620   3.239   2.083
 4158SOL    HW113373   0.526   3.251   2.116
 4158SOL    HW213374   0.665   3.167   2.137
 4159SOL     OW13375   1.754   2.771   3.325
 4159SOL    HW113376   1.760   2.835   3.402
 4159SOL    HW213377   1.697   2.811   3.253
 4160SOL     OW13378   5.554   6.675   0.118
 4160SOL    HW113379   5.626   6.692   0.185
 4160SOL    HW213380   5.492   6.604   0.153
 4161SOL     OW13381   1.597   2.285   1.527
 4161SOL    HW113382   1.603   2.384   1.539
 4161SOL    HW213383   1.536   2.246   1.596
 4162SOL     OW13384   6.205   5.968   0.437
 4162SOL    HW113385   6.198   5.916   0.522
 4162SOL    HW213386   6.190   6.065   0.456
 4163SOL     OW13387   5.615   0.944   2.898
 4163SOL    HW113388   5.608   0.996   2.983
 4163SOL    HW213389   5.687   0.983   2.840
 4164SOL     OW13390   1.521   0.029   4.463
 4164SOL    HW113391   1.598   7.002   4.505
 4164SOL    HW213392   1.450   0.045   4.531
 4165SOL     OW13393   4.975   0.389   5.662
 4165SOL    HW113394   4.973   0.436   5.574
 4165SOL    HW213395   5.021   0.447   5.729
 4166SOL     OW13396   4.973   1.000   1.439
 4166SOL    HW113397   5.052   0.958   1.395
 4166SOL    HW213398   4.985   1.099   1.441
 4167SOL     OW13399   3.395   4.909   6.698
 4167SOL    HW113400   3.452   4.832   6.725
 4167SOL    HW213401   3.440   4.995   6.721
 4168SOL     OW13402   0.162   3.867   0.829
 4168SOL    HW113403   0.119   3.781   0.802
 4168SOL    HW213404   0.141   3.886   0.925
 4169SOL     OW13405   6.325   4.632   4.885
 4169SOL    HW113406   6.254   4.600   4.822
 4169SOL    HW213407   6.282   4.660   4.971
 4170SOL     OW13408   5.073   3.249   5.286
 4170SOL    HW113409   4.997   3.186   5.304
 4170SOL    HW213410   5.039   3.342   5.280
 4171SOL     OW13411   6.862   5.241   0.766
 4171SOL    HW113412   6.923   5.168   0.734
 4171SOL    HW213413   6.767   5.211   0.756
 4172SOL     OW13414   2.353   2.214   0.074
 4172SOL    HW113415   2.423   2.271   0.031
 4172SOL    HW213416   2.397   2.150   0.137
 4173SOL     OW13417   5.522   3.413   4.925
 4173SOL    HW113418   5.594   3.392   4.992
 4173SOL    HW213419   5.435   3.425   4.972
 4174SOL     OW13420   4.721   1.781   2.304
 4174SOL    HW113421   4.695   1.818   2.393
 4174SOL    HW213422   4.696   1.847   2.233
 4175SOL     OW13423   2.009   4.766   4.341
 4175SOL    HW113424   2.062   4.774   4.256
 4175SOL    HW213425   2.035   4.683   4.389
 4176SOL     OW13426   4.112   6.671   1.157
 4176SOL    HW113427   4.040   6.726   1.200
 4176SOL    HW213428   4.105   6.576   1.188
 4177SOL     OW13429   5.670   5.105   5.812
 4177SOL    HW113430   5.703   5.200   5.810
 4177SOL    HW213431   5.722   5.050   5.748
 4178SOL     OW13432   4.112   6.967   3.671
 4178SOL    HW113433   4.205   6.970   3.707
 4178SOL    HW213434   4.085   0.036   3.640
 4179SOL     OW13435   5.265   3.755   3.323
 4179SOL    HW113436   5.228   3.684   3.383
 4179SOL    HW213437   5.347   3.719   3.277
 4180SOL     OW13438   4.755   2.625   0.477
 4180SOL    HW113439   4.854   2.635   0.478
 4180SOL    HW213440   4.712   2.716   0.484
 4181SOL     OW13441   4.146   0.675   6.548
 4181SOL    HW113442   4.212   0.745   6.577
 4181SOL    HW213443   4.074   0.718   6.493
 4182SOL     OW13444   0.392   5.645   3.685
 4182SOL    HW113445   0.422   5.624   3.592
 4182SOL    HW213446   0.345   5.733   3.686
 4183SOL     OW13447   2.440   1.623   0.321
 4183SOL    HW113448   2.373   1.694   0.300
 4183SOL    HW213449   2.490   1.599   0.238
 4184SOL     OW13450   3.090   6.935   2.324
 4184SOL    HW113451   3.089   6.835   2.322
 4184SOL    HW213452   3.029   6.968   2.396
 4185SOL     OW13453   0.764   4.463   3.246
 4185SOL    HW113454   0.858   4.430   3.236
 4185SOL    HW213455   0.714   4.403   3.309
 4186SOL     OW13456   2.356   4.992   6.685
 4186SOL    HW113457   2.416   4.981   6.607
 4186SOL    HW213458   2.267   4.950   6.665
 4187SOL     OW13459   2.708   3.145   5.605
 4187SOL    HW113460   2.792   3.196   5.623
 4187SOL    HW213461   2.629   3.205   5.621
 4188SOL     OW13462   5.174   0.437   5.134
 4188SOL    HW113463   5.250   0.395   5.084
 4188SOL    HW213464   5.108   0.474   5.069
 4189SOL     OW13465   3.238   5.088   4.506
 4189SOL    HW113466   3.163   5.045   4.557
 4189SOL    HW213467   3.293   5.016   4.462
 4190SOL     OW13468   1.001   0.112   0.928
 4190SOL    HW113469   1.034   0.114   1.022
 4190SOL    HW213470   0.927   0.045   0.920
 4191SOL     OW13471   5.031   4.574   4.178
 4191SOL    HW113472   5.055   4.665   4.211
 4191SOL    HW213473   5.079   4.556   4.092
 4192SOL     OW13474   0.573   1.651   2.949
 4192SOL    HW113475   0.610   1.627   3.039
 4192SOL    HW213476   0.617   1.735   2.917
 4193SOL     OW13477   6.448   0.451   0.869
 4193SOL    HW113478   6.496   0.487   0.789
 4193SOL    HW213479   6.353   0.429   0.843
 4194SOL     OW13480   4.532   0.447   4.714
 4194SOL    HW113481   4.607   0.456   4.649
 4194SOL    HW213482   4.553   0.373   4.779
 4195SOL     OW13483   3.643   5.532   1.545
 4195SOL    HW113484   3.713   5.470   1.510
 4195SOL    HW213485   3.659   5.624   1.511
 4196SOL     OW13486   6.302   2.783   2.720
 4196SOL    HW113487   6.281   2.832   2.635
 4196SOL    HW213488   6.218   2.742   2.756
 4197SOL     OW13489   4.826   5.635   6.013
 4197SOL    HW113490   4.773   5.647   5.929
 4197SOL    HW213491   4.798   5.704   6.080
 4198SOL     OW13492   5.863   1.585   0.641
 4198SOL    HW113493   5.830   1.673   0.674
 4198SOL    HW213494   5.815   1.560   0.557
 4199SOL     OW13495   0.867   2.584   6.316
 4199SOL    HW113496   0.873   2.549   6.222
 4199SOL    HW213497   0.858   2.684   6.313
 4200SOL     OW13498   2.686   0.135   6.166
 4200SOL    HW113499   2.641   0.070   6.228
 4200SOL    HW213500   2.664   0.111   6.072
 4201SOL     OW13501   5.441   6.928   3.285
 4201SOL    HW113502   5.500   6.977   3.220
 4201SOL    HW213503   5.451   6.830   3.271
 4202SOL     OW13504   2.942   5.580   6.245
 4202SOL    HW113505   3.004   5.508   6.278
 4202SOL    HW213506   2.851   5.541   6.230
 4203SOL     OW13507   4.157   4.225   0.316
 4203SOL    HW113508   4.198   4.150   0.265
 4203SOL    HW213509   4.133   4.299   0.253
 4204SOL     OW13510   4.128   3.661   4.117
 4204SOL    HW113511   4.225   3.686   4.116
 4204SOL    HW213512   4.106   3.611   4.033
 4205SOL     OW13513   4.579   6.533   4.249
 4205SOL    HW113514   4.644   6.509   4.177
 4205SOL    HW213515   4.591   6.629   4.274
 4206SOL     OW13516   6.453   0.826   5.303
 4206SOL    HW113517   6.539   0.877   5.300
 4206SOL    HW213518   6.376   0.889   5.302
 4207SOL     OW13519   2.177   2.317   1.839
 4207SOL    HW113520   2.183   2.370   1.923
 4207SOL    HW213521   2.105   2.355   1.780
 4208SOL     OW13522   0.037   3.713   5.280
 4208SOL    HW113523   7.012   3.708   5.192
 4208SOL    HW213524   0.071   3.806   5.294
 4209SOL     OW13525   0.020   6.667   4.404
 4209SOL    HW113526   0.016   6.650   4.306
 4209SOL    HW213527   6.950   6.659   4.443
 4210SOL     OW13528   3.694   3.648   2.146
 4210SOL    HW113529   3.768   3.588   2.118
 4210SOL    HW213530   3.611   3.625   2.095
 4211SOL     OW13531   3.352   0.584   6.067
 4211SOL    HW113532   3.351   0.574   6.167
 4211SOL    HW213533   3.265   0.554   6.030
 4212SOL     OW13534   6.607   2.185   2.991
 4212SOL    HW113535   6.510   2.171   2.968
 4212SOL    HW213536   6.662   2.113   2.948
 4213SOL     OW13537   2.203   0.332   2.534
 4213SOL    HW113538   2.129   0.264   2.530
 4213SOL    HW213539   2.253   0.332   2.447
 4214SOL     OW13540   1.279   5.899   5.575
 4214SOL    HW113541   1.354   5.859   5.628
 4214SOL    HW213542   1.313   5.973   5.519
 4215SOL     OW13543   4.693   0.091   6.145
 4215SOL    HW113544   4.627   0.138   6.203
 4215SOL    HW213545   4.691   0.131   6.053
 4216SOL     OW13546   1.592   0.920   3.075
 4216SOL    HW113547   1.642   0.850   3.125
 4216SOL    HW213548   1.501   0.886   3.052
 4217SOL     OW13549   0.897   0.837   2.910
 4217SOL    HW113550   0.877   0.739   2.910
 4217SOL    HW213551   0.874   0.876   3.000
 4218SOL     OW13552   3.841   1.320   1.878
 4218SOL    HW113553   3.757   1.348   1.830
 4218SOL    HW213554   3.855   1.378   1.958
 4219SOL     OW13555   4.157   5.946   3.906
 4219SOL    HW113556   4.241   5.898   3.932
 4219SOL    HW213557   4.178   6.012   3.833
 4220SOL     OW13558   6.570   3.190   3.363
 4220SOL    HW113559   6.517   3.134   3.427
 4220SOL    HW213560   6.511   3.218   3.287
 4221SOL     OW13561   6.169   5.492   6.517
 4221SOL    HW113562   6.247   5.430   6.526
 4221SOL    HW213563   6.087   5.440   6.491
 4222SOL     OW13564   0.618   1.350   2.180
 4222SOL    HW113565   0.694   1.410   2.207
 4222SOL    HW213566   0.532   1.401   2.186
 4223SOL     OW13567   3.621   3.289   0.017
 4223SOL    HW113568   3.632   3.191   0.004
 4223SOL    HW213569   3.704   3.337   7.012
 4224SOL     OW13570   5.367   4.373   3.973
 4224SOL    HW113571   5.457   4.417   3.964
 4224SOL    HW213572   5.370   4.306   4.047
 4225SOL     OW13573   2.617   2.522   5.621
 4225SOL    HW113574   2.706   2.560   5.644
 4225SOL    HW213575   2.573   2.579   5.552
 4226SOL     OW13576   0.510   6.868   3.010
 4226SOL    HW113577   0.473   6.948   3.058
 4226SOL    HW213578   0.610   6.878   3.002
 4227SOL     OW13579   3.636   5.165   1.594
 4227SOL    HW113580   3.620   5.178   1.692
 4227SOL    HW213581   3.715   5.218   1.565
 4228SOL     OW13582   1.212   5.277   5.104
 4228SOL    HW113583   1.273   5.235   5.171
 4228SOL    HW213584   1.227   5.375   5.102
 4229SOL     OW13585   5.023   6.604   5.975
 4229SOL    HW113586   5.027   6.548   6.058
 4229SOL    HW213587   5.045   6.547   5.896
 4230SOL     OW13588   0.468   5.743   2.690
 4230SOL    HW113589   0.453   5.780   2.781
 4230SOL    HW213590   0.440   5.811   2.622
 4231SOL     OW13591   5.794   6.618   5.741
 4231SOL    HW113592   5.760   6.523   5.740
 4231SOL    HW213593   5.716   6.681   5.738
 4232SOL     OW13594   6.870   4.628   3.139
 4232SOL    HW113595   6.789   4.594   3.092
 4232SOL    HW213596   6.867   4.728   3.145
 4233SOL     OW13597   6.563   6.720   5.918
 4233SOL    HW113598   6.506   6.764   5.987
 4233SOL    HW213599   6.558   6.621   5.928
 4234SOL     OW13600   2.649   6.076   4.832
 4234SOL    HW113601   2.710   6.106   4.758
 4234SOL    HW213602   2.616   6.155   4.883
 4235SOL     OW13603   5.714   4.629   6.018
 4235SOL    HW113604   5.679   4.536   6.028
 4235SOL    HW213605   5.681   4.685   6.094
 4236SOL     OW13606   6.298   3.645   2.142
 4236SOL    HW113607   6.242   3.714   2.188
 4236SOL    HW213608   6.238   3.577   2.098
 4237SOL     OW13609   5.793   5.718   3.325
 4237SOL    HW113610   5.808   5.811   3.358
 4237SOL    HW213611   5.832   5.653   3.390
 4238SOL     OW13612   2.265   6.535   2.532
 4238SOL    HW113613   2.191   6.490   2.480
 4238SOL    HW213614   2.296   6.616   2.482
 4239SOL     OW13615   5.193   1.089   2.407
 4239SOL    HW113616   5.127   1.128   2.472
 4239SOL    HW213617   5.186   1.136   2.319
 4240SOL     OW13618   2.722   5.824   0.385
 4240SOL    HW113619   2.755   5.907   0.430
 4240SOL    HW213620   2.654   5.780   0.443
 4241SOL     OW13621   6.108   1.191   0.413
 4241SOL    HW113622   6.043   1.169   0.485
 4241SOL    HW213623   6.194   1.142   0.430
 4242SOL     OW13624   3.308   1.592   4.167
 4242SOL    HW113625   3.223   1.626   4.127
 4242SOL    HW213626   3.289   1.554   4.258
 4243SOL     OW13627   6.537   2.944   2.559
 4243SOL    HW113628   6.544   2.845   2.570
 4243SOL    HW213629   6.441   2.969   2.545
 4244SOL     OW13630   4.228   4.298   1.676
 4244SOL    HW113631   4.292   4.269   1.748
 4244SOL    HW213632   4.237   4.397   1.662
 4245SOL     OW13633   6.612   1.085   6.374
 4245SOL    HW113634   6.618   1.178   6.338
 4245SOL    HW213635   6.560   1.028   6.310
 4246SOL     OW13636   6.877   4.375   3.208
 4246SOL    HW113637   6.949   4.321   3.164
 4246SOL    HW213638   6.886   4.471   3.181
 4247SOL     OW13639   2.790   6.135   3.869
 4247SOL    HW113640   2.794   6.072   3.792
 4247SOL    HW213641   2.864   6.203   3.860
 4248SOL     OW13642   3.721   1.548   3.170
 4248SOL    HW113643   3.755   1.630   3.122
 4248SOL    HW213644   3.647   1.575   3.231
 4249SOL     OW13645   6.031   2.465   4.064
 4249SOL    HW113646   6.047   2.476   3.965
 4249SOL    HW213647   6.106   2.411   4.103
 4250SOL     OW13648   5.997   4.733   2.909
 4250SOL    HW113649   5.995   4.650   2.852
 4250SOL    HW213650   5.971   4.710   3.002
 4251SOL     OW13651   5.410   4.752   1.422
 4251SOL    HW113652   5.493   4.804   1.441
 4251SOL    HW213653   5.434   4.656   1.406
 4252SOL     OW13654   5.508   5.965   6.021
 4252SOL    HW113655   5.471   5.987   5.931
 4252SOL    HW213656   5.563   6.042   6.054
 4253SOL     OW13657   3.623   6.693   0.793
 4253SOL    HW113658   3.620   6.754   0.872
 4253SOL    HW213659   3.618   6.748   0.709
 4254SOL     OW13660   0.793   3.181   1.633
 4254SOL    HW113661   0.754   3.106   1.687
 4254SOL    HW213662   0.891   3.164   1.620
 4255SOL     OW13663   6.554   4.081   3.433
 4255SOL    HW113664   6.521   4.131   3.352
 4255SOL    HW213665   6.654   4.087   3.437
 4256SOL     OW13666   2.387   6.358   0.121
 4256SOL    HW113667   2.347   6.361   0.029
 4256SOL    HW213668   2.419   6.449   0.146
 4257SOL     OW13669   2.651   0.651   4.527
 4257SOL    HW113670   2.720   0.663   4.455
 4257SOL    HW213671   2.593   0.573   4.504
 4258SOL     OW13672   4.666   6.519   0.910
 4258SOL    HW113673   4.750   6.467   0.930
 4258SOL    HW213674   4.627   6.553   0.995
 4259SOL     OW13675   2.674   0.997   0.943
 4259SOL    HW113676   2.706   0.903   0.938
 4259SOL    HW213677   2.617   1.017   0.863
 4260SOL     OW13678   5.038   0.281   0.823
 4260SOL    HW113679   5.066   0.343   0.750
 4260SOL    HW213680   4.963   0.223   0.790
 4261SOL     OW13681   1.837   0.090   1.897
 4261SOL    HW113682   1.932   0.098   1.870
 4261SOL    HW213683   1.814   0.163   1.961
 4262SOL     OW13684   1.010   4.760   5.635
 4262SOL    HW113685   0.989   4.663   5.623
 4262SOL    HW213686   1.083   4.770   5.703
 4263SOL     OW13687   2.774   5.950   3.673
 4263SOL    HW113688   2.865   5.936   3.633
 4263SOL    HW213689   2.744   5.865   3.717
 4264SOL     OW13690   0.294   2.575   2.923
 4264SOL    HW113691   0.209   2.542   2.965
 4264SOL    HW213692   0.273   2.636   2.847
 4265SOL     OW13693   5.089   1.593   0.828
 4265SOL    HW113694   5.120   1.513   0.777
 4265SOL    HW213695   5.167   1.651   0.851
 4266SOL     OW13696   2.094   5.497   0.240
 4266SOL    HW113697   2.164   5.567   0.252
 4266SOL    HW213698   2.007   5.529   0.277
 4267SOL     OW13699   1.756   3.461   4.760
 4267SOL    HW113700   1.688   3.443   4.832
 4267SOL    HW213701   1.749   3.391   4.689
 4268SOL     OW13702   1.445   6.126   6.186
 4268SOL    HW113703   1.461   6.044   6.130
 4268SOL    HW213704   1.533   6.171   6.204
 4269SOL     OW13705   2.549   0.848   1.792
 4269SOL    HW113706   2.531   0.862   1.695
 4269SOL    HW213707   2.555   0.937   1.838
 4270SOL     OW13708   4.174   3.423   3.843
 4270SOL    HW113709   4.123   3.500   3.805
 4270SOL    HW213710   4.122   3.381   3.917
 4271SOL     OW13711   6.648   1.030   6.774
 4271SOL    HW113712   6.687   0.940   6.755
 4271SOL    HW213713   6.552   1.031   6.747
 4272SOL     OW13714   6.353   2.758   4.356
 4272SOL    HW113715   6.320   2.818   4.283
 4272SOL    HW213716   6.452   2.764   4.362
 4273SOL     OW13717   4.377   6.682   4.477
 4273SOL    HW113718   4.477   6.682   4.489
 4273SOL    HW213719   4.333   6.699   4.565
 4274SOL     OW13720   0.949   6.287   1.625
 4274SOL    HW113721   1.044   6.259   1.608
 4274SOL    HW213722   0.890   6.250   1.554
 4275SOL     OW13723   6.416   0.745   3.917
 4275SOL    HW113724   6.388   0.679   3.987
 4275SOL    HW213725   6.357   0.736   3.837
 4276SOL     OW13726   1.909   4.763   3.150
 4276SOL    HW113727   1.928   4.861   3.159
 4276SOL    HW213728   1.853   4.747   3.069
 4277SOL     OW13729   6.113   4.234   3.958
 4277SOL    HW113730   6.123   4.325   3.919
 4277SOL    HW213731   6.058   4.240   4.041
 4278SOL     OW13732   0.336   0.499   4.321
 4278SOL    HW113733   0.282   0.553   4.256
 4278SOL    HW213734   0.400   0.441   4.271
 4279SOL     OW13735   3.012   0.715   4.371
 4279SOL    HW113736   3.046   0.680   4.284
 4279SOL    HW213737   3.006   0.640   4.437
 4280SOL     OW13738   4.736   0.522   5.872
 4280SOL    HW113739   4.751   0.427   5.844
 4280SOL    HW213740   4.659   0.560   5.821
 4281SOL     OW13741   0.439   4.825   3.553
 4281SOL    HW113742   0.533   4.807   3.525
 4281SOL    HW213743   0.424   4.924   3.554
 4282SOL     OW13744   3.045   4.399   6.027
 4282SOL    HW113745   3.059   4.429   5.933
 4282SOL    HW213746   3.049   4.300   6.031
 4283SOL     OW13747   1.409   0.552   3.626
 4283SOL    HW113748   1.418   0.508   3.715
 4283SOL    HW213749   1.383   0.648   3.638
 4284SOL     OW13750   4.157   4.651   1.534
 4284SOL    HW113751   4.094   4.603   1.595
 4284SOL    HW213752   4.123   4.744   1.517
 4285SOL     OW13753   0.899   0.731   6.011
 4285SOL    HW113754   0.997   0.712   6.004
 4285SOL    HW213755   0.850   0.677   5.942
 4286SOL     OW13756   4.653   6.439   6.052
 4286SOL    HW113757   4.664   6.506   5.978
 4286SOL    HW213758   4.580   6.375   6.027
 4287SOL     OW13759   5.819   2.600   6.385
 4287SOL    HW113760   5.856   2.644   6.467
 4287SOL    HW213761   5.788   2.670   6.320
 4288SOL     OW13762   0.784   6.051   3.811
 4288SOL    HW113763   0.726   6.126   3.844
 4288SOL    HW213764   0.880   6.078   3.820
 4289SOL     OW13765   6.777   2.798   0.502
 4289SOL    HW113766   6.800   2.764   0.412
 4289SOL    HW213767   6.716   2.733   0.549
 4290SOL     OW13768   1.291   6.898   2.776
 4290SOL    HW113769   1.277   6.991   2.742
 4290SOL    HW213770   1.318   6.839   2.700
 4291SOL     OW13771   4.356   3.223   1.272
 4291SOL    HW113772   4.392   3.228   1.179
 4291SOL    HW213773   4.342   3.316   1.308
 4292SOL     OW13774   6.193   3.652   0.561
 4292SOL    HW113775   6.120   3.641   0.629
 4292SOL    HW213776   6.213   3.563   0.519
 4293SOL     OW13777   2.317   3.119   0.311
 4293SOL    HW113778   2.224   3.137   0.280
 4293SOL    HW213779   2.361   3.204   0.339
 4294SOL     OW13780   2.543   3.117   6.667
 4294SOL    HW113781   2.600   3.043   6.632
 4294SOL    HW213782   2.515   3.095   6.761
 4295SOL     OW13783   4.097   5.467   4.150
 4295SOL    HW113784   4.106   5.457   4.249
 4295SOL    HW213785   4.087   5.376   4.109
 4296SOL     OW13786   3.829   0.605   0.296
 4296SOL    HW113787   3.879   0.689   0.275
 4296SOL    HW213788   3.787   0.614   0.387
 4297SOL     OW13789   4.819   0.931   6.895
 4297SOL    HW113790   4.818   0.943   6.994
 4297SOL    HW213791   4.773   0.846   6.871
 4298SOL     OW13792   3.753   5.180   0.557
 4298SOL    HW113793   3.681   5.166   0.625
 4298SOL    HW213794   3.762   5.278   0.538
 4299SOL     OW13795   0.656   2.776   6.472
 4299SOL    HW113796   0.683   2.685   6.503
 4299SOL    HW213797   0.735   2.822   6.430
 4300SOL     OW13798   3.905   0.393   6.718
 4300SOL    HW113799   3.876   0.327   6.787
 4300SOL    HW213800   3.993   0.364   6.679
 4301SOL     OW13801   4.132   0.967   1.689
 4301SOL    HW113802   4.150   1.044   1.751
 4301SOL    HW213803   4.083   0.896   1.739
 4302SOL     OW13804   1.571   6.726   6.063
 4302SOL    HW113805   1.472   6.734   6.071
 4302SOL    HW213806   1.609   6.808   6.020
 4303SOL     OW13807   6.963   4.774   4.290
 4303SOL    HW113808   6.929   4.859   4.331
 4303SOL    HW213809   0.016   4.795   4.227
 4304SOL     OW13810   2.988   3.808   3.301
 4304SOL    HW113811   3.032   3.898   3.307
 4304SOL    HW213812   2.948   3.797   3.210
 4305SOL     OW13813   6.326   0.199   4.878
 4305SOL    HW113814   6.417   0.189   4.918
 4305SOL    HW213815   6.257   0.171   4.946
 4306SOL     OW13816   5.633   3.864   6.217
 4306SOL    HW113817   5.650   3.770   6.188
 4306SOL    HW213818   5.592   3.863   6.309
 4307SOL     OW13819   3.955   4.049   6.260
 4307SOL    HW113820   4.030   4.114   6.272
 4307SOL    HW213821   3.870   4.099   6.245
 4308SOL     OW13822   6.194   5.383   6.997
 4308SOL    HW113823   6.240   5.432   6.923
 4308SOL    HW213824   6.181   5.445   0.052
 4309SOL     OW13825   0.967   1.531   0.152
 4309SOL    HW113826   1.045   1.592   0.135
 4309SOL    HW213827   0.907   1.572   0.221
 4310SOL     OW13828   1.155   2.933   2.503
 4310SOL    HW113829   1.129   2.838   2.484
 4310SOL    HW213830   1.229   2.960   2.441
 4311SOL     OW13831   2.070   6.092   2.840
 4311SOL    HW113832   2.090   6.021   2.772
 4311SOL    HW213833   2.049   6.049   2.927
 4312SOL     OW13834   1.558   4.916   0.972
 4312SOL    HW113835   1.571   4.890   0.877
 4312SOL    HW213836   1.647   4.933   1.015
 4313SOL     OW13837   4.928   1.388   1.893
 4313SOL    HW113838   4.834   1.384   1.927
 4313SOL    HW213839   4.928   1.376   1.794
 4314SOL     OW13840   6.300   0.695   4.493
 4314SOL    HW113841   6.354   0.644   4.425
 4314SOL    HW213842   6.271   0.782   4.454
 4315SOL     OW13843   2.107   6.705   1.419
 4315SOL    HW113844   2.113   6.693   1.320
 4315SOL    HW213845   2.014   6.732   1.443
 4316SOL     OW13846   5.214   0.069   1.717
 4316SOL    HW113847   5.286   0.132   1.688
 4316SOL    HW213848   5.134   0.120   1.747
 4317SOL     OW13849   4.631   1.861   4.553
 4317SOL    HW113850   4.681   1.939   4.514
 4317SOL    HW213851   4.599   1.884   4.645
 4318SOL     OW13852   0.457   3.475   4.822
 4318SOL    HW113853   0.366   3.498   4.787
 4318SOL    HW213854   0.524   3.539   4.784
 4319SOL     OW13855   2.102   2.817   0.882
 4319SOL    HW113856   2.085   2.908   0.919
 4319SOL    HW213857   2.158   2.824   0.800
 4320SOL     OW13858   6.325   5.429   1.549
 4320SOL    HW113859   6.281   5.415   1.461
 4320SOL    HW213860   6.331   5.526   1.569
 4321SOL     OW13861   6.818   6.637   5.532
 4321SOL    HW113862   6.898   6.670   5.483
 4321SOL    HW213863   6.743   6.623   5.467
 4322SOL     OW13864   6.697   2.867   6.620
 4322SOL    HW113865   6.650   2.844   6.705
 4322SOL    HW213866   6.711   2.784   6.566
 4323SOL     OW13867   4.464   3.642   0.998
 4323SOL    HW113868   4.479   3.622   1.095
 4323SOL    HW213869   4.516   3.723   0.973
 4324SOL     OW13870   5.586   4.628   6.843
 4324SOL    HW113871   5.587   4.530   6.862
 4324SOL    HW213872   5.619   4.644   6.750
 4325SOL     OW13873   2.136   1.410   1.731
 4325SOL    HW113874   2.057   1.359   1.765
 4325SOL    HW213875   2.154   1.488   1.791
 4326SOL     OW13876   4.788   5.040   5.158
 4326SOL    HW113877   4.781   5.069   5.253
 4326SOL    HW213878   4.861   4.973   5.149
 4327SOL     OW13879   6.059   6.110   1.779
 4327SOL    HW113880   6.004   6.191   1.798
 4327SOL    HW213881   6.135   6.135   1.719
 4328SOL     OW13882   4.666   3.687   5.435
 4328SOL    HW113883   4.766   3.686   5.445
 4328SOL    HW213884   4.641   3.646   5.348
 4329SOL     OW13885   4.204   1.726   5.777
 4329SOL    HW113886   4.156   1.659   5.834
 4329SOL    HW213887   4.166   1.817   5.794
 4330SOL     OW13888   2.514   0.252   5.052
 4330SOL    HW113889   2.524   0.306   4.969
 4330SOL    HW213890   2.445   0.293   5.110
 4331SOL     OW13891   5.461   1.940   1.618
 4331SOL    HW113892   5.487   1.965   1.711
 4331SOL    HW213893   5.516   1.862   1.588
 4332SOL     OW13894   5.043   4.387   2.524
 4332SOL    HW113895   5.026   4.441   2.442
 4332SOL    HW213896   4.967   4.323   2.539
 4333SOL     OW13897   3.637   0.399   5.173
 4333SOL    HW113898   3.572   0.343   5.121
 4333SOL    HW213899   3.710   0.430   5.112
 4334SOL     OW13900   1.429   2.767   2.688
 4334SOL    HW113901   1.521   2.730   2.679
 4334SOL    HW213902   1.427   2.862   2.657
 4335SOL     OW13903   3.694   3.572   2.541
 4335SOL    HW113904   3.645   3.659   2.551
 4335SOL    HW213905   3.781   3.588   2.494
 4336SOL     OW13906   2.280   6.329   6.852
 4336SOL    HW113907   2.254   6.233   6.839
 4336SOL    HW213908   2.199   6.387   6.850
 4337SOL     OW13909   0.364   4.183   0.879
 4337SOL    HW113910   0.372   4.249   0.953
 4337SOL    HW213911   0.392   4.092   0.912
 4338SOL     OW13912   5.792   5.500   5.042
 4338SOL    HW113913   5.816   5.557   4.964
 4338SOL    HW213914   5.723   5.545   5.097
 4339SOL     OW13915   5.754   3.558   5.211
 4339SOL    HW113916   5.752   3.491   5.136
 4339SOL    HW213917   5.738   3.649   5.174
 4340SOL     OW13918   6.724   3.596   1.104
 4340SOL    HW113919   6.639   3.647   1.110
 4340SOL    HW213920   6.713   3.507   1.148
 4341SOL     OW13921   0.706   6.098   1.916
 4341SOL    HW113922   0.673   6.158   1.988
 4341SOL    HW213923   0.796   6.062   1.941
 4342SOL     OW13924   6.127   3.952   4.474
 4342SOL    HW113925   6.222   3.930   4.498
 4342SOL    HW213926   6.114   4.051   4.482
 4343SOL     OW13927   2.681   5.873   5.287
 4343SOL    HW113928   2.589   5.905   5.263
 4343SOL    HW213929   2.739   5.877   5.206
 4344SOL     OW13930   1.061   5.126   2.650
 4344SOL    HW113931   1.115   5.201   2.610
 4344SOL    HW213932   1.113   5.083   2.724
 4345SOL     OW13933   3.046   3.610   5.351
 4345SOL    HW113934   3.079   3.516   5.345
 4345SOL    HW213935   2.989   3.630   5.271
 4346SOL     OW13936   1.792   3.002   2.379
 4346SOL    HW113937   1.833   2.997   2.470
 4346SOL    HW213938   1.795   3.096   2.346
 4347SOL     OW13939   6.821   6.972   2.928
 4347SOL    HW113940   6.876   6.973   2.845
 4347SOL    HW213941   6.796   6.878   2.951
 4348SOL     OW13942   6.648   4.586   2.957
 4348SOL    HW113943   6.613   4.518   2.893
 4348SOL    HW213944   6.574   4.649   2.982
 4349SOL     OW13945   6.880   1.630   2.598
 4349SOL    HW113946   6.901   1.536   2.568
 4349SOL    HW213947   6.950   1.661   2.662
 4350SOL     OW13948   4.929   1.453   4.083
 4350SOL    HW113949   4.890   1.513   4.013
 4350SOL    HW213950   5.008   1.405   4.045
 4351SOL     OW13951   2.009   5.572   1.056
 4351SOL    HW113952   2.060   5.544   0.975
 4351SOL    HW213953   2.030   5.509   1.132
 4352SOL     OW13954   0.073   3.025   2.363
 4352SOL    HW113955   7.013   2.968   2.365
 4352SOL    HW213956   0.147   2.977   2.316
 4353SOL     OW13957   3.858   3.336   6.403
 4353SOL    HW113958   3.848   3.254   6.347
 4353SOL    HW213959   3.909   3.314   6.486
 4354SOL     OW13960   2.581   6.811   5.561
 4354SOL    HW113961   2.573   6.880   5.489
 4354SOL    HW213962   2.495   6.762   5.570
 4355SOL     OW13963   2.591   0.253   2.434
 4355SOL    HW113964   2.575   0.350   2.455
 4355SOL    HW213965   2.580   0.239   2.336
 4356SOL     OW13966   5.189   4.005   1.026
 4356SOL    HW113967   5.287   4.013   1.043
 4356SOL    HW213968   5.171   4.018   0.929
 4357SOL     OW13969   6.904   0.955   0.703
 4357SOL    HW113970   6.885   0.913   0.614
 4357SOL    HW213971   7.003   0.963   0.715
 4358SOL     OW13972   0.436   6.103   6.996
 4358SOL    HW113973   0.428   6.092   0.073
 4358SOL    HW213974   0.441   6.200   6.973
 4359SOL     OW13975   2.226   2.048   6.769
 4359SOL    HW113976   2.158   2.074   6.837
 4359SOL    HW213977   2.280   1.971   6.804
 4360SOL     OW13978   1.415   2.288   3.535
 4360SOL    HW113979   1.472   2.363   3.501
 4360SOL    HW213980   1.439   2.204   3.486
 4361SOL     OW13981   2.509   3.426   1.014
 4361SOL    HW113982   2.507   3.338   1.061
 4361SOL    HW213983   2.484   3.498   1.079
 4362SOL     OW13984   6.005   5.534   3.096
 4362SOL    HW113985   5.963   5.621   3.072
 4362SOL    HW213986   5.935   5.462   3.098
 4363SOL     OW13987   4.986   2.915   0.351
 4363SOL    HW113988   4.926   2.883   0.278
 4363SOL    HW213989   5.001   3.013   0.341
 4364SOL     OW13990   2.958   3.301   4.766
 4364SOL    HW113991   2.895   3.309   4.843
 4364SOL    HW213992   3.045   3.262   4.798
 4365SOL     OW13993   2.221   1.643   1.850
 4365SOL    HW113994   2.188   1.705   1.779
 4365SOL    HW213995   2.154   1.639   1.925
 4366SOL     OW13996   6.199   6.877   0.171
 4366SOL    HW113997   6.103   6.857   0.156
 4366SOL    HW213998   6.217   6.884   0.269
 4367SOL     OW13999   2.029   4.510   4.461
 4367SOL    HW114000   2.058   4.487   4.554
 4367SOL    HW214001   2.095   4.473   4.396
 4368SOL     OW14002   4.049   4.186   0.899
 4368SOL    HW114003   4.127   4.230   0.855
 4368SOL    HW214004   4.028   4.101   0.851
 4369SOL     OW14005   4.192   5.536   2.793
 4369SOL    HW114006   4.103   5.562   2.830
 4369SOL    HW214007   4.261   5.540   2.866
 4370SOL     OW14008   4.335   5.439   2.401
 4370SOL    HW114009   4.298   5.374   2.335
 4370SOL    HW214010   4.428   5.466   2.373
 4371SOL     OW14011   0.959   2.136   1.592
 4371SOL    HW114012   1.057   2.120   1.580
 4371SOL    HW214013   0.913   2.049   1.611
 4372SOL     OW14014   3.339   1.411   2.505
 4372SOL    HW114015   3.400   1.336   2.477
 4372SOL    HW214016   3.379   1.458   2.583
 4373SOL     OW14017   6.394   2.329   6.584
 4373SOL    HW114018   6.399   2.429   6.585
 4373SOL    HW214019   6.450   2.293   6.659
 4374SOL     OW14020   1.643   1.939   1.953
 4374SOL    HW114021   1.741   1.925   1.942
 4374SOL    HW214022   1.621   1.945   2.051
 4375SOL     OW14023   4.352   6.974   2.726
 4375SOL    HW114024   4.387   6.985   2.819
 4375SOL    HW214025   4.262   7.016   2.719
 4376SOL     OW14026   0.089   6.707   1.063
 4376SOL    HW114027   0.094   6.806   1.074
 4376SOL    HW214028   0.087   6.685   0.965
 4377SOL     OW14029   5.270   4.761   0.568
 4377SOL    HW114030   5.175   4.790   0.583
 4377SOL    HW214031   5.284   4.740   0.471
 4378SOL     OW14032   2.205   2.404   2.960
 4378SOL    HW114033   2.203   2.307   2.983
 4378SOL    HW214034   2.124   2.427   2.905
 4379SOL     OW14035   1.745   1.343   2.683
 4379SOL    HW114036   1.751   1.432   2.640
 4379SOL    HW214037   1.702   1.352   2.773
 4380SOL     OW14038   0.545   6.936   2.218
 4380SOL    HW114039   0.580   0.006   2.204
 4380SOL    HW214040   0.530   6.920   2.316
 4381SOL     OW14041   1.014   5.388   5.339
 4381SOL    HW114042   1.091   5.452   5.341
 4381SOL    HW214043   1.041   5.306   5.290
 4382SOL     OW14044   6.990   2.947   5.238
 4382SOL    HW114045   0.025   2.966   5.158
 4382SOL    HW214046   0.021   2.897   5.306
 4383SOL     OW14047   0.985   3.270   6.134
 4383SOL    HW114048   0.919   3.317   6.192
 4383SOL    HW214049   0.963   3.172   6.132
 4384SOL     OW14050   5.527   0.574   4.532
 4384SOL    HW114051   5.620   0.584   4.568
 4384SOL    HW214052   5.498   0.659   4.490
 4385SOL     OW14053   5.599   2.184   5.129
 4385SOL    HW114054   5.568   2.276   5.108
 4385SOL    HW214055   5.681   2.188   5.187
 4386SOL     OW14056   1.771   3.760   5.826
 4386SOL    HW114057   1.830   3.682   5.805
 4386SOL    HW214058   1.768   3.822   5.747
 4387SOL     OW14059   6.950   2.020   1.453
 4387SOL    HW114060   0.007   1.966   1.480
 4387SOL    HW214061   6.978   2.087   1.383
 4388SOL     OW14062   4.283   2.111   5.965
 4388SOL    HW114063   4.284   2.121   6.065
 4388SOL    HW214064   4.207   2.051   5.939
 4389SOL     OW14065   6.494   3.280   0.958
 4389SOL    HW114066   6.440   3.239   0.885
 4389SOL    HW214067   6.539   3.363   0.924
 4390SOL     OW14068   4.117   0.203   1.412
 4390SOL    HW114069   4.044   0.189   1.480
 4390SOL    HW214070   4.110   0.133   1.341
 4391SOL     OW14071   2.488   5.452   6.793
 4391SOL    HW114072   2.430   5.380   6.756
 4391SOL    HW214073   2.449   5.541   6.770
 4392SOL     OW14074   6.493   3.330   5.025
 4392SOL    HW114075   6.498   3.398   5.099
 4392SOL    HW214076   6.512   3.374   4.938
 4393SOL     OW14077   6.038   0.894   2.669
 4393SOL    HW114078   5.992   0.814   2.631
 4393SOL    HW214079   6.039   0.968   2.601
 4394SOL     OW14080   6.711   5.091   2.530
 4394SOL    HW114081   6.760   5.121   2.611
 4394SOL    HW214082   6.759   5.012   2.490
 4395SOL     OW14083   1.797   6.890   2.064
 4395SOL    HW114084   1.832   6.954   1.995
 4395SOL    HW214085   1.790   6.937   2.152
 4396SOL     OW14086   2.715   1.990   4.089
 4396SOL    HW114087   2.706   1.934   4.171
 4396SOL    HW214088   2.807   1.977   4.051
 4397SOL     OW14089   1.325   2.060   4.099
 4397SOL    HW114090   1.235   2.097   4.124
 4397SOL    HW214091   1.396   2.125   4.126
 4398SOL     OW14092   0.600   3.664   6.148
 4398SOL    HW114093   0.578   3.756   6.182
 4398SOL    HW214094   0.525   3.602   6.171
 4399SOL     OW14095   2.715   0.203   3.041
 4399SOL    HW114096   2.621   0.184   3.065
 4399SOL    HW214097   2.717   0.264   2.961
 4400SOL     OW14098   2.699   6.602   5.380
 4400SOL    HW114099   2.792   6.565   5.381
 4400SOL    HW214100   2.687   6.663   5.459
 4401SOL     OW14101   2.639   0.099   5.898
 4401SOL    HW114102   2.687   0.183   5.873
 4401SOL    HW214103   2.556   0.091   5.843
 4402SOL     OW14104   1.739   0.891   2.134
 4402SOL    HW114105   1.760   0.808   2.185
 4402SOL    HW214106   1.805   0.963   2.156
 4403SOL     OW14107   0.926   0.589   0.593
 4403SOL    HW114108   1.007   0.564   0.646
 4403SOL    HW214109   0.844   0.567   0.646
 4404SOL     OW14110   1.757   5.913   5.617
 4404SOL    HW114111   1.691   5.858   5.668
 4404SOL    HW214112   1.846   5.908   5.663
 4405SOL     OW14113   1.694   4.167   2.173
 4405SOL    HW114114   1.595   4.181   2.182
 4405SOL    HW214115   1.735   4.248   2.132
 4406SOL     OW14116   0.435   3.272   1.072
 4406SOL    HW114117   0.530   3.252   1.046
 4406SOL    HW214118   0.434   3.348   1.136
 4407SOL     OW14119   6.296   5.587   0.929
 4407SOL    HW114120   6.314   5.685   0.933
 4407SOL    HW214121   6.373   5.541   0.884
 4408SOL     OW14122   2.616   0.387   1.005
 4408SOL    HW114123   2.688   0.339   0.954
 4408SOL    HW214124   2.645   0.400   1.099
 4409SOL     OW14125   4.608   1.562   2.187
 4409SOL    HW114126   4.509   1.563   2.197
 4409SOL    HW214127   4.649   1.632   2.245
 4410SOL     OW14128   1.586   5.028   0.238
 4410SOL    HW114129   1.655   5.039   0.166
 4410SOL    HW214130   1.523   5.106   0.235
 4411SOL     OW14131   3.695   4.247   5.372
 4411SOL    HW114132   3.723   4.253   5.276
 4411SOL    HW214133   3.668   4.153   5.393
 4412SOL     OW14134   4.516   6.248   4.008
 4412SOL    HW114135   4.453   6.262   4.084
 4412SOL    HW214136   4.608   6.233   4.043
 4413SOL     OW14137   5.489   4.654   4.748
 4413SOL    HW114138   5.577   4.685   4.711
 4413SOL    HW214139   5.495   4.557   4.770
 4414SOL     OW14140   3.498   5.310   1.369
 4414SOL    HW114141   3.520   5.274   1.279
 4414SOL    HW214142   3.555   5.266   1.439
 4415SOL     OW14143   5.023   2.709   0.508
 4415SOL    HW114144   5.027   2.787   0.447
 4415SOL    HW214145   5.093   2.642   0.482
 4416SOL     OW14146   3.782   1.582   3.844
 4416SOL    HW114147   3.795   1.659   3.906
 4416SOL    HW214148   3.847   1.589   3.767
 4417SOL     OW14149   5.528   4.108   4.105
 4417SOL    HW114150   5.623   4.082   4.120
 4417SOL    HW214151   5.493   4.062   4.023
 4418SOL     OW14152   5.975   1.640   2.328
 4418SOL    HW114153   5.943   1.723   2.373
 4418SOL    HW214154   5.909   1.566   2.342
 4419SOL     OW14155   5.582   6.633   6.224
 4419SOL    HW114156   5.507   6.572   6.201
 4419SOL    HW214157   5.669   6.586   6.209
 4420SOL     OW14158   4.698   1.329   2.051
 4420SOL    HW114159   4.784   1.292   2.083
 4420SOL    HW214160   4.665   1.398   2.116
 4421SOL     OW14161   1.837   1.589   4.799
 4421SOL    HW114162   1.911   1.617   4.860
 4421SOL    HW214163   1.751   1.628   4.833
 4422SOL     OW14164   1.542   4.043   0.141
 4422SOL    HW114165   1.548   4.007   0.234
 4422SOL    HW214166   1.630   4.034   0.095
 4423SOL     OW14167   0.170   3.326   5.526
 4423SOL    HW114168   0.171   3.227   5.531
 4423SOL    HW214169   0.115   3.363   5.601
 4424SOL     OW14170   5.496   1.023   4.510
 4424SOL    HW114171   5.483   0.971   4.595
 4424SOL    HW214172   5.510   0.959   4.434
 4425SOL     OW14173   2.839   4.331   0.174
 4425SOL    HW114174   2.800   4.261   0.115
 4425SOL    HW214175   2.806   4.318   0.268
 4426SOL     OW14176   0.869   1.059   4.220
 4426SOL    HW114177   0.899   1.010   4.138
 4426SOL    HW214178   0.837   1.150   4.194
 4427SOL     OW14179   6.935   6.396   2.087
 4427SOL    HW114180   6.949   6.411   2.185
 4427SOL    HW214181   6.963   6.303   2.064
 4428SOL     OW14182   3.637   0.798   3.903
 4428SOL    HW114183   3.615   0.714   3.953
 4428SOL    HW214184   3.707   0.849   3.953
 4429SOL     OW14185   2.860   0.024   2.456
 4429SOL    HW114186   2.806   6.978   2.505
 4429SOL    HW214187   2.835   0.116   2.489
 4430SOL     OW14188   4.690   4.783   5.464
 4430SOL    HW114189   4.625   4.765   5.539
 4430SOL    HW214190   4.762   4.845   5.496
 4431SOL     OW14191   3.114   0.967   2.511
 4431SOL    HW114192   3.052   1.000   2.582
 4431SOL    HW214193   3.192   0.920   2.554
 4432SOL     OW14194   2.690   3.365   6.075
 4432SOL    HW114195   2.704   3.294   6.144
 4432SOL    HW214196   2.636   3.440   6.113
 4433SOL     OW14197   5.348   1.669   4.630
 4433SOL    HW114198   5.419   1.601   4.610
 4433SOL    HW214199   5.290   1.682   4.550
 4434SOL     OW14200   5.448   1.331   2.963
 4434SOL    HW114201   5.366   1.337   3.021
 4434SOL    HW214202   5.523   1.290   3.015
 4435SOL     OW14203   4.871   3.732   1.215
 4435SOL    HW114204   4.849   3.635   1.225
 4435SOL    HW214205   4.970   3.744   1.221
 4436SOL     OW14206   4.222   0.715   1.295
 4436SOL    HW114207   4.140   0.731   1.240
 4436SOL    HW214208   4.203   0.644   1.363
 4437SOL     OW14209   0.535   3.006   2.642
 4437SOL    HW114210   0.480   3.013   2.559
 4437SOL    HW214211   0.626   3.043   2.624
 4438SOL     OW14212   4.970   0.105   6.203
 4438SOL    HW114213   5.005   0.102   6.109
 4438SOL    HW214214   4.872   0.085   6.202
 4439SOL     OW14215   0.256   3.813   1.905
 4439SOL    HW114216   0.338   3.759   1.923
 4439SOL    HW214217   0.206   3.828   1.991
 4440SOL     OW14218   2.706   4.454   0.651
 4440SOL    HW114219   2.703   4.527   0.583
 4440SOL    HW214220   2.616   4.410   0.657
 4441SOL     OW14221   0.552   1.755   2.233
 4441SOL    HW114222   0.463   1.764   2.277
 4441SOL    HW214223   0.624   1.791   2.292
 4442SOL     OW14224   1.947   5.152   4.053
 4442SOL    HW114225   1.966   5.158   3.955
 4442SOL    HW214226   1.854   5.183   4.071
 4443SOL     OW14227   1.247   3.329   6.193
 4443SOL    HW114228   1.154   3.298   6.177
 4443SOL    HW214229   1.299   3.258   6.239
 4444SOL     OW14230   3.428   4.297   5.526
 4444SOL    HW114231   3.382   4.299   5.438
 4444SOL    HW214232   3.515   4.346   5.519
 4445SOL     OW14233   1.816   6.537   6.653
 4445SOL    HW114234   1.787   6.573   6.742
 4445SOL    HW214235   1.749   6.472   6.620
 4446SOL     OW14236   5.052   1.243   1.300
 4446SOL    HW114237   5.094   1.332   1.312
 4446SOL    HW214238   5.086   1.201   1.216
 4447SOL     OW14239   4.934   4.660   6.252
 4447SOL    HW114240   4.885   4.747   6.263
 4447SOL    HW214241   4.980   4.659   6.164
 4448SOL     OW14242   2.351   4.291   1.257
 4448SOL    HW114243   2.304   4.326   1.338
 4448SOL    HW214244   2.326   4.195   1.244
 4449SOL     OW14245   4.976   1.226   6.376
 4449SOL    HW114246   4.981   1.190   6.469
 4449SOL    HW214247   4.986   1.151   6.310
 4450SOL     OW14248   3.827   2.549   5.737
 4450SOL    HW114249   3.869   2.491   5.667
 4450SOL    HW214250   3.891   2.561   5.813
 4451SOL     OW14251   5.512   4.529   3.507
 4451SOL    HW114252   5.482   4.486   3.592
 4451SOL    HW214253   5.561   4.463   3.451
 4452SOL     OW14254   5.749   5.764   4.362
 4452SOL    HW114255   5.830   5.818   4.385
 4452SOL    HW214256   5.667   5.821   4.373
 4453SOL     OW14257   1.157   2.858   1.103
 4453SOL    HW114258   1.193   2.947   1.076
 4453SOL    HW214259   1.140   2.802   1.022
 4454SOL     OW14260   1.248   1.863   0.030
 4454SOL    HW114261   1.178   1.838   6.986
 4454SOL    HW214262   1.283   1.780   0.075
 4455SOL     OW14263   5.044   5.977   5.521
 4455SOL    HW114264   4.991   5.921   5.585
 4455SOL    HW214265   4.996   6.063   5.505
 4456SOL     OW14266   2.692   6.233   2.836
 4456SOL    HW114267   2.593   6.245   2.838
 4456SOL    HW214268   2.720   6.173   2.911
 4457SOL     OW14269   3.807   1.437   2.747
 4457SOL    HW114270   3.876   1.491   2.699
 4457SOL    HW214271   3.847   1.352   2.780
 4458SOL     OW14272   1.861   2.692   0.385
 4458SOL    HW114273   1.960   2.690   0.397
 4458SOL    HW214274   1.825   2.599   0.390
 4459SOL     OW14275   4.286   1.900   4.005
 4459SOL    HW114276   4.269   1.984   4.056
 4459SOL    HW214277   4.263   1.821   4.063
 4460SOL     OW14278   1.506   2.885   6.464
 4460SOL    HW114279   1.527   2.981   6.480
 4460SOL    HW214280   1.408   2.876   6.442
 4461SOL     OW14281   2.041   0.500   0.875
 4461SOL    HW114282   2.138   0.518   0.858
 4461SOL    HW214283   1.986   0.533   0.798
 4462SOL     OW14284   6.292   4.509   2.099
 4462SOL    HW114285   6.200   4.506   2.137
 4462SOL    HW214286   6.295   4.575   2.024
 4463SOL     OW14287   4.731   1.131   0.583
 4463SOL    HW114288   4.738   1.043   0.537
 4463SOL    HW214289   4.753   1.120   0.680
 4464SOL     OW14290   0.159   5.818   0.515
 4464SOL    HW114291   0.060   5.807   0.528
 4464SOL    HW214292   0.199   5.857   0.597
 4465SOL     OW14293   3.854   4.952   1.173
 4465SOL    HW114294   3.815   4.860   1.172
 4465SOL    HW214295   3.944   4.950   1.130
 4466SOL     OW14296   1.156   1.554   3.059
 4466SOL    HW114297   1.244   1.505   3.057
 4466SOL    HW214298   1.117   1.556   2.967
 4467SOL     OW14299   1.581   5.626   2.627
 4467SOL    HW114300   1.602   5.650   2.722
 4467SOL    HW214301   1.519   5.694   2.589
 4468SOL     OW14302   2.024   4.119   0.314
 4468SOL    HW114303   1.974   4.051   0.366
 4468SOL    HW214304   2.107   4.079   0.276
 4469SOL     OW14305   3.062   0.658   2.059
 4469SOL    HW114306   3.090   0.658   2.155
 4469SOL    HW214307   3.115   0.590   2.009
 4470SOL     OW14308   0.314   1.980   2.151
 4470SOL    HW114309   0.321   2.032   2.236
 4470SOL    HW214310   0.392   2.001   2.092
 4471SOL     OW14311   1.038   2.347   6.589
 4471SOL    HW114312   1.053   2.430   6.536
 4471SOL    HW214313   1.119   2.288   6.584
 4472SOL     OW14314   0.831   3.345   1.907
 4472SOL    HW114315   0.748   3.319   1.956
 4472SOL    HW214316   0.845   3.282   1.830
 4473SOL     OW14317   5.840   3.008   3.918
 4473SOL    HW114318   5.791   2.959   3.846
 4473SOL    HW214319   5.872   2.943   3.987
 4474SOL     OW14320   2.351   0.441   2.231
 4474SOL    HW114321   2.254   0.447   2.254
 4474SOL    HW214322   2.399   0.520   2.270
 4475SOL     OW14323   0.994   4.305   2.009
 4475SOL    HW114324   1.015   4.219   2.056
 4475SOL    HW214325   0.980   4.377   2.077
 4476SOL     OW14326   5.781   0.611   3.039
 4476SOL    HW114327   5.803   0.515   3.022
 4476SOL    HW214328   5.715   0.643   2.970
 4477SOL     OW14329   1.556   0.163   5.393
 4477SOL    HW114330   1.533   0.187   5.487
 4477SOL    HW214331   1.634   0.219   5.362
 4478SOL     OW14332   3.332   7.007   2.438
 4478SOL    HW114333   3.251   6.967   2.395
 4478SOL    HW214334   3.357   6.953   2.518
 4479SOL     OW14335   0.568   2.197   0.978
 4479SOL    HW114336   0.470   2.187   0.957
 4479SOL    HW214337   0.589   2.146   1.061
 4480SOL     OW14338   0.310   4.577   4.893
 4480SOL    HW114339   0.321   4.503   4.958
 4480SOL    HW214340   0.356   4.553   4.807
 4481SOL     OW14341   3.435   5.510   4.411
 4481SOL    HW114342   3.394   5.522   4.320
 4481SOL    HW214343   3.368   5.531   4.481
 4482SOL     OW14344   1.888   3.300   5.241
 4482SOL    HW114345   1.879   3.230   5.171
 4482SOL    HW214346   1.815   3.288   5.309
 4483SOL     OW14347   6.233   2.547   2.275
 4483SOL    HW114348   6.277   2.559   2.186
 4483SOL    HW214349   6.175   2.627   2.294
 4484SOL     OW14350   3.430   2.298   6.883
 4484SOL    HW114351   3.395   2.334   6.796
 4484SOL    HW214352   3.529   2.315   6.888
 4485SOL     OW14353   5.756   2.476   4.173
 4485SOL    HW114354   5.850   2.470   4.140
 4485SOL    HW214355   5.756   2.485   4.273
 4486SOL     OW14356   6.552   5.526   5.414
 4486SOL    HW114357   6.511   5.441   5.382
 4486SOL    HW214358   6.648   5.510   5.437
 4487SOL     OW14359   2.858   2.843   6.215
 4487SOL    HW114360   2.767   2.876   6.238
 4487SOL    HW214361   2.852   2.778   6.139
 4488SOL     OW14362   0.162   3.725   6.094
 4488SOL    HW114363   0.230   3.704   6.164
 4488SOL    HW214364   0.124   3.640   6.058
 4489SOL     OW14365   5.193   5.675   5.019
 4489SOL    HW114366   5.271   5.725   5.056
 4489SOL    HW214367   5.216   5.639   4.928
 4490SOL     OW14368   5.632   1.877   2.292
 4490SOL    HW114369   5.688   1.914   2.366
 4490SOL    HW214370   5.544   1.924   2.289
 4491SOL     OW14371   0.513   3.273   3.645
 4491SOL    HW114372   0.511   3.182   3.687
 4491SOL    HW214373   0.461   3.337   3.702
 4492SOL     OW14374   5.804   4.591   2.440
 4492SOL    HW114375   5.774   4.506   2.484
 4492SOL    HW214376   5.799   4.580   2.341
 4493SOL     OW14377   5.230   5.478   4.820
 4493SOL    HW114378   5.313   5.426   4.801
 4493SOL    HW214379   5.170   5.423   4.878
 4494SOL     OW14380   0.397   0.904   6.566
 4494SOL    HW114381   0.453   0.979   6.602
 4494SOL    HW214382   0.402   0.904   6.466
 4495SOL     OW14383   4.137   0.016   3.967
 4495SOL    HW114384   4.094   7.003   4.050
 4495SOL    HW214385   4.079   7.019   3.888
 4496SOL     OW14386   5.739   6.445   1.150
 4496SOL    HW114387   5.739   6.367   1.212
 4496SOL    HW214388   5.650   6.491   1.154
 4497SOL     OW14389   4.681   2.282   6.546
 4497SOL    HW114390   4.593   2.328   6.553
 4497SOL    HW214391   4.734   2.299   6.629
 4498SOL     OW14392   6.913   3.668   0.487
 4498SOL    HW114393   6.994   3.682   0.543
 4498SOL    HW214394   6.834   3.712   0.530
 4499SOL     OW14395   5.989   3.517   4.436
 4499SOL    HW114396   5.969   3.495   4.531
 4499SOL    HW214397   5.974   3.615   4.420
 4500SOL     OW14398   3.411   3.093   4.715
 4500SOL    HW114399   3.350   3.032   4.765
 4500SOL    HW214400   3.487   3.120   4.774
 4501SOL     OW14401   0.272   3.529   2.617
 4501SOL    HW114402   0.226   3.496   2.700
 4501SOL    HW214403   0.354   3.580   2.643
 4502SOL     OW14404   0.514   2.791   0.016
 4502SOL    HW114405   0.489   2.782   0.113
 4502SOL    HW214406   0.611   2.772   0.005
 4503SOL     OW14407   3.670   6.889   1.782
 4503SOL    HW114408   3.589   6.867   1.835
 4503SOL    HW214409   3.740   6.819   1.797
 4504SOL     OW14410   0.206   0.958   4.820
 4504SOL    HW114411   0.270   1.007   4.760
 4504SOL    HW214412   0.186   0.868   4.782
 4505SOL     OW14413   6.586   5.261   2.322
 4505SOL    HW114414   6.594   5.193   2.395
 4505SOL    HW214415   6.495   5.258   2.282
 4506SOL     OW14416   4.795   3.135   3.519
 4506SOL    HW114417   4.808   3.178   3.430
 4506SOL    HW214418   4.811   3.203   3.591
 4507SOL     OW14419   6.168   4.478   3.849
 4507SOL    HW114420   6.224   4.437   3.778
 4507SOL    HW214421   6.098   4.536   3.807
 4508SOL     OW14422   1.429   5.268   6.954
 4508SOL    HW114423   1.352   5.309   6.904
 4508SOL    HW214424   1.485   5.215   6.891
 4509SOL     OW14425   4.835   2.046   3.044
 4509SOL    HW114426   4.902   2.095   2.988
 4509SOL    HW214427   4.745   2.055   3.003
 4510SOL     OW14428   4.449   2.210   3.953
 4510SOL    HW114429   4.366   2.216   3.898
 4510SOL    HW214430   4.432   2.250   4.043
 4511SOL     OW14431   5.895   3.941   6.195
 4511SOL    HW114432   5.926   3.976   6.283
 4511SOL    HW214433   5.804   3.901   6.205
 4512SOL     OW14434   2.492   1.043   6.071
 4512SOL    HW114435   2.428   1.116   6.094
 4512SOL    HW214436   2.571   1.082   6.024
 4513SOL     OW14437   0.653   4.896   6.041
 4513SOL    HW114438   0.563   4.858   6.018
 4513SOL    HW214439   0.688   4.851   6.123
 4514SOL     OW14440   3.366   2.103   6.317
 4514SOL    HW114441   3.462   2.114   6.291
 4514SOL    HW214442   3.338   2.179   6.376
 4515SOL     OW14443   5.941   1.871   5.308
 4515SOL    HW114444   5.906   1.947   5.363
 4515SOL    HW214445   5.925   1.785   5.357
 4516SOL     OW14446   2.524   7.005   0.029
 4516SOL    HW114447   2.489   6.930   0.086
 4516SOL    HW214448   2.613   6.979   7.013
 4517SOL     OW14449   4.704   6.665   6.708
 4517SOL    HW114450   4.688   6.567   6.696
 4517SOL    HW214451   4.778   6.679   6.774
 4518SOL     OW14452   6.810   0.140   2.532
 4518SOL    HW114453   6.828   0.204   2.457
 4518SOL    HW214454   6.711   0.132   2.546
 4519SOL     OW14455   6.165   0.296   1.213
 4519SOL    HW114456   6.094   0.248   1.162
 4519SOL    HW214457   6.245   0.237   1.221
 4520SOL     OW14458   4.135   6.385   5.862
 4520SOL    HW114459   4.168   6.342   5.777
 4520SOL    HW214460   4.063   6.450   5.840
 4521SOL     OW14461   5.755   2.121   5.369
 4521SOL    HW114462   5.741   2.067   5.452
 4521SOL    HW214463   5.851   2.147   5.361
 4522SOL     OW14464   5.757   5.272   3.863
 4522SOL    HW114465   5.826   5.326   3.815
 4522SOL    HW214466   5.740   5.187   3.813
 4523SOL     OW14467   1.300   4.661   0.380
 4523SOL    HW114468   1.348   4.582   0.342
 4523SOL    HW214469   1.210   4.632   0.415
 4524SOL     OW14470   6.592   2.896   2.044
 4524SOL    HW114471   6.677   2.850   2.073
 4524SOL    HW214472   6.601   2.926   1.949
 4525SOL     OW14473   4.847   2.546   5.459
 4525SOL    HW114474   4.764   2.514   5.503
 4525SOL    HW214475   4.823   2.608   5.384
 4526SOL     OW14476   6.781   0.362   6.331
 4526SOL    HW114477   6.821   0.446   6.366
 4526SOL    HW214478   6.854   0.297   6.308
 4527SOL     OW14479   6.707   1.197   2.799
 4527SOL    HW114480   6.790   1.226   2.848
 4527SOL    HW214481   6.729   1.118   2.741
 4528SOL     OW14482   4.666   0.119   6.629
 4528SOL    HW114483   4.687   0.128   6.726
 4528SOL    HW214484   4.729   0.176   6.576
 4529SOL     OW14485   2.048   0.640   4.947
 4529SOL    HW114486   1.965   0.687   4.920
 4529SOL    HW214487   2.095   0.693   5.017
 4530SOL     OW14488   2.151   5.399   3.954
 4530SOL    HW114489   2.199   5.343   3.886
 4530SOL    HW214490   2.135   5.345   4.036
 4531SOL     OW14491   0.716   2.879   5.402
 4531SOL    HW114492   0.661   2.858   5.484
 4531SOL    HW214493   0.655   2.901   5.326
 4532SOL     OW14494   6.431   1.580   2.086
 4532SOL    HW114495   6.439   1.679   2.093
 4532SOL    HW214496   6.484   1.547   2.008
 4533SOL     OW14497   1.758   1.049   2.679
 4533SOL    HW114498   1.736   1.142   2.706
 4533SOL    HW214499   1.740   1.037   2.581
 4534SOL     OW14500   5.702   4.433   5.159
 4534SOL    HW114501   5.681   4.388   5.072
 4534SOL    HW214502   5.620   4.479   5.193
 4535SOL     OW14503   3.318   0.641   2.226
 4535SOL    HW114504   3.239   0.635   2.286
 4535SOL    HW214505   3.348   0.548   2.201
 4536SOL     OW14506   4.418   1.786   4.748
 4536SOL    HW114507   4.459   1.784   4.839
 4536SOL    HW214508   4.429   1.696   4.705
 4537SOL     OW14509   4.124   3.599   0.678
 4537SOL    HW114510   4.141   3.606   0.776
 4537SOL    HW214511   4.031   3.628   0.658
 4538SOL     OW14512   1.968   0.783   2.673
 4538SOL    HW114513   1.873   0.806   2.650
 4538SOL    HW214514   1.969   0.711   2.741
 4539SOL     OW14515   3.458   6.556   4.701
 4539SOL    HW114516   3.526   6.489   4.732
 4539SOL    HW214517   3.401   6.515   4.630
 4540SOL     OW14518   2.092   2.586   6.888
 4540SOL    HW114519   2.061   2.498   6.853
 4540SOL    HW214520   2.177   2.612   6.843
 4541SOL     OW14521   5.731   1.854   6.489
 4541SOL    HW114522   5.632   1.845   6.501
 4541SOL    HW214523   5.771   1.764   6.473
 4542SOL     OW14524   0.295   2.343   1.216
 4542SOL    HW114525   0.224   2.401   1.257
 4542SOL    HW214526   0.385   2.374   1.247
 4543SOL     OW14527   4.726   2.333   0.909
 4543SOL    HW114528   4.699   2.278   0.988
 4543SOL    HW214529   4.766   2.419   0.941
 4544SOL     OW14530   3.326   5.541   6.506
 4544SOL    HW114531   3.360   5.509   6.595
 4544SOL    HW214532   3.323   5.641   6.506
 4545SOL     OW14533   6.232   3.242   4.233
 4545SOL    HW114534   6.284   3.301   4.171
 4545SOL    HW214535   6.138   3.275   4.239
 4546SOL     OW14536   2.187   0.438   4.198
 4546SOL    HW114537   2.273   0.453   4.151
 4546SOL    HW214538   2.205   0.419   4.295
 4547SOL     OW14539   6.364   1.844   0.904
 4547SOL    HW114540   6.370   1.747   0.878
 4547SOL    HW214541   6.323   1.896   0.830
 4548SOL     OW14542   1.924   2.380   3.476
 4548SOL    HW114543   1.998   2.324   3.442
 4548SOL    HW214544   1.899   2.448   3.408
 4549SOL     OW14545   5.300   4.044   2.697
 4549SOL    HW114546   5.264   4.057   2.605
 4549SOL    HW214547   5.369   4.114   2.716
 4550SOL     OW14548   1.194   5.210   3.310
 4550SOL    HW114549   1.168   5.123   3.353
 4550SOL    HW214550   1.152   5.286   3.361
 4551SOL     OW14551   0.903   3.429   4.537
 4551SOL    HW114552   0.904   3.344   4.484
 4551SOL    HW214553   0.978   3.488   4.508
 4552SOL     OW14554   5.552   1.951   1.245
 4552SOL    HW114555   5.535   2.015   1.169
 4552SOL    HW214556   5.599   1.998   1.318
 4553SOL     OW14557   4.775   4.171   0.410
 4553SOL    HW114558   4.802   4.088   0.460
 4553SOL    HW214559   4.756   4.244   0.475
 4554SOL     OW14560   6.697   6.751   2.571
 4554SOL    HW114561   6.772   6.687   2.591
 4554SOL    HW214562   6.728   6.816   2.502
 4555SOL     OW14563   1.918   1.883   5.433
 4555SOL    HW114564   1.985   1.957   5.424
 4555SOL    HW214565   1.952   1.801   5.388
 4556SOL     OW14566   5.468   3.909   4.729
 4556SOL    HW114567   5.518   3.826   4.757
 4556SOL    HW214568   5.371   3.886   4.716
 4557SOL     OW14569   4.698   5.667   4.421
 4557SOL    HW114570   4.739   5.667   4.512
 4557SOL    HW214571   4.749   5.603   4.362
 4558SOL     OW14572   0.118   4.415   4.533
 4558SOL    HW114573   0.186   4.460   4.475
 4558SOL    HW214574   0.138   4.433   4.629
 4559SOL     OW14575   0.224   3.373   2.370
 4559SOL    HW114576   0.150   3.352   2.434
 4559SOL    HW214577   0.296   3.423   2.419
 4560SOL     OW14578   5.644   3.574   1.004
 4560SOL    HW114579   5.713   3.566   1.076
 4560SOL    HW214580   5.611   3.482   0.980
 4561SOL     OW14581   3.386   1.911   3.227
 4561SOL    HW114582   3.300   1.915   3.176
 4561SOL    HW214583   3.374   1.955   3.316
 4562SOL     OW14584   2.024   6.860   6.847
 4562SOL    HW114585   1.932   6.878   6.884
 4562SOL    HW214586   2.022   6.869   6.748
 4563SOL     OW14587   6.937   2.877   1.342
 4563SOL    HW114588   6.887   2.820   1.408
 4563SOL    HW214589   7.001   2.936   1.391
 4564SOL     OW14590   0.150   6.315   1.911
 4564SOL    HW114591   0.204   6.383   1.862
 4564SOL    HW214592   0.197   6.287   1.994
 4565SOL     OW14593   1.499   0.581   4.446
 4565SOL    HW114594   1.532   0.487   4.445
 4565SOL    HW214595   1.402   0.583   4.421
 4566SOL     OW14596   0.415   2.968   0.736
 4566SOL    HW114597   0.499   2.914   0.736
 4566SOL    HW214598   0.366   2.954   0.650
 4567SOL     OW14599   6.467   1.281   6.524
 4567SOL    HW114600   6.474   1.337   6.607
 4567SOL    HW214601   6.546   1.220   6.519
 4568SOL     OW14602   1.954   3.545   5.770
 4568SOL    HW114603   2.039   3.554   5.718
 4568SOL    HW214604   1.961   3.469   5.835
 4569SOL     OW14605   2.605   0.693   3.142
 4569SOL    HW114606   2.581   0.788   3.165
 4569SOL    HW214607   2.677   0.693   3.073
 4570SOL     OW14608   0.165   6.325   2.389
 4570SOL    HW114609   0.229   6.369   2.453
 4570SOL    HW214610   0.081   6.379   2.384
 4571SOL     OW14611   4.321   3.723   6.317
 4571SOL    HW114612   4.378   3.766   6.388
 4571SOL    HW214613   4.374   3.714   6.233
 4572SOL     OW14614   1.637   0.818   6.454
 4572SOL    HW114615   1.575   0.896   6.458
 4572SOL    HW214616   1.706   0.833   6.384
 4573SOL     OW14617   6.882   0.200   0.599
 4573SOL    HW114618   6.922   0.119   0.641
 4573SOL    HW214619   6.789   0.213   0.633
 4574SOL     OW14620   5.795   4.229   0.570
 4574SOL    HW114621   5.842   4.289   0.635
 4574SOL    HW214622   5.853   4.152   0.547
 4575SOL     OW14623   5.981   0.405   5.703
 4575SOL    HW114624   5.956   0.460   5.623
 4575SOL    HW214625   5.908   0.412   5.772
 4576SOL     OW14626   3.576   5.503   5.630
 4576SOL    HW114627   3.519   5.423   5.645
 4576SOL    HW214628   3.651   5.480   5.568
 4577SOL     OW14629   1.043   2.108   4.242
 4577SOL    HW114630   1.073   2.096   4.336
 4577SOL    HW214631   1.002   2.198   4.231
 4578SOL     OW14632   0.979   2.267   5.225
 4578SOL    HW114633   0.939   2.352   5.257
 4578SOL    HW214634   0.945   2.246   5.133
 4579SOL     OW14635   4.159   0.187   3.134
 4579SOL    HW114636   4.159   0.275   3.088
 4579SOL    HW214637   4.212   0.121   3.080
 4580SOL     OW14638   5.518   4.258   0.977
 4580SOL    HW114639   5.609   4.284   0.945
 4580SOL    HW214640   5.473   4.337   1.019
 4581SOL     OW14641   1.766   6.003   2.419
 4581SOL    HW114642   1.858   6.009   2.381
 4581SOL    HW214643   1.717   6.089   2.401
 4582SOL     OW14644   4.495   0.706   4.785
 4582SOL    HW114645   4.504   0.610   4.759
 4582SOL    HW214646   4.398   0.731   4.787
 4583SOL     OW14647   3.007   2.078   6.937
 4583SOL    HW114648   3.071   2.137   6.986
 4583SOL    HW214649   2.932   2.052   6.999
 4584SOL     OW14650   1.340   4.911   5.282
 4584SOL    HW114651   1.243   4.897   5.304
 4584SOL    HW214652   1.368   4.846   5.212
 4585SOL     OW14653   1.658   5.387   2.899
 4585SOL    HW114654   1.638   5.289   2.895
 4585SOL    HW214655   1.573   5.438   2.913
 4586SOL     OW14656   4.070   4.703   1.082
 4586SOL    HW114657   4.033   4.682   1.172
 4586SOL    HW214658   4.028   4.643   1.014
 4587SOL     OW14659   3.192   4.074   3.524
 4587SOL    HW114660   3.222   4.138   3.594
 4587SOL    HW214661   3.153   3.993   3.567
 4588SOL     OW14662   2.718   3.461   5.274
 4588SOL    HW114663   2.644   3.496   5.331
 4588SOL    HW214664   2.721   3.361   5.280
 4589SOL     OW14665   6.211   0.695   1.942
 4589SOL    HW114666   6.125   0.716   1.988
 4589SOL    HW214667   6.204   0.606   1.897
 4590SOL     OW14668   4.662   5.637   1.267
 4590SOL    HW114669   4.647   5.699   1.345
 4590SOL    HW214670   4.746   5.663   1.220
 4591SOL     OW14671   1.825   0.530   4.787
 4591SOL    HW114672   1.732   0.565   4.771
 4591SOL    HW214673   1.835   0.440   4.745
 4592SOL     OW14674   3.062   1.608   3.111
 4592SOL    HW114675   3.146   1.563   3.080
 4592SOL    HW214676   3.004   1.541   3.158
 4593SOL     OW14677   5.039   6.494   2.028
 4593SOL    HW114678   4.956   6.446   2.055
 4593SOL    HW214679   5.023   6.593   2.032
 4594SOL     OW14680   2.491   1.336   3.171
 4594SOL    HW114681   2.530   1.428   3.164
 4594SOL    HW214682   2.518   1.283   3.090
 4595SOL     OW14683   4.936   3.181   5.643
 4595SOL    HW114684   4.885   3.192   5.728
 4595SOL    HW214685   4.994   3.261   5.628
 4596SOL     OW14686   6.402   1.164   2.712
 4596SOL    HW114687   6.491   1.208   2.723
 4596SOL    HW214688   6.375   1.167   2.616
 4597SOL     OW14689   3.497   5.452   6.713
 4597SOL    HW114690   3.462   5.481   6.801
 4597SOL    HW214691   3.597   5.444   6.717
 4598SOL     OW14692   1.363   5.745   1.130
 4598SOL    HW114693   1.427   5.720   1.057
 4598SOL    HW214694   1.271   5.753   1.092
 4599SOL     OW14695   1.816   5.256   0.515
 4599SOL    HW114696   1.752   5.297   0.450
 4599SOL    HW214697   1.778   5.258   0.607
 4600SOL     OW14698   0.537   5.938   5.302
 4600SOL    HW114699   0.514   5.879   5.379
 4600SOL    HW214700   0.465   6.006   5.289
 4601SOL     OW14701   1.699   1.499   5.307
 4601SOL    HW114702   1.698   1.500   5.407
 4601SOL    HW214703   1.712   1.591   5.272
 4602SOL     OW14704   3.253   6.682   0.159
 4602SOL    HW114705   3.243   6.767   0.107
 4602SOL    HW214706   3.169   6.628   0.150
 4603SOL     OW14707   3.886   5.966   1.142
 4603SOL    HW114708   3.806   5.920   1.105
 4603SOL    HW214709   3.867   5.996   1.235
 4604SOL     OW14710   4.572   0.294   0.011
 4604SOL    HW114711   4.509   0.319   6.960
 4604SOL    HW214712   4.601   0.199   0.000
 4605SOL     OW14713   1.354   5.684   2.479
 4605SOL    HW114714   1.292   5.655   2.406
 4605SOL    HW214715   1.436   5.725   2.439
 4606SOL     OW14716   0.484   6.931   2.482
 4606SOL    HW114717   0.388   6.960   2.490
 4606SOL    HW214718   0.509   6.879   2.564
 4607SOL     OW14719   2.226   3.010   3.002
 4607SOL    HW114720   2.232   2.986   3.099
 4607SOL    HW214721   2.261   2.935   2.946
 4608SOL     OW14722   0.352   5.466   3.906
 4608SOL    HW114723   0.381   5.549   3.858
 4608SOL    HW214724   0.399   5.386   3.866
 4609SOL     OW14725   4.863   5.258   0.070
 4609SOL    HW114726   4.930   5.207   0.015
 4609SOL    HW214727   4.798   5.194   0.111
 4610SOL     OW14728   4.999   1.637   0.203
 4610SOL    HW114729   5.056   1.574   0.151
 4610SOL    HW214730   5.009   1.730   0.166
 4611SOL     OW14731   0.777   6.964   5.979
 4611SOL    HW114732   0.687   6.950   6.020
 4611SOL    HW214733   0.848   6.940   6.045
 4612SOL     OW14734   1.681   6.182   0.673
 4612SOL    HW114735   1.751   6.124   0.713
 4612SOL    HW214736   1.591   6.148   0.698
 4613SOL     OW14737   1.189   5.640   2.249
 4613SOL    HW114738   1.200   5.729   2.205
 4613SOL    HW214739   1.171   5.570   2.179
 4614SOL     OW14740   6.014   3.448   3.734
 4614SOL    HW114741   6.072   3.445   3.816
 4614SOL    HW214742   5.930   3.396   3.750
 4615SOL     OW14743   1.356   1.370   6.998
 4615SOL    HW114744   1.296   1.313   6.942
 4615SOL    HW214745   1.438   1.317   0.001
 4616SOL     OW14746   6.784   1.162   4.475
 4616SOL    HW114747   6.793   1.068   4.444
 4616SOL    HW214748   6.734   1.215   4.407
 4617SOL     OW14749   1.000   1.572   2.824
 4617SOL    HW114750   0.949   1.643   2.874
 4617SOL    HW214751   0.935   1.512   2.776
 4618SOL     OW14752   2.371   2.933   5.463
 4618SOL    HW114753   2.409   2.930   5.556
 4618SOL    HW214754   2.431   2.988   5.405
 4619SOL     OW14755   3.232   6.045   3.808
 4619SOL    HW114756   3.189   6.013   3.892
 4619SOL    HW214757   3.274   6.134   3.823
 4620SOL     OW14758   1.229   5.380   0.626
 4620SOL    HW114759   1.289   5.390   0.705
 4620SOL    HW214760   1.199   5.471   0.595
 4621SOL     OW14761   4.609   0.669   2.584
 4621SOL    HW114762   4.530   0.730   2.569
 4621SOL    HW214763   4.614   0.603   2.510
 4622SOL     OW14764   3.772   5.273   0.908
 4622SOL    HW114765   3.729   5.361   0.888
 4622SOL    HW214766   3.865   5.289   0.942
 4623SOL     OW14767   5.307   6.055   2.134
 4623SOL    HW114768   5.406   6.041   2.135
 4623SOL    HW214769   5.267   6.007   2.056
 4624SOL     OW14770   3.283   6.947   2.868
 4624SOL    HW114771   3.367   6.987   2.905
 4624SOL    HW214772   3.204   6.981   2.919
 4625SOL     OW14773   1.842   4.788   1.557
 4625SOL    HW114774   1.930   4.834   1.572
 4625SOL    HW214775   1.827   4.721   1.630
 4626SOL     OW14776   4.744   3.893   1.819
 4626SOL    HW114777   4.699   3.817   1.773
 4626SOL    HW214778   4.699   3.979   1.793
 4627SOL     OW14779   1.926   4.975   4.870
 4627SOL    HW114780   1.859   4.930   4.810
 4627SOL    HW214781   1.878   5.029   4.939
 4628SOL     OW14782   4.602   4.378   4.740
 4628SOL    HW114783   4.685   4.423   4.709
 4628SOL    HW214784   4.522   4.422   4.698
 4629SOL     OW14785   2.736   5.497   5.557
 4629SOL    HW114786   2.762   5.456   5.645
 4629SOL    HW214787   2.817   5.533   5.512
 4630SOL     OW14788   2.016   6.034   2.288
 4630SOL    HW114789   2.109   6.035   2.325
 4630SOL    HW214790   2.014   5.974   2.208
 4631SOL     OW14791   1.171   6.001   3.042
 4631SOL    HW114792   1.101   6.062   3.082
 4631SOL    HW214793   1.128   5.944   2.972
 4632SOL     OW14794   2.328   4.248   2.725
 4632SOL    HW114795   2.375   4.328   2.764
 4632SOL    HW214796   2.307   4.184   2.798
 4633SOL     OW14797   6.070   0.519   4.498
 4633SOL    HW114798   6.069   0.451   4.571
 4633SOL    HW214799   6.149   0.579   4.509
 4634SOL     OW14800   2.827   3.951   5.183
 4634SOL    HW114801   2.762   4.012   5.228
 4634SOL    HW214802   2.915   3.997   5.174
 4635SOL     OW14803   4.566   4.089   1.665
 4635SOL    HW114804   4.602   4.132   1.582
 4635SOL    HW214805   4.515   4.156   1.718
 4636SOL     OW14806   2.541   4.611   0.306
 4636SOL    HW114807   2.522   4.512   0.307
 4636SOL    HW214808   2.636   4.627   0.333
 4637SOL     OW14809   0.520   6.703   1.072
 4637SOL    HW114810   0.476   6.689   0.984
 4637SOL    HW214811   0.618   6.717   1.058
 4638SOL     OW14812   3.897   5.154   6.913
 4638SOL    HW114813   3.951   5.119   6.836
 4638SOL    HW214814   3.858   5.078   6.965
 4639SOL     OW14815   3.468   3.056   6.815
 4639SOL    HW114816   3.434   3.145   6.784
 4639SOL    HW214817   3.535   3.069   6.888
 4640SOL     OW14818   4.951   4.222   4.569
 4640SOL    HW114819   5.046   4.252   4.583
 4640SOL    HW214820   4.911   4.196   4.657
 4641SOL     OW14821   2.777   0.773   4.768
 4641SOL    HW114822   2.792   0.739   4.861
 4641SOL    HW214823   2.767   0.695   4.706
 4642SOL     OW14824   1.186   6.873   3.026
 4642SOL    HW114825   1.135   6.790   3.047
 4642SOL    HW214826   1.218   6.869   2.931
 4643SOL     OW14827   6.632   2.166   0.514
 4643SOL    HW114828   6.616   2.070   0.490
 4643SOL    HW214829   6.547   2.207   0.546
 4644SOL     OW14830   0.792   7.010   5.548
 4644SOL    HW114831   0.793   0.048   5.628
 4644SOL    HW214832   0.887   6.988   5.523
 4645SOL     OW14833   1.232   0.558   4.350
 4645SOL    HW114834   1.175   0.595   4.423
 4645SOL    HW214835   1.241   0.626   4.277
 4646SOL     OW14836   2.395   5.482   3.246
 4646SOL    HW114837   2.367   5.577   3.230
 4646SOL    HW214838   2.370   5.426   3.167
 4647SOL     OW14839   1.969   0.184   2.600
 4647SOL    HW114840   2.049   0.190   2.660
 4647SOL    HW214841   1.920   0.271   2.602
 4648SOL     OW14842   3.710   0.351   2.636
 4648SOL    HW114843   3.628   0.312   2.677
 4648SOL    HW214844   3.754   0.414   2.701
 4649SOL     OW14845   5.868   0.905   0.365
 4649SOL    HW114846   5.861   0.916   0.464
 4649SOL    HW214847   5.909   0.817   0.343
 4650SOL     OW14848   4.806   5.648   2.138
 4650SOL    HW114849   4.800   5.659   2.038
 4650SOL    HW214850   4.846   5.559   2.160
 4651SOL     OW14851   6.303   3.540   6.248
 4651SOL    HW114852   6.210   3.541   6.283
 4651SOL    HW214853   6.304   3.501   6.156
 4652SOL     OW14854   6.204   5.975   4.832
 4652SOL    HW114855   6.281   6.018   4.785
 4652SOL    HW214856   6.123   5.978   4.774
 4653SOL     OW14857   5.344   5.877   1.128
 4653SOL    HW114858   5.247   5.878   1.150
 4653SOL    HW214859   5.397   5.905   1.208
 4654SOL     OW14860   0.824   5.978   6.322
 4654SOL    HW114861   0.801   5.916   6.398
 4654SOL    HW214862   0.915   6.018   6.339
 4655SOL     OW14863   6.039   3.585   0.771
 4655SOL    HW114864   5.991   3.673   0.770
 4655SOL    HW214865   5.992   3.520   0.711
 4656SOL     OW14866   1.247   1.050   1.613
 4656SOL    HW114867   1.226   1.147   1.627
 4656SOL    HW214868   1.233   1.026   1.517
 4657SOL     OW14869   4.680   5.783   1.491
 4657SOL    HW114870   4.655   5.757   1.585
 4657SOL    HW214871   4.702   5.881   1.488
 4658SOL     OW14872   3.276   0.282   4.740
 4658SOL    HW114873   3.316   0.253   4.653
 4658SOL    HW214874   3.209   0.214   4.769
 4659SOL     OW14875   2.532   4.661   5.960
 4659SOL    HW114876   2.517   4.664   6.059
 4659SOL    HW214877   2.608   4.599   5.940
 4660SOL     OW14878   0.908   5.863   4.823
 4660SOL    HW114879   0.956   5.883   4.737
 4660SOL    HW214880   0.975   5.847   4.895
 4661SOL     OW14881   3.266   4.616   6.475
 4661SOL    HW114882   3.241   4.613   6.571
 4661SOL    HW214883   3.194   4.574   6.420
 4662SOL     OW14884   2.781   0.320   5.774
 4662SOL    HW114885   2.735   0.392   5.723
 4662SOL    HW214886   2.879   0.336   5.775
 4663SOL     OW14887   0.614   1.067   1.430
 4663SOL    HW114888   0.686   1.004   1.401
 4663SOL    HW214889   0.569   1.105   1.348
 4664SOL     OW14890   1.253   1.204   0.360
 4664SOL    HW114891   1.352   1.198   0.347
 4664SOL    HW214892   1.208   1.223   0.273
 4665SOL     OW14893   3.688   6.838   6.264
 4665SOL    HW114894   3.676   6.937   6.256
 4665SOL    HW214895   3.608   6.792   6.225
 4666SOL     OW14896   2.277   2.763   6.779
 4666SOL    HW114897   2.255   2.830   6.849
 4666SOL    HW214898   2.364   2.787   6.735
 4667SOL     OW14899   6.443   3.708   1.918
 4667SOL    HW114900   6.524   3.653   1.936
 4667SOL    HW214901   6.374   3.691   1.988
 4668SOL     OW14902   5.185   1.387   3.994
 4668SOL    HW114903   5.223   1.298   4.019
 4668SOL    HW214904   5.155   1.385   3.898
 4669SOL     OW14905   4.642   6.237   0.601
 4669SOL    HW114906   4.618   6.334   0.606
 4669SOL    HW214907   4.671   6.214   0.508
 4670SOL     OW14908   1.351   2.443   6.361
 4670SOL    HW114909   1.256   2.474   6.373
 4670SOL    HW214910   1.353   2.343   6.355
 4671SOL     OW14911   1.048   3.334   6.632
 4671SOL    HW114912   1.088   3.257   6.582
 4671SOL    HW214913   1.048   3.416   6.574
 4672SOL     OW14914   2.530   5.082   5.770
 4672SOL    HW114915   2.483   5.037   5.847
 4672SOL    HW214916   2.489   5.052   5.684
 4673SOL     OW14917   5.420   6.851   1.639
 4673SOL    HW114918   5.387   6.930   1.691
 4673SOL    HW214919   5.454   6.881   1.550
 4674SOL     OW14920   4.926   1.203   0.066
 4674SOL    HW114921   4.868   1.127   0.093
 4674SOL    HW214922   4.883   1.289   0.094
 4675SOL     OW14923   2.388   0.916   0.186
 4675SOL    HW114924   2.290   0.913   0.167
 4675SOL    HW214925   2.429   0.828   0.161
 4676SOL     OW14926   6.718   6.648   4.472
 4676SOL    HW114927   6.642   6.683   4.416
 4676SOL    HW214928   6.778   6.724   4.496
 4677SOL     OW14929   2.563   0.724   0.052
 4677SOL    HW114930   2.585   0.636   0.094
 4677SOL    HW214931   2.630   0.792   0.080
 4678SOL     OW14932   1.963   4.365   2.872
 4678SOL    HW114933   2.010   4.359   2.784
 4678SOL    HW214934   2.017   4.317   2.941
 4679SOL     OW14935   3.766   1.459   0.204
 4679SOL    HW114936   3.764   1.359   0.207
 4679SOL    HW214937   3.719   1.490   0.121
 4680SOL     OW14938   2.026   0.845   1.737
 4680SOL    HW114939   1.935   0.810   1.759
 4680SOL    HW214940   2.061   0.899   1.813
 4681SOL     OW14941   6.066   5.700   5.954
 4681SOL    HW114942   6.117   5.638   6.013
 4681SOL    HW214943   6.128   5.764   5.910
 4682SOL     OW14944   4.168   4.246   6.278
 4682SOL    HW114945   4.081   4.287   6.251
 4682SOL    HW214946   4.242   4.287   6.226
 4683SOL     OW14947   4.593   4.339   2.545
 4683SOL    HW114948   4.532   4.413   2.571
 4683SOL    HW214949   4.547   4.251   2.559
 4684SOL     OW14950   7.002   1.836   4.536
 4684SOL    HW114951   0.016   1.871   4.622
 4684SOL    HW214952   6.903   1.828   4.543
 4685SOL     OW14953   0.415   6.202   5.188
 4685SOL    HW114954   0.338   6.224   5.249
 4685SOL    HW214955   0.479   6.279   5.188
 4686SOL     OW14956   5.358   5.519   0.494
 4686SOL    HW114957   5.331   5.580   0.420
 4686SOL    HW214958   5.420   5.448   0.459
 4687SOL     OW14959   6.606   5.100   5.294
 4687SOL    HW114960   6.572   5.015   5.336
 4687SOL    HW214961   6.706   5.096   5.288
 4688SOL     OW14962   6.464   3.829   5.569
 4688SOL    HW114963   6.559   3.817   5.596
 4688SOL    HW214964   6.460   3.856   5.473
 4689SOL     OW14965   5.949   0.621   0.307
 4689SOL    HW114966   5.896   0.558   0.363
 4689SOL    HW214967   5.897   0.642   0.223
 4690SOL     OW14968   1.113   0.955   0.043
 4690SOL    HW114969   1.021   0.964   0.081
 4690SOL    HW214970   1.127   1.023   6.994
 4691SOL     OW14971   3.008   4.846   2.116
 4691SOL    HW114972   2.953   4.927   2.098
 4691SOL    HW214973   2.964   4.766   2.076
 4692SOL     OW14974   6.981   5.768   2.310
 4692SOL    HW114975   6.964   5.808   2.400
 4692SOL    HW214976   6.975   5.669   2.315
 4693SOL     OW14977   1.003   0.773   3.683
 4693SOL    HW114978   0.907   0.763   3.710
 4693SOL    HW214979   1.024   0.870   3.670
 4694SOL     OW14980   2.758   0.679   0.450
 4694SOL    HW114981   2.839   0.625   0.475
 4694SOL    HW214982   2.739   0.746   0.522
 4695SOL     OW14983   2.409   3.156   1.682
 4695SOL    HW114984   2.483   3.223   1.693
 4695SOL    HW214985   2.337   3.195   1.625
 4696SOL     OW14986   0.373   4.393   5.859
 4696SOL    HW114987   0.470   4.372   5.841
 4696SOL    HW214988   0.352   4.485   5.826
 4697SOL     OW14989   2.167   3.102   0.565
 4697SOL    HW114990   2.234   3.103   0.491
 4697SOL    HW214991   2.086   3.051   0.536
 4698SOL     OW14992   3.708   6.080   2.730
 4698SOL    HW114993   3.701   6.093   2.829
 4698SOL    HW214994   3.761   6.155   2.690
 4699SOL     OW14995   1.012   6.104   2.237
 4699SOL    HW114996   0.996   6.202   2.250
 4699SOL    HW214997   0.989   6.055   2.321
 4700SOL     OW14998   6.405   1.525   2.540
 4700SOL    HW114999   6.481   1.460   2.548
 4700SOL    HW215000   6.403   1.563   2.448
 4701SOL     OW15001   2.227   2.558   0.864
 4701SOL    HW115002   2.185   2.634   0.914
 4701SOL    HW215003   2.197   2.471   0.903
 4702SOL     OW15004   5.864   4.550   6.767
 4702SOL    HW115005   5.859   4.513   6.674
 4702SOL    HW215006   5.866   4.650   6.764
 4703SOL     OW15007   0.976   2.802   2.021
 4703SOL    HW115008   0.945   2.816   1.927
 4703SOL    HW215009   0.950   2.882   2.076
 4704SOL     OW15010   1.143   6.820   6.973
 4704SOL    HW115011   1.090   6.903   6.955
 4704SOL    HW215012   1.226   6.843   0.001
 4705SOL     OW15013   3.580   3.134   2.381
 4705SOL    HW115014   3.567   3.078   2.300
 4705SOL    HW215015   3.668   3.112   2.424
 4706SOL     OW15016   3.795   6.323   6.148
 4706SOL    HW115017   3.745   6.236   6.141
 4706SOL    HW215018   3.752   6.380   6.218
 4707SOL     OW15019   2.951   5.563   0.683
 4707SOL    HW115020   2.924   5.469   0.703
 4707SOL    HW215021   2.997   5.566   0.594
 4708SOL     OW15022   1.114   2.561   6.429
 4708SOL    HW115023   1.158   2.630   6.485
 4708SOL    HW215024   1.021   2.590   6.407
 4709SOL     OW15025   4.472   6.040   5.756
 4709SOL    HW115026   4.432   6.010   5.842
 4709SOL    HW215027   4.459   5.969   5.686
 4710SOL     OW15028   3.571   1.116   5.939
 4710SOL    HW115029   3.527   1.206   5.943
 4710SOL    HW215030   3.593   1.086   6.031
 4711SOL     OW15031   5.611   0.728   1.800
 4711SOL    HW115032   5.598   0.793   1.725
 4711SOL    HW215033   5.655   0.775   1.877
 4712SOL     OW15034   3.321   3.923   0.493
 4712SOL    HW115035   3.306   3.868   0.410
 4712SOL    HW215036   3.269   3.884   0.568
 4713SOL     OW15037   3.212   3.552   1.030
 4713SOL    HW115038   3.125   3.601   1.028
 4713SOL    HW215039   3.251   3.556   1.122
 4714SOL     OW15040   1.402   2.413   6.801
 4714SOL    HW115041   1.389   2.511   6.816
 4714SOL    HW215042   1.490   2.385   6.839
 4715SOL     OW15043   6.664   3.087   1.781
 4715SOL    HW115044   6.733   3.143   1.826
 4715SOL    HW215045   6.582   3.143   1.763
 4716SOL     OW15046   4.861   6.534   6.228
 4716SOL    HW115047   4.843   6.630   6.247
 4716SOL    HW215048   4.789   6.497   6.170
 4717SOL     OW15049   0.188   6.555   3.462
 4717SOL    HW115050   0.138   6.490   3.405
 4717SOL    HW215051   0.134   6.638   3.474
 4718SOL     OW15052   5.511   2.180   0.638
 4718SOL    HW115053   5.417   2.212   0.643
 4718SOL    HW215054   5.536   2.164   0.543
 4719SOL     OW15055   5.280   3.064   2.428
 4719SOL    HW115056   5.215   3.025   2.362
 4719SOL    HW215057   5.373   3.053   2.393
 4720SOL     OW15058   1.923   5.802   5.341
 4720SOL    HW115059   2.006   5.806   5.284
 4720SOL    HW215060   1.945   5.759   5.428
 4721SOL     OW15061   6.659   2.488   1.104
 4721SOL    HW115062   6.657   2.574   1.053
 4721SOL    HW215063   6.690   2.415   1.043
 4722SOL     OW15064   1.031   5.860   6.896
 4722SOL    HW115065   1.095   5.879   6.970
 4722SOL    HW215066   0.972   5.940   6.881
 4723SOL     OW15067   1.879   4.517   5.920
 4723SOL    HW115068   1.956   4.555   5.970
 4723SOL    HW215069   1.911   4.447   5.856
 4724SOL     OW15070   5.214   6.157   3.030
 4724SOL    HW115071   5.218   6.153   3.130
 4724SOL    HW215072   5.193   6.251   3.002
 4725SOL     OW15073   6.495   6.589   2.579
 4725SOL    HW115074   6.467   6.533   2.501
 4725SOL    HW215075   6.567   6.652   2.551
 4726SOL     OW15076   1.839   3.022   6.386
 4726SOL    HW115077   1.750   3.061   6.360
 4726SOL    HW215078   1.824   2.933   6.430
 4727SOL     OW15079   0.860   6.116   6.838
 4727SOL    HW115080   0.805   6.186   6.793
 4727SOL    HW215081   0.805   6.070   6.908
 4728SOL     OW15082   5.341   0.574   0.598
 4728SOL    HW115083   5.245   0.592   0.620
 4728SOL    HW215084   5.394   0.658   0.612
 4729SOL     OW15085   2.488   1.622   1.978
 4729SOL    HW115086   2.411   1.673   1.940
 4729SOL    HW215087   2.534   1.571   1.906
 4730SOL     OW15088   3.115   5.766   4.823
 4730SOL    HW115089   3.101   5.667   4.819
 4730SOL    HW215090   3.030   5.813   4.803
 4731SOL     OW15091   4.158   0.497   6.073
 4731SOL    HW115092   4.123   0.469   6.163
 4731SOL    HW215093   4.235   0.558   6.085
 4732SOL     OW15094   0.398   3.728   5.421
 4732SOL    HW115095   0.379   3.820   5.390
 4732SOL    HW215096   0.493   3.721   5.450
 4733SOL     OW15097   1.641   4.211   3.775
 4733SOL    HW115098   1.738   4.187   3.785
 4733SOL    HW215099   1.620   4.225   3.678
 4734SOL     OW15100   5.170   2.533   6.782
 4734SOL    HW115101   5.247   2.592   6.806
 4734SOL    HW215102   5.168   2.518   6.683
 4735SOL     OW15103   0.402   6.057   4.247
 4735SOL    HW115104   0.465   6.127   4.279
 4735SOL    HW215105   0.369   6.082   4.155
 4736SOL     OW15106   6.981   1.731   6.559
 4736SOL    HW115107   6.965   1.645   6.606
 4736SOL    HW215108   0.042   1.773   6.593
 4737SOL     OW15109   1.675   4.896   2.204
 4737SOL    HW115110   1.705   4.814   2.155
 4737SOL    HW215111   1.658   4.970   2.139
 4738SOL     OW15112   6.872   5.971   2.801
 4738SOL    HW115113   6.897   6.049   2.743
 4738SOL    HW215114   6.866   6.001   2.896
 4739SOL     OW15115   4.910   6.633   3.109
 4739SOL    HW115116   4.909   6.566   3.184
 4739SOL    HW215117   4.816   6.660   3.088
 4740SOL     OW15118   0.722   1.572   0.792
 4740SOL    HW115119   0.692   1.521   0.711
 4740SOL    HW215120   0.805   1.623   0.771
 4741SOL     OW15121   3.513   2.730   1.447
 4741SOL    HW115122   3.429   2.697   1.490
 4741SOL    HW215123   3.526   2.685   1.359
 4742SOL     OW15124   2.538   6.294   4.964
 4742SOL    HW115125   2.581   6.297   5.054
 4742SOL    HW215126   2.495   6.382   4.944
 4743SOL     OW15127   2.178   4.248   3.384
 4743SOL    HW115128   2.144   4.313   3.452
 4743SOL    HW215129   2.134   4.159   3.397
 4744SOL     OW15130   2.594   4.767   0.686
 4744SOL    HW115131   2.545   4.683   0.708
 4744SOL    HW215132   2.529   4.840   0.665
 4745SOL     OW15133   3.051   4.432   6.470
 4745SOL    HW115134   3.046   4.334   6.451
 4745SOL    HW215135   3.057   4.448   6.568
 4746SOL     OW15136   4.772   6.430   3.556
 4746SOL    HW115137   4.716   6.465   3.631
 4746SOL    HW215138   4.823   6.350   3.587
 4747SOL     OW15139   1.434   3.734   0.161
 4747SOL    HW115140   1.493   3.766   0.087
 4747SOL    HW215141   1.422   3.806   0.229
 4748SOL     OW15142   1.730   5.897   1.203
 4748SOL    HW115143   1.650   5.874   1.260
 4748SOL    HW215144   1.699   5.935   1.116
 4749SOL     OW15145   2.322   6.437   6.201
 4749SOL    HW115146   2.238   6.423   6.254
 4749SOL    HW215147   2.350   6.351   6.159
 4750SOL     OW15148   6.759   3.537   5.190
 4750SOL    HW115149   6.804   3.594   5.121
 4750SOL    HW215150   6.662   3.527   5.167
 4751SOL     OW15151   4.134   2.179   3.177
 4751SOL    HW115152   4.039   2.193   3.149
 4751SOL    HW215153   4.194   2.238   3.124
 4752SOL     OW15154   4.538   1.242   7.015
 4752SOL    HW115155   4.544   1.170   6.946
 4752SOL    HW215156   4.617   1.303   7.007
 4753SOL     OW15157   0.945   0.529   4.132
 4753SOL    HW115158   0.963   0.464   4.058
 4753SOL    HW215159   0.978   0.491   4.219
 4754SOL     OW15160   5.814   4.110   4.576
 4754SOL    HW115161   5.906   4.129   4.611
 4754SOL    HW215162   5.794   4.013   4.585
 4755SOL     OW15163   2.548   1.067   0.716
 4755SOL    HW115164   2.639   1.065   0.673
 4755SOL    HW215165   2.492   1.135   0.669
 4756SOL     OW15166   5.667   3.613   6.040
 4756SOL    HW115167   5.628   3.560   5.965
 4756SOL    HW215168   5.763   3.636   6.019
 4757SOL     OW15169   2.269   2.538   1.227
 4757SOL    HW115170   2.188   2.581   1.187
 4757SOL    HW215171   2.256   2.531   1.326
 4758SOL     OW15172   1.598   6.568   3.066
 4758SOL    HW115173   1.535   6.638   3.031
 4758SOL    HW215174   1.691   6.604   3.066
 4759SOL     OW15175   1.086   4.861   6.200
 4759SOL    HW115176   1.089   4.768   6.235
 4759SOL    HW215177   1.127   4.924   6.267
 4760SOL     OW15178   2.275   1.884   0.311
 4760SOL    HW115179   2.346   1.951   0.289
 4760SOL    HW215180   2.196   1.899   0.252
 4761SOL     OW15181   1.217   6.782   0.309
 4761SOL    HW115182   1.166   6.698   0.329
 4761SOL    HW215183   1.171   6.859   0.353
 4762SOL     OW15184   1.119   5.343   2.325
 4762SOL    HW115185   1.170   5.315   2.406
 4762SOL    HW215186   1.134   5.440   2.308
 4763SOL     OW15187   4.991   0.588   2.788
 4763SOL    HW115188   4.963   0.546   2.702
 4763SOL    HW215189   5.078   0.636   2.775
 4764SOL     OW15190   4.223   3.674   5.444
 4764SOL    HW115191   4.265   3.612   5.377
 4764SOL    HW215192   4.160   3.736   5.397
 4765SOL     OW15193   3.486   1.203   5.493
 4765SOL    HW115194   3.514   1.162   5.407
 4765SOL    HW215195   3.419   1.275   5.476
 4766SOL     OW15196   5.744   5.702   3.687
 4766SOL    HW115197   5.800   5.652   3.620
 4766SOL    HW215198   5.678   5.639   3.728
 4767SOL     OW15199   3.185   4.911   4.840
 4767SOL    HW115200   3.204   4.883   4.933
 4767SOL    HW215201   3.256   4.876   4.779
 4768SOL     OW15202   3.582   2.495   6.100
 4768SOL    HW115203   3.591   2.511   6.002
 4768SOL    HW215204   3.667   2.455   6.135
 4769SOL     OW15205   4.362   5.498   0.479
 4769SOL    HW115206   4.274   5.460   0.504
 4769SOL    HW215207   4.436   5.441   0.516
 4770SOL     OW15208   0.477   2.183   4.235
 4770SOL    HW115209   0.570   2.147   4.248
 4770SOL    HW215210   0.482   2.282   4.220
 4771SOL     OW15211   2.990   6.765   6.052
 4771SOL    HW115212   2.973   6.676   6.010
 4771SOL    HW215213   2.916   6.828   6.029
 4772SOL     OW15214   3.741   4.864   6.938
 4772SOL    HW115215   3.821   4.888   6.884
 4772SOL    HW215216   3.763   4.868   0.013
 4773SOL     OW15217   0.501   5.251   5.519
 4773SOL    HW115218   0.567   5.278   5.450
 4773SOL    HW215219   0.526   5.160   5.555
 4774SOL     OW15220   1.462   3.887   0.924
 4774SOL    HW115221   1.547   3.929   0.893
 4774SOL    HW215222   1.428   3.936   1.005
 4775SOL     OW15223   5.490   6.229   3.755
 4775SOL    HW115224   5.506   6.307   3.694
 4775SOL    HW215225   5.554   6.156   3.734
 4776SOL     OW15226   0.929   0.645   5.088
 4776SOL    HW115227   0.855   0.601   5.139
 4776SOL    HW215228   0.890   0.716   5.029
 4777SOL     OW15229   2.044   5.184   0.381
 4777SOL    HW115230   1.957   5.211   0.424
 4777SOL    HW215231   2.104   5.264   0.374
 4778SOL     OW15232   6.904   2.552   4.400
 4778SOL    HW115233   6.812   2.546   4.436
 4778SOL    HW215234   6.906   2.618   4.325
 4779SOL     OW15235   5.364   0.345   3.586
 4779SOL    HW115236   5.271   0.336   3.551
 4779SOL    HW215237   5.406   0.254   3.595
 4780SOL     OW15238   6.334   2.838   6.626
 4780SOL    HW115239   6.373   2.748   6.604
 4780SOL    HW215240   6.328   2.848   6.725
 4781SOL     OW15241   3.020   5.163   1.754
 4781SOL    HW115242   2.950   5.092   1.765
 4781SOL    HW215243   2.998   5.220   1.675
 4782SOL     OW15244   6.393   5.181   6.886
 4782SOL    HW115245   6.460   5.213   6.952
 4782SOL    HW215246   6.301   5.208   6.915
 4783SOL     OW15247   5.365   3.392   6.561
 4783SOL    HW115248   5.416   3.326   6.617
 4783SOL    HW215249   5.279   3.351   6.532
 4784SOL     OW15250   6.296   1.919   6.411
 4784SOL    HW115251   6.324   1.952   6.321
 4784SOL    HW215252   6.259   1.995   6.464
 4785SOL     OW15253   0.070   6.583   3.115
 4785SOL    HW115254   0.095   6.650   3.046
 4785SOL    HW215255   7.012   6.615   3.166
 4786SOL     OW15256   2.717   6.709   0.018
 4786SOL    HW115257   2.630   6.715   6.991
 4786SOL    HW215258   2.779   6.780   7.008
 4787SOL     OW15259   3.801   1.763   3.043
 4787SOL    HW115260   3.784   1.778   2.945
 4787SOL    HW215261   3.776   1.845   3.094
 4788SOL     OW15262   0.018   6.499   0.533
 4788SOL    HW115263   0.109   6.472   0.503
 4788SOL    HW215264   7.022   6.462   0.624
 4789SOL     OW15265   4.934   1.355   1.624
 4789SOL    HW115266   4.857   1.292   1.621
 4789SOL    HW215267   4.948   1.395   1.534
 4790SOL     OW15268   5.924   1.606   5.410
 4790SOL    HW115269   5.925   1.525   5.351
 4790SOL    HW215270   5.980   1.589   5.491
 4791SOL     OW15271   0.125   2.989   1.704
 4791SOL    HW115272   0.194   3.036   1.759
 4791SOL    HW215273   0.092   3.049   1.631
 4792SOL     OW15274   2.547   4.576   4.465
 4792SOL    HW115275   2.513   4.483   4.452
 4792SOL    HW215276   2.593   4.582   4.553
 4793SOL     OW15277   1.369   3.211   5.554
 4793SOL    HW115278   1.439   3.256   5.609
 4793SOL    HW215279   1.362   3.256   5.465
 4794SOL     OW15280   4.405   0.267   4.257
 4794SOL    HW115281   4.451   0.237   4.173
 4794SOL    HW215282   4.471   0.272   4.332
 4795SOL     OW15283   6.479   1.241   4.534
 4795SOL    HW115284   6.537   1.282   4.464
 4795SOL    HW215285   6.506   1.145   4.547
 4796SOL     OW15286   3.798   0.763   5.997
 4796SOL    HW115287   3.888   0.797   5.969
 4796SOL    HW215288   3.801   0.663   6.002
 4797SOL     OW15289   0.297   6.546   4.729
 4797SOL    HW115290   0.288   6.622   4.666
 4797SOL    HW215291   0.364   6.481   4.694
 4798SOL     OW15292   0.211   4.941   6.165
 4798SOL    HW115293   0.156   4.930   6.083
 4798SOL    HW215294   0.196   5.032   6.203
 4799SOL     OW15295   4.350   1.414   0.712
 4799SOL    HW115296   4.376   1.443   0.620
 4799SOL    HW215297   4.425   1.361   0.753
 4800SOL     OW15298   2.178   3.278   6.566
 4800SOL    HW115299   2.119   3.199   6.548
 4800SOL    HW215300   2.267   3.263   6.524
 4801SOL     OW15301   3.488   2.734   0.120
 4801SOL    HW115302   3.521   2.641   0.109
 4801SOL    HW215303   3.402   2.734   0.171
 4802SOL     OW15304   0.253   6.875   1.652
 4802SOL    HW115305   0.309   6.952   1.623
 4802SOL    HW215306   0.275   6.851   1.747
 4803SOL     OW15307   0.715   4.171   0.613
 4803SOL    HW115308   0.655   4.138   0.540
 4803SOL    HW215309   0.678   4.256   0.651
 4804SOL     OW15310   6.607   6.587   1.606
 4804SOL    HW115311   6.585   6.633   1.520
 4804SOL    HW215312   6.675   6.641   1.656
 4805SOL     OW15313   6.154   1.326   2.513
 4805SOL    HW115314   6.217   1.261   2.472
 4805SOL    HW215315   6.198   1.415   2.522
 4806SOL     OW15316   0.894   4.140   3.096
 4806SOL    HW115317   0.880   4.233   3.061
 4806SOL    HW215318   0.880   4.140   3.195
 4807SOL     OW15319   0.774   4.758   6.244
 4807SOL    HW115320   0.855   4.713   6.206
 4807SOL    HW215321   0.794   4.791   6.336
 4808SOL     OW15322   4.347   5.420   0.786
 4808SOL    HW115323   4.317   5.501   0.737
 4808SOL    HW215324   4.434   5.389   0.748
 4809SOL     OW15325   3.770   4.517   1.127
 4809SOL    HW115326   3.819   4.481   1.048
 4809SOL    HW215327   3.834   4.540   1.200
 4810SOL     OW15328   1.424   4.028   3.365
 4810SOL    HW115329   1.428   4.083   3.281
 4810SOL    HW215330   1.361   4.072   3.430
 4811SOL     OW15331   4.141   3.477   2.879
 4811SOL    HW115332   4.074   3.544   2.847
 4811SOL    HW215333   4.233   3.508   2.857
 4812SOL     OW15334   0.752   0.404   2.332
 4812SOL    HW115335   0.775   0.424   2.237
 4812SOL    HW215336   0.825   0.350   2.373
 4813SOL     OW15337   5.803   1.604   6.430
 4813SOL    HW115338   5.828   1.575   6.338
 4813SOL    HW215339   5.869   1.565   6.496
 4814SOL     OW15340   6.817   3.067   1.558
 4814SOL    HW115341   6.886   3.138   1.569
 4814SOL    HW215342   6.781   3.041   1.647
 4815SOL     OW15343   5.189   4.284   3.340
 4815SOL    HW115344   5.176   4.253   3.434
 4815SOL    HW215345   5.213   4.381   3.339
 4816SOL     OW15346   2.468   5.496   1.286
 4816SOL    HW115347   2.413   5.463   1.363
 4816SOL    HW215348   2.505   5.418   1.236
 4817SOL     OW15349   2.320   1.309   1.275
 4817SOL    HW115350   2.377   1.391   1.277
 4817SOL    HW215351   2.359   1.240   1.335
 4818SOL     OW15352   0.869   1.279   3.959
 4818SOL    HW115353   0.956   1.327   3.949
 4818SOL    HW215354   0.825   1.307   4.044
 4819SOL     OW15355   2.643   2.355   1.483
 4819SOL    HW115356   2.717   2.325   1.544
 4819SOL    HW215357   2.612   2.446   1.510
 4820SOL     OW15358   6.603   2.005   0.851
 4820SOL    HW115359   6.684   1.954   0.822
 4820SOL    HW215360   6.539   1.943   0.896
 4821SOL     OW15361   0.055   0.583   0.994
 4821SOL    HW115362   7.016   0.504   0.983
 4821SOL    HW215363   0.124   0.563   1.064
 4822SOL     OW15364   1.910   3.043   3.735
 4822SOL    HW115365   1.856   3.068   3.815
 4822SOL    HW215366   1.990   2.989   3.764
 4823SOL     OW15367   0.599   1.684   3.964
 4823SOL    HW115368   0.655   1.766   3.978
 4823SOL    HW215369   0.623   1.641   3.877
 4824SOL     OW15370   5.531   1.982   4.534
 4824SOL    HW115371   5.532   1.940   4.444
 4824SOL    HW215372   5.531   1.911   4.604
 4825SOL     OW15373   1.830   2.634   4.562
 4825SOL    HW115374   1.791   2.572   4.631
 4825SOL    HW215375   1.767   2.641   4.485
 4826SOL     OW15376   0.158   0.427   5.829
 4826SOL    HW115377   0.208   0.402   5.912
 4826SOL    HW215378   0.222   0.437   5.753
 4827SOL     OW15379   6.006   1.878   1.488
 4827SOL    HW115380   6.016   1.965   1.438
 4827SOL    HW215381   6.075   1.813   1.457
 4828SOL     OW15382   5.734   2.954   0.993
 4828SOL    HW115383   5.768   3.048   0.987
 4828SOL    HW215384   5.649   2.953   1.047
 4829SOL     OW15385   4.127   6.649   6.772
 4829SOL    HW115386   4.227   6.654   6.783
 4829SOL    HW215387   4.091   6.739   6.749
 4830SOL     OW15388   5.036   6.503   3.817
 4830SOL    HW115389   5.072   6.537   3.903
 4830SOL    HW215390   5.103   6.444   3.773
 4831SOL     OW15391   6.953   4.664   6.510
 4831SOL    HW115392   6.995   4.606   6.580
 4831SOL    HW215393   6.856   4.642   6.501
 4832SOL     OW15394   2.610   2.753   5.443
 4832SOL    HW115395   2.560   2.779   5.360
 4832SOL    HW215396   2.564   2.792   5.523
 4833SOL     OW15397   4.965   1.184   2.516
 4833SOL    HW115398   4.906   1.151   2.443
 4833SOL    HW215399   4.915   1.181   2.603
 4834SOL     OW15400   3.638   0.772   0.923
 4834SOL    HW115401   3.682   0.713   0.855
 4834SOL    HW215402   3.545   0.792   0.895
 4835SOL     OW15403   0.598   1.658   6.238
 4835SOL    HW115404   0.678   1.676   6.294
 4835SOL    HW215405   0.590   1.729   6.168
 4836SOL     OW15406   5.264   2.857   3.815
 4836SOL    HW115407   5.205   2.880   3.892
 4836SOL    HW215408   5.232   2.903   3.733
 4837SOL     OW15409   4.788   3.458   1.736
 4837SOL    HW115410   4.852   3.508   1.678
 4837SOL    HW215411   4.787   3.362   1.710
 4838SOL     OW15412   1.276   4.723   1.883
 4838SOL    HW115413   1.249   4.627   1.876
 4838SOL    HW215414   1.296   4.745   1.978
 4839SOL     OW15415   0.972   3.309   5.598
 4839SOL    HW115416   0.976   3.345   5.692
 4839SOL    HW215417   0.884   3.263   5.585
 4840SOL     OW15418   1.039   6.131   5.593
 4840SOL    HW115419   1.036   6.056   5.660
 4840SOL    HW215420   0.976   6.203   5.621
 4841SOL     OW15421   2.850   6.347   1.531
 4841SOL    HW115422   2.911   6.288   1.478
 4841SOL    HW215423   2.891   6.365   1.621
 4842SOL     OW15424   3.239   4.799   1.928
 4842SOL    HW115425   3.165   4.798   1.995
 4842SOL    HW215426   3.327   4.793   1.975
 4843SOL     OW15427   6.074   3.163   0.564
 4843SOL    HW115428   6.038   3.117   0.645
 4843SOL    HW215429   6.136   3.101   0.516
 4844SOL     OW15430   6.860   3.796   5.737
 4844SOL    HW115431   6.921   3.858   5.786
 4844SOL    HW215432   6.816   3.844   5.661
 4845SOL     OW15433   6.368   5.688   5.096
 4845SOL    HW115434   6.412   5.719   5.181
 4845SOL    HW215435   6.435   5.686   5.023
 4846SOL     OW15436   6.421   3.306   3.159
 4846SOL    HW115437   6.331   3.296   3.201
 4846SOL    HW215438   6.439   3.402   3.140
 4847SOL     OW15439   3.260   1.389   5.678
 4847SOL    HW115440   3.163   1.401   5.660
 4847SOL    HW215441   3.313   1.415   5.597
 4848SOL     OW15442   1.350   1.390   4.114
 4848SOL    HW115443   1.262   1.378   4.160
 4848SOL    HW215444   1.373   1.307   4.065
 4849SOL     OW15445   1.066   6.689   6.404
 4849SOL    HW115446   1.019   6.706   6.491
 4849SOL    HW215447   1.160   6.659   6.423
 4850SOL     OW15448   3.992   1.629   2.660
 4850SOL    HW115449   4.069   1.628   2.723
 4850SOL    HW215450   3.952   1.721   2.658
 4851SOL     OW15451   4.327   6.209   5.393
 4851SOL    HW115452   4.426   6.196   5.407
 4851SOL    HW215453   4.308   6.213   5.295
 4852SOL     OW15454   0.974   0.227   5.307
 4852SOL    HW115455   1.031   0.148   5.332
 4852SOL    HW215456   1.032   0.298   5.268
 4853SOL     OW15457   2.854   1.111   3.329
 4853SOL    HW115458   2.814   1.166   3.255
 4853SOL    HW215459   2.948   1.141   3.346
 4854SOL     OW15460   5.561   6.766   2.088
 4854SOL    HW115461   5.591   6.812   2.172
 4854SOL    HW215462   5.603   6.812   2.009
 4855SOL     OW15463   6.623   2.745   2.336
 4855SOL    HW115464   6.586   2.656   2.364
 4855SOL    HW215465   6.598   2.763   2.241
 4856SOL     OW15466   1.630   4.001   2.430
 4856SOL    HW115467   1.576   4.055   2.495
 4856SOL    HW215468   1.643   4.053   2.346
 4857SOL     OW15469   1.578   2.638   5.760
 4857SOL    HW115470   1.567   2.571   5.834
 4857SOL    HW215471   1.654   2.612   5.702
 4858SOL     OW15472   1.140   1.307   4.708
 4858SOL    HW115473   1.235   1.291   4.681
 4858SOL    HW215474   1.079   1.251   4.651
 4859SOL     OW15475   1.251   1.078   4.445
 4859SOL    HW115476   1.177   1.062   4.511
 4859SOL    HW215477   1.314   1.146   4.481
 4860SOL     OW15478   3.931   4.450   1.580
 4860SOL    HW115479   3.850   4.508   1.591
 4860SOL    HW215480   3.983   4.448   1.666
 4861SOL     OW15481   5.155   4.571   6.965
 4861SOL    HW115482   5.202   4.488   6.996
 4861SOL    HW215483   5.084   4.547   6.899
 4862SOL     OW15484   2.940   4.849   4.800
 4862SOL    HW115485   2.931   4.754   4.831
 4862SOL    HW215486   3.034   4.880   4.813
 4863SOL     OW15487   6.448   3.958   2.241
 4863SOL    HW115488   6.357   3.999   2.244
 4863SOL    HW215489   6.503   4.005   2.173
 4864SOL     OW15490   3.796   1.119   3.264
 4864SOL    HW115491   3.698   1.124   3.282
 4864SOL    HW215492   3.839   1.058   3.331
 4865SOL     OW15493   2.161   0.676   5.204
 4865SOL    HW115494   2.193   0.766   5.233
 4865SOL    HW215495   2.164   0.612   5.281
 4866SOL     OW15496   6.434   1.598   1.124
 4866SOL    HW115497   6.517   1.651   1.111
 4866SOL    HW215498   6.356   1.660   1.137
 4867SOL     OW15499   3.548   5.131   2.425
 4867SOL    HW115500   3.610   5.174   2.490
 4867SOL    HW215501   3.459   5.115   2.468
 4868SOL     OW15502   6.275   4.937   2.574
 4868SOL    HW115503   6.243   4.966   2.484
 4868SOL    HW215504   6.196   4.921   2.634
 4869SOL     OW15505   0.961   1.911   2.343
 4869SOL    HW115506   1.050   1.956   2.350
 4869SOL    HW215507   0.970   1.816   2.372
 4870SOL     OW15508   0.597   6.473   1.671
 4870SOL    HW115509   0.610   6.536   1.748
 4870SOL    HW215510   0.641   6.511   1.590
 4871SOL     OW15511   1.721   0.974   3.932
 4871SOL    HW115512   1.795   0.925   3.978
 4871SOL    HW215513   1.656   0.908   3.893
 4872SOL     OW15514   6.251   0.025   3.750
 4872SOL    HW115515   6.239   6.952   3.776
 4872SOL    HW215516   6.165   0.060   3.711
 4873SOL     OW15517   6.367   5.464   4.058
 4873SOL    HW115518   6.398   5.467   3.963
 4873SOL    HW215519   6.285   5.520   4.069
 4874SOL     OW15520   6.206   3.448   2.838
 4874SOL    HW115521   6.252   3.430   2.751
 4874SOL    HW215522   6.219   3.370   2.900
 4875SOL     OW15523   5.747   1.390   0.790
 4875SOL    HW115524   5.790   1.454   0.726
 4875SOL    HW215525   5.677   1.438   0.843
 4876SOL     OW15526   5.792   2.368   3.020
 4876SOL    HW115527   5.771   2.441   2.956
 4876SOL    HW215528   5.856   2.401   3.090
 4877SOL     OW15529   1.437   1.917   6.276
 4877SOL    HW115530   1.339   1.916   6.293
 4877SOL    HW215531   1.479   1.835   6.316
 4878SOL     OW15532   6.140   1.041   2.081
 4878SOL    HW115533   6.078   1.007   2.010
 4878SOL    HW215534   6.231   1.001   2.068
 4879SOL     OW15535   4.117   0.763   2.902
 4879SOL    HW115536   4.203   0.782   2.949
 4879SOL    HW215537   4.041   0.773   2.966
 4880SOL     OW15538   5.287   3.200   6.949
 4880SOL    HW115539   5.285   3.300   6.958
 4880SOL    HW215540   5.374   3.172   6.907
 4881SOL     OW15541   1.062   1.274   0.153
 4881SOL    HW115542   1.023   1.366   0.150
 4881SOL    HW215543   1.026   1.219   0.077
 4882SOL     OW15544   4.696   0.695   5.004
 4882SOL    HW115545   4.646   0.678   5.089
 4882SOL    HW215546   4.631   0.701   4.928
 4883SOL     OW15547   5.031   5.219   1.510
 4883SOL    HW115548   5.066   5.153   1.444
 4883SOL    HW215549   4.932   5.229   1.498
 4884SOL     OW15550   2.620   6.545   1.537
 4884SOL    HW115551   2.690   6.473   1.546
 4884SOL    HW215552   2.605   6.564   1.440
 4885SOL     OW15553   2.297   5.255   1.940
 4885SOL    HW115554   2.365   5.325   1.919
 4885SOL    HW215555   2.205   5.295   1.936
 4886SOL     OW15556   1.227   6.352   1.506
 4886SOL    HW115557   1.265   6.260   1.503
 4886SOL    HW215558   1.157   6.363   1.435
 4887SOL     OW15559   7.012   0.313   1.653
 4887SOL    HW115560   6.930   0.305   1.709
 4887SOL    HW215561   7.010   0.245   1.580
 4888SOL     OW15562   2.668   0.220   4.369
 4888SOL    HW115563   2.627   0.185   4.285
 4888SOL    HW215564   2.681   0.144   4.433
 4889SOL     OW15565   6.742   2.174   5.193
 4889SOL    HW115566   6.667   2.209   5.249
 4889SOL    HW215567   6.794   2.106   5.246
 4890SOL     OW15568   6.906   0.782   6.259
 4890SOL    HW115569   7.004   0.790   6.277
 4890SOL    HW215570   6.861   0.735   6.335
 4891SOL     OW15571   2.205   4.959   0.047
 4891SOL    HW115572   2.195   4.877   7.013
 4891SOL    HW215573   2.261   4.938   0.127
 4892SOL     OW15574   3.130   5.950   2.375
 4892SOL    HW115575   3.117   5.863   2.328
 4892SOL    HW215576   3.081   6.022   2.326
 4893SOL     OW15577   6.695   3.334   1.481
 4893SOL    HW115578   6.729   3.285   1.401
 4893SOL    HW215579   6.771   3.355   1.542
 4894SOL     OW15580   3.159   0.698   3.319
 4894SOL    HW115581   3.138   0.608   3.359
 4894SOL    HW215582   3.231   0.688   3.251
 4895SOL     OW15583   0.803   5.026   4.374
 4895SOL    HW115584   0.766   4.933   4.382
 4895SOL    HW215585   0.804   5.053   4.277
 4896SOL     OW15586   1.561   4.593   1.809
 4896SOL    HW115587   1.640   4.567   1.754
 4896SOL    HW215588   1.485   4.619   1.748
 4897SOL     OW15589   1.762   4.368   5.613
 4897SOL    HW115590   1.745   4.454   5.662
 4897SOL    HW215591   1.755   4.291   5.676
 4898SOL     OW15592   4.540   0.956   4.674
 4898SOL    HW115593   4.570   0.875   4.724
 4898SOL    HW215594   4.603   1.031   4.692
 4899SOL     OW15595   5.510   5.476   3.037
 4899SOL    HW115596   5.438   5.417   3.074
 4899SOL    HW215597   5.509   5.564   3.084
 4900SOL     OW15598   3.176   6.240   5.466
 4900SOL    HW115599   3.226   6.173   5.520
 4900SOL    HW215600   3.084   6.205   5.446
 4901SOL     OW15601   3.217   1.388   5.141
 4901SOL    HW115602   3.173   1.320   5.200
 4901SOL    HW215603   3.276   1.341   5.075
 4902SOL     OW15604   1.990   1.933   5.031
 4902SOL    HW115605   1.952   1.996   5.099
 4902SOL    HW215606   1.916   1.897   4.974
 4903SOL     OW15607   3.900   5.686   0.023
 4903SOL    HW115608   3.950   5.639   0.095
 4903SOL    HW215609   3.915   5.785   0.031
 4904SOL     OW15610   2.266   0.307   5.234
 4904SOL    HW115611   2.190   0.346   5.183
 4904SOL    HW215612   2.309   0.378   5.290
 4905SOL     OW15613   3.352   0.744   2.991
 4905SOL    HW115614   3.441   0.770   3.029
 4905SOL    HW215615   3.365   0.700   2.902
 4906SOL     OW15616   5.240   1.929   6.666
 4906SOL    HW115617   5.247   2.018   6.711
 4906SOL    HW215618   5.145   1.912   6.640
 4907SOL     OW15619   4.321   6.142   2.242
 4907SOL    HW115620   4.322   6.069   2.310
 4907SOL    HW215621   4.371   6.221   2.278
 4908SOL     OW15622   5.459   6.122   0.437
 4908SOL    HW115623   5.496   6.066   0.512
 4908SOL    HW215624   5.473   6.075   0.350
 4909SOL     OW15625   0.623   6.473   4.481
 4909SOL    HW115626   0.636   6.433   4.571
 4909SOL    HW215627   0.536   6.442   4.443
 4910SOL     OW15628   5.474   1.161   4.875
 4910SOL    HW115629   5.433   1.070   4.876
 4910SOL    HW215630   5.401   1.230   4.872
 4911SOL     OW15631   1.088   4.261   3.744
 4911SOL    HW115632   0.991   4.252   3.722
 4911SOL    HW215633   1.100   4.328   3.817
 4912SOL     OW15634   5.452   1.205   6.178
 4912SOL    HW115635   5.446   1.135   6.250
 4912SOL    HW215636   5.394   1.177   6.101
 4913SOL     OW15637   4.032   3.097   5.239
 4913SOL    HW115638   3.956   3.147   5.280
 4913SOL    HW215639   4.032   3.003   5.273
 4914SOL     OW15640   3.571   0.177   4.690
 4914SOL    HW115641   3.515   0.128   4.757
 4914SOL    HW215642   3.567   0.129   4.602
 4915SOL     OW15643   3.439   6.200   5.964
 4915SOL    HW115644   3.513   6.199   5.897
 4915SOL    HW215645   3.358   6.157   5.925
 4916SOL     OW15646   1.370   0.332   4.233
 4916SOL    HW115647   1.315   0.416   4.239
 4916SOL    HW215648   1.458   0.354   4.191
 4917SOL     OW15649   2.402   5.500   1.831
 4917SOL    HW115650   2.400   5.521   1.733
 4917SOL    HW215651   2.338   5.560   1.879
 4918SOL     OW15652   4.858   5.949   2.961
 4918SOL    HW115653   4.866   6.009   2.881
 4918SOL    HW215654   4.906   5.991   3.039
 4919SOL     OW15655   3.461   2.447   0.772
 4919SOL    HW115656   3.396   2.471   0.844
 4919SOL    HW215657   3.549   2.490   0.791
 4920SOL     OW15658   5.243   0.535   4.539
 4920SOL    HW115659   5.337   0.568   4.532
 4920SOL    HW215660   5.244   0.439   4.565
 4921SOL     OW15661   1.162   5.367   0.280
 4921SOL    HW115662   1.220   5.437   0.320
 4921SOL    HW215663   1.068   5.400   0.275
 4922SOL     OW15664   2.701   2.420   5.144
 4922SOL    HW115665   2.788   2.462   5.118
 4922SOL    HW215666   2.680   2.443   5.239
 4923SOL     OW15667   4.085   1.917   2.726
 4923SOL    HW115668   4.054   1.897   2.819
 4923SOL    HW215669   4.036   1.997   2.692
 4924SOL     OW15670   3.969   1.138   4.813
 4924SOL    HW115671   3.883   1.156   4.766
 4924SOL    HW215672   4.018   1.225   4.826
 4925SOL     OW15673   6.593   0.004   2.657
 4925SOL    HW115674   6.618   6.946   2.603
 4925SOL    HW215675   6.618   7.011   2.753
 4926SOL     OW15676   4.729   0.646   0.503
 4926SOL    HW115677   4.829   0.649   0.502
 4926SOL    HW215678   4.693   0.737   0.524
 4927SOL     OW15679   3.346   3.770   4.618
 4927SOL    HW115680   3.255   3.729   4.618
 4927SOL    HW215681   3.413   3.703   4.587
 4928SOL     OW15682   2.275   7.006   6.913
 4928SOL    HW115683   2.342   7.010   6.987
 4928SOL    HW215684   2.200   6.945   6.938
 4929SOL     OW15685   6.771   6.863   4.683
 4929SOL    HW115686   6.775   6.783   4.743
 4929SOL    HW215687   6.683   6.910   4.695
 4930SOL     OW15688   5.235   0.805   2.679
 4930SOL    HW115689   5.286   0.887   2.650
 4930SOL    HW215690   5.285   0.759   2.752
 4931SOL     OW15691   6.750   6.896   0.869
 4931SOL    HW115692   6.701   6.914   0.784
 4931SOL    HW215693   6.758   6.797   0.882
 4932SOL     OW15694   3.509   2.892   1.894
 4932SOL    HW115695   3.418   2.859   1.868
 4932SOL    HW215696   3.576   2.820   1.878
 4933SOL     OW15697   2.304   6.681   2.269
 4933SOL    HW115698   2.348   6.617   2.207
 4933SOL    HW215699   2.315   6.774   2.235
 4934SOL     OW15700   3.205   5.577   2.856
 4934SOL    HW115701   3.203   5.676   2.841
 4934SOL    HW215702   3.215   5.531   2.768
 4935SOL     OW15703   1.776   1.852   6.459
 4935SOL    HW115704   1.802   1.941   6.495
 4935SOL    HW215705   1.815   1.780   6.516
 4936SOL     OW15706   2.701   4.943   1.485
 4936SOL    HW115707   2.672   4.953   1.390
 4936SOL    HW215708   2.774   4.875   1.491
 4937SOL     OW15709   5.566   3.477   5.823
 4937SOL    HW115710   5.656   3.484   5.780
 4937SOL    HW215711   5.511   3.410   5.773
 4938SOL     OW15712   2.069   5.097   5.734
 4938SOL    HW115713   2.124   5.099   5.651
 4938SOL    HW215714   2.077   5.007   5.777
 4939SOL     OW15715   5.973   2.228   4.709
 4939SOL    HW115716   6.041   2.230   4.636
 4939SOL    HW215717   5.892   2.177   4.678
 4940SOL     OW15718   0.355   1.111   4.666
 4940SOL    HW115719   0.290   1.153   4.602
 4940SOL    HW215720   0.441   1.162   4.665
 4941SOL     OW15721   4.814   2.075   5.961
 4941SOL    HW115722   4.877   2.070   6.037
 4941SOL    HW215723   4.787   2.170   5.945
 4942SOL     OW15724   4.721   2.384   5.917
 4942SOL    HW115725   4.645   2.325   5.945
 4942SOL    HW215726   4.697   2.479   5.933
 4943SOL     OW15727   4.866   3.555   6.748
 4943SOL    HW115728   4.864   3.522   6.654
 4943SOL    HW215729   4.853   3.478   6.811
 4944SOL     OW15730   2.091   4.657   1.755
 4944SOL    HW115731   2.139   4.571   1.773
 4944SOL    HW215732   2.056   4.656   1.661
 4945SOL     OW15733   1.250   0.835   4.259
 4945SOL    HW115734   1.168   0.854   4.206
 4945SOL    HW215735   1.235   0.859   4.354
 4946SOL     OW15736   0.831   3.545   0.481
 4946SOL    HW115737   0.816   3.641   0.502
 4946SOL    HW215738   0.890   3.504   0.550
 4947SOL     OW15739   1.941   1.109   1.465
 4947SOL    HW115740   1.878   1.107   1.388
 4947SOL    HW215741   1.997   1.191   1.461
 4948SOL     OW15742   1.567   1.964   2.229
 4948SOL    HW115743   1.493   1.901   2.251
 4948SOL    HW215744   1.637   1.959   2.301
 4949SOL     OW15745   4.360   6.870   6.235
 4949SOL    HW115746   4.310   6.787   6.260
 4949SOL    HW215747   4.314   6.949   6.275
 4950SOL     OW15748   2.774   5.490   4.197
 4950SOL    HW115749   2.765   5.561   4.267
 4950SOL    HW215750   2.867   5.452   4.199
 4951SOL     OW15751   5.271   1.387   4.529
 4951SOL    HW115752   5.227   1.466   4.485
 4951SOL    HW215753   5.371   1.396   4.521
 4952SOL     OW15754   0.075   0.925   5.418
 4952SOL    HW115755   0.041   0.897   5.507
 4952SOL    HW215756   0.152   0.866   5.392
 4953SOL     OW15757   1.884   6.254   2.166
 4953SOL    HW115758   1.938   6.333   2.136
 4953SOL    HW215759   1.945   6.184   2.203
 4954SOL     OW15760   4.388   3.698   6.744
 4954SOL    HW115761   4.322   3.649   6.687
 4954SOL    HW215762   4.340   3.739   6.822
 4955SOL     OW15763   2.756   6.007   6.792
 4955SOL    HW115764   2.728   6.099   6.818
 4955SOL    HW215765   2.829   6.011   6.724
 4956SOL     OW15766   2.420   6.828   5.153
 4956SOL    HW115767   2.464   6.914   5.177
 4956SOL    HW215768   2.360   6.841   5.074
 4957SOL     OW15769   6.603   1.834   2.358
 4957SOL    HW115770   6.700   1.843   2.336
 4957SOL    HW215771   6.593   1.796   2.450
 4958SOL     OW15772   6.556   5.434   5.003
 4958SOL    HW115773   6.566   5.527   4.969
 4958SOL    HW215774   6.644   5.387   4.999
 4959SOL     OW15775   6.305   1.218   6.317
 4959SOL    HW115776   6.347   1.234   6.228
 4959SOL    HW215777   6.368   1.249   6.389
 4960SOL     OW15778   3.442   5.632   3.267
 4960SOL    HW115779   3.434   5.683   3.181
 4960SOL    HW215780   3.525   5.577   3.265
 4961SOL     OW15781   4.685   1.616   6.145
 4961SOL    HW115782   4.705   1.659   6.057
 4961SOL    HW215783   4.766   1.568   6.178
 4962SOL     OW15784   6.333   2.698   0.490
 4962SOL    HW115785   6.383   2.622   0.533
 4962SOL    HW215786   6.347   2.781   0.544
 4963SOL     OW15787   6.415   5.895   6.829
 4963SOL    HW115788   6.419   5.848   6.917
 4963SOL    HW215789   6.353   5.846   6.768
 4964SOL     OW15790   3.253   0.062   4.233
 4964SOL    HW115791   3.206   0.080   4.147
 4964SOL    HW215792   3.352   0.055   4.217
 4965SOL     OW15793   0.289   0.504   3.657
 4965SOL    HW115794   0.301   0.600   3.629
 4965SOL    HW215795   0.372   0.453   3.636
 4966SOL     OW15796   2.060   0.375   5.048
 4966SOL    HW115797   2.038   0.469   5.022
 4966SOL    HW215798   2.128   0.338   4.985
 4967SOL     OW15799   3.693   3.458   6.053
 4967SOL    HW115800   3.739   3.491   5.970
 4967SOL    HW215801   3.746   3.483   6.133
 4968SOL     OW15802   5.944   2.323   3.401
 4968SOL    HW115803   5.958   2.369   3.488
 4968SOL    HW215804   5.971   2.384   3.326
 4969SOL     OW15805   2.318   0.732   2.066
 4969SOL    HW115806   2.265   0.797   2.012
 4969SOL    HW215807   2.350   0.776   2.150
 4970SOL     OW15808   1.624   1.754   4.191
 4970SOL    HW115809   1.534   1.716   4.211
 4970SOL    HW215810   1.646   1.740   4.095
 4971SOL     OW15811   6.171   6.473   3.669
 4971SOL    HW115812   6.118   6.498   3.750
 4971SOL    HW215813   6.268   6.486   3.687
 4972SOL     OW15814   1.987   3.013   6.886
 4972SOL    HW115815   1.949   2.929   6.926
 4972SOL    HW215816   1.989   3.004   6.787
 4973SOL     OW15817   0.552   0.419   2.583
 4973SOL    HW115818   0.586   0.446   2.493
 4973SOL    HW215819   0.537   0.320   2.585
 4974SOL     OW15820   5.751   4.901   1.386
 4974SOL    HW115821   5.681   4.949   1.437
 4974SOL    HW215822   5.806   4.845   1.448
 4975SOL     OW15823   5.497   5.435   6.236
 4975SOL    HW115824   5.487   5.530   6.206
 4975SOL    HW215825   5.593   5.409   6.231
 4976SOL     OW15826   3.050   0.097   4.666
 4976SOL    HW115827   3.136   0.046   4.673
 4976SOL    HW215828   3.006   0.076   4.579
 4977SOL     OW15829   4.347   3.918   0.668
 4977SOL    HW115830   4.366   3.953   0.760
 4977SOL    HW215831   4.298   3.988   0.615
 4978SOL     OW15832   6.982   4.062   5.595
 4978SOL    HW115833   6.939   4.149   5.570
 4978SOL    HW215834   7.022   4.070   5.687
 4979SOL     OW15835   0.709   0.600   5.281
 4979SOL    HW115836   0.632   0.563   5.229
 4979SOL    HW215837   0.734   0.535   5.353
 4980SOL     OW15838   4.576   6.466   3.297
 4980SOL    HW115839   4.640   6.403   3.254
 4980SOL    HW215840   4.591   6.466   3.396
 4981SOL     OW15841   4.985   5.595   6.403
 4981SOL    HW115842   4.924   5.520   6.427
 4981SOL    HW215843   5.032   5.628   6.485
 4982SOL     OW15844   1.858   2.067   6.608
 4982SOL    HW115845   1.890   2.161   6.596
 4982SOL    HW215846   1.827   2.054   6.702
 4983SOL     OW15847   5.232   2.290   4.406
 4983SOL    HW115848   5.134   2.311   4.414
 4983SOL    HW215849   5.277   2.363   4.356
 4984SOL     OW15850   6.135   4.228   4.475
 4984SOL    HW115851   6.231   4.223   4.448
 4984SOL    HW215852   6.078   4.240   4.394
 4985SOL     OW15853   6.207   6.583   3.134
 4985SOL    HW115854   6.230   6.502   3.080
 4985SOL    HW215855   6.291   6.618   3.177
 4986SOL     OW15856   5.818   4.244   2.747
 4986SOL    HW115857   5.740   4.197   2.787
 4986SOL    HW215858   5.891   4.252   2.814
 4987SOL     OW15859   0.827   1.421   1.012
 4987SOL    HW115860   0.777   1.466   0.938
 4987SOL    HW215861   0.901   1.366   0.974
 4988SOL     OW15862   5.875   1.101   3.055
 4988SOL    HW115863   5.918   1.162   3.121
 4988SOL    HW215864   5.782   1.079   3.085
 4989SOL     OW15865   5.337   0.435   1.154
 4989SOL    HW115866   5.243   0.410   1.128
 4989SOL    HW215867   5.401   0.385   1.096
 4990SOL     OW15868   1.704   1.877   5.590
 4990SOL    HW115869   1.774   1.882   5.519
 4990SOL    HW215870   1.748   1.861   5.678
 4991SOL     OW15871   0.401   3.344   4.400
 4991SOL    HW115872   0.428   3.247   4.405
 4991SOL    HW215873   0.468   3.394   4.345
 4992SOL     OW15874   4.854   0.896   4.861
 4992SOL    HW115875   4.940   0.936   4.892
 4992SOL    HW215876   4.819   0.834   4.931
 4993SOL     OW15877   3.879   5.037   3.741
 4993SOL    HW115878   3.841   5.115   3.791
 4993SOL    HW215879   3.805   4.977   3.712
 4994SOL     OW15880   0.991   0.408   2.673
 4994SOL    HW115881   0.966   0.358   2.590
 4994SOL    HW215882   0.909   0.446   2.715
 4995SOL     OW15883   6.641   2.903   5.898
 4995SOL    HW115884   6.730   2.935   5.866
 4995SOL    HW215885   6.654   2.833   5.968
 4996SOL     OW15886   1.357   0.821   2.967
 4996SOL    HW115887   1.396   0.755   2.903
 4996SOL    HW215888   1.258   0.814   2.966
 4997SOL     OW15889   6.495   1.481   3.215
 4997SOL    HW115890   6.549   1.482   3.131
 4997SOL    HW215891   6.432   1.404   3.214
 4998SOL     OW15892   2.330   3.748   5.264
 4998SOL    HW115893   2.328   3.841   5.227
 4998SOL    HW215894   2.278   3.687   5.205
 4999SOL     OW15895   5.458   5.142   1.277
 4999SOL    HW115896   5.456   5.085   1.195
 4999SOL    HW215897   5.454   5.084   1.358
 5000SOL     OW15898   2.161   6.864   4.145
 5000SOL    HW115899   2.113   6.795   4.091
 5000SOL    HW215900   2.259   6.847   4.142
 5001SOL     OW15901   1.580   4.779   6.990
 5001SOL    HW115902   1.578   4.679   6.989
 5001SOL    HW215903   1.636   4.810   0.045
 5002SOL     OW15904   1.579   3.497   2.933
 5002SOL    HW115905   1.664   3.546   2.951
 5002SOL    HW215906   1.535   3.535   2.851
 5003SOL     OW15907   2.226   6.527   2.807
 5003SOL    HW115908   2.243   6.437   2.846
 5003SOL    HW215909   2.218   6.520   2.707
 5004SOL     OW15910   2.997   5.065   5.776
 5004SOL    HW115911   2.982   5.144   5.835
 5004SOL    HW215912   3.068   5.087   5.709
 5005SOL     OW15913   3.555   2.223   0.967
 5005SOL    HW115914   3.639   2.269   0.941
 5005SOL    HW215915   3.484   2.290   0.987
 5006SOL     OW15916   4.640   6.409   6.691
 5006SOL    HW115917   4.584   6.443   6.616
 5006SOL    HW215918   4.592   6.334   6.737
 5007SOL     OW15919   2.115   0.154   6.705
 5007SOL    HW115920   2.147   0.061   6.719
 5007SOL    HW215921   2.049   0.156   6.630
 5008SOL     OW15922   6.359   0.568   3.309
 5008SOL    HW115923   6.429   0.581   3.380
 5008SOL    HW215924   6.269   0.587   3.348
 5009SOL     OW15925   1.882   6.403   1.777
 5009SOL    HW115926   1.970   6.417   1.823
 5009SOL    HW215927   1.898   6.388   1.679
 5010SOL     OW15928   3.638   2.980   2.942
 5010SOL    HW115929   3.626   2.941   2.851
 5010SOL    HW215930   3.729   3.021   2.949
 5011SOL     OW15931   1.814   3.566   2.546
 5011SOL    HW115932   1.723   3.553   2.507
 5011SOL    HW215933   1.883   3.532   2.483
 5012SOL     OW15934   4.929   3.483   5.947
 5012SOL    HW115935   4.973   3.524   6.027
 5012SOL    HW215936   4.845   3.532   5.927
 5013SOL     OW15937   5.305   1.749   0.481
 5013SOL    HW115938   5.292   1.847   0.489
 5013SOL    HW215939   5.217   1.702   0.489
 5014SOL     OW15940   5.279   4.469   0.527
 5014SOL    HW115941   5.359   4.516   0.562
 5014SOL    HW215942   5.213   4.537   0.494
 5015SOL     OW15943   4.732   2.098   4.375
 5015SOL    HW115944   4.637   2.128   4.387
 5015SOL    HW215945   4.740   2.047   4.290
 5016SOL     OW15946   2.951   1.899   0.868
 5016SOL    HW115947   2.927   1.802   0.872
 5016SOL    HW215948   2.948   1.938   0.960
 5017SOL     OW15949   1.803   2.548   6.612
 5017SOL    HW115950   1.846   2.467   6.650
 5017SOL    HW215951   1.723   2.522   6.558
 5018SOL     OW15952   0.889   4.452   1.470
 5018SOL    HW115953   0.793   4.425   1.471
 5018SOL    HW215954   0.916   4.484   1.562
 5019SOL     OW15955   1.923   4.657   6.618
 5019SOL    HW115956   1.941   4.569   6.661
 5019SOL    HW215957   1.847   4.702   6.664
 5020SOL     OW15958   4.765   6.692   5.916
 5020SOL    HW115959   4.716   6.742   5.987
 5020SOL    HW215960   4.852   6.659   5.951
 5021SOL     OW15961   1.558   1.933   5.872
 5021SOL    HW115962   1.651   1.898   5.859
 5021SOL    HW215963   1.512   1.880   5.943
 5022SOL     OW15964   2.098   0.326   0.143
 5022SOL    HW115965   2.055   0.257   0.085
 5022SOL    HW215966   2.131   0.283   0.227
 5023SOL     OW15967   6.316   2.631   1.318
 5023SOL    HW115968   6.283   2.690   1.244
 5023SOL    HW215969   6.341   2.541   1.280
 5024SOL     OW15970   6.469   4.361   3.168
 5024SOL    HW115971   6.392   4.359   3.105
 5024SOL    HW215972   6.503   4.455   3.176
 5025SOL     OW15973   4.048   2.249   1.884
 5025SOL    HW115974   4.033   2.292   1.795
 5025SOL    HW215975   4.022   2.153   1.880
 5026SOL     OW15976   5.759   6.021   6.349
 5026SOL    HW115977   5.822   6.019   6.427
 5026SOL    HW215978   5.715   5.932   6.339
 5027SOL     OW15979   0.189   6.989   2.466
 5027SOL    HW115980   0.159   6.899   2.495
 5027SOL    HW215981   0.190   6.993   2.366
 5028SOL     OW15982   0.359   6.714   3.267
 5028SOL    HW115983   0.304   6.786   3.224
 5028SOL    HW215984   0.300   6.641   3.298
 5029SOL     OW15985   6.513   3.678   3.623
 5029SOL    HW115986   6.470   3.710   3.708
 5029SOL    HW215987   6.549   3.585   3.638
 5030SOL     OW15988   6.994   0.398   6.697
 5030SOL    HW115989   7.003   0.390   6.796
 5030SOL    HW215990   0.033   0.470   6.664
 5031SOL     OW15991   5.421   0.878   4.748
 5031SOL    HW115992   5.397   0.783   4.730
 5031SOL    HW215993   5.509   0.882   4.795
 5032SOL     OW15994   1.494   4.137   1.475
 5032SOL    HW115995   1.420   4.073   1.495
 5032SOL    HW215996   1.581   4.088   1.471
 5033SOL     OW15997   1.589   4.735   6.328
 5033SOL    HW115998   1.602   4.671   6.404
 5033SOL    HW215999   1.678   4.768   6.297
 5034SOL     OW16000   6.613   2.674   2.933
 5034SOL    HW116001   6.620   2.666   2.834
 5034SOL    HW216002   6.661   2.598   2.976
 5035SOL     OW16003   6.227   4.329   0.790
 5035SOL    HW116004   6.257   4.330   0.695
 5035SOL    HW216005   6.278   4.259   0.840
 5036SOL     OW16006   7.021   4.645   0.318
 5036SOL    HW116007   0.087   4.598   0.319
 5036SOL    HW216008   6.950   4.582   0.286
 5037SOL     OW16009   4.715   2.371   2.537
 5037SOL    HW116010   4.657   2.332   2.466
 5037SOL    HW216011   4.699   2.324   2.624
 5038SOL     OW16012   1.618   5.082   5.456
 5038SOL    HW116013   1.558   5.158   5.433
 5038SOL    HW216014   1.631   5.023   5.376
 5039SOL     OW16015   1.987   3.849   5.645
 5039SOL    HW116016   1.955   3.929   5.595
 5039SOL    HW216017   2.053   3.799   5.588
 5040SOL     OW16018   1.885   4.461   6.336
 5040SOL    HW116019   1.846   4.485   6.248
 5040SOL    HW216020   1.979   4.430   6.323
 5041SOL     OW16021   1.563   3.370   1.368
 5041SOL    HW116022   1.472   3.387   1.330
 5041SOL    HW216023   1.633   3.407   1.306
 5042SOL     OW16024   6.811   2.926   0.029
 5042SOL    HW116025   6.898   2.961   0.063
 5042SOL    HW216026   6.737   2.960   0.087
 5043SOL     OW16027   2.899   1.382   5.874
 5043SOL    HW116028   2.902   1.328   5.958
 5043SOL    HW216029   2.896   1.479   5.896
 5044SOL     OW16030   6.074   6.778   2.487
 5044SOL    HW116031   6.075   6.712   2.563
 5044SOL    HW216032   5.981   6.786   2.451
 5045SOL     OW16033   5.263   3.010   0.172
 5045SOL    HW116034   5.265   2.933   0.108
 5045SOL    HW216035   5.231   3.092   0.123
 5046SOL     OW16036   3.320   4.122   5.074
 5046SOL    HW116037   3.343   4.202   5.129
 5046SOL    HW216038   3.342   4.140   4.978
 5047SOL     OW16039   6.962   2.491   2.361
 5047SOL    HW116040   6.924   2.494   2.268
 5047SOL    HW216041   6.976   2.396   2.388
 5048SOL     OW16042   6.542   1.384   0.963
 5048SOL    HW116043   6.577   1.312   1.023
 5048SOL    HW216044   6.521   1.465   1.017
 5049SOL     OW16045   6.633   1.322   4.303
 5049SOL    HW116046   6.697   1.395   4.326
 5049SOL    HW216047   6.596   1.339   4.212
 5050SOL     OW16048   1.135   1.233   1.897
 5050SOL    HW116049   1.070   1.308   1.888
 5050SOL    HW216050   1.228   1.269   1.898
 5051SOL     OW16051   4.599   3.621   0.457
 5051SOL    HW116052   4.538   3.563   0.403
 5051SOL    HW216053   4.583   3.604   0.555
 5052SOL     OW16054   2.323   5.265   5.975
 5052SOL    HW116055   2.397   5.198   5.978
 5052SOL    HW216056   2.244   5.230   6.025
 5053SOL     OW16057   1.705   3.903   3.465
 5053SOL    HW116058   1.733   3.807   3.460
 5053SOL    HW216059   1.622   3.916   3.411
 5054SOL     OW16060   3.687   5.629   5.364
 5054SOL    HW116061   3.727   5.552   5.414
 5054SOL    HW216062   3.692   5.612   5.266
 5055SOL     OW16063   0.644   1.043   5.222
 5055SOL    HW116064   0.680   1.135   5.206
 5055SOL    HW216065   0.566   1.049   5.285
 5056SOL     OW16066   6.247   4.026   0.574
 5056SOL    HW116067   6.288   3.974   0.500
 5056SOL    HW216068   6.254   4.124   0.554
 5057SOL     OW16069   1.078   5.665   3.674
 5057SOL    HW116070   1.131   5.640   3.755
 5057SOL    HW216071   0.982   5.642   3.689
 5058SOL     OW16072   2.478   4.179   6.425
 5058SOL    HW116073   2.506   4.187   6.329
 5058SOL    HW216074   2.499   4.087   6.458
 5059SOL     OW16075   5.472   3.608   3.987
 5059SOL    HW116076   5.504   3.684   3.930
 5059SOL    HW216077   5.391   3.636   4.039
 5060SOL     OW16078   0.082   2.663   5.208
 5060SOL    HW116079   0.182   2.663   5.208
 5060SOL    HW216080   0.049   2.599   5.138
 5061SOL     OW16081   3.226   3.027   3.937
 5061SOL    HW116082   3.128   3.017   3.920
 5061SOL    HW216083   3.270   3.065   3.857
 5062SOL     OW16084   5.077   1.031   2.777
 5062SOL    HW116085   5.102   0.972   2.700
 5062SOL    HW216086   5.123   1.119   2.768
 5063SOL     OW16087   1.253   6.034   1.867
 5063SOL    HW116088   1.245   6.126   1.906
 5063SOL    HW216089   1.305   6.037   1.782
 5064SOL     OW16090   4.974   4.768   1.418
 5064SOL    HW116091   5.030   4.740   1.496
 5064SOL    HW216092   5.023   4.838   1.366
 5065SOL     OW16093   1.250   1.861   2.888
 5065SOL    HW116094   1.241   1.918   2.969
 5065SOL    HW216095   1.267   1.766   2.914
 5066SOL     OW16096   3.082   4.027   1.897
 5066SOL    HW116097   3.093   4.112   1.847
 5066SOL    HW216098   3.165   4.007   1.948
 5067SOL     OW16099   3.646   1.059   2.674
 5067SOL    HW116100   3.586   1.055   2.754
 5067SOL    HW216101   3.633   0.976   2.618
 5068SOL     OW16102   3.310   4.932   0.165
 5068SOL    HW116103   3.258   4.860   0.118
 5068SOL    HW216104   3.399   4.896   0.192
 5069SOL     OW16105   1.682   2.803   6.117
 5069SOL    HW116106   1.744   2.732   6.082
 5069SOL    HW216107   1.626   2.764   6.190
 5070SOL     OW16108   5.172   4.821   5.237
 5070SOL    HW116109   5.266   4.849   5.257
 5070SOL    HW216110   5.148   4.851   5.144
 5071SOL     OW16111   3.962   2.126   3.848
 5071SOL    HW116112   3.999   2.153   3.937
 5071SOL    HW216113   3.865   2.104   3.857
 5072SOL     OW16114   1.589   1.249   1.510
 5072SOL    HW116115   1.622   1.221   1.600
 5072SOL    HW216116   1.501   1.296   1.519
 5073SOL     OW16117   1.926   5.206   1.175
 5073SOL    HW116118   1.940   5.130   1.238
 5073SOL    HW216119   1.997   5.275   1.188
 5074SOL     OW16120   3.854   2.126   2.085
 5074SOL    HW116121   3.920   2.182   2.036
 5074SOL    HW216122   3.763   2.139   2.044
 5075SOL     OW16123   0.891   1.810   6.808
 5075SOL    HW116124   0.863   1.733   6.866
 5075SOL    HW216125   0.923   1.884   6.866
 5076SOL     OW16126   5.544   0.072   0.703
 5076SOL    HW116127   5.632   0.097   0.662
 5076SOL    HW216128   5.500   0.155   0.739
 5077SOL     OW16129   0.568   3.962   6.450
 5077SOL    HW116130   0.504   3.889   6.475
 5077SOL    HW216131   0.554   3.987   6.354
 5078SOL     OW16132   0.346   1.458   3.865
 5078SOL    HW116133   0.262   1.434   3.913
 5078SOL    HW216134   0.347   1.414   3.775
 5079SOL     OW16135   2.447   2.755   5.223
 5079SOL    HW116136   2.442   2.854   5.217
 5079SOL    HW216137   2.428   2.715   5.133
 5080SOL     OW16138   6.074   5.795   5.625
 5080SOL    HW116139   6.000   5.743   5.583
 5080SOL    HW216140   6.160   5.745   5.613
 5081SOL     OW16141   2.864   4.515   6.275
 5081SOL    HW116142   2.903   4.535   6.365
 5081SOL    HW216143   2.927   4.457   6.223
 5082SOL     OW16144   5.027   0.400   0.506
 5082SOL    HW116145   5.003   0.480   0.560
 5082SOL    HW216146   4.968   0.323   0.533
 5083SOL     OW16147   2.840   0.372   2.134
 5083SOL    HW116148   2.865   0.465   2.163
 5083SOL    HW216149   2.897   0.306   2.182
 5084SOL     OW16150   1.091   5.030   3.731
 5084SOL    HW116151   1.134   5.097   3.670
 5084SOL    HW216152   0.994   5.052   3.742
 5085SOL     OW16153   6.834   2.520   5.596
 5085SOL    HW116154   6.762   2.552   5.658
 5085SOL    HW216155   6.855   2.591   5.530
 5086SOL     OW16156   1.277   4.691   2.884
 5086SOL    HW116157   1.178   4.687   2.869
 5086SOL    HW216158   1.301   4.633   2.962
 5087SOL     OW16159   0.174   5.313   1.543
 5087SOL    HW116160   0.168   5.314   1.443
 5087SOL    HW216161   0.107   5.378   1.580
 5088SOL     OW16162   5.175   0.017   3.417
 5088SOL    HW116163   5.264   0.063   3.420
 5088SOL    HW216164   5.179   6.964   3.351
 5089SOL     OW16165   6.143   4.542   4.337
 5089SOL    HW116166   6.179   4.635   4.326
 5089SOL    HW216167   6.206   4.489   4.394
 5090SOL     OW16168   1.773   1.599   2.554
 5090SOL    HW116169   1.742   1.686   2.594
 5090SOL    HW216170   1.869   1.607   2.528
 5091SOL     OW16171   6.598   0.928   1.883
 5091SOL    HW116172   6.621   1.015   1.839
 5091SOL    HW216173   6.614   0.853   1.818
 5092SOL     OW16174   3.743   3.302   3.669
 5092SOL    HW116175   3.777   3.280   3.578
 5092SOL    HW216176   3.773   3.232   3.734
 5093SOL     OW16177   3.625   1.416   0.812
 5093SOL    HW116178   3.536   1.448   0.779
 5093SOL    HW216179   3.697   1.448   0.751
 5094SOL     OW16180   2.444   5.906   6.067
 5094SOL    HW116181   2.516   5.887   6.134
 5094SOL    HW216182   2.414   5.819   6.027
 5095SOL     OW16183   0.059   2.531   3.087
 5095SOL    HW116184   0.008   2.615   3.069
 5095SOL    HW216185   7.021   2.465   3.133
 5096SOL     OW16186   4.506   5.115   6.842
 5096SOL    HW116187   4.601   5.116   6.811
 5096SOL    HW216188   4.471   5.208   6.848
 5097SOL     OW16189   0.520   6.660   6.941
 5097SOL    HW116190   0.550   6.682   0.011
 5097SOL    HW216191   0.446   6.722   6.914
 5098SOL     OW16192   2.599   1.280   2.181
 5098SOL    HW116193   2.664   1.353   2.158
 5098SOL    HW216194   2.600   1.264   2.279
 5099SOL     OW16195   0.383   6.666   1.526
 5099SOL    HW116196   0.334   6.595   1.476
 5099SOL    HW216197   0.318   6.723   1.576
 5100SOL     OW16198   3.537   5.365   4.717
 5100SOL    HW116199   3.487   5.303   4.777
 5100SOL    HW216200   3.570   5.315   4.637
 5101SOL     OW16201   4.413   0.205   5.790
 5101SOL    HW116202   4.411   0.150   5.707
 5101SOL    HW216203   4.327   0.257   5.797
 5102SOL     OW16204   5.255   6.861   4.206
 5102SOL    HW116205   5.339   6.914   4.218
 5102SOL    HW216206   5.236   6.808   4.289
 5103SOL     OW16207   6.996   1.381   3.934
 5103SOL    HW116208   6.915   1.348   3.983
 5103SOL    HW216209   0.023   1.446   3.991
 5104SOL     OW16210   2.279   0.096   1.710
 5104SOL    HW116211   2.287   0.164   1.637
 5104SOL    HW216212   2.270   0.143   1.798
 5105SOL     OW16213   3.578   2.948   0.272
 5105SOL    HW116214   3.520   2.880   0.227
 5105SOL    HW216215   3.528   2.991   0.347
 5106SOL     OW16216   4.594   1.487   1.127
 5106SOL    HW116217   4.516   1.434   1.160
 5106SOL    HW216218   4.673   1.470   1.185
 5107SOL     OW16219   4.715   2.667   1.441
 5107SOL    HW116220   4.749   2.573   1.432
 5107SOL    HW216221   4.740   2.719   1.360
 5108SOL     OW16222   4.092   3.738   5.153
 5108SOL    HW116223   4.041   3.731   5.068
 5108SOL    HW216224   4.183   3.698   5.141
 5109SOL     OW16225   0.936   1.995   0.050
 5109SOL    HW116226   0.864   1.926   0.061
 5109SOL    HW216227   0.914   2.075   0.107
 5110SOL     OW16228   0.310   0.366   6.230
 5110SOL    HW116229   0.362   0.294   6.276
 5110SOL    HW216230   0.345   0.378   6.137
 5111SOL     OW16231   1.682   0.914   4.302
 5111SOL    HW116232   1.692   0.990   4.367
 5111SOL    HW216233   1.750   0.924   4.230
 5112SOL     OW16234   0.848   0.270   3.003
 5112SOL    HW116235   0.840   0.259   3.102
 5112SOL    HW216236   0.910   0.346   2.983
 5113SOL     OW16237   1.907   5.565   1.477
 5113SOL    HW116238   1.913   5.662   1.452
 5113SOL    HW216239   1.843   5.554   1.552
 5114SOL     OW16240   4.177   0.321   6.304
 5114SOL    HW116241   4.259   0.312   6.247
 5114SOL    HW216242   4.122   0.237   6.298
 5115SOL     OW16243   1.453   5.602   3.401
 5115SOL    HW116244   1.545   5.620   3.366
 5115SOL    HW216245   1.406   5.688   3.418
 5116SOL     OW16246   1.230   6.348   0.569
 5116SOL    HW116247   1.276   6.380   0.651
 5116SOL    HW216248   1.287   6.279   0.523
 5117SOL     OW16249   1.546   3.996   4.141
 5117SOL    HW116250   1.511   3.920   4.195
 5117SOL    HW216251   1.532   4.081   4.190
 5118SOL     OW16252   5.384   0.867   6.842
 5118SOL    HW116253   5.433   0.939   6.892
 5118SOL    HW216254   5.287   0.891   6.836
 5119SOL     OW16255   4.337   0.810   2.644
 5119SOL    HW116256   4.321   0.743   2.716
 5119SOL    HW216257   4.322   0.902   2.681
 5120SOL     OW16258   4.006   6.823   4.595
 5120SOL    HW116259   3.927   6.845   4.537
 5120SOL    HW216260   3.989   6.855   4.688
 5121SOL     OW16261   3.885   2.900   6.754
 5121SOL    HW116262   3.805   2.855   6.794
 5121SOL    HW216263   3.859   2.991   6.721
 5122SOL     OW16264   3.666   5.962   3.305
 5122SOL    HW116265   3.585   5.918   3.345
 5122SOL    HW216266   3.659   5.960   3.205
 5123SOL     OW16267   5.071   1.902   4.384
 5123SOL    HW116268   5.054   1.954   4.300
 5123SOL    HW216269   5.141   1.948   4.438
 5124SOL     OW16270   1.580   5.893   4.980
 5124SOL    HW116271   1.644   5.830   5.025
 5124SOL    HW216272   1.591   5.885   4.881
 5125SOL     OW16273   6.375   3.062   3.565
 5125SOL    HW116274   6.285   3.102   3.578
 5125SOL    HW216275   6.414   3.039   3.654
 5126SOL     OW16276   6.690   5.918   6.725
 5126SOL    HW116277   6.594   5.908   6.752
 5126SOL    HW216278   6.749   5.898   6.803
 5127SOL     OW16279   0.159   3.959   0.279
 5127SOL    HW116280   0.063   3.988   0.285
 5127SOL    HW216281   0.218   4.038   0.296
 5128SOL     OW16282   0.447   0.061   6.797
 5128SOL    HW116283   0.515   0.095   6.732
 5128SOL    HW216284   0.405   7.000   6.760
 5129SOL     OW16285   6.596   6.495   2.824
 5129SOL    HW116286   6.548   6.561   2.766
 5129SOL    HW216287   6.598   6.528   2.918
 5130SOL     OW16288   7.015   5.170   3.448
 5130SOL    HW116289   7.002   5.190   3.545
 5130SOL    HW216290   6.977   5.244   3.393
 5131SOL     OW16291   2.228   4.532   4.082
 5131SOL    HW116292   2.240   4.476   4.165
 5131SOL    HW216293   2.141   4.510   4.039
 5132SOL     OW16294   4.084   2.912   6.296
 5132SOL    HW116295   4.088   2.906   6.196
 5132SOL    HW216296   4.005   2.860   6.329
 5133SOL     OW16297   1.760   5.095   0.049
 5133SOL    HW116298   1.824   5.165   0.081
 5133SOL    HW216299   1.718   5.125   6.987
 5134SOL     OW16300   0.146   3.234   1.987
 5134SOL    HW116301   0.227   3.198   1.941
 5134SOL    HW216302   0.065   3.214   1.931
 5135SOL     OW16303   5.968   2.477   5.213
 5135SOL    HW116304   5.907   2.439   5.144
 5135SOL    HW216305   5.957   2.577   5.217
 5136SOL     OW16306   4.188   0.973   6.327
 5136SOL    HW116307   4.114   1.031   6.293
 5136SOL    HW216308   4.274   1.003   6.286
 5137SOL     OW16309   5.474   3.824   5.894
 5137SOL    HW116310   5.494   3.803   5.799
 5137SOL    HW216311   5.535   3.772   5.954
 5138SOL     OW16312   3.190   2.801   5.740
 5138SOL    HW116313   3.257   2.742   5.785
 5138SOL    HW216314   3.213   2.897   5.757
 5139SOL     OW16315   2.369   0.304   3.031
 5139SOL    HW116316   2.426   0.284   2.951
 5139SOL    HW216317   2.346   0.218   3.077
 5140SOL     OW16318   4.018   2.271   0.227
 5140SOL    HW116319   4.080   2.196   0.204
 5140SOL    HW216320   3.928   2.254   0.187
 5141SOL     OW16321   6.487   3.668   0.247
 5141SOL    HW116322   6.398   3.658   0.201
 5141SOL    HW216323   6.553   3.608   0.202
 5142SOL     OW16324   6.423   0.340   4.259
 5142SOL    HW116325   6.444   0.242   4.264
 5142SOL    HW216326   6.324   0.354   4.262
 5143SOL     OW16327   0.038   4.303   4.216
 5143SOL    HW116328   6.980   4.328   4.162
 5143SOL    HW216329   0.040   4.356   4.300
 5144SOL     OW16330   1.145   4.762   5.882
 5144SOL    HW116331   1.156   4.704   5.962
 5144SOL    HW216332   1.156   4.858   5.908
 5145SOL     OW16333   2.266   5.051   5.543
 5145SOL    HW116334   2.247   5.029   5.447
 5145SOL    HW216335   2.329   4.983   5.581
 5146SOL     OW16336   3.833   4.229   5.114
 5146SOL    HW116337   3.787   4.153   5.068
 5146SOL    HW216338   3.883   4.284   5.047
 5147SOL     OW16339   6.432   4.743   2.951
 5147SOL    HW116340   6.341   4.783   2.956
 5147SOL    HW216341   6.483   4.787   2.876
 5148SOL     OW16342   0.674   6.386   1.208
 5148SOL    HW116343   0.582   6.420   1.191
 5148SOL    HW216344   0.707   6.419   1.297
 5149SOL     OW16345   6.502   5.899   3.397
 5149SOL    HW116346   6.456   5.934   3.479
 5149SOL    HW216347   6.478   5.956   3.318
 5150SOL     OW16348   2.106   4.897   2.195
 5150SOL    HW116349   2.078   4.865   2.104
 5150SOL    HW216350   2.047   4.854   2.264
 5151SOL     OW16351   5.486   2.357   0.929
 5151SOL    HW116352   5.577   2.372   0.889
 5151SOL    HW216353   5.425   2.430   0.901
 5152SOL     OW16354   2.089   5.161   6.946
 5152SOL    HW116355   2.022   5.206   7.004
 5152SOL    HW216356   2.135   5.089   6.998
 5153SOL     OW16357   2.319   0.378   0.002
 5153SOL    HW116358   2.281   0.396   6.934
 5153SOL    HW216359   2.246   0.348   0.064
 5154SOL     OW16360   0.856   3.488   6.228
 5154SOL    HW116361   0.920   3.503   6.303
 5154SOL    HW216362   0.791   3.563   6.223
 5155SOL     OW16363   4.416   6.574   2.162
 5155SOL    HW116364   4.398   6.495   2.103
 5155SOL    HW216365   4.332   6.626   2.176
 5156SOL     OW16366   6.472   3.309   6.055
 5156SOL    HW116367   6.447   3.243   6.126
 5156SOL    HW216368   6.389   3.351   6.019
 5157SOL     OW16369   4.504   1.724   3.659
 5157SOL    HW116370   4.408   1.751   3.662
 5157SOL    HW216371   4.513   1.633   3.621
 5158SOL     OW16372   3.718   0.926   1.942
 5158SOL    HW116373   3.702   1.004   2.003
 5158SOL    HW216374   3.815   0.905   1.938
 5159SOL     OW16375   0.123   3.520   3.725
 5159SOL    HW116376   0.062   3.482   3.655
 5159SOL    HW216377   0.101   3.617   3.739
 5160SOL     OW16378   0.009   4.415   3.521
 5160SOL    HW116379   0.007   4.318   3.547
 5160SOL    HW216380   6.941   4.443   3.490
 5161SOL     OW16381   1.412   3.991   4.970
 5161SOL    HW116382   1.497   4.043   4.959
 5161SOL    HW216383   1.372   4.010   5.060
 5162SOL     OW16384   1.076   5.710   3.173
 5162SOL    HW116385   1.116   5.799   3.151
 5162SOL    HW216386   1.073   5.653   3.091
 5163SOL     OW16387   3.969   6.202   0.458
 5163SOL    HW116388   4.063   6.234   0.454
 5163SOL    HW216389   3.925   6.218   0.369
 5164SOL     OW16390   4.445   2.418   6.519
 5164SOL    HW116391   4.354   2.412   6.476
 5164SOL    HW216392   4.448   2.498   6.578
 5165SOL     OW16393   5.753   4.560   5.617
 5165SOL    HW116394   5.808   4.580   5.697
 5165SOL    HW216395   5.803   4.498   5.556
 5166SOL     OW16396   0.303   5.557   3.163
 5166SOL    HW116397   0.339   5.557   3.070
 5166SOL    HW216398   0.223   5.617   3.168
 5167SOL     OW16399   6.527   5.882   5.916
 5167SOL    HW116400   6.487   5.945   5.849
 5167SOL    HW216401   6.548   5.932   6.000
 5168SOL     OW16402   5.065   3.699   2.941
 5168SOL    HW116403   5.008   3.757   2.883
 5168SOL    HW216404   5.043   3.603   2.923
 5169SOL     OW16405   4.227   1.663   4.974
 5169SOL    HW116406   4.230   1.588   5.039
 5169SOL    HW216407   4.319   1.694   4.952
 5170SOL     OW16408   0.330   4.404   5.087
 5170SOL    HW116409   0.408   4.423   5.147
 5170SOL    HW216410   0.263   4.348   5.135
 5171SOL     OW16411   1.373   5.775   3.987
 5171SOL    HW116412   1.441   5.838   4.025
 5171SOL    HW216413   1.393   5.760   3.890
 5172SOL     OW16414   0.061   2.379   2.652
 5172SOL    HW116415   0.061   2.461   2.595
 5172SOL    HW216416   0.129   2.314   2.617
 5173SOL     OW16417   5.500   5.160   6.322
 5173SOL    HW116418   5.495   5.257   6.299
 5173SOL    HW216419   5.529   5.149   6.417
 5174SOL     OW16420   2.608   4.564   3.039
 5174SOL    HW116421   2.552   4.518   2.970
 5174SOL    HW216422   2.634   4.498   3.110
 5175SOL     OW16423   2.149   3.667   6.824
 5175SOL    HW116424   2.217   3.723   6.872
 5175SOL    HW216425   2.153   3.573   6.859
 5176SOL     OW16426   4.496   3.241   6.317
 5176SOL    HW116427   4.450   3.157   6.288
 5176SOL    HW216428   4.429   3.315   6.323
 5177SOL     OW16429   5.005   0.097   0.051
 5177SOL    HW116430   5.073   0.170   0.045
 5177SOL    HW216431   4.978   0.084   0.146
 5178SOL     OW16432   1.438   3.627   1.242
 5178SOL    HW116433   1.469   3.679   1.162
 5178SOL    HW216434   1.444   3.686   1.323
 5179SOL     OW16435   4.247   6.087   4.526
 5179SOL    HW116436   4.309   6.101   4.603
 5179SOL    HW216437   4.159   6.053   4.560
 5180SOL     OW16438   3.349   2.901   0.438
 5180SOL    HW116439   3.290   2.981   0.429
 5180SOL    HW216440   3.342   2.845   0.356
 5181SOL     OW16441   5.237   1.975   2.125
 5181SOL    HW116442   5.146   2.003   2.094
 5181SOL    HW216443   5.302   2.047   2.105
 5182SOL     OW16444   4.049   4.610   1.820
 5182SOL    HW116445   3.971   4.670   1.804
 5182SOL    HW216446   4.083   4.624   1.913
 5183SOL     OW16447   4.255   1.780   2.541
 5183SOL    HW116448   4.205   1.770   2.627
 5183SOL    HW216449   4.194   1.761   2.464
 5184SOL     OW16450   0.775   2.492   4.421
 5184SOL    HW116451   0.808   2.543   4.501
 5184SOL    HW216452   0.726   2.555   4.360
 5185SOL     OW16453   5.205   0.846   2.224
 5185SOL    HW116454   5.181   0.762   2.272
 5185SOL    HW216455   5.232   0.916   2.290
 5186SOL     OW16456   6.052   2.841   0.574
 5186SOL    HW116457   5.977   2.889   0.621
 5186SOL    HW216458   6.139   2.866   0.617
 5187SOL     OW16459   0.362   0.181   3.883
 5187SOL    HW116460   0.332   0.222   3.969
 5187SOL    HW216461   0.462   0.190   3.875
 5188SOL     OW16462   0.514   5.656   0.349
 5188SOL    HW116463   0.560   5.699   0.272
 5188SOL    HW216464   0.516   5.717   0.428
 5189SOL     OW16465   4.922   4.980   0.867
 5189SOL    HW116466   4.962   5.026   0.946
 5189SOL    HW216467   4.960   4.888   0.860
 5190SOL     OW16468   0.207   3.035   4.192
 5190SOL    HW116469   0.108   3.020   4.189
 5190SOL    HW216470   0.235   3.087   4.112
 5191SOL     OW16471   3.938   0.325   1.748
 5191SOL    HW116472   4.006   0.252   1.748
 5191SOL    HW216473   3.851   0.288   1.782
 5192SOL     OW16474   2.823   5.634   3.207
 5192SOL    HW116475   2.779   5.559   3.156
 5192SOL    HW216476   2.916   5.648   3.171
 5193SOL     OW16477   5.447   4.191   4.635
 5193SOL    HW116478   5.458   4.103   4.682
 5193SOL    HW216479   5.487   4.184   4.543
 5194SOL     OW16480   3.649   0.859   0.109
 5194SOL    HW116481   3.612   0.947   0.078
 5194SOL    HW216482   3.733   0.874   0.161
 5195SOL     OW16483   6.623   5.926   4.084
 5195SOL    HW116484   6.704   5.868   4.079
 5195SOL    HW216485   6.635   6.006   4.026
 5196SOL     OW16486   1.845   4.208   0.666
 5196SOL    HW116487   1.775   4.263   0.620
 5196SOL    HW216488   1.933   4.224   0.622
 5197SOL     OW16489   2.118   5.453   4.794
 5197SOL    HW116490   2.059   5.400   4.855
 5197SOL    HW216491   2.175   5.515   4.848
 5198SOL     OW16492   4.316   6.761   3.327
 5198SOL    HW116493   4.293   6.690   3.393
 5198SOL    HW216494   4.398   6.735   3.276
 5199SOL     OW16495   1.527   6.407   6.842
 5199SOL    HW116496   1.496   6.333   6.783
 5199SOL    HW216497   1.459   6.423   6.914
 5200SOL     OW16498   1.564   1.932   5.345
 5200SOL    HW116499   1.487   1.869   5.354
 5200SOL    HW216500   1.619   1.929   5.429
 5201SOL     OW16501   6.161   6.394   4.360
 5201SOL    HW116502   6.220   6.341   4.300
 5201SOL    HW216503   6.068   6.396   4.323
 5202SOL     OW16504   5.601   4.754   6.220
 5202SOL    HW116505   5.502   4.742   6.210
 5202SOL    HW216506   5.624   4.851   6.210
 5203SOL     OW16507   2.121   0.618   6.993
 5203SOL    HW116508   2.136   0.525   6.960
 5203SOL    HW216509   2.053   0.663   6.936
 5204SOL     OW16510   4.053   6.350   6.872
 5204SOL    HW116511   4.127   6.380   6.813
 5204SOL    HW216512   4.025   6.258   6.844
 5205SOL     OW16513   6.690   6.099   0.043
 5205SOL    HW116514   6.744   6.134   0.119
 5205SOL    HW216515   6.654   6.175   7.012
 5206SOL     OW16516   0.257   4.787   6.570
 5206SOL    HW116517   0.285   4.699   6.609
 5206SOL    HW216518   0.333   4.825   6.517
 5207SOL     OW16519   1.197   6.772   3.781
 5207SOL    HW116520   1.168   6.778   3.876
 5207SOL    HW216521   1.272   6.706   3.772
 5208SOL     OW16522   4.753   2.395   6.782
 5208SOL    HW116523   4.732   2.493   6.776
 5208SOL    HW216524   4.727   2.362   6.873
 5209SOL     OW16525   5.605   0.496   1.534
 5209SOL    HW116526   5.702   0.477   1.515
 5209SOL    HW216527   5.590   0.500   1.633
 5210SOL     OW16528   4.562   3.329   0.451
 5210SOL    HW116529   4.529   3.386   0.526
 5210SOL    HW216530   4.512   3.242   0.451
 5211SOL     OW16531   4.489   1.954   5.050
 5211SOL    HW116532   4.553   2.001   5.111
 5211SOL    HW216533   4.423   2.019   5.013
 5212SOL     OW16534   1.582   3.641   0.961
 5212SOL    HW116535   1.577   3.737   0.934
 5212SOL    HW216536   1.529   3.586   0.896
 5213SOL     OW16537   4.162   3.284   0.885
 5213SOL    HW116538   4.136   3.301   0.790
 5213SOL    HW216539   4.154   3.369   0.937
 5214SOL     OW16540   5.661   2.739   6.187
 5214SOL    HW116541   5.716   2.811   6.145
 5214SOL    HW216542   5.564   2.760   6.177
 5215SOL     OW16543   1.063   4.636   4.198
 5215SOL    HW116544   1.048   4.733   4.214
 5215SOL    HW216545   1.155   4.621   4.163
 5216SOL     OW16546   4.776   5.032   1.456
 5216SOL    HW116547   4.801   4.986   1.541
 5216SOL    HW216548   4.832   4.996   1.381
 5217SOL     OW16549   3.518   5.834   4.063
 5217SOL    HW116550   3.494   5.770   3.990
 5217SOL    HW216551   3.556   5.917   4.023
 5218SOL     OW16552   0.874   1.283   1.243
 5218SOL    HW116553   0.913   1.196   1.214
 5218SOL    HW216554   0.830   1.327   1.165
 5219SOL     OW16555   3.566   1.623   4.881
 5219SOL    HW116556   3.625   1.673   4.944
 5219SOL    HW216557   3.574   1.662   4.789
 5220SOL     OW16558   1.199   5.634   2.918
 5220SOL    HW116559   1.202   5.720   2.867
 5220SOL    HW216560   1.160   5.562   2.860
 5221SOL     OW16561   6.531   0.733   3.104
 5221SOL    HW116562   6.521   0.690   3.014
 5221SOL    HW216563   6.487   0.676   3.174
 5222SOL     OW16564   3.852   6.687   1.807
 5222SOL    HW116565   3.890   6.623   1.873
 5222SOL    HW216566   3.927   6.725   1.752
 5223SOL     OW16567   0.014   2.585   0.103
 5223SOL    HW116568   0.035   2.673   0.147
 5223SOL    HW216569   6.938   2.579   0.087
 5224SOL     OW16570   6.527   3.008   4.466
 5224SOL    HW116571   6.433   3.000   4.499
 5224SOL    HW216572   6.528   3.053   4.377
 5225SOL     OW16573   6.503   1.132   3.747
 5225SOL    HW116574   6.574   1.192   3.710
 5225SOL    HW216575   6.538   1.086   3.828
 5226SOL     OW16576   0.485   6.783   4.421
 5226SOL    HW116577   0.474   6.880   4.396
 5226SOL    HW216578   0.582   6.763   4.434
 5227SOL     OW16579   0.439   3.986   5.894
 5227SOL    HW116580   0.533   4.012   5.873
 5227SOL    HW216581   0.420   3.895   5.856
 5228SOL     OW16582   0.639   2.048   7.005
 5228SOL    HW116583   0.670   1.964   0.028
 5228SOL    HW216584   0.628   2.032   6.907
 5229SOL     OW16585   3.219   6.737   0.428
 5229SOL    HW116586   3.202   6.641   0.450
 5229SOL    HW216587   3.243   6.745   0.331
 5230SOL     OW16588   6.713   6.153   1.998
 5230SOL    HW116589   6.642   6.082   1.993
 5230SOL    HW216590   6.723   6.197   1.909
 5231SOL     OW16591   4.596   2.522   3.606
 5231SOL    HW116592   4.512   2.479   3.638
 5231SOL    HW216593   4.658   2.453   3.570
 5232SOL     OW16594   1.053   3.867   6.076
 5232SOL    HW116595   1.098   3.788   6.117
 5232SOL    HW216596   0.998   3.838   5.998
 5233SOL     OW16597   3.528   1.348   2.714
 5233SOL    HW116598   3.562   1.258   2.686
 5233SOL    HW216599   3.586   1.420   2.674
 5234SOL     OW16600   2.714   2.436   5.987
 5234SOL    HW116601   2.631   2.453   5.935
 5234SOL    HW216602   2.779   2.385   5.929
 5235SOL     OW16603   1.577   2.137   0.804
 5235SOL    HW116604   1.585   2.108   0.709
 5235SOL    HW216605   1.517   2.073   0.853
 5236SOL     OW16606   3.809   5.781   2.128
 5236SOL    HW116607   3.838   5.844   2.056
 5236SOL    HW216608   3.843   5.814   2.216
 5237SOL     OW16609   1.203   0.538   4.742
 5237SOL    HW116610   1.118   0.575   4.705
 5237SOL    HW216611   1.210   0.561   4.839
 5238SOL     OW16612   0.671   5.380   0.099
 5238SOL    HW116613   0.710   5.304   0.046
 5238SOL    HW216614   0.573   5.387   0.079
 5239SOL     OW16615   3.903   2.570   6.495
 5239SOL    HW116616   3.945   2.589   6.583
 5239SOL    HW216617   3.803   2.571   6.504
 5240SOL     OW16618   3.244   2.142   5.316
 5240SOL    HW116619   3.307   2.088   5.261
 5240SOL    HW216620   3.189   2.201   5.257
 5241SOL     OW16621   0.412   6.087   3.915
 5241SOL    HW116622   0.348   6.163   3.931
 5241SOL    HW216623   0.495   6.122   3.871
 5242SOL     OW16624   6.418   6.871   1.009
 5242SOL    HW116625   6.362   6.949   1.035
 5242SOL    HW216626   6.365   6.809   0.951
 5243SOL     OW16627   2.030   5.685   1.827
 5243SOL    HW116628   2.096   5.732   1.767
 5243SOL    HW216629   1.988   5.752   1.888
 5244SOL     OW16630   3.629   4.398   6.421
 5244SOL    HW116631   3.536   4.430   6.405
 5244SOL    HW216632   3.682   4.472   6.464
 5245SOL     OW16633   3.685   4.343   0.235
 5245SOL    HW116634   3.652   4.255   0.202
 5245SOL    HW216635   3.695   4.340   0.335
 5246SOL     OW16636   6.490   2.958   1.531
 5246SOL    HW116637   6.415   2.959   1.464
 5246SOL    HW216638   6.498   3.048   1.574
 5247SOL     OW16639   2.577   6.988   6.365
 5247SOL    HW116640   2.577   0.037   6.435
 5247SOL    HW216641   2.636   6.913   6.394
 5248SOL     OW16642   6.442   1.760   3.195
 5248SOL    HW116643   6.452   1.660   3.197
 5248SOL    HW216644   6.532   1.802   3.199
 5249SOL     OW16645   0.758   5.641   6.225
 5249SOL    HW116646   0.821   5.565   6.241
 5249SOL    HW216647   0.808   5.727   6.231
 5250SOL     OW16648   1.782   5.968   6.828
 5250SOL    HW116649   1.731   5.939   6.746
 5250SOL    HW216650   1.718   5.984   6.903
 5251SOL     OW16651   0.947   3.131   6.795
 5251SOL    HW116652   0.851   3.150   6.779
 5251SOL    HW216653   1.001   3.212   6.773
 5252SOL     OW16654   2.961   6.656   0.889
 5252SOL    HW116655   3.001   6.669   0.798
 5252SOL    HW216656   2.907   6.736   0.913
 5253SOL     OW16657   0.140   3.779   4.822
 5253SOL    HW116658   0.161   3.681   4.827
 5253SOL    HW216659   0.085   3.797   4.740
 5254SOL     OW16660   4.539   0.826   3.081
 5254SOL    HW116661   4.558   0.877   2.997
 5254SOL    HW216662   4.621   0.776   3.109
 5255SOL     OW16663   5.514   2.423   5.085
 5255SOL    HW116664   5.414   2.429   5.091
 5255SOL    HW216665   5.556   2.496   5.139
 5256SOL     OW16666   5.336   1.767   3.925
 5256SOL    HW116667   5.303   1.713   4.001
 5256SOL    HW216668   5.292   1.857   3.926
 5257SOL     OW16669   5.498   6.945   1.401
 5257SOL    HW116670   5.495   6.929   1.302
 5257SOL    HW216671   5.562   7.019   1.421
 5258SOL     OW16672   5.630   3.292   1.900
 5258SOL    HW116673   5.657   3.245   1.984
 5258SOL    HW216674   5.556   3.240   1.856
 5259SOL     OW16675   4.874   6.348   2.523
 5259SOL    HW116676   4.876   6.440   2.484
 5259SOL    HW216677   4.954   6.296   2.492
 5260SOL     OW16678   4.877   3.362   0.792
 5260SOL    HW116679   4.836   3.309   0.718
 5260SOL    HW216680   4.958   3.410   0.757
 5261SOL     OW16681   6.957   4.320   5.818
 5261SOL    HW116682   6.901   4.279   5.890
 5261SOL    HW216683   6.898   4.359   5.748
 5262SOL     OW16684   2.310   1.351   4.110
 5262SOL    HW116685   2.405   1.323   4.128
 5262SOL    HW216686   2.274   1.299   4.033
 5263SOL     OW16687   1.654   1.179   3.196
 5263SOL    HW116688   1.619   1.096   3.153
 5263SOL    HW216689   1.580   1.228   3.242
 5264SOL     OW16690   6.560   2.180   2.293
 5264SOL    HW116691   6.618   2.228   2.358
 5264SOL    HW216692   6.610   2.102   2.255
 5265SOL     OW16693   6.178   3.795   3.850
 5265SOL    HW116694   6.224   3.778   3.762
 5265SOL    HW216695   6.174   3.710   3.902
 5266SOL     OW16696   3.612   5.063   6.796
 5266SOL    HW116697   3.618   5.045   6.698
 5266SOL    HW216698   3.644   4.983   6.847
 5267SOL     OW16699   5.226   2.395   5.103
 5267SOL    HW116700   5.207   2.472   5.164
 5267SOL    HW216701   5.171   2.317   5.131
 5268SOL     OW16702   5.534   0.928   0.443
 5268SOL    HW116703   5.633   0.939   0.438
 5268SOL    HW216704   5.493   0.954   0.355
 5269SOL     OW16705   0.808   6.619   2.454
 5269SOL    HW116706   0.881   6.661   2.508
 5269SOL    HW216707   0.732   6.593   2.513
 5270SOL     OW16708   5.488   0.934   1.602
 5270SOL    HW116709   5.475   1.009   1.538
 5270SOL    HW216710   5.400   0.890   1.622
 5271SOL     OW16711   6.374   5.235   5.627
 5271SOL    HW116712   6.444   5.242   5.697
 5271SOL    HW216713   6.293   5.189   5.665
 5272SOL     OW16714   3.304   6.452   1.658
 5272SOL    HW116715   3.252   6.537   1.658
 5272SOL    HW216716   3.293   6.406   1.570
 5273SOL     OW16717   0.520   2.933   3.505
 5273SOL    HW116718   0.554   2.911   3.413
 5273SOL    HW216719   0.439   2.990   3.497
 5274SOL     OW16720   6.001   0.209   2.805
 5274SOL    HW116721   5.930   0.189   2.738
 5274SOL    HW216722   6.083   0.243   2.758
 5275SOL     OW16723   3.534   1.965   0.897
 5275SOL    HW116724   3.499   1.973   0.804
 5275SOL    HW216725   3.533   2.055   0.940
 5276SOL     OW16726   1.796   0.021   0.325
 5276SOL    HW116727   1.706   0.020   0.281
 5276SOL    HW216728   1.831   0.114   0.327
 5277SOL     OW16729   2.340   1.054   2.048
 5277SOL    HW116730   2.403   1.021   2.118
 5277SOL    HW216731   2.339   1.154   2.048
 5278SOL     OW16732   5.765   6.402   3.514
 5278SOL    HW116733   5.726   6.314   3.485
 5278SOL    HW216734   5.710   6.477   3.477
 5279SOL     OW16735   2.305   5.258   6.703
 5279SOL    HW116736   2.213   5.296   6.690
 5279SOL    HW216737   2.300   5.158   6.704
 5280SOL     OW16738   3.146   5.496   4.907
 5280SOL    HW116739   3.071   5.433   4.889
 5280SOL    HW216740   3.217   5.450   4.961
 5281SOL     OW16741   0.293   1.734   2.337
 5281SOL    HW116742   0.274   1.763   2.431
 5281SOL    HW216743   0.241   1.791   2.273
 5282SOL     OW16744   3.580   1.536   3.583
 5282SOL    HW116745   3.622   1.447   3.599
 5282SOL    HW216746   3.641   1.593   3.527
 5283SOL     OW16747   4.297   6.179   1.557
 5283SOL    HW116748   4.231   6.138   1.621
 5283SOL    HW216749   4.324   6.111   1.490
 5284SOL     OW16750   4.870   3.976   3.259
 5284SOL    HW116751   4.953   3.924   3.235
 5284SOL    HW216752   4.826   4.009   3.175
 5285SOL     OW16753   2.069   4.763   3.836
 5285SOL    HW116754   2.105   4.839   3.784
 5285SOL    HW216755   2.060   4.789   3.932
 5286SOL     OW16756   1.967   4.711   0.462
 5286SOL    HW116757   2.012   4.788   0.414
 5286SOL    HW216758   1.978   4.628   0.407
 5287SOL     OW16759   2.994   0.488   6.672
 5287SOL    HW116760   2.960   0.564   6.728
 5287SOL    HW216761   2.933   0.473   6.595
 5288SOL     OW16762   2.817   0.022   2.047
 5288SOL    HW116763   2.758   0.022   1.967
 5288SOL    HW216764   2.828   6.951   2.081
 5289SOL     OW16765   2.146   5.113   6.445
 5289SOL    HW116766   2.235   5.158   6.453
 5289SOL    HW216767   2.110   5.096   6.537
 5290SOL     OW16768   2.657   5.808   4.871
 5290SOL    HW116769   2.573   5.756   4.856
 5290SOL    HW216770   2.641   5.905   4.850
 5291SOL     OW16771   2.564   5.991   5.728
 5291SOL    HW116772   2.607   5.907   5.762
 5291SOL    HW216773   2.617   6.026   5.650
 5292SOL     OW16774   6.144   2.635   6.790
 5292SOL    HW116775   6.152   2.536   6.801
 5292SOL    HW216776   6.223   2.679   6.833
 5293SOL     OW16777   0.440   0.885   5.061
 5293SOL    HW116778   0.367   0.912   5.124
 5293SOL    HW216779   0.527   0.922   5.094
 5294SOL     OW16780   4.743   3.695   5.945
 5294SOL    HW116781   4.689   3.721   5.865
 5294SOL    HW216782   4.732   3.764   6.016
 5295SOL     OW16783   6.620   1.353   2.480
 5295SOL    HW116784   6.698   1.411   2.505
 5295SOL    HW216785   6.651   1.260   2.464
 5296SOL     OW16786   2.148   5.768   6.560
 5296SOL    HW116787   2.105   5.679   6.565
 5296SOL    HW216788   2.084   5.839   6.589
 5297SOL     OW16789   1.652   2.089   1.312
 5297SOL    HW116790   1.625   2.099   1.408
 5297SOL    HW216791   1.585   2.134   1.254
 5298SOL     OW16792   0.056   6.135   1.742
 5298SOL    HW116793   0.074   6.202   1.813
 5298SOL    HW216794   0.136   6.126   1.683
 5299SOL     OW16795   2.851   2.113   0.415
 5299SOL    HW116796   2.857   2.081   0.509
 5299SOL    HW216797   2.787   2.189   0.410
 5300SOL     OW16798   0.027   5.437   2.670
 5300SOL    HW116799   6.994   5.476   2.744
 5300SOL    HW216800   0.122   5.466   2.681
 5301SOL     OW16801   4.370   1.216   0.412
 5301SOL    HW116802   4.375   1.158   0.494
 5301SOL    HW216803   4.356   1.311   0.439
 5302SOL     OW16804   6.015   5.137   3.709
 5302SOL    HW116805   5.923   5.098   3.706
 5302SOL    HW216806   6.063   5.115   3.624
 5303SOL     OW16807   6.749   6.855   3.851
 5303SOL    HW116808   6.734   6.953   3.840
 5303SOL    HW216809   6.817   6.825   3.784
 5304SOL     OW16810   6.463   2.752   6.370
 5304SOL    HW116811   6.462   2.851   6.355
 5304SOL    HW216812   6.377   2.712   6.336
 5305SOL     OW16813   1.354   0.290   3.861
 5305SOL    HW116814   1.291   0.247   3.926
 5305SOL    HW216815   1.441   0.309   3.906
 5306SOL     OW16816   1.945   6.415   5.219
 5306SOL    HW116817   1.953   6.416   5.120
 5306SOL    HW216818   1.921   6.323   5.250
 5307SOL     OW16819   4.287   6.296   6.497
 5307SOL    HW116820   4.198   6.301   6.452
 5307SOL    HW216821   4.288   6.355   6.578
 5308SOL     OW16822   0.844   6.983   4.184
 5308SOL    HW116823   0.891   6.897   4.203
 5308SOL    HW216824   0.767   6.993   4.248
 5309SOL     OW16825   3.779   4.030   3.382
 5309SOL    HW116826   3.727   4.108   3.417
 5309SOL    HW216827   3.721   3.950   3.377
 5310SOL     OW16828   5.247   2.490   2.193
 5310SOL    HW116829   5.163   2.460   2.150
 5310SOL    HW216830   5.228   2.566   2.255
 5311SOL     OW16831   0.389   5.761   0.091
 5311SOL    HW116832   0.366   5.697   0.164
 5311SOL    HW216833   0.402   5.853   0.129
 5312SOL     OW16834   6.928   4.341   2.247
 5312SOL    HW116835   6.937   4.254   2.198
 5312SOL    HW216836   6.898   4.323   2.341
 5313SOL     OW16837   0.998   5.431   6.997
 5313SOL    HW116838   0.962   5.513   6.953
 5313SOL    HW216839   0.951   5.416   0.062
 5314SOL     OW16840   4.747   5.179   0.793
 5314SOL    HW116841   4.684   5.133   0.731
 5314SOL    HW216842   4.814   5.113   0.827
 5315SOL     OW16843   4.460   4.551   1.969
 5315SOL    HW116844   4.471   4.573   1.872
 5315SOL    HW216845   4.497   4.460   1.987
 5316SOL     OW16846   6.737   5.457   4.417
 5316SOL    HW116847   6.681   5.405   4.352
 5316SOL    HW216848   6.769   5.541   4.374
 5317SOL     OW16849   6.049   1.154   4.792
 5317SOL    HW116850   6.020   1.063   4.822
 5317SOL    HW216851   5.970   1.215   4.789
 5318SOL     OW16852   6.745   2.123   4.409
 5318SOL    HW116853   6.649   2.117   4.437
 5318SOL    HW216854   6.763   2.058   4.336
 5319SOL     OW16855   4.405   6.662   6.814
 5319SOL    HW116856   4.489   6.712   6.791
 5319SOL    HW216857   4.395   6.658   6.913
 5320SOL     OW16858   6.052   5.145   7.019
 5320SOL    HW116859   6.110   5.226   0.003
 5320SOL    HW216860   6.109   5.063   7.010
 5321SOL     OW16861   0.682   4.914   3.073
 5321SOL    HW116862   0.681   4.838   3.008
 5321SOL    HW216863   0.673   5.000   3.025
 5322SOL     OW16864   3.677   6.499   6.353
 5322SOL    HW116865   3.641   6.453   6.434
 5322SOL    HW216866   3.609   6.564   6.319
 5323SOL     OW16867   4.664   3.068   0.939
 5323SOL    HW116868   4.583   3.119   0.966
 5323SOL    HW216869   4.642   3.009   0.861
 5324SOL     OW16870   3.624   2.421   1.387
 5324SOL    HW116871   3.578   2.340   1.351
 5324SOL    HW216872   3.611   2.425   1.487
 5325SOL     OW16873   5.735   0.108   3.637
 5325SOL    HW116874   5.740   0.196   3.686
 5325SOL    HW216875   5.643   0.070   3.647
 5326SOL     OW16876   5.933   5.232   2.556
 5326SOL    HW116877   5.894   5.172   2.486
 5326SOL    HW216878   5.904   5.201   2.646
 5327SOL     OW16879   0.355   6.182   5.597
 5327SOL    HW116880   0.345   6.263   5.653
 5327SOL    HW216881   0.325   6.101   5.648
 5328SOL     OW16882   3.450   2.262   5.797
 5328SOL    HW116883   3.477   2.358   5.799
 5328SOL    HW216884   3.366   2.250   5.849
 5329SOL     OW16885   0.300   3.823   0.506
 5329SOL    HW116886   0.247   3.783   0.581
 5329SOL    HW216887   0.238   3.867   0.441
 5330SOL     OW16888   3.310   4.035   6.572
 5330SOL    HW116889   3.310   4.124   6.618
 5330SOL    HW216890   3.366   3.971   6.623
 5331SOL     OW16891   5.054   1.832   1.281
 5331SOL    HW116892   5.005   1.901   1.334
 5331SOL    HW216893   5.113   1.877   1.214
 5332SOL     OW16894   6.240   4.295   0.137
 5332SOL    HW116895   6.268   4.210   0.181
 5332SOL    HW216896   6.279   4.299   0.044
 5333SOL     OW16897   1.803   1.056   3.629
 5333SOL    HW116898   1.884   1.109   3.658
 5333SOL    HW216899   1.826   0.959   3.626
 5334SOL     OW16900   4.635   5.232   4.535
 5334SOL    HW116901   4.640   5.135   4.511
 5334SOL    HW216902   4.720   5.278   4.510
 5335SOL     OW16903   0.034   4.121   2.100
 5335SOL    HW116904   0.035   4.150   2.004
 5335SOL    HW216905   0.124   4.138   2.141
 5336SOL     OW16906   2.350   2.073   3.524
 5336SOL    HW116907   2.302   2.160   3.511
 5336SOL    HW216908   2.335   2.040   3.617
 5337SOL     OW16909   5.547   4.848   2.117
 5337SOL    HW116910   5.453   4.815   2.105
 5337SOL    HW216911   5.581   4.821   2.207
 5338SOL     OW16912   5.862   2.426   6.817
 5338SOL    HW116913   5.882   2.517   6.854
 5338SOL    HW216914   5.921   2.358   6.860
 5339SOL     OW16915   5.610   1.749   2.040
 5339SOL    HW116916   5.593   1.653   2.065
 5339SOL    HW216917   5.642   1.798   2.121
 5340SOL     OW16918   5.422   3.667   1.256
 5340SOL    HW116919   5.339   3.718   1.233
 5340SOL    HW216920   5.488   3.675   1.181
 5341SOL     OW16921   4.097   4.899   4.573
 5341SOL    HW116922   4.050   4.867   4.655
 5341SOL    HW216923   4.107   4.998   4.576
 5342SOL     OW16924   4.987   6.527   4.825
 5342SOL    HW116925   5.044   6.607   4.811
 5342SOL    HW216926   4.982   6.505   4.922
 5343SOL     OW16927   3.857   3.466   4.759
 5343SOL    HW116928   3.844   3.415   4.674
 5343SOL    HW216929   3.954   3.463   4.784
 5344SOL     OW16930   0.259   1.327   6.842
 5344SOL    HW116931   0.234   1.375   6.758
 5344SOL    HW216932   0.190   1.257   6.862
 5345SOL     OW16933   4.760   0.961   0.148
 5345SOL    HW116934   4.682   1.007   0.191
 5345SOL    HW216935   4.731   0.872   0.115
 5346SOL     OW16936   2.912   4.982   4.044
 5346SOL    HW116937   2.837   4.927   4.005
 5346SOL    HW216938   2.874   5.058   4.096
 5347SOL     OW16939   0.051   3.213   3.525
 5347SOL    HW116940   0.039   3.312   3.523
 5347SOL    HW216941   0.013   3.173   3.442
 5348SOL     OW16942   0.041   1.227   5.508
 5348SOL    HW116943   0.032   1.142   5.455
 5348SOL    HW216944   6.983   1.285   5.491
 5349SOL     OW16945   2.273   2.960   1.809
 5349SOL    HW116946   2.331   3.037   1.782
 5349SOL    HW216947   2.179   2.977   1.781
 5350SOL     OW16948   2.125   6.505   5.729
 5350SOL    HW116949   2.143   6.490   5.632
 5350SOL    HW216950   2.060   6.436   5.762
 5351SOL     OW16951   0.466   4.578   2.115
 5351SOL    HW116952   0.388   4.616   2.165
 5351SOL    HW216953   0.445   4.576   2.017
 5352SOL     OW16954   2.351   4.373   3.201
 5352SOL    HW116955   2.285   4.326   3.259
 5352SOL    HW216956   2.411   4.430   3.257
 5353SOL     OW16957   3.779   5.405   3.026
 5353SOL    HW116958   3.727   5.459   2.961
 5353SOL    HW216959   3.779   5.309   2.997
 5354SOL     OW16960   2.880   4.195   6.789
 5354SOL    HW116961   2.872   4.291   6.817
 5354SOL    HW216962   2.835   4.182   6.701
 5355SOL     OW16963   5.032   5.111   5.396
 5355SOL    HW116964   5.076   5.099   5.307
 5355SOL    HW216965   5.093   5.162   5.457
 5356SOL     OW16966   6.941   3.298   1.657
 5356SOL    HW116967   6.934   3.301   1.757
 5356SOL    HW216968   7.010   3.364   1.627
 5357SOL     OW16969   4.274   5.025   1.809
 5357SOL    HW116970   4.267   4.942   1.754
 5357SOL    HW216971   4.368   5.059   1.807
 5358SOL     OW16972   4.605   1.986   0.999
 5358SOL    HW116973   4.617   1.887   1.009
 5358SOL    HW216974   4.675   2.034   1.052
 5359SOL     OW16975   2.396   1.829   6.775
 5359SOL    HW116976   2.357   1.739   6.754
 5359SOL    HW216977   2.471   1.848   6.712
 5360SOL     OW16978   5.528   5.702   3.200
 5360SOL    HW116979   5.616   5.722   3.243
 5360SOL    HW216980   5.486   5.787   3.170
 5361SOL     OW16981   2.810   6.584   3.134
 5361SOL    HW116982   2.748   6.661   3.147
 5361SOL    HW216983   2.868   6.574   3.215
 5362SOL     OW16984   6.284   6.848   2.860
 5362SOL    HW116985   6.266   6.761   2.812
 5362SOL    HW216986   6.214   6.862   2.930
 5363SOL     OW16987   5.454   6.188   4.915
 5363SOL    HW116988   5.437   6.286   4.928
 5363SOL    HW216989   5.502   6.153   4.995
 5364SOL     OW16990   5.713   0.483   2.316
 5364SOL    HW116991   5.791   0.428   2.344
 5364SOL    HW216992   5.634   0.424   2.298
 5365SOL     OW16993   2.908   3.270   2.351
 5365SOL    HW116994   2.894   3.171   2.351
 5365SOL    HW216995   2.820   3.316   2.362
 5366SOL     OW16996   0.096   0.527   2.020
 5366SOL    HW116997   0.169   0.473   2.063
 5366SOL    HW216998   0.132   0.615   1.991
 5367SOL     OW16999   6.204   0.299   0.826
 5367SOL    HW117000   6.251   0.214   0.801
 5367SOL    HW217001   6.112   0.277   0.860
 5368SOL     OW17002   6.965   6.114   2.099
 5368SOL    HW117003   0.004   6.051   2.051
 5368SOL    HW217004   6.875   6.113   2.056
 5369SOL     OW17005   2.912   5.990   1.713
 5369SOL    HW117006   2.858   5.981   1.629
 5369SOL    HW217007   2.996   6.041   1.694
 5370SOL     OW17008   4.186   3.387   1.633
 5370SOL    HW117009   4.276   3.429   1.619
 5370SOL    HW217010   4.197   3.300   1.682
 5371SOL     OW17011   0.391   5.065   5.054
 5371SOL    HW117012   0.421   5.036   5.145
 5371SOL    HW217013   0.422   5.158   5.037
 5372SOL     OW17014   1.083   6.968   2.520
 5372SOL    HW117015   1.123   0.023   2.570
 5372SOL    HW217016   0.987   6.988   2.500
 5373SOL     OW17017   4.002   0.141   5.932
 5373SOL    HW117018   4.033   0.048   5.912
 5373SOL    HW217019   4.082   0.201   5.942
 5374SOL     OW17020   2.349   4.056   0.972
 5374SOL    HW117021   2.388   4.050   1.064
 5374SOL    HW217022   2.266   4.000   0.968
 5375SOL     OW17023   0.918   5.933   5.403
 5375SOL    HW117024   0.828   5.934   5.446
 5375SOL    HW217025   0.977   6.000   5.448
 5376SOL     OW17026   1.222   2.691   2.117
 5376SOL    HW117027   1.150   2.752   2.082
 5376SOL    HW217028   1.307   2.708   2.066
 5377SOL     OW17029   1.660   1.369   2.955
 5377SOL    HW117030   1.641   1.301   3.025
 5377SOL    HW217031   1.715   1.443   2.994
 5378SOL     OW17032   6.477   0.602   1.373
 5378SOL    HW117033   6.423   0.547   1.310
 5378SOL    HW217034   6.444   0.697   1.372
 5379SOL     OW17035   1.272   3.169   5.191
 5379SOL    HW117036   1.178   3.170   5.227
 5379SOL    HW217037   1.321   3.249   5.225
 5380SOL     OW17038   3.294   0.101   1.342
 5380SOL    HW117039   3.365   0.142   1.285
 5380SOL    HW217040   3.253   0.171   1.401
 5381SOL     OW17041   6.012   6.055   2.854
 5381SOL    HW117042   6.037   6.017   2.943
 5381SOL    HW217043   6.027   5.987   2.783
 5382SOL     OW17044   3.547   2.150   2.661
 5382SOL    HW117045   3.448   2.144   2.667
 5382SOL    HW217046   3.576   2.126   2.568
 5383SOL     OW17047   1.360   3.258   4.516
 5383SOL    HW117048   1.312   3.282   4.600
 5383SOL    HW217049   1.306   3.191   4.465
 5384SOL     OW17050   4.555   5.657   4.838
 5384SOL    HW117051   4.554   5.712   4.922
 5384SOL    HW217052   4.498   5.576   4.851
 5385SOL     OW17053   6.545   2.734   5.471
 5385SOL    HW117054   6.486   2.812   5.454
 5385SOL    HW217055   6.537   2.706   5.567
 5386SOL     OW17056   5.781   1.969   4.032
 5386SOL    HW117057   5.839   1.887   4.030
 5386SOL    HW217058   5.695   1.950   3.985
 5387SOL     OW17059   2.719   6.448   3.494
 5387SOL    HW117060   2.707   6.463   3.395
 5387SOL    HW217061   2.700   6.352   3.516
 5388SOL     OW17062   1.915   6.307   2.882
 5388SOL    HW117063   1.816   6.291   2.886
 5388SOL    HW217064   1.962   6.223   2.856
 5389SOL     OW17065   4.520   2.417   4.295
 5389SOL    HW117066   4.442   2.400   4.234
 5389SOL    HW217067   4.604   2.422   4.240
 5390SOL     OW17068   5.161   4.081   4.380
 5390SOL    HW117069   5.246   4.122   4.349
 5390SOL    HW217070   5.179   3.991   4.420
 5391SOL     OW17071   2.787   2.326   0.217
 5391SOL    HW117072   2.757   2.365   0.130
 5391SOL    HW217073   2.887   2.334   0.224
 5392SOL     OW17074   4.798   3.037   2.534
 5392SOL    HW117075   4.705   3.005   2.548
 5392SOL    HW217076   4.812   3.058   2.438
 5393SOL     OW17077   4.788   0.627   5.335
 5393SOL    HW117078   4.709   0.588   5.287
 5393SOL    HW217079   4.757   0.669   5.421
 5394SOL     OW17080   0.492   6.103   0.899
 5394SOL    HW117081   0.486   6.029   0.966
 5394SOL    HW217082   0.574   6.157   0.915
 5395SOL     OW17083   4.730   1.004   1.294
 5395SOL    HW117084   4.799   0.992   1.365
 5395SOL    HW217085   4.660   1.069   1.325
 5396SOL     OW17086   5.057   6.115   2.235
 5396SOL    HW117087   5.147   6.094   2.195
 5396SOL    HW217088   5.015   6.031   2.268
 5397SOL     OW17089   6.970   2.202   2.037
 5397SOL    HW117090   6.988   2.209   1.939
 5397SOL    HW217091   6.906   2.127   2.053
 5398SOL     OW17092   3.713   1.914   3.527
 5398SOL    HW117093   3.772   1.876   3.598
 5398SOL    HW217094   3.619   1.917   3.560
 5399SOL     OW17095   2.433   6.379   5.763
 5399SOL    HW117096   2.469   6.421   5.846
 5399SOL    HW217097   2.410   6.284   5.781
 5400SOL     OW17098   3.769   2.978   1.139
 5400SOL    HW117099   3.841   3.019   1.082
 5400SOL    HW217100   3.796   2.982   1.235
 5401SOL     OW17101   5.262   4.097   3.124
 5401SOL    HW117102   5.247   4.137   3.214
 5401SOL    HW217103   5.198   4.021   3.110
 5402SOL     OW17104   3.518   6.132   0.727
 5402SOL    HW117105   3.609   6.167   0.705
 5402SOL    HW217106   3.526   6.038   0.761
 5403SOL     OW17107   5.396   2.543   6.465
 5403SOL    HW117108   5.345   2.624   6.436
 5403SOL    HW217109   5.454   2.567   6.544
 5404SOL     OW17110   0.793   0.527   0.856
 5404SOL    HW117111   0.787   0.553   0.952
 5404SOL    HW217112   0.878   0.478   0.839
 5405SOL     OW17113   5.966   4.890   0.286
 5405SOL    HW117114   5.950   4.814   0.224
 5405SOL    HW217115   6.063   4.914   0.286
 5406SOL     OW17116   1.835   1.129   4.985
 5406SOL    HW117117   1.749   1.081   4.999
 5406SOL    HW217118   1.910   1.073   5.020
 5407SOL     OW17119   2.819   1.638   1.306
 5407SOL    HW117120   2.890   1.666   1.241
 5407SOL    HW217121   2.740   1.698   1.297
 5408SOL     OW17122   3.894   2.100   4.823
 5408SOL    HW117123   3.967   2.081   4.757
 5408SOL    HW217124   3.805   2.093   4.778
 5409SOL     OW17125   6.295   2.190   2.243
 5409SOL    HW117126   6.287   2.261   2.173
 5409SOL    HW217127   6.391   2.179   2.268
 5410SOL     OW17128   0.455   2.675   0.624
 5410SOL    HW117129   0.381   2.742   0.608
 5410SOL    HW217130   0.448   2.602   0.556
 5411SOL     OW17131   5.286   4.262   7.002
 5411SOL    HW117132   5.284   4.222   0.072
 5411SOL    HW217133   5.192   4.278   6.971
 5412SOL     OW17134   1.997   1.296   6.303
 5412SOL    HW117135   1.904   1.288   6.268
 5412SOL    HW217136   2.058   1.239   6.248
 5413SOL     OW17137   0.004   6.935   5.792
 5413SOL    HW117138   6.944   6.879   5.803
 5413SOL    HW217139   0.028   6.942   5.695
 5414SOL     OW17140   0.013   4.730   5.755
 5414SOL    HW117141   6.996   4.645   5.722
 5414SOL    HW217142   0.089   4.757   5.694
 5415SOL     OW17143   3.135   5.528   0.439
 5415SOL    HW117144   3.091   5.552   0.352
 5415SOL    HW217145   3.185   5.442   0.427
 5416SOL     OW17146   3.382   5.138   4.778
 5416SOL    HW117147   3.330   5.170   4.857
 5416SOL    HW217148   3.324   5.141   4.696
 5417SOL     OW17149   3.852   0.092   4.175
 5417SOL    HW117150   3.938   0.043   4.188
 5417SOL    HW217151   3.792   0.076   4.254
 5418SOL     OW17152   5.137   4.914   4.925
 5418SOL    HW117153   5.043   4.939   4.904
 5418SOL    HW217154   5.162   4.832   4.874
 5419SOL     OW17155   4.034   6.575   0.043
 5419SOL    HW117156   3.934   6.574   0.051
 5419SOL    HW217157   4.061   6.517   6.989
 5420SOL     OW17158   1.901   1.966   1.597
 5420SOL    HW117159   1.898   1.887   1.537
 5420SOL    HW217160   1.841   2.038   1.561
 5421SOL     OW17161   3.036   5.453   2.130
 5421SOL    HW117162   3.109   5.514   2.162
 5421SOL    HW217163   3.077   5.373   2.084
 5422SOL     OW17164   2.024   5.867   4.089
 5422SOL    HW117165   2.077   5.795   4.044
 5422SOL    HW217166   2.018   5.848   4.187
 5423SOL     OW17167   6.260   5.226   1.944
 5423SOL    HW117168   6.271   5.191   1.850
 5423SOL    HW217169   6.336   5.287   1.966
 5424SOL     OW17170   4.771   3.997   4.513
 5424SOL    HW117171   4.738   3.903   4.518
 5424SOL    HW217172   4.787   4.031   4.606
 5425SOL     OW17173   6.250   2.744   4.617
 5425SOL    HW117174   6.296   2.729   4.529
 5425SOL    HW217175   6.311   2.797   4.677
 5426SOL     OW17176   4.590   5.570   2.300
 5426SOL    HW117177   4.505   5.617   2.276
 5426SOL    HW217178   4.666   5.613   2.251
 5427SOL     OW17179   4.780   2.844   0.168
 5427SOL    HW117180   4.725   2.920   0.205
 5427SOL    HW217181   4.728   2.759   0.176
 5428SOL     OW17182   5.108   6.427   2.935
 5428SOL    HW117183   5.136   6.521   2.956
 5428SOL    HW217184   5.112   6.412   2.836
 5429SOL     OW17185   2.684   6.717   5.119
 5429SOL    HW117186   2.602   6.770   5.098
 5429SOL    HW217187   2.680   6.688   5.215
 5430SOL     OW17188   1.315   3.043   5.980
 5430SOL    HW117189   1.270   3.095   5.907
 5430SOL    HW217190   1.386   2.985   5.941
 5431SOL     OW17191   3.340   4.880   6.413
 5431SOL    HW117192   3.312   4.789   6.445
 5431SOL    HW217193   3.396   4.923   6.484
 5432SOL     OW17194   5.577   5.713   0.660
 5432SOL    HW117195   5.620   5.668   0.739
 5432SOL    HW217196   5.503   5.772   0.692
 5433SOL     OW17197   1.294   6.920   1.020
 5433SOL    HW117198   1.329   7.011   0.998
 5433SOL    HW217199   1.197   6.914   0.995
 5434SOL     OW17200   5.006   1.212   5.069
 5434SOL    HW117201   5.038   1.130   5.021
 5434SOL    HW217202   5.071   1.287   5.055
 5435SOL     OW17203   6.427   3.706   0.852
 5435SOL    HW117204   6.384   3.670   0.769
 5435SOL    HW217205   6.368   3.689   0.931
 5436SOL     OW17206   0.513   5.551   4.129
 5436SOL    HW117207   0.487   5.646   4.144
 5436SOL    HW217208   0.480   5.521   4.039
 5437SOL     OW17209   3.325   4.890   6.034
 5437SOL    HW117210   3.243   4.916   6.085
 5437SOL    HW217211   3.380   4.827   6.089
 5438SOL     OW17212   5.334   5.066   1.996
 5438SOL    HW117213   5.273   5.142   1.975
 5438SOL    HW217214   5.282   4.991   2.036
 5439SOL     OW17215   1.254   4.068   0.240
 5439SOL    HW117216   1.342   4.033   0.272
 5439SOL    HW217217   1.269   4.141   0.174
 5440SOL     OW17218   5.643   0.012   3.124
 5440SOL    HW117219   5.725   7.020   3.068
 5440SOL    HW217220   5.671   0.044   3.215
 5441SOL     OW17221   5.501   3.350   3.436
 5441SOL    HW117222   5.447   3.289   3.493
 5441SOL    HW217223   5.567   3.297   3.383
 5442SOL     OW17224   3.912   0.688   3.385
 5442SOL    HW117225   3.944   0.677   3.291
 5442SOL    HW217226   3.963   0.628   3.446
 5443SOL     OW17227   4.425   6.661   4.067
 5443SOL    HW117228   4.482   6.608   4.130
 5443SOL    HW217229   4.335   6.617   4.059
 5444SOL     OW17230   6.987   2.415   3.882
 5444SOL    HW117231   6.895   2.389   3.914
 5444SOL    HW217232   0.028   2.410   3.959
 5445SOL     OW17233   5.072   4.568   4.553
 5445SOL    HW117234   5.120   4.492   4.597
 5445SOL    HW217235   4.974   4.561   4.573
 5446SOL     OW17236   6.350   4.463   4.509
 5446SOL    HW117237   6.430   4.488   4.564
 5446SOL    HW217238   6.366   4.375   4.465
 5447SOL     OW17239   2.432   1.567   1.252
 5447SOL    HW117240   2.339   1.600   1.267
 5447SOL    HW217241   2.492   1.645   1.232
 5448SOL     OW17242   4.736   5.339   4.066
 5448SOL    HW117243   4.672   5.372   3.996
 5448SOL    HW217244   4.767   5.247   4.042
 5449SOL     OW17245   2.911   1.574   1.771
 5449SOL    HW117246   2.853   1.532   1.702
 5449SOL    HW217247   2.869   1.659   1.804
 5450SOL     OW17248   3.499   6.137   1.422
 5450SOL    HW117249   3.416   6.084   1.437
 5450SOL    HW217250   3.487   6.194   1.340
 5451SOL     OW17251   2.085   6.805   3.105
 5451SOL    HW117252   2.000   6.812   3.157
 5451SOL    HW217253   2.074   6.736   3.033
 5452SOL     OW17254   1.926   4.512   0.904
 5452SOL    HW117255   1.827   4.507   0.903
 5452SOL    HW217256   1.964   4.421   0.918
 5453SOL     OW17257   4.952   4.105   1.710
 5453SOL    HW117258   4.939   4.031   1.644
 5453SOL    HW217259   4.887   4.094   1.785
 5454SOL     OW17260   5.853   6.101   2.182
 5454SOL    HW117261   5.897   6.085   2.270
 5454SOL    HW217262   5.906   6.058   2.110
 5455SOL     OW17263   0.930   1.415   3.116
 5455SOL    HW117264   1.004   1.481   3.101
 5455SOL    HW217265   0.930   1.348   3.042
 5456SOL     OW17266   4.718   0.687   6.768
 5456SOL    HW117267   4.733   0.623   6.844
 5456SOL    HW217268   4.638   0.657   6.716
 5457SOL     OW17269   6.440   1.773   0.240
 5457SOL    HW117270   6.428   1.684   0.195
 5457SOL    HW217271   6.351   1.808   0.270
 5458SOL     OW17272   6.698   5.047   1.176
 5458SOL    HW117273   6.746   5.083   1.256
 5458SOL    HW217274   6.763   5.041   1.099
 5459SOL     OW17275   2.134   4.570   5.335
 5459SOL    HW117276   2.103   4.527   5.250
 5459SOL    HW217277   2.210   4.632   5.316
 5460SOL     OW17278   2.311   1.168   1.735
 5460SOL    HW117279   2.343   1.149   1.828
 5460SOL    HW217280   2.251   1.248   1.737
 5461SOL     OW17281   1.193   1.628   5.643
 5461SOL    HW117282   1.250   1.700   5.683
 5461SOL    HW217283   1.172   1.651   5.548
 5462SOL     OW17284   5.317   5.968   6.928
 5462SOL    HW117285   5.304   5.944   6.832
 5462SOL    HW217286   5.398   5.921   6.963
 5463SOL     OW17287   6.432   1.693   6.502
 5463SOL    HW117288   6.378   1.772   6.473
 5463SOL    HW217289   6.498   1.722   6.572
 5464SOL     OW17290   6.228   5.196   5.396
 5464SOL    HW117291   6.284   5.215   5.477
 5464SOL    HW217292   6.251   5.261   5.324
 5465SOL     OW17293   6.921   6.997   3.231
 5465SOL    HW117294   6.913   0.021   3.143
 5465SOL    HW217295   6.831   6.995   3.276
 5466SOL     OW17296   5.538   2.857   5.399
 5466SOL    HW117297   5.538   2.859   5.499
 5466SOL    HW217298   5.522   2.950   5.365
 5467SOL     OW17299   5.791   3.839   3.753
 5467SOL    HW117300   5.855   3.901   3.799
 5467SOL    HW217301   5.843   3.770   3.703
 5468SOL     OW17302   6.613   2.711   3.488
 5468SOL    HW117303   6.691   2.679   3.541
 5468SOL    HW217304   6.639   2.792   3.436
 5469SOL     OW17305   2.490   6.725   6.022
 5469SOL    HW117306   2.427   6.731   6.099
 5469SOL    HW217307   2.512   6.629   6.005
 5470SOL     OW17308   4.073   5.263   3.849
 5470SOL    HW117309   4.111   5.332   3.787
 5470SOL    HW217310   4.128   5.180   3.846
 5471SOL     OW17311   5.716   0.218   2.546
 5471SOL    HW117312   5.785   0.246   2.478
 5471SOL    HW217313   5.625   0.236   2.509
 5472SOL     OW17314   3.383   2.893   6.353
 5472SOL    HW117315   3.368   2.979   6.305
 5472SOL    HW217316   3.457   2.843   6.309
 5473SOL     OW17317   1.996   4.928   0.267
 5473SOL    HW117318   2.066   4.934   0.196
 5473SOL    HW217319   1.998   5.010   0.323
 5474SOL     OW17320   0.795   5.635   3.759
 5474SOL    HW117321   0.722   5.674   3.816
 5474SOL    HW217322   0.762   5.628   3.665
 5475SOL     OW17323   1.866   1.942   0.940
 5475SOL    HW117324   1.949   1.950   0.885
 5475SOL    HW217325   1.824   2.032   0.950
 5476SOL     OW17326   2.781   4.964   5.360
 5476SOL    HW117327   2.804   5.012   5.276
 5476SOL    HW217328   2.805   5.020   5.439
 5477SOL     OW17329   1.859   4.133   3.317
 5477SOL    HW117330   1.799   4.086   3.381
 5477SOL    HW217331   1.805   4.189   3.255
 5478SOL     OW17332   5.279   6.041   5.805
 5478SOL    HW117333   5.252   5.950   5.837
 5478SOL    HW217334   5.204   6.105   5.820
 5479SOL     OW17335   4.836   1.342   4.877
 5479SOL    HW117336   4.907   1.375   4.815
 5479SOL    HW217337   4.879   1.294   4.954
 5480SOL     OW17338   5.877   5.148   4.738
 5480SOL    HW117339   5.919   5.208   4.806
 5480SOL    HW217340   5.927   5.061   4.734
 5481SOL     OW17341   4.758   1.119   4.740
 5481SOL    HW117342   4.775   1.203   4.792
 5481SOL    HW217343   4.812   1.045   4.778
 5482SOL     OW17344   2.944   3.832   2.770
 5482SOL    HW117345   2.971   3.890   2.847
 5482SOL    HW217346   2.847   3.846   2.750
 5483SOL     OW17347   6.218   2.606   5.364
 5483SOL    HW117348   6.143   2.545   5.339
 5483SOL    HW217349   6.304   2.554   5.364
 5484SOL     OW17350   6.108   0.493   3.580
 5484SOL    HW117351   6.055   0.522   3.501
 5484SOL    HW217352   6.046   0.453   3.648
 5485SOL     OW17353   3.241   6.927   4.688
 5485SOL    HW117354   3.291   6.894   4.608
 5485SOL    HW217355   3.211   6.849   4.743
 5486SOL     OW17356   2.065   6.441   3.889
 5486SOL    HW117357   1.989   6.384   3.860
 5486SOL    HW217358   2.151   6.404   3.852
 5487SOL     OW17359   5.410   3.640   6.644
 5487SOL    HW117360   5.331   3.677   6.694
 5487SOL    HW217361   5.401   3.541   6.637
 5488SOL     OW17362   4.856   1.364   0.852
 5488SOL    HW117363   4.944   1.344   0.808
 5488SOL    HW217364   4.854   1.460   0.880
 5489SOL     OW17365   1.058   4.073   2.126
 5489SOL    HW117366   1.021   4.005   2.063
 5489SOL    HW217367   1.121   4.029   2.190
 5490SOL     OW17368   3.635   0.211   0.649
 5490SOL    HW117369   3.617   0.301   0.609
 5490SOL    HW217370   3.573   0.144   0.609
 5491SOL     OW17371   1.272   3.930   6.267
 5491SOL    HW117372   1.288   4.012   6.321
 5491SOL    HW217373   1.184   3.938   6.220
 5492SOL     OW17374   1.196   1.793   6.141
 5492SOL    HW117375   1.145   1.706   6.135
 5492SOL    HW217376   1.188   1.830   6.233
 5493SOL     OW17377   3.959   3.843   4.582
 5493SOL    HW117378   4.004   3.832   4.493
 5493SOL    HW217379   4.012   3.796   4.653
 5494SOL     OW17380   6.191   2.536   0.256
 5494SOL    HW117381   6.170   2.441   0.230
 5494SOL    HW217382   6.260   2.537   0.328
 5495SOL     OW17383   2.886   2.703   1.705
 5495SOL    HW117384   2.876   2.648   1.622
 5495SOL    HW217385   2.932   2.649   1.776
 5496SOL     OW17386   2.673   6.866   3.130
 5496SOL    HW117387   2.594   6.925   3.149
 5496SOL    HW217388   2.684   6.857   3.031
 5497SOL     OW17389   6.912   1.863   3.286
 5497SOL    HW117390   6.993   1.862   3.345
 5497SOL    HW217391   6.838   1.911   3.332
 5498SOL     OW17392   5.222   0.156   0.963
 5498SOL    HW117393   5.153   0.204   0.909
 5498SOL    HW217394   5.179   0.083   1.015
 5499SOL     OW17395   1.078   1.075   3.696
 5499SOL    HW117396   1.100   1.090   3.599
 5499SOL    HW217397   1.145   1.012   3.736
 5500SOL     OW17398   2.095   5.993   0.015
 5500SOL    HW117399   2.157   6.032   0.083
 5500SOL    HW217400   2.003   6.028   0.030
 5501SOL     OW17401   3.455   0.271   1.164
 5501SOL    HW117402   3.478   0.363   1.132
 5501SOL    HW217403   3.538   0.215   1.166
 5502SOL     OW17404   5.539   4.398   6.538
 5502SOL    HW117405   5.592   4.481   6.554
 5502SOL    HW217406   5.491   4.405   6.451
 5503SOL     OW17407   0.120   4.720   3.151
 5503SOL    HW117408   0.029   4.679   3.161
 5503SOL    HW217409   0.180   4.684   3.222
 5504SOL     OW17410   3.282   1.708   5.426
 5504SOL    HW117411   3.232   1.742   5.505
 5504SOL    HW217412   3.221   1.702   5.348
 5505SOL     OW17413   2.757   5.448   4.520
 5505SOL    HW117414   2.795   5.535   4.491
 5505SOL    HW217415   2.660   5.459   4.541
 5506SOL     OW17416   6.773   0.722   6.031
 5506SOL    HW117417   6.829   0.748   6.110
 5506SOL    HW217418   6.832   0.683   5.960
 5507SOL     OW17419   2.090   6.962   2.597
 5507SOL    HW117420   2.027   0.016   2.584
 5507SOL    HW217421   2.175   6.981   2.548
 5508SOL     OW17422   2.177   1.491   0.253
 5508SOL    HW117423   2.267   1.497   0.297
 5508SOL    HW217424   2.185   1.517   0.157
 5509SOL     OW17425   0.907   6.436   0.212
 5509SOL    HW117426   0.960   6.354   0.193
 5509SOL    HW217427   0.935   6.509   0.149
 5510SOL     OW17428   5.407   6.060   0.854
 5510SOL    HW117429   5.452   6.141   0.890
 5510SOL    HW217430   5.380   6.000   0.929
 5511SOL     OW17431   2.412   6.783   4.152
 5511SOL    HW117432   2.485   6.778   4.221
 5511SOL    HW217433   2.389   6.691   4.121
 5512SOL     OW17434   5.937   2.135   1.308
 5512SOL    HW117435   5.985   2.221   1.321
 5512SOL    HW217436   5.841   2.146   1.333
 5513SOL     OW17437   3.646   4.150   5.718
 5513SOL    HW117438   3.668   4.081   5.787
 5513SOL    HW217439   3.547   4.162   5.713
 5514SOL     OW17440   4.356   5.767   2.530
 5514SOL    HW117441   4.359   5.746   2.432
 5514SOL    HW217442   4.277   5.826   2.548
 5515SOL     OW17443   0.643   4.340   1.535
 5515SOL    HW117444   0.549   4.370   1.555
 5515SOL    HW217445   0.668   4.266   1.598
 5516SOL     OW17446   1.325   3.012   0.143
 5516SOL    HW117447   1.272   3.049   0.219
 5516SOL    HW217448   1.275   2.935   0.102
 5517SOL     OW17449   2.065   2.410   2.258
 5517SOL    HW117450   1.987   2.457   2.216
 5517SOL    HW217451   2.125   2.374   2.186
 5518SOL     OW17452   6.480   6.733   6.421
 5518SOL    HW117453   6.401   6.694   6.466
 5518SOL    HW217454   6.532   6.789   6.486
 5519SOL     OW17455   5.277   3.423   3.265
 5519SOL    HW117456   5.215   3.454   3.337
 5519SOL    HW217457   5.358   3.382   3.306
 5520SOL     OW17458   6.577   5.160   2.868
 5520SOL    HW117459   6.651   5.199   2.813
 5520SOL    HW217460   6.594   5.182   2.965
 5521SOL     OW17461   4.064   6.604   2.351
 5521SOL    HW117462   4.019   6.674   2.405
 5521SOL    HW217463   4.124   6.648   2.283
 5522SOL     OW17464   1.123   4.967   0.839
 5522SOL    HW117465   1.092   5.049   0.791
 5522SOL    HW217466   1.175   4.909   0.777
 5523SOL     OW17467   2.859   0.013   3.297
 5523SOL    HW117468   2.834   6.964   3.232
 5523SOL    HW217469   2.904   6.993   3.376
 5524SOL     OW17470   6.426   5.113   4.763
 5524SOL    HW117471   6.388   5.185   4.821
 5524SOL    HW217472   6.388   5.122   4.670
 5525SOL     OW17473   0.265   3.726   0.180
 5525SOL    HW117474   0.200   3.794   0.213
 5525SOL    HW217475   0.235   3.635   0.207
 5526SOL     OW17476   5.368   4.190   5.004
 5526SOL    HW117477   5.298   4.153   4.942
 5526SOL    HW217478   5.325   4.257   5.065
 5527SOL     OW17479   0.949   3.894   3.782
 5527SOL    HW117480   0.962   3.795   3.774
 5527SOL    HW217481   1.033   3.936   3.816
 5528SOL     OW17482   0.815   1.714   6.341
 5528SOL    HW117483   0.856   1.688   6.254
 5528SOL    HW217484   0.887   1.726   6.410
 5529SOL     OW17485   2.062   6.989   4.407
 5529SOL    HW117486   2.087   6.927   4.481
 5529SOL    HW217487   2.089   6.948   4.319
 5530SOL     OW17488   0.248   2.735   2.694
 5530SOL    HW117489   0.208   2.816   2.737
 5530SOL    HW217490   0.181   2.694   2.632
 5531SOL     OW17491   3.792   3.828   2.875
 5531SOL    HW117492   3.772   3.896   2.804
 5531SOL    HW217493   3.806   3.874   2.963
 5532SOL     OW17494   1.377   1.338   1.172
 5532SOL    HW117495   1.408   1.276   1.101
 5532SOL    HW217496   1.291   1.304   1.211
 5533SOL     OW17497   3.187   1.199   3.078
 5533SOL    HW117498   3.151   1.206   3.171
 5533SOL    HW217499   3.242   1.280   3.058
 5534SOL     OW17500   0.636   2.844   5.667
 5534SOL    HW117501   0.705   2.811   5.731
 5534SOL    HW217502   0.547   2.806   5.692
 5535SOL     OW17503   0.626   3.035   3.732
 5535SOL    HW117504   0.718   3.066   3.711
 5535SOL    HW217505   0.585   2.995   3.649
 5536SOL     OW17506   3.557   1.335   4.155
 5536SOL    HW117507   3.479   1.311   4.212
 5536SOL    HW217508   3.525   1.378   4.071
 5537SOL     OW17509   2.903   0.977   4.411
 5537SOL    HW117510   2.886   0.994   4.508
 5537SOL    HW217511   2.980   0.915   4.401
 5538SOL     OW17512   3.406   0.040   4.880
 5538SOL    HW117513   3.312   0.011   4.858
 5538SOL    HW217514   3.464   6.982   4.892
 5539SOL     OW17515   1.302   2.678   0.238
 5539SOL    HW117516   1.229   2.615   0.267
 5539SOL    HW217517   1.270   2.732   0.161
 5540SOL     OW17518   6.152   3.721   2.718
 5540SOL    HW117519   6.227   3.665   2.682
 5540SOL    HW217520   6.146   3.709   2.817
 5541SOL     OW17521   5.761   2.033   6.689
 5541SOL    HW117522   5.763   2.128   6.658
 5541SOL    HW217523   5.761   1.972   6.610
 5542SOL     OW17524   5.488   6.188   6.223
 5542SOL    HW117525   5.474   6.201   6.321
 5542SOL    HW217526   5.583   6.163   6.205
 5543SOL     OW17527   2.469   5.281   6.362
 5543SOL    HW117528   2.478   5.188   6.326
 5543SOL    HW217529   2.559   5.323   6.368
 5544SOL     OW17530   5.194   5.841   6.205
 5544SOL    HW117531   5.195   5.771   6.133
 5544SOL    HW217532   5.195   5.931   6.163
 5545SOL     OW17533   4.488   1.278   3.314
 5545SOL    HW117534   4.542   1.195   3.303
 5545SOL    HW217535   4.441   1.275   3.403
 5546SOL     OW17536   1.482   7.019   3.816
 5546SOL    HW117537   1.563   6.993   3.869
 5546SOL    HW217538   1.475   0.096   3.812
 5547SOL     OW17539   3.840   0.454   5.000
 5547SOL    HW117540   3.932   0.466   4.962
 5547SOL    HW217541   3.779   0.421   4.928
 5548SOL     OW17542   5.793   3.340   5.052
 5548SOL    HW117543   5.750   3.282   4.983
 5548SOL    HW217544   5.888   3.358   5.026
 5549SOL     OW17545   4.095   4.961   1.032
 5549SOL    HW117546   4.083   4.864   1.055
 5549SOL    HW217547   4.097   4.972   0.933
 5550SOL     OW17548   2.368   4.365   2.310
 5550SOL    HW117549   2.463   4.396   2.319
 5550SOL    HW217550   2.306   4.443   2.321
 5551SOL     OW17551   1.674   6.185   2.857
 5551SOL    HW117552   1.626   6.214   2.775
 5551SOL    HW217553   1.610   6.186   2.935
 5552SOL     OW17554   0.093   6.769   6.667
 5552SOL    HW117555   0.091   6.670   6.681
 5552SOL    HW217556   7.022   6.802   6.653
 5553SOL     OW17557   4.725   6.389   0.194
 5553SOL    HW117558   4.765   6.435   0.273
 5553SOL    HW217559   4.754   6.436   0.110
 5554SOL     OW17560   4.351   1.921   6.571
 5554SOL    HW117561   4.337   1.898   6.474
 5554SOL    HW217562   4.360   2.021   6.580
 5555SOL     OW17563   1.144   4.009   2.942
 5555SOL    HW117564   1.088   3.957   3.007
 5555SOL    HW217565   1.153   4.103   2.973
 5556SOL     OW17566   6.448   1.710   3.577
 5556SOL    HW117567   6.509   1.663   3.514
 5556SOL    HW217568   6.389   1.773   3.526
 5557SOL     OW17569   3.437   6.869   2.653
 5557SOL    HW117570   3.492   6.786   2.656
 5557SOL    HW217571   3.366   6.864   2.724
 5558SOL     OW17572   3.650   3.417   5.593
 5558SOL    HW117573   3.551   3.425   5.597
 5558SOL    HW217574   3.691   3.505   5.567
 5559SOL     OW17575   1.404   0.435   1.371
 5559SOL    HW117576   1.484   0.486   1.403
 5559SOL    HW217577   1.324   0.495   1.373
 5560SOL     OW17578   0.497   5.194   2.279
 5560SOL    HW117579   0.454   5.263   2.337
 5560SOL    HW217580   0.593   5.218   2.264
 5561SOL     OW17581   1.696   1.435   3.967
 5561SOL    HW117582   1.614   1.445   3.910
 5561SOL    HW217583   1.766   1.500   3.938
 5562SOL     OW17584   4.194   2.504   6.445
 5562SOL    HW117585   4.238   2.559   6.374
 5562SOL    HW217586   4.111   2.549   6.476
 5563SOL     OW17587   3.703   5.173   2.203
 5563SOL    HW117588   3.647   5.129   2.274
 5563SOL    HW217589   3.664   5.263   2.182
 5564SOL     OW17590   4.694   0.219   0.993
 5564SOL    HW117591   4.712   0.149   0.924
 5564SOL    HW217592   4.609   0.267   0.970
 5565SOL     OW17593   4.462   1.887   6.047
 5565SOL    HW117594   4.486   1.794   6.018
 5565SOL    HW217595   4.440   1.942   5.966
 5566SOL     OW17596   1.661   4.532   6.506
 5566SOL    HW117597   1.691   4.608   6.563
 5566SOL    HW217598   1.727   4.519   6.432
 5567SOL     OW17599   6.822   2.356   0.868
 5567SOL    HW117600   6.849   2.448   0.838
 5567SOL    HW217601   6.904   2.300   0.881
 5568SOL     OW17602   4.935   1.927   3.824
 5568SOL    HW117603   4.837   1.907   3.823
 5568SOL    HW217604   4.950   2.022   3.795
 5569SOL     OW17605   1.646   2.206   2.490
 5569SOL    HW117606   1.624   2.244   2.400
 5569SOL    HW217607   1.677   2.112   2.480
 5570SOL     OW17608   6.821   4.191   5.177
 5570SOL    HW117609   6.750   4.218   5.112
 5570SOL    HW217610   6.911   4.213   5.140
 5571SOL     OW17611   0.285   5.909   0.739
 5571SOL    HW117612   0.348   5.983   0.760
 5571SOL    HW217613   0.314   5.826   0.787
 5572SOL     OW17614   1.389   2.185   5.354
 5572SOL    HW117615   1.421   2.091   5.348
 5572SOL    HW217616   1.357   2.204   5.447
 5573SOL     OW17617   2.572   5.000   4.363
 5573SOL    HW117618   2.553   5.032   4.270
 5573SOL    HW217619   2.487   4.973   4.407
 5574SOL     OW17620   0.344   2.102   2.413
 5574SOL    HW117621   0.439   2.073   2.421
 5574SOL    HW217622   0.293   2.072   2.494
 5575SOL     OW17623   6.616   1.171   1.121
 5575SOL    HW117624   6.649   1.109   1.050
 5575SOL    HW217625   6.670   1.159   1.204
 5576SOL     OW17626   0.804   5.089   1.441
 5576SOL    HW117627   0.871   5.123   1.506
 5576SOL    HW217628   0.819   5.132   1.352
 5577SOL     OW17629   3.200   3.580   5.805
 5577SOL    HW117630   3.114   3.609   5.764
 5577SOL    HW217631   3.262   3.547   5.733
 5578SOL     OW17632   3.849   3.618   0.602
 5578SOL    HW117633   3.756   3.608   0.637
 5578SOL    HW217634   3.872   3.540   0.545
 5579SOL     OW17635   0.774   3.278   0.086
 5579SOL    HW117636   0.823   3.365   0.093
 5579SOL    HW217637   0.835   3.207   0.050
 5580SOL     OW17638   5.593   2.714   5.627
 5580SOL    HW117639   5.533   2.646   5.585
 5580SOL    HW217640   5.688   2.690   5.610
 5581SOL     OW17641   1.173   6.668   1.570
 5581SOL    HW117642   1.239   6.594   1.586
 5581SOL    HW217643   1.208   6.729   1.499
 5582SOL     OW17644   2.848   3.668   5.179
 5582SOL    HW117645   2.782   3.602   5.213
 5582SOL    HW217646   2.808   3.760   5.184
 5583SOL     OW17647   4.805   0.173   2.590
 5583SOL    HW117648   4.820   0.131   2.500
 5583SOL    HW217649   4.706   0.185   2.605
 5584SOL     OW17650   5.755   4.707   4.078
 5584SOL    HW117651   5.732   4.703   4.175
 5584SOL    HW217652   5.736   4.799   4.043
 5585SOL     OW17653   5.574   6.126   4.165
 5585SOL    HW117654   5.482   6.154   4.138
 5585SOL    HW217655   5.590   6.031   4.138
 5586SOL     OW17656   0.429   2.059   6.659
 5586SOL    HW117657   0.431   2.041   6.561
 5586SOL    HW217658   0.521   2.052   6.696
 5587SOL     OW17659   3.980   6.325   1.848
 5587SOL    HW117660   3.955   6.372   1.932
 5587SOL    HW217661   4.074   6.345   1.824
 5588SOL     OW17662   2.033   5.669   2.772
 5588SOL    HW117663   1.972   5.739   2.736
 5588SOL    HW217664   2.035   5.675   2.872
 5589SOL     OW17665   6.477   3.920   5.309
 5589SOL    HW117666   6.414   3.899   5.234
 5589SOL    HW217667   6.571   3.923   5.274
 5590SOL     OW17668   0.075   5.977   4.397
 5590SOL    HW117669   0.074   6.021   4.307
 5590SOL    HW217670   7.008   5.990   4.441
 5591SOL     OW17671   5.177   1.461   0.123
 5591SOL    HW117672   5.127   1.380   0.092
 5591SOL    HW217673   5.275   1.441   0.122
 5592SOL     OW17674   6.772   4.746   2.647
 5592SOL    HW117675   6.673   4.759   2.653
 5592SOL    HW217676   6.803   4.769   2.555
 5593SOL     OW17677   0.680   3.207   6.829
 5593SOL    HW117678   0.679   3.206   6.929
 5593SOL    HW217679   0.678   3.302   6.796
 5594SOL     OW17680   3.892   1.256   6.644
 5594SOL    HW117681   3.835   1.323   6.596
 5594SOL    HW217682   3.984   1.294   6.657
 5595SOL     OW17683   6.347   0.543   4.939
 5595SOL    HW117684   6.408   0.466   4.921
 5595SOL    HW217685   6.354   0.609   4.865
 5596SOL     OW17686   4.759   0.341   3.380
 5596SOL    HW117687   4.733   0.348   3.476
 5596SOL    HW217688   4.856   0.361   3.370
 5597SOL     OW17689   5.533   2.949   4.667
 5597SOL    HW117690   5.521   2.856   4.631
 5597SOL    HW217691   5.509   3.015   4.596
 5598SOL     OW17692   6.109   3.544   3.990
 5598SOL    HW117693   6.073   3.630   4.025
 5598SOL    HW217694   6.087   3.470   4.053
 5599SOL     OW17695   0.488   2.541   1.393
 5599SOL    HW117696   0.490   2.499   1.484
 5599SOL    HW217697   0.582   2.562   1.364
 5600SOL     OW17698   2.149   0.927   1.493
 5600SOL    HW117699   2.140   0.906   1.590
 5600SOL    HW217700   2.066   0.974   1.461
 5601SOL     OW17701   2.509   0.879   6.600
 5601SOL    HW117702   2.490   0.975   6.576
 5601SOL    HW217703   2.450   0.819   6.545
 5602SOL     OW17704   6.920   1.573   1.465
 5602SOL    HW117705   6.844   1.610   1.412
 5602SOL    HW217706   6.990   1.644   1.477
 5603SOL     OW17707   5.823   2.191   0.281
 5603SOL    HW117708   5.819   2.290   0.291
 5603SOL    HW217709   5.748   2.160   0.223
 5604SOL     OW17710   6.076   1.866   4.549
 5604SOL    HW117711   6.144   1.800   4.582
 5604SOL    HW217712   6.043   1.837   4.459
 5605SOL     OW17713   6.620   1.199   5.117
 5605SOL    HW117714   6.571   1.195   5.204
 5605SOL    HW217715   6.714   1.228   5.133
 5606SOL     OW17716   4.416   6.451   0.467
 5606SOL    HW117717   4.457   6.501   0.390
 5606SOL    HW217718   4.440   6.497   0.553
 5607SOL     OW17719   6.080   0.895   2.947
 5607SOL    HW117720   6.099   0.991   2.968
 5607SOL    HW217721   6.039   0.888   2.856
 5608SOL     OW17722   6.046   0.448   3.880
 5608SOL    HW117723   5.974   0.432   3.947
 5608SOL    HW217724   6.084   0.540   3.893
 5609SOL     OW17725   3.432   5.627   1.329
 5609SOL    HW117726   3.462   5.535   1.355
 5609SOL    HW217727   3.472   5.694   1.392
 5610SOL     OW17728   4.874   5.733   1.141
 5610SOL    HW117729   4.841   5.703   1.051
 5610SOL    HW217730   4.965   5.695   1.158
 5611SOL     OW17731   0.646   5.846   3.097
 5611SOL    HW117732   0.633   5.749   3.116
 5611SOL    HW217733   0.674   5.894   3.180
 5612SOL     OW17734   3.992   2.587   5.963
 5612SOL    HW117735   4.049   2.509   5.987
 5612SOL    HW217736   4.048   2.669   5.957
 5613SOL     OW17737   6.585   5.794   4.441
 5613SOL    HW117738   6.539   5.716   4.485
 5613SOL    HW217739   6.518   5.867   4.426
 5614SOL     OW17740   4.546   2.499   4.553
 5614SOL    HW117741   4.467   2.485   4.612
 5614SOL    HW217742   4.527   2.462   4.462
 5615SOL     OW17743   6.508   1.397   4.058
 5615SOL    HW117744   6.413   1.416   4.035
 5615SOL    HW217745   6.560   1.483   4.055
 5616SOL     OW17746   2.480   2.390   4.995
 5616SOL    HW117747   2.455   2.295   5.010
 5616SOL    HW217748   2.557   2.415   5.054
 5617SOL     OW17749   2.749   6.029   5.513
 5617SOL    HW117750   2.794   6.112   5.480
 5617SOL    HW217751   2.750   5.960   5.441
 5618SOL     OW17752   0.100   4.519   3.945
 5618SOL    HW117753   0.056   4.436   3.912
 5618SOL    HW217754   0.030   4.589   3.962
 5619SOL     OW17755   3.697   3.995   4.993
 5619SOL    HW117756   3.766   3.978   4.923
 5619SOL    HW217757   3.606   3.977   4.955
 5620SOL     OW17758   4.251   3.473   1.361
 5620SOL    HW117759   4.184   3.445   1.291
 5620SOL    HW217760   4.205   3.529   1.430
 5621SOL     OW17761   2.414   2.902   0.175
 5621SOL    HW117762   2.389   2.986   0.223
 5621SOL    HW217763   2.383   2.908   0.080
 5622SOL     OW17764   5.126   0.674   5.797
 5622SOL    HW117765   5.063   0.678   5.719
 5622SOL    HW217766   5.164   0.765   5.814
 5623SOL     OW17767   4.122   5.822   5.163
 5623SOL    HW117768   4.047   5.756   5.154
 5623SOL    HW217769   4.150   5.828   5.258
 5624SOL     OW17770   0.921   4.504   3.587
 5624SOL    HW117771   0.934   4.406   3.604
 5624SOL    HW217772   0.824   4.527   3.600
 5625SOL     OW17773   6.375   6.870   5.381
 5625SOL    HW117774   6.348   6.960   5.346
 5625SOL    HW217775   6.475   6.863   5.382
 5626SOL     OW17776   2.260   6.216   4.749
 5626SOL    HW117777   2.322   6.169   4.686
 5626SOL    HW217778   2.228   6.301   4.707
 5627SOL     OW17779   0.538   5.076   6.820
 5627SOL    HW117780   0.460   5.061   6.881
 5627SOL    HW217781   0.508   5.069   6.725
 5628SOL     OW17782   1.842   2.326   2.672
 5628SOL    HW117783   1.923   2.330   2.615
 5628SOL    HW217784   1.772   2.269   2.628
 5629SOL     OW17785   3.735   3.725   1.853
 5629SOL    HW117786   3.647   3.715   1.898
 5629SOL    HW217787   3.723   3.773   1.766
 5630SOL     OW17788   1.733   3.783   6.225
 5630SOL    HW117789   1.660   3.799   6.291
 5630SOL    HW217790   1.739   3.685   6.205
 5631SOL     OW17791   4.636   1.960   2.088
 5631SOL    HW117792   4.677   1.928   2.003
 5631SOL    HW217793   4.625   2.059   2.085
 5632SOL     OW17794   2.893   2.272   5.845
 5632SOL    HW117795   2.951   2.299   5.768
 5632SOL    HW217796   2.940   2.202   5.899
 5633SOL     OW17797   6.268   4.828   4.574
 5633SOL    HW117798   6.350   4.800   4.624
 5633SOL    HW217799   6.262   4.777   4.488
 5634SOL     OW17800   2.419   5.229   4.214
 5634SOL    HW117801   2.327   5.266   4.202
 5634SOL    HW217802   2.452   5.250   4.306
 5635SOL     OW17803   1.839   5.010   6.068
 5635SOL    HW117804   1.757   5.053   6.029
 5635SOL    HW217805   1.839   5.023   6.167
 5636SOL     OW17806   5.078   6.986   4.742
 5636SOL    HW117807   5.120   6.903   4.704
 5636SOL    HW217808   5.055   0.026   4.668
 5637SOL     OW17809   5.460   0.259   3.277
 5637SOL    HW117810   5.558   0.281   3.280
 5637SOL    HW217811   5.429   0.231   3.368
 5638SOL     OW17812   6.517   3.933   0.706
 5638SOL    HW117813   6.447   4.003   0.703
 5638SOL    HW217814   6.505   3.877   0.788
 5639SOL     OW17815   1.197   0.582   2.635
 5639SOL    HW117816   1.108   0.542   2.654
 5639SOL    HW217817   1.186   0.664   2.579
 5640SOL     OW17818   3.549   0.352   3.787
 5640SOL    HW117819   3.592   0.282   3.845
 5640SOL    HW217820   3.491   0.307   3.719
 5641SOL     OW17821   0.926   5.254   4.877
 5641SOL    HW117822   0.867   5.325   4.914
 5641SOL    HW217823   0.875   5.200   4.809
 5642SOL     OW17824   1.896   6.620   4.530
 5642SOL    HW117825   1.902   6.712   4.569
 5642SOL    HW217826   1.964   6.611   4.456
 5643SOL     OW17827   4.159   1.574   4.485
 5643SOL    HW117828   4.213   1.659   4.481
 5643SOL    HW217829   4.065   1.593   4.456
 5644SOL     OW17830   2.882   0.163   4.865
 5644SOL    HW117831   2.867   0.076   4.911
 5644SOL    HW217832   2.963   0.157   4.807
 5645SOL     OW17833   6.184   4.817   3.612
 5645SOL    HW117834   6.172   4.908   3.572
 5645SOL    HW217835   6.245   4.763   3.554
 5646SOL     OW17836   1.740   5.588   3.694
 5646SOL    HW117837   1.812   5.521   3.715
 5646SOL    HW217838   1.678   5.596   3.772
 5647SOL     OW17839   4.761   5.602   0.926
 5647SOL    HW117840   4.698   5.525   0.938
 5647SOL    HW217841   4.745   5.645   0.837
 5648SOL     OW17842   1.829   0.342   2.837
 5648SOL    HW117843   1.822   0.249   2.799
 5648SOL    HW217844   1.739   0.370   2.872
 5649SOL     OW17845   0.755   0.840   4.325
 5649SOL    HW117846   0.762   0.931   4.286
 5649SOL    HW217847   0.846   0.801   4.336
 5650SOL     OW17848   0.411   5.558   0.612
 5650SOL    HW117849   0.455   5.646   0.594
 5650SOL    HW217850   0.461   5.486   0.565
 5651SOL     OW17851   1.718   0.907   1.557
 5651SOL    HW117852   1.736   0.991   1.506
 5651SOL    HW217853   1.790   0.841   1.537
 5652SOL     OW17854   6.355   6.972   2.133
 5652SOL    HW117855   6.380   6.886   2.089
 5652SOL    HW217856   6.257   6.973   2.151
 5653SOL     OW17857   6.474   6.383   6.616
 5653SOL    HW117858   6.453   6.317   6.689
 5653SOL    HW217859   6.567   6.418   6.629
 5654SOL     OW17860   0.185   6.269   5.369
 5654SOL    HW117861   0.255   6.253   5.439
 5654SOL    HW217862   0.168   6.367   5.361
 5655SOL     OW17863   0.819   3.676   4.349
 5655SOL    HW117864   0.774   3.752   4.303
 5655SOL    HW217865   0.808   3.686   4.448
 5656SOL     OW17866   0.077   4.016   6.552
 5656SOL    HW117867   0.114   4.032   6.644
 5656SOL    HW217868   0.138   4.057   6.484
 5657SOL     OW17869   5.996   1.980   0.401
 5657SOL    HW117870   5.926   2.045   0.372
 5657SOL    HW217871   6.042   1.942   0.321
 5658SOL     OW17872   3.504   3.989   6.367
 5658SOL    HW117873   3.460   3.961   6.281
 5658SOL    HW217874   3.436   3.992   6.440
 5659SOL     OW17875   3.825   3.339   5.271
 5659SOL    HW117876   3.889   3.393   5.326
 5659SOL    HW217877   3.803   3.389   5.187
 5660SOL     OW17878   4.505   0.093   6.840
 5660SOL    HW117879   4.504   0.044   6.753
 5660SOL    HW217880   4.419   0.143   6.851
 5661SOL     OW17881   1.615   6.126   5.154
 5661SOL    HW117882   1.562   6.210   5.145
 5661SOL    HW217883   1.581   6.059   5.088
 5662SOL     OW17884   2.595   5.648   3.679
 5662SOL    HW117885   2.616   5.628   3.583
 5662SOL    HW217886   2.520   5.590   3.710
 5663SOL     OW17887   1.861   2.790   6.977
 5663SOL    HW117888   1.774   2.790   0.005
 5663SOL    HW217889   1.903   2.700   6.983
 5664SOL     OW17890   6.911   3.683   5.030
 5664SOL    HW117891   6.903   3.776   4.995
 5664SOL    HW217892   6.923   3.620   4.953
 5665SOL     OW17893   1.820   1.164   0.283
 5665SOL    HW117894   1.789   1.099   0.214
 5665SOL    HW217895   1.912   1.140   0.313
 5666SOL     OW17896   5.889   7.010   2.961
 5666SOL    HW117897   5.897   0.081   2.925
 5666SOL    HW217898   5.975   6.985   3.007
 5667SOL     OW17899   1.310   5.422   4.412
 5667SOL    HW117900   1.346   5.358   4.480
 5667SOL    HW217901   1.323   5.384   4.321
 5668SOL     OW17902   5.520   2.790   3.900
 5668SOL    HW117903   5.595   2.812   3.837
 5668SOL    HW217904   5.434   2.823   3.862
 5669SOL     OW17905   0.271   3.228   0.642
 5669SOL    HW117906   0.344   3.204   0.706
 5669SOL    HW217907   0.309   3.279   0.565
 5670SOL     OW17908   0.550   3.742   3.722
 5670SOL    HW117909   0.597   3.654   3.723
 5670SOL    HW217910   0.613   3.813   3.691
 5671SOL     OW17911   6.160   6.333   6.258
 5671SOL    HW117912   6.254   6.301   6.250
 5671SOL    HW217913   6.110   6.314   6.173
 5672SOL     OW17914   4.437   3.918   0.180
 5672SOL    HW117915   4.353   3.965   0.151
 5672SOL    HW217916   4.412   3.838   0.234
 5673SOL     OW17917   1.210   6.874   1.364
 5673SOL    HW117918   1.287   6.912   1.415
 5673SOL    HW217919   1.200   6.921   1.277
 5674SOL     OW17920   0.324   4.741   5.124
 5674SOL    HW117921   0.292   4.683   5.048
 5674SOL    HW217922   0.252   4.748   5.193
 5675SOL     OW17923   4.024   3.086   6.060
 5675SOL    HW117924   3.959   3.091   6.135
 5675SOL    HW217925   4.095   3.156   6.072
 5676SOL     OW17926   2.864   2.250   2.661
 5676SOL    HW117927   2.933   2.219   2.728
 5676SOL    HW217928   2.909   2.268   2.574
 5677SOL     OW17929   0.504   1.263   0.408
 5677SOL    HW117930   0.550   1.293   0.491
 5677SOL    HW217931   0.560   1.196   0.360
 5678SOL     OW17932   4.227   6.495   2.721
 5678SOL    HW117933   4.276   6.581   2.733
 5678SOL    HW217934   4.158   6.486   2.793
 5679SOL     OW17935   6.700   1.244   3.932
 5679SOL    HW117936   6.623   1.305   3.952
 5679SOL    HW217937   6.673   1.149   3.952
 5680SOL     OW17938   1.730   5.295   6.005
 5680SOL    HW117939   1.669   5.266   6.080
 5680SOL    HW217940   1.677   5.303   5.921
 5681SOL     OW17941   0.732   4.079   0.869
 5681SOL    HW117942   0.674   3.998   0.870
 5681SOL    HW217943   0.731   4.120   0.778
 5682SOL     OW17944   2.102   5.333   5.135
 5682SOL    HW117945   2.057   5.256   5.179
 5682SOL    HW217946   2.042   5.371   5.064
 5683SOL     OW17947   3.980   1.120   5.769
 5683SOL    HW117948   3.930   1.205   5.756
 5683SOL    HW217949   4.077   1.134   5.747
 5684SOL     OW17950   2.717   3.557   5.779
 5684SOL    HW117951   2.717   3.476   5.838
 5684SOL    HW217952   2.697   3.638   5.834
 5685SOL     OW17953   1.747   1.906   2.943
 5685SOL    HW117954   1.819   1.865   2.998
 5685SOL    HW217955   1.778   1.995   2.908
 5686SOL     OW17956   2.811   2.003   6.564
 5686SOL    HW117957   2.893   2.041   6.607
 5686SOL    HW217958   2.838   1.945   6.487
 5687SOL     OW17959   1.091   5.213   6.873
 5687SOL    HW117960   1.056   5.288   6.929
 5687SOL    HW217961   1.151   5.156   6.929
 5688SOL     OW17962   0.720   2.506   1.575
 5688SOL    HW117963   0.765   2.424   1.611
 5688SOL    HW217964   0.666   2.549   1.647
 5689SOL     OW17965   3.179   1.536   1.306
 5689SOL    HW117966   3.159   1.497   1.396
 5689SOL    HW217967   3.233   1.471   1.253
 5690SOL     OW17968   2.485   5.962   6.726
 5690SOL    HW117969   2.572   5.988   6.769
 5690SOL    HW217970   2.482   5.996   6.632
 5691SOL     OW17971   3.240   0.372   2.498
 5691SOL    HW117972   3.219   0.469   2.503
 5691SOL    HW217973   3.276   0.341   2.586
 5692SOL     OW17974   5.915   3.848   0.497
 5692SOL    HW117975   5.817   3.861   0.511
 5692SOL    HW217976   5.964   3.870   0.581
 5693SOL     OW17977   5.023   1.553   3.309
 5693SOL    HW117978   5.080   1.633   3.290
 5693SOL    HW217979   4.990   1.514   3.223
 5694SOL     OW17980   1.174   1.196   2.913
 5694SOL    HW117981   1.080   1.167   2.932
 5694SOL    HW217982   1.180   1.230   2.819
 5695SOL     OW17983   1.767   1.876   3.864
 5695SOL    HW117984   1.784   1.883   3.766
 5695SOL    HW217985   1.684   1.824   3.881
 5696SOL     OW17986   0.677   1.305   3.741
 5696SOL    HW117987   0.704   1.322   3.836
 5696SOL    HW217988   0.618   1.224   3.738
 5697SOL     OW17989   6.067   2.618   1.478
 5697SOL    HW117990   6.140   2.592   1.415
 5697SOL    HW217991   6.082   2.712   1.509
 5698SOL     OW17992   1.275   5.088   4.144
 5698SOL    HW117993   1.193   5.068   4.198
 5698SOL    HW217994   1.325   5.003   4.129
 5699SOL     OW17995   0.754   2.550   2.988
 5699SOL    HW117996   0.680   2.575   2.926
 5699SOL    HW217997   0.746   2.454   3.013
 5700SOL     OW17998   6.422   7.008   3.510
 5700SOL    HW117999   6.482   0.064   3.491
 5700SOL    HW218000   6.384   7.016   3.602
 5701SOL     OW18001   0.997   0.204   1.401
 5701SOL    HW118002   1.002   0.295   1.444
 5701SOL    HW218003   0.998   0.134   1.472
 5702SOL     OW18004   2.692   5.336   3.950
 5702SOL    HW118005   2.757   5.338   3.874
 5702SOL    HW218006   2.729   5.389   4.027
 5703SOL     OW18007   6.086   4.549   1.521
 5703SOL    HW118008   6.058   4.453   1.525
 5703SOL    HW218009   6.149   4.562   1.444
 5704SOL     OW18010   4.764   4.052   3.006
 5704SOL    HW118011   4.844   4.015   2.958
 5704SOL    HW218012   4.681   4.027   2.956
 5705SOL     OW18013   4.616   6.712   0.077
 5705SOL    HW118014   4.676   6.640   0.042
 5705SOL    HW218015   4.521   6.691   0.052
 5706SOL     OW18016   0.384   3.993   1.750
 5706SOL    HW118017   0.311   3.928   1.772
 5706SOL    HW218018   0.440   3.958   1.675
 5707SOL     OW18019   0.479   6.696   0.346
 5707SOL    HW118020   0.549   6.705   0.276
 5707SOL    HW218021   0.431   6.783   0.358
 5708SOL     OW18022   5.359   5.660   2.113
 5708SOL    HW118023   5.295   5.711   2.055
 5708SOL    HW218024   5.344   5.683   2.209
 5709SOL     OW18025   1.212   0.664   2.166
 5709SOL    HW118026   1.291   0.724   2.171
 5709SOL    HW218027   1.128   0.715   2.185
 5710SOL     OW18028   2.771   2.763   1.045
 5710SOL    HW118029   2.852   2.721   1.086
 5710SOL    HW218030   2.712   2.799   1.117
 5711SOL     OW18031   4.812   0.806   3.169
 5711SOL    HW118032   4.857   0.855   3.093
 5711SOL    HW218033   4.842   0.845   3.256
 5712SOL     OW18034   6.490   0.252   6.664
 5712SOL    HW118035   6.538   0.258   6.577
 5712SOL    HW218036   6.503   0.336   6.715
 5713SOL     OW18037   3.337   3.279   1.770
 5713SOL    HW118038   3.408   3.215   1.739
 5713SOL    HW218039   3.338   3.284   1.870
 5714SOL     OW18040   0.471   5.082   0.761
 5714SOL    HW118041   0.516   4.993   0.755
 5714SOL    HW218042   0.382   5.072   0.805
 5715SOL     OW18043   0.791   0.723   2.502
 5715SOL    HW118044   0.837   0.652   2.555
 5715SOL    HW218045   0.696   0.697   2.487
 5716SOL     OW18046   1.394   5.000   6.027
 5716SOL    HW118047   1.301   5.010   5.992
 5716SOL    HW218048   1.453   4.963   5.955
 5717SOL     OW18049   1.903   5.093   0.940
 5717SOL    HW118050   1.889   5.138   1.028
 5717SOL    HW218051   1.893   4.994   0.950
 5718SOL     OW18052   0.405   3.127   6.413
 5718SOL    HW118053   0.409   3.071   6.496
 5718SOL    HW218054   0.315   3.118   6.371
 5719SOL     OW18055   2.512   2.782   6.659
 5719SOL    HW118056   2.599   2.822   6.629
 5719SOL    HW218057   2.526   2.687   6.684
 5720SOL     OW18058   2.404   5.931   4.773
 5720SOL    HW118059   2.381   5.902   4.680
 5720SOL    HW218060   2.487   5.986   4.772
 5721SOL     OW18061   6.605   3.495   0.833
 5721SOL    HW118062   6.658   3.520   0.915
 5721SOL    HW218063   6.563   3.577   0.795
 5722SOL     OW18064   6.818   1.983   4.997
 5722SOL    HW118065   6.765   2.036   5.064
 5722SOL    HW218066   6.911   1.970   5.031
 5723SOL     OW18067   4.615   3.277   0.165
 5723SOL    HW118068   4.601   3.324   0.252
 5723SOL    HW218069   4.559   3.322   0.094
 5724SOL     OW18070   5.434   3.246   4.151
 5724SOL    HW118071   5.339   3.274   4.161
 5724SOL    HW218072   5.438   3.148   4.136
 5725SOL     OW18073   5.760   5.012   4.401
 5725SOL    HW118074   5.850   5.052   4.411
 5725SOL    HW218075   5.692   5.070   4.444
 5726SOL     OW18076   6.828   5.109   4.156
 5726SOL    HW118077   6.828   5.054   4.240
 5726SOL    HW218078   6.791   5.054   4.081
 5727SOL     OW18079   6.958   2.105   4.032
 5727SOL    HW118080   6.962   2.162   4.115
 5727SOL    HW218081   6.929   2.161   3.955
 5728SOL     OW18082   3.817   0.470   6.131
 5728SOL    HW118083   3.752   0.395   6.117
 5728SOL    HW218084   3.908   0.440   6.104
 5729SOL     OW18085   1.965   0.578   0.442
 5729SOL    HW118086   1.903   0.552   0.368
 5729SOL    HW218087   2.000   0.670   0.426
 5730SOL     OW18088   5.221   4.889   6.292
 5730SOL    HW118089   5.171   4.975   6.291
 5730SOL    HW218090   5.245   4.862   6.199
 5731SOL     OW18091   0.516   6.834   3.575
 5731SOL    HW118092   0.540   6.744   3.538
 5731SOL    HW218093   0.465   6.823   3.660
 5732SOL     OW18094   6.982   5.326   4.221
 5732SOL    HW118095   6.908   5.377   4.266
 5732SOL    HW218096   6.943   5.271   4.147
 5733SOL     OW18097   4.231   6.856   5.471
 5733SOL    HW118098   4.134   6.859   5.446
 5733SOL    HW218099   4.281   6.803   5.402
 5734SOL     OW18100   0.761   0.050   5.236
 5734SOL    HW118101   0.683   0.037   5.297
 5734SOL    HW218102   0.832   0.103   5.284
 5735SOL     OW18103   4.217   2.066   1.591
 5735SOL    HW118104   4.164   1.992   1.631
 5735SOL    HW218105   4.161   2.148   1.585
 5736SOL     OW18106   6.505   3.291   0.335
 5736SOL    HW118107   6.564   3.365   0.369
 5736SOL    HW218108   6.488   3.305   0.237
 5737SOL     OW18109   5.744   6.486   0.864
 5737SOL    HW118110   5.734   6.465   0.962
 5737SOL    HW218111   5.659   6.526   0.829
 5738SOL     OW18112   2.253   2.830   5.759
 5738SOL    HW118113   2.315   2.907   5.739
 5738SOL    HW218114   2.299   2.767   5.822
 5739SOL     OW18115   1.545   0.379   5.744
 5739SOL    HW118116   1.497   0.292   5.748
 5739SOL    HW218117   1.538   0.425   5.833
 5740SOL     OW18118   4.684   3.888   1.022
 5740SOL    HW118119   4.755   3.836   1.069
 5740SOL    HW218120   4.615   3.917   1.088
 5741SOL     OW18121   1.064   4.786   4.564
 5741SOL    HW118122   0.967   4.811   4.555
 5741SOL    HW218123   1.073   4.687   4.562
 5742SOL     OW18124   5.209   6.865   1.905
 5742SOL    HW118125   5.202   6.901   1.998
 5742SOL    HW218126   5.227   6.940   1.841
 5743SOL     OW18127   2.879   5.886   5.095
 5743SOL    HW118128   2.945   5.889   5.171
 5743SOL    HW218129   2.867   5.791   5.065
 5744SOL     OW18130   4.858   0.456   2.202
 5744SOL    HW118131   4.763   0.478   2.223
 5744SOL    HW218132   4.863   0.400   2.119
 5745SOL     OW18133   2.959   0.866   4.052
 5745SOL    HW118134   3.000   0.819   3.974
 5745SOL    HW218135   2.886   0.927   4.019
 5746SOL     OW18136   5.857   6.566   1.645
 5746SOL    HW118137   5.761   6.593   1.639
 5746SOL    HW218138   5.911   6.640   1.685
 5747SOL     OW18139   6.361   4.551   2.558
 5747SOL    HW118140   6.366   4.463   2.512
 5747SOL    HW218141   6.369   4.625   2.491
 5748SOL     OW18142   2.199   6.175   0.897
 5748SOL    HW118143   2.286   6.216   0.923
 5748SOL    HW218144   2.184   6.091   0.950
 5749SOL     OW18145   1.784   0.296   4.670
 5749SOL    HW118146   1.718   0.348   4.616
 5749SOL    HW218147   1.837   0.236   4.610
 5750SOL     OW18148   5.415   5.805   4.497
 5750SOL    HW118149   5.426   5.888   4.553
 5750SOL    HW218150   5.360   5.738   4.546
 5751SOL     OW18151   2.120   2.846   4.447
 5751SOL    HW118152   2.154   2.776   4.384
 5751SOL    HW218153   2.150   2.825   4.540
 5752SOL     OW18154   6.364   0.685   6.666
 5752SOL    HW118155   6.278   0.735   6.657
 5752SOL    HW218156   6.438   0.738   6.623
 5753SOL     OW18157   3.488   3.806   5.724
 5753SOL    HW118158   3.430   3.886   5.706
 5753SOL    HW218159   3.582   3.826   5.698
 5754SOL     OW18160   5.627   4.721   1.672
 5754SOL    HW118161   5.681   4.715   1.756
 5754SOL    HW218162   5.555   4.789   1.683
 5755SOL     OW18163   2.828   3.968   5.692
 5755SOL    HW118164   2.777   4.026   5.755
 5755SOL    HW218165   2.768   3.938   5.618
 5756SOL     OW18166   6.083   6.165   3.266
 5756SOL    HW118167   6.076   6.206   3.357
 5756SOL    HW218168   6.095   6.237   3.197
 5757SOL     OW18169   6.885   6.582   2.746
 5757SOL    HW118170   6.929   6.519   2.810
 5757SOL    HW218171   6.785   6.569   2.750
 5758SOL     OW18172   2.888   1.244   4.327
 5758SOL    HW118173   2.892   1.302   4.408
 5758SOL    HW218174   2.892   1.147   4.354
 5759SOL     OW18175   4.630   1.697   6.978
 5759SOL    HW118176   4.634   1.797   6.980
 5759SOL    HW218177   4.545   1.668   6.935
 5760SOL     OW18178   0.903   4.860   1.288
 5760SOL    HW118179   0.944   4.911   1.365
 5760SOL    HW218180   0.935   4.765   1.290
 5761SOL     OW18181   5.701   6.855   6.378
 5761SOL    HW118182   5.790   6.839   6.421
 5761SOL    HW218183   5.664   6.769   6.345
 5762SOL     OW18184   4.471   6.536   0.727
 5762SOL    HW118185   4.491   6.629   0.695
 5762SOL    HW218186   4.548   6.502   0.780
 5763SOL     OW18187   0.154   0.092   0.293
 5763SOL    HW118188   0.057   0.104   0.272
 5763SOL    HW218189   0.163   0.049   0.383
 5764SOL     OW18190   4.950   4.535   6.781
 5764SOL    HW118191   4.978   4.630   6.764
 5764SOL    HW218192   4.873   4.512   6.723
 5765SOL     OW18193   6.518   4.348   6.428
 5765SOL    HW118194   6.603   4.397   6.446
 5765SOL    HW218195   6.441   4.412   6.430
 5766SOL     OW18196   2.095   2.599   0.567
 5766SOL    HW118197   2.174   2.621   0.624
 5766SOL    HW218198   2.011   2.616   0.619
 5767SOL     OW18199   2.286   6.326   0.375
 5767SOL    HW118200   2.330   6.305   0.288
 5767SOL    HW218201   2.237   6.413   0.368
 5768SOL     OW18202   6.896   6.711   3.240
 5768SOL    HW118203   6.924   6.792   3.189
 5768SOL    HW218204   6.862   6.739   3.330
 5769SOL     OW18205   2.798   6.437   4.113
 5769SOL    HW118206   2.703   6.446   4.082
 5769SOL    HW218207   2.846   6.373   4.053
 5770SOL     OW18208   6.914   0.168   0.262
 5770SOL    HW118209   6.925   0.251   0.315
 5770SOL    HW218210   6.878   0.095   0.321
 5771SOL     OW18211   0.468   6.153   2.746
 5771SOL    HW118212   0.564   6.179   2.739
 5771SOL    HW218213   0.457   6.082   2.815
 5772SOL     OW18214   6.095   2.551   0.736
 5772SOL    HW118215   6.128   2.579   0.646
 5772SOL    HW218216   6.061   2.457   0.731
 5773SOL     OW18217   4.765   0.742   4.220
 5773SOL    HW118218   4.822   0.718   4.142
 5773SOL    HW218219   4.673   0.766   4.188
 5774SOL     OW18220   3.126   5.263   3.755
 5774SOL    HW118221   3.154   5.226   3.843
 5774SOL    HW218222   3.026   5.269   3.751
 5775SOL     OW18223   1.579   6.996   1.791
 5775SOL    HW118224   1.528   6.960   1.869
 5775SOL    HW218225   1.668   0.007   1.822
 5776SOL     OW18226   6.146   0.744   5.988
 5776SOL    HW118227   6.069   0.790   6.033
 5776SOL    HW218228   6.155   0.651   6.024
 5777SOL     OW18229   6.021   0.195   4.458
 5777SOL    HW118230   6.071   0.233   4.536
 5777SOL    HW218231   5.998   0.268   4.394
 5778SOL     OW18232   1.536   6.790   0.933
 5778SOL    HW118233   1.566   6.704   0.975
 5778SOL    HW218234   1.443   6.811   0.961
 5779SOL     OW18235   4.004   0.999   0.971
 5779SOL    HW118236   4.034   0.922   0.915
 5779SOL    HW218237   4.083   1.054   0.998
 5780SOL     OW18238   5.733   5.860   2.713
 5780SOL    HW118239   5.822   5.854   2.669
 5780SOL    HW218240   5.691   5.769   2.718
 5781SOL     OW18241   1.476   4.154   4.580
 5781SOL    HW118242   1.485   4.064   4.622
 5781SOL    HW218243   1.541   4.217   4.623
 5782SOL     OW18244   1.263   0.752   0.773
 5782SOL    HW118245   1.328   0.676   0.771
 5782SOL    HW218246   1.309   0.836   0.744
 5783SOL     OW18247   2.143   1.667   1.231
 5783SOL    HW118248   2.108   1.575   1.219
 5783SOL    HW218249   2.151   1.688   1.328
 5784SOL     OW18250   0.237   6.458   0.065
 5784SOL    HW118251   0.318   6.420   0.020
 5784SOL    HW218252   0.237   6.558   0.055
 5785SOL     OW18253   1.829   2.248   1.096
 5785SOL    HW118254   1.768   2.312   1.143
 5785SOL    HW218255   1.907   2.228   1.154
 5786SOL     OW18256   1.198   4.302   1.106
 5786SOL    HW118257   1.133   4.281   1.033
 5786SOL    HW218258   1.168   4.259   1.191
 5787SOL     OW18259   4.849   2.287   4.775
 5787SOL    HW118260   4.937   2.279   4.822
 5787SOL    HW218261   4.811   2.378   4.790
 5788SOL     OW18262   2.940   0.592   1.528
 5788SOL    HW118263   2.974   0.650   1.454
 5788SOL    HW218264   2.877   0.645   1.585
 5789SOL     OW18265   2.705   2.929   6.542
 5789SOL    HW118266   2.693   2.963   6.449
 5789SOL    HW218267   2.802   2.932   6.567
 5790SOL     OW18268   6.766   5.684   5.561
 5790SOL    HW118269   6.804   5.714   5.649
 5790SOL    HW218270   6.838   5.689   5.491
 5791SOL     OW18271   2.682   2.035   2.576
 5791SOL    HW118272   2.635   2.083   2.502
 5791SOL    HW218273   2.748   2.096   2.620
 5792SOL     OW18274   5.128   3.880   3.148
 5792SOL    HW118275   5.127   3.821   3.067
 5792SOL    HW218276   5.188   3.840   3.217
 5793SOL     OW18277   5.713   0.892   5.462
 5793SOL    HW118278   5.799   0.930   5.497
 5793SOL    HW218279   5.729   0.852   5.372
 5794SOL     OW18280   3.456   0.321   6.998
 5794SOL    HW118281   3.518   0.272   6.937
 5794SOL    HW218282   3.378   0.356   6.946
 5795SOL     OW18283   0.338   6.620   0.852
 5795SOL    HW118284   0.340   6.520   0.845
 5795SOL    HW218285   0.254   6.654   0.809
 5796SOL     OW18286   4.666   0.550   6.409
 5796SOL    HW118287   4.686   0.488   6.333
 5796SOL    HW218288   4.730   0.627   6.406
 5797SOL     OW18289   5.282   0.929   0.208
 5797SOL    HW118290   5.223   0.942   0.288
 5797SOL    HW218291   5.242   0.859   0.149
 5798SOL     OW18292   0.452   3.694   4.237
 5798SOL    HW118293   0.532   3.754   4.235
 5798SOL    HW218294   0.402   3.708   4.322
 5799SOL     OW18295   0.316   7.017   3.416
 5799SOL    HW118296   0.350   0.088   3.425
 5799SOL    HW218297   0.392   6.953   3.424
 5800SOL     OW18298   0.716   0.303   1.610
 5800SOL    HW118299   0.716   0.204   1.618
 5800SOL    HW218300   0.766   0.343   1.687
 5801SOL     OW18301   2.297   2.508   3.692
 5801SOL    HW118302   2.199   2.515   3.707
 5801SOL    HW218303   2.339   2.452   3.764
 5802SOL     OW18304   6.015   3.024   2.473
 5802SOL    HW118305   5.987   3.057   2.563
 5802SOL    HW218306   5.966   3.074   2.402
 5803SOL     OW18307   0.962   4.615   3.900
 5803SOL    HW118308   0.971   4.672   3.981
 5803SOL    HW218309   0.945   4.673   3.820
 5804SOL     OW18310   6.774   6.265   3.561
 5804SOL    HW118311   6.757   6.357   3.597
 5804SOL    HW218312   6.724   6.198   3.616
 5805SOL     OW18313   1.653   2.847   0.670
 5805SOL    HW118314   1.597   2.858   0.752
 5805SOL    HW218315   1.642   2.754   0.634
 5806SOL     OW18316   0.121   4.533   5.481
 5806SOL    HW118317   0.060   4.524   5.561
 5806SOL    HW218318   0.136   4.442   5.441
 5807SOL     OW18319   1.675   5.738   0.856
 5807SOL    HW118320   1.718   5.654   0.889
 5807SOL    HW218321   1.740   5.814   0.865
 5808SOL     OW18322   6.812   6.593   5.214
 5808SOL    HW118323   6.859   6.507   5.195
 5808SOL    HW218324   6.713   6.579   5.207
 5809SOL     OW18325   6.445   2.452   5.389
 5809SOL    HW118326   6.511   2.514   5.349
 5809SOL    HW218327   6.443   2.464   5.488
 5810SOL     OW18328   3.743   0.908   5.017
 5810SOL    HW118329   3.742   0.853   4.933
 5810SOL    HW218330   3.813   0.979   5.010
 5811SOL     OW18331   2.820   2.141   5.357
 5811SOL    HW118332   2.867   2.229   5.347
 5811SOL    HW218333   2.724   2.151   5.331
 5812SOL     OW18334   5.292   4.026   5.971
 5812SOL    HW118335   5.358   3.957   5.941
 5812SOL    HW218336   5.325   4.070   6.055
 5813SOL     OW18337   3.005   6.139   1.047
 5813SOL    HW118338   2.988   6.142   1.146
 5813SOL    HW218339   3.026   6.230   1.014
 5814SOL     OW18340   6.905   2.454   2.063
 5814SOL    HW118341   6.940   2.361   2.059
 5814SOL    HW218342   6.977   2.519   2.037
 5815SOL     OW18343   5.175   1.606   4.407
 5815SOL    HW118344   5.087   1.561   4.387
 5815SOL    HW218345   5.158   1.701   4.432
 5816SOL     OW18346   6.456   4.815   1.703
 5816SOL    HW118347   6.360   4.786   1.700
 5816SOL    HW218348   6.505   4.762   1.772
 5817SOL     OW18349   6.119   5.236   5.793
 5817SOL    HW118350   6.059   5.158   5.777
 5817SOL    HW218351   6.075   5.319   5.761
 5818SOL     OW18352   0.325   5.725   4.885
 5818SOL    HW118353   0.273   5.777   4.817
 5818SOL    HW218354   0.377   5.653   4.839
 5819SOL     OW18355   2.826   4.996   6.117
 5819SOL    HW118356   2.896   5.053   6.158
 5819SOL    HW218357   2.858   4.962   6.029
 5820SOL     OW18358   4.279   4.885   2.241
 5820SOL    HW118359   4.317   4.963   2.291
 5820SOL    HW218360   4.353   4.833   2.198
 5821SOL     OW18361   6.395   1.305   1.860
 5821SOL    HW118362   6.390   1.215   1.818
 5821SOL    HW218363   6.329   1.311   1.935
 5822SOL     OW18364   1.489   2.557   2.455
 5822SOL    HW118365   1.398   2.525   2.481
 5822SOL    HW218366   1.524   2.500   2.380
 5823SOL     OW18367   2.589   6.746   4.686
 5823SOL    HW118368   2.508   6.689   4.689
 5823SOL    HW218369   2.573   6.830   4.738
 5824SOL     OW18370   0.975   6.944   3.577
 5824SOL    HW118371   1.005   6.991   3.660
 5824SOL    HW218372   1.054   6.925   3.519
 5825SOL     OW18373   0.221   5.502   5.006
 5825SOL    HW118374   0.241   5.590   4.963
 5825SOL    HW218375   0.125   5.498   5.032
 5826SOL     OW18376   0.362   6.936   5.899
 5826SOL    HW118377   0.351   7.010   5.832
 5826SOL    HW218378   0.280   6.878   5.898
 5827SOL     OW18379   1.122   3.618   4.555
 5827SOL    HW118380   1.057   3.672   4.608
 5827SOL    HW218381   1.204   3.601   4.609
 5828SOL     OW18382   4.555   1.014   3.300
 5828SOL    HW118383   4.552   0.948   3.225
 5828SOL    HW218384   4.643   1.006   3.348
 5829SOL     OW18385   1.580   0.644   4.711
 5829SOL    HW118386   1.549   0.607   4.623
 5829SOL    HW218387   1.558   0.741   4.717
 5830SOL     OW18388   4.123   6.485   5.074
 5830SOL    HW118389   4.058   6.511   5.145
 5830SOL    HW218390   4.214   6.473   5.116
 5831SOL     OW18391   1.294   1.890   5.686
 5831SOL    HW118392   1.240   1.904   5.769
 5831SOL    HW218393   1.387   1.923   5.701
 5832SOL     OW18394   3.649   4.344   0.867
 5832SOL    HW118395   3.661   4.250   0.836
 5832SOL    HW218396   3.590   4.345   0.948
 5833SOL     OW18397   3.933   3.279   5.637
 5833SOL    HW118398   3.874   3.324   5.571
 5833SOL    HW218399   3.882   3.259   5.720
 5834SOL     OW18400   6.424   3.930   6.696
 5834SOL    HW118401   6.393   4.022   6.674
 5834SOL    HW218402   6.407   3.869   6.618
 5835SOL     OW18403   6.184   1.976   2.385
 5835SOL    HW118404   6.222   2.050   2.330
 5835SOL    HW218405   6.231   1.971   2.473
 5836SOL     OW18406   2.463   6.928   1.618
 5836SOL    HW118407   2.385   6.991   1.621
 5836SOL    HW218408   2.497   6.922   1.524
 5837SOL     OW18409   3.997   3.338   6.645
 5837SOL    HW118410   3.978   3.362   6.740
 5837SOL    HW218411   4.094   3.354   6.625
 5838SOL     OW18412   3.375   1.360   1.204
 5838SOL    HW118413   3.397   1.367   1.301
 5838SOL    HW218414   3.437   1.294   1.160
 5839SOL     OW18415   0.598   2.409   0.795
 5839SOL    HW118416   0.569   2.498   0.829
 5839SOL    HW218417   0.586   2.340   0.866
 5840SOL     OW18418   0.521   3.663   0.527
 5840SOL    HW118419   0.610   3.709   0.536
 5840SOL    HW218420   0.450   3.732   0.510
 5841SOL     OW18421   5.216   0.341   1.447
 5841SOL    HW118422   5.162   0.260   1.426
 5841SOL    HW218423   5.228   0.396   1.364
 5842SOL     OW18424   4.466   2.069   1.698
 5842SOL    HW118425   4.412   2.060   1.614
 5842SOL    HW218426   4.414   2.121   1.766
 5843SOL     OW18427   1.738   3.487   1.175
 5843SOL    HW118428   1.697   3.530   1.095
 5843SOL    HW218429   1.809   3.423   1.145
 5844SOL     OW18430   1.141   6.240   5.357
 5844SOL    HW118431   1.116   6.183   5.435
 5844SOL    HW218432   1.110   6.334   5.373
 5845SOL     OW18433   1.198   0.238   2.308
 5845SOL    HW118434   1.285   0.200   2.339
 5845SOL    HW218435   1.215   0.326   2.262
 5846SOL     OW18436   6.046   3.599   5.698
 5846SOL    HW118437   6.035   3.695   5.671
 5846SOL    HW218438   6.137   3.567   5.673
 5847SOL     OW18439   2.664   2.486   1.824
 5847SOL    HW118440   2.625   2.437   1.901
 5847SOL    HW218441   2.764   2.482   1.829
 5848SOL     OW18442   1.735   5.898   3.856
 5848SOL    HW118443   1.803   5.863   3.921
 5848SOL    HW218444   1.735   5.840   3.775
 5849SOL     OW18445   2.165   6.758   5.325
 5849SOL    HW118446   2.133   6.747   5.231
 5849SOL    HW218447   2.088   6.749   5.389
 5850SOL     OW18448   0.401   3.242   1.565
 5850SOL    HW118449   0.483   3.298   1.573
 5850SOL    HW218450   0.321   3.301   1.554
 5851SOL     OW18451   5.108   3.475   3.870
 5851SOL    HW118452   5.160   3.392   3.889
 5851SOL    HW218453   5.170   3.545   3.835
 5852SOL     OW18454   4.684   6.166   2.276
 5852SOL    HW118455   4.605   6.215   2.313
 5852SOL    HW218456   4.689   6.074   2.315
 5853SOL     OW18457   4.645   5.652   5.804
 5853SOL    HW118458   4.652   5.742   5.761
 5853SOL    HW218459   4.563   5.649   5.862
 5854SOL     OW18460   4.258   4.515   5.750
 5854SOL    HW118461   4.174   4.474   5.785
 5854SOL    HW218462   4.315   4.444   5.708
 5855SOL     OW18463   1.615   2.367   4.451
 5855SOL    HW118464   1.699   2.329   4.490
 5855SOL    HW218465   1.545   2.371   4.522
 5856SOL     OW18466   1.042   6.730   2.614
 5856SOL    HW118467   1.034   6.816   2.564
 5856SOL    HW218468   1.138   6.703   2.619
 5857SOL     OW18469   6.262   3.548   5.310
 5857SOL    HW118470   6.203   3.485   5.261
 5857SOL    HW218471   6.257   3.529   5.408
 5858SOL     OW18472   2.486   2.550   2.918
 5858SOL    HW118473   2.556   2.485   2.886
 5858SOL    HW218474   2.396   2.515   2.895
 5859SOL     OW18475   6.295   5.880   1.369
 5859SOL    HW118476   6.285   5.876   1.270
 5859SOL    HW218477   6.335   5.968   1.394
 5860SOL     OW18478   0.584   4.658   3.209
 5860SOL    HW118479   0.639   4.578   3.234
 5860SOL    HW218480   0.644   4.737   3.198
 5861SOL     OW18481   4.710   0.468   4.449
 5861SOL    HW118482   4.746   0.551   4.493
 5861SOL    HW218483   4.669   0.493   4.361
 5862SOL     OW18484   6.446   5.762   1.644
 5862SOL    HW118485   6.449   5.674   1.690
 5862SOL    HW218486   6.536   5.785   1.608
 5863SOL     OW18487   3.051   1.731   4.941
 5863SOL    HW118488   3.136   1.685   4.914
 5863SOL    HW218489   3.023   1.794   4.869
 5864SOL     OW18490   3.554   3.824   2.603
 5864SOL    HW118491   3.634   3.881   2.621
 5864SOL    HW218492   3.506   3.805   2.689
 5865SOL     OW18493   5.459   0.265   5.665
 5865SOL    HW118494   5.416   0.220   5.743
 5865SOL    HW218495   5.512   0.344   5.698
 5866SOL     OW18496   3.301   2.781   0.918
 5866SOL    HW118497   3.333   2.760   1.011
 5866SOL    HW218498   3.366   2.842   0.874
 5867SOL     OW18499   1.885   2.786   1.822
 5867SOL    HW118500   1.828   2.777   1.741
 5867SOL    HW218501   1.845   2.853   1.884
 5868SOL     OW18502   0.896   1.826   5.847
 5868SOL    HW118503   0.875   1.920   5.874
 5868SOL    HW218504   0.966   1.789   5.908
 5869SOL     OW18505   1.950   4.333   3.565
 5869SOL    HW118506   1.945   4.250   3.621
 5869SOL    HW218507   1.859   4.357   3.533
 5870SOL     OW18508   4.243   6.226   5.643
 5870SOL    HW118509   4.319   6.177   5.686
 5870SOL    HW218510   4.258   6.231   5.544
 5871SOL     OW18511   4.047   3.601   2.186
 5871SOL    HW118512   4.094   3.670   2.131
 5871SOL    HW218513   4.105   3.520   2.195
 5872SOL     OW18514   3.941   6.925   0.956
 5872SOL    HW118515   3.993   6.850   0.916
 5872SOL    HW218516   3.874   6.959   0.889
 5873SOL     OW18517   3.123   6.655   2.339
 5873SOL    HW118518   3.050   6.610   2.391
 5873SOL    HW218519   3.209   6.608   2.355
 5874SOL     OW18520   2.246   4.687   4.721
 5874SOL    HW118521   2.300   4.763   4.684
 5874SOL    HW218522   2.304   4.606   4.730
 5875SOL     OW18523   3.650   2.021   0.390
 5875SOL    HW118524   3.689   2.052   0.477
 5875SOL    HW218525   3.621   1.926   0.399
 5876SOL     OW18526   3.925   3.479   1.931
 5876SOL    HW118527   3.878   3.393   1.913
 5876SOL    HW218528   3.964   3.478   2.023
 5877SOL     OW18529   5.965   6.359   0.629
 5877SOL    HW118530   5.919   6.283   0.676
 5877SOL    HW218531   5.974   6.436   0.692
 5878SOL     OW18532   0.579   6.288   3.821
 5878SOL    HW118533   0.521   6.348   3.876
 5878SOL    HW218534   0.622   6.342   3.748
 5879SOL     OW18535   1.265   3.532   0.039
 5879SOL    HW118536   1.341   3.587   0.074
 5879SOL    HW218537   1.247   3.557   6.967
 5880SOL     OW18538   3.366   4.118   0.668
 5880SOL    HW118539   3.315   4.100   0.752
 5880SOL    HW218540   3.365   4.036   0.610
 5881SOL     OW18541   6.689   5.228   3.111
 5881SOL    HW118542   6.789   5.231   3.122
 5881SOL    HW218543   6.646   5.285   3.181
 5882SOL     OW18544   6.713   6.302   0.928
 5882SOL    HW118545   6.729   6.270   1.021
 5882SOL    HW218546   6.659   6.386   0.932
 5883SOL     OW18547   0.634   1.869   6.493
 5883SOL    HW118548   0.701   1.813   6.445
 5883SOL    HW218549   0.589   1.814   6.563
 5884SOL     OW18550   2.601   1.657   3.881
 5884SOL    HW118551   2.516   1.662   3.933
 5884SOL    HW218552   2.584   1.684   3.786
 5885SOL     OW18553   0.183   0.419   2.443
 5885SOL    HW118554   0.129   0.417   2.527
 5885SOL    HW218555   0.128   0.457   2.369
 5886SOL     OW18556   0.329   1.844   5.120
 5886SOL    HW118557   0.239   1.833   5.078
 5886SOL    HW218558   0.393   1.777   5.081
 5887SOL     OW18559   3.110   1.039   3.564
 5887SOL    HW118560   3.022   1.068   3.602
 5887SOL    HW218561   3.179   1.108   3.585
 5888SOL     OW18562   2.821   0.843   2.590
 5888SOL    HW118563   2.863   0.924   2.632
 5888SOL    HW218564   2.871   0.762   2.620
 5889SOL     OW18565   1.113   6.202   1.096
 5889SOL    HW118566   1.201   6.157   1.114
 5889SOL    HW218567   1.080   6.176   1.005
 5890SOL     OW18568   1.513   6.985   4.946
 5890SOL    HW118569   1.588   0.016   4.986
 5890SOL    HW218570   1.545   6.893   4.925
 5891SOL     OW18571   2.940   3.100   6.138
 5891SOL    HW118572   2.974   3.155   6.214
 5891SOL    HW218573   2.937   3.003   6.165
 5892SOL     OW18574   0.382   5.596   1.349
 5892SOL    HW118575   0.288   5.630   1.353
 5892SOL    HW218576   0.412   5.571   1.440
 5893SOL     OW18577   1.818   4.047   4.078
 5893SOL    HW118578   1.729   4.001   4.072
 5893SOL    HW218579   1.830   4.106   3.998
 5894SOL     OW18580   0.583   5.777   3.906
 5894SOL    HW118581   0.524   5.753   3.829
 5894SOL    HW218582   0.527   5.813   3.981
 5895SOL     OW18583   5.607   3.372   4.280
 5895SOL    HW118584   5.555   3.441   4.330
 5895SOL    HW218585   5.544   3.312   4.231
 5896SOL     OW18586   4.124   1.355   0.848
 5896SOL    HW118587   4.059   1.308   0.788
 5896SOL    HW218588   4.213   1.361   0.803
 5897SOL     OW18589   3.758   0.811   1.513
 5897SOL    HW118590   3.730   0.760   1.432
 5897SOL    HW218591   3.831   0.875   1.489
 5898SOL     OW18592   2.446   6.298   3.088
 5898SOL    HW118593   2.376   6.273   3.021
 5898SOL    HW218594   2.482   6.388   3.066
 5899SOL     OW18595   4.983   6.760   5.650
 5899SOL    HW118596   5.043   6.794   5.722
 5899SOL    HW218597   4.956   6.666   5.670
 5900SOL     OW18598   4.870   5.299   3.260
 5900SOL    HW118599   4.795   5.364   3.274
 5900SOL    HW218600   4.939   5.340   3.201
 5901SOL     OW18601   2.959   0.474   0.191
 5901SOL    HW118602   2.971   0.541   0.265
 5901SOL    HW218603   3.048   0.450   0.152
 5902SOL     OW18604   6.562   2.301   6.797
 5902SOL    HW118605   6.647   2.257   6.825
 5902SOL    HW218606   6.580   2.397   6.777
 5903SOL     OW18607   4.189   3.518   1.060
 5903SOL    HW118608   4.124   3.578   1.012
 5903SOL    HW218609   4.280   3.561   1.060
 5904SOL     OW18610   1.029   3.617   1.602
 5904SOL    HW118611   1.048   3.715   1.594
 5904SOL    HW218612   0.980   3.585   1.521
 5905SOL     OW18613   6.281   6.366   2.949
 5905SOL    HW118614   6.204   6.304   2.938
 5905SOL    HW218615   6.275   6.440   2.881
 5906SOL     OW18616   4.535   1.730   4.056
 5906SOL    HW118617   4.463   1.799   4.063
 5906SOL    HW218618   4.499   1.641   4.086
 5907SOL     OW18619   1.569   5.372   1.494
 5907SOL    HW118620   1.647   5.310   1.496
 5907SOL    HW218621   1.485   5.320   1.486
 5908SOL     OW18622   0.306   2.406   6.554
 5908SOL    HW118623   0.372   2.366   6.618
 5908SOL    HW218624   0.302   2.505   6.568
 5909SOL     OW18625   6.998   4.961   1.011
 5909SOL    HW118626   7.010   5.019   1.091
 5909SOL    HW218627   0.030   4.997   0.935
 5910SOL     OW18628   0.681   2.949   3.276
 5910SOL    HW118629   0.687   2.916   3.182
 5910SOL    HW218630   0.744   3.025   3.289
 5911SOL     OW18631   6.281   6.577   6.528
 5911SOL    HW118632   6.216   6.567   6.603
 5911SOL    HW218633   6.348   6.503   6.532
 5912SOL     OW18634   0.008   0.367   5.439
 5912SOL    HW118635   0.034   0.370   5.342
 5912SOL    HW218636   6.977   0.448   5.462
 5913SOL     OW18637   4.859   2.782   6.293
 5913SOL    HW118638   4.906   2.764   6.206
 5913SOL    HW218639   4.791   2.711   6.310
 5914SOL     OW18640   1.285   5.478   6.850
 5914SOL    HW118641   1.198   5.443   6.886
 5914SOL    HW218642   1.289   5.463   6.752
 5915SOL     OW18643   4.726   6.260   1.652
 5915SOL    HW118644   4.695   6.225   1.740
 5915SOL    HW218645   4.720   6.360   1.651
 5916SOL     OW18646   6.403   6.040   3.193
 5916SOL    HW118647   6.443   6.077   3.110
 5916SOL    HW218648   6.398   6.111   3.263
 5917SOL     OW18649   2.981   3.934   4.542
 5917SOL    HW118650   2.968   3.894   4.451
 5917SOL    HW218651   3.009   3.862   4.606
 5918SOL     OW18652   2.253   4.908   5.324
 5918SOL    HW118653   2.208   4.903   5.235
 5918SOL    HW218654   2.351   4.892   5.313
 5919SOL     OW18655   3.343   3.007   3.239
 5919SOL    HW118656   3.399   3.090   3.232
 5919SOL    HW218657   3.396   2.929   3.207
 5920SOL     OW18658   5.277   0.816   6.117
 5920SOL    HW118659   5.217   0.854   6.046
 5920SOL    HW218660   5.241   0.841   6.207
 5921SOL     OW18661   4.348   5.141   6.543
 5921SOL    HW118662   4.347   5.232   6.583
 5921SOL    HW218663   4.443   5.112   6.527
 5922SOL     OW18664   6.088   4.246   4.735
 5922SOL    HW118665   6.117   4.258   4.640
 5922SOL    HW218666   6.028   4.321   4.762
 5923SOL     OW18667   6.781   1.986   1.971
 5923SOL    HW118668   6.804   2.005   1.875
 5923SOL    HW218669   6.700   1.928   1.975
 5924SOL     OW18670   6.317   0.032   2.689
 5924SOL    HW118671   6.408   7.018   2.666
 5924SOL    HW218672   6.266   6.986   2.741
 5925SOL     OW18673   3.141   6.693   2.031
 5925SOL    HW118674   3.152   6.648   2.120
 5925SOL    HW218675   3.227   6.738   2.006
 5926SOL     OW18676   3.910   4.911   2.388
 5926SOL    HW118677   3.853   4.897   2.468
 5926SOL    HW218678   3.871   4.865   2.309
 5927SOL     OW18679   0.850   5.387   2.337
 5927SOL    HW118680   0.783   5.356   2.270
 5927SOL    HW218681   0.942   5.373   2.301
 5928SOL     OW18682   3.460   0.018   0.547
 5928SOL    HW118683   3.375   0.029   0.599
 5928SOL    HW218684   3.439   0.000   0.451
 5929SOL     OW18685   6.425   0.249   5.462
 5929SOL    HW118686   6.340   0.276   5.509
 5929SOL    HW218687   6.455   0.324   5.403
 5930SOL     OW18688   0.123   3.573   3.321
 5930SOL    HW118689   0.075   3.624   3.249
 5930SOL    HW218690   0.058   3.551   3.394
 5931SOL     OW18691   6.549   6.245   3.021
 5931SOL    HW118692   6.489   6.280   2.950
 5931SOL    HW218693   6.546   6.307   3.100
 5932SOL     OW18694   3.445   0.397   0.423
 5932SOL    HW118695   3.498   0.450   0.357
 5932SOL    HW218696   3.454   0.439   0.513
 5933SOL     OW18697   6.513   5.104   4.346
 5933SOL    HW118698   6.579   5.042   4.389
 5933SOL    HW218699   6.491   5.178   4.410
 5934SOL     OW18700   3.808   2.875   5.176
 5934SOL    HW118701   3.869   2.806   5.214
 5934SOL    HW218702   3.771   2.931   5.251
 5935SOL     OW18703   7.001   4.921   6.523
 5935SOL    HW118704   6.975   4.825   6.519
 5935SOL    HW218705   0.078   4.929   6.515
 5936SOL     OW18706   3.021   3.126   1.583
 5936SOL    HW118707   3.044   3.203   1.642
 5936SOL    HW218708   2.967   3.059   1.634
 5937SOL     OW18709   5.875   3.431   1.894
 5937SOL    HW118710   5.780   3.402   1.883
 5937SOL    HW218711   5.935   3.351   1.898
 5938SOL     OW18712   6.291   5.775   3.652
 5938SOL    HW118713   6.204   5.767   3.604
 5938SOL    HW218714   6.314   5.872   3.662
 5939SOL     OW18715   2.651   5.711   3.975
 5939SOL    HW118716   2.619   5.639   4.038
 5939SOL    HW218717   2.633   5.683   3.881
 5940SOL     OW18718   4.340   5.065   2.830
 5940SOL    HW118719   4.406   5.009   2.782
 5940SOL    HW218720   4.323   5.149   2.778
 5941SOL     OW18721   5.690   3.346   2.389
 5941SOL    HW118722   5.683   3.440   2.423
 5941SOL    HW218723   5.611   3.324   2.333
 5942SOL     OW18724   5.151   3.486   6.847
 5942SOL    HW118725   5.104   3.406   6.809
 5942SOL    HW218726   5.132   3.565   6.790
 5943SOL     OW18727   3.340   3.896   6.128
 5943SOL    HW118728   3.257   3.941   6.095
 5943SOL    HW218729   3.354   3.812   6.077
 5944SOL     OW18730   6.755   2.248   0.007
 5944SOL    HW118731   6.784   2.187   6.956
 5944SOL    HW218732   6.743   2.197   0.091
 5945SOL     OW18733   6.891   4.667   5.168
 5945SOL    HW118734   6.909   4.669   5.070
 5945SOL    HW218735   6.816   4.604   5.188
 5946SOL     OW18736   3.529   3.577   6.289
 5946SOL    HW118737   3.610   3.543   6.241
 5946SOL    HW218738   3.512   3.672   6.261
 5947SOL     OW18739   3.143   3.331   3.220
 5947SOL    HW118740   3.070   3.399   3.211
 5947SOL    HW218741   3.141   3.270   3.141
 5948SOL     OW18742   3.688   4.883   2.545
 5948SOL    HW118743   3.688   4.957   2.612
 5948SOL    HW218744   3.624   4.905   2.471
 5949SOL     OW18745   5.218   4.621   1.584
 5949SOL    HW118746   5.218   4.663   1.675
 5949SOL    HW218747   5.294   4.658   1.530
 5950SOL     OW18748   5.648   1.875   4.851
 5950SOL    HW118749   5.549   1.885   4.840
 5950SOL    HW218750   5.669   1.852   4.946
 5951SOL     OW18751   0.842   5.614   4.623
 5951SOL    HW118752   0.913   5.595   4.690
 5951SOL    HW218753   0.833   5.536   4.561
 5952SOL     OW18754   5.167   6.050   3.483
 5952SOL    HW118755   5.206   5.975   3.536
 5952SOL    HW218756   5.077   6.025   3.450
 5953SOL     OW18757   6.945   4.243   4.861
 5953SOL    HW118758   6.882   4.223   4.785
 5953SOL    HW218759   7.000   4.323   4.838
 5954SOL     OW18760   6.443   5.332   5.265
 5954SOL    HW118761   6.464   5.365   5.173
 5954SOL    HW218762   6.473   5.237   5.274
 5955SOL     OW18763   4.465   5.628   2.033
 5955SOL    HW118764   4.518   5.557   1.986
 5955SOL    HW218765   4.485   5.717   1.992
 5956SOL     OW18766   5.504   1.966   4.242
 5956SOL    HW118767   5.581   2.026   4.219
 5956SOL    HW218768   5.418   2.013   4.223
 5957SOL     OW18769   3.203   1.899   4.421
 5957SOL    HW118770   3.203   1.952   4.506
 5957SOL    HW218771   3.225   1.804   4.442
 5958SOL     OW18772   4.174   6.980   2.416
 5958SOL    HW118773   4.266   7.003   2.447
 5958SOL    HW218774   4.164   7.005   2.320
 5959SOL     OW18775   4.558   2.960   5.734
 5959SOL    HW118776   4.523   3.048   5.701
 5959SOL    HW218777   4.583   2.902   5.657
 5960SOL     OW18778   3.656   5.950   5.105
 5960SOL    HW118779   3.745   5.980   5.071
 5960SOL    HW218780   3.610   5.897   5.034
 5961SOL     OW18781   4.849   1.710   2.873
 5961SOL    HW118782   4.828   1.742   2.965
 5961SOL    HW218783   4.881   1.615   2.877
 5962SOL     OW18784   5.811   6.304   6.604
 5962SOL    HW118785   5.785   6.400   6.602
 5962SOL    HW218786   5.909   6.297   6.626
 5963SOL     OW18787   2.985   3.981   6.268
 5963SOL    HW118788   3.007   4.028   6.182
 5963SOL    HW218789   3.031   3.893   6.270
 5964SOL     OW18790   1.556   6.678   4.880
 5964SOL    HW118791   1.478   6.628   4.917
 5964SOL    HW218792   1.560   6.665   4.781
 5965SOL     OW18793   2.245   1.618   7.018
 5965SOL    HW118794   2.336   1.654   0.019
 5965SOL    HW218795   2.248   1.573   6.930
 5966SOL     OW18796   2.544   6.287   6.367
 5966SOL    HW118797   2.488   6.342   6.305
 5966SOL    HW218798   2.510   6.298   6.460
 5967SOL     OW18799   2.512   0.613   5.807
 5967SOL    HW118800   2.478   0.531   5.762
 5967SOL    HW218801   2.501   0.692   5.747
 5968SOL     OW18802   5.250   2.547   0.473
 5968SOL    HW118803   5.290   2.579   0.387
 5968SOL    HW218804   5.320   2.548   0.545
 5969SOL     OW18805   6.186   0.500   6.882
 5969SOL    HW118806   6.235   0.472   6.965
 5969SOL    HW218807   6.241   0.567   6.833
 5970SOL     OW18808   6.915   4.719   1.624
 5970SOL    HW118809   6.941   4.740   1.530
 5970SOL    HW218810   6.990   4.670   1.670
 5971SOL     OW18811   6.876   0.766   1.694
 5971SOL    HW118812   6.961   0.787   1.647
 5971SOL    HW218813   6.891   0.693   1.761
 5972SOL     OW18814   4.674   5.906   6.275
 5972SOL    HW118815   4.624   5.953   6.348
 5972SOL    HW218816   4.772   5.910   6.293
 5973SOL     OW18817   1.724   2.494   2.883
 5973SOL    HW118818   1.804   2.445   2.848
 5973SOL    HW218819   1.675   2.537   2.806
 5974SOL     OW18820   5.222   6.174   0.345
 5974SOL    HW118821   5.307   6.139   0.384
 5974SOL    HW218822   5.224   6.161   0.245
 5975SOL     OW18823   3.721   0.024   0.846
 5975SOL    HW118824   3.642   6.988   0.862
 5975SOL    HW218825   3.693   0.106   0.796
 5976SOL     OW18826   4.106   2.970   5.690
 5976SOL    HW118827   4.055   3.038   5.742
 5976SOL    HW218828   4.042   2.914   5.636
 5977SOL     OW18829   1.394   5.719   0.859
 5977SOL    HW118830   1.331   5.763   0.795
 5977SOL    HW218831   1.488   5.742   0.834
 5978SOL     OW18832   3.414   5.509   1.698
 5978SOL    HW118833   3.501   5.505   1.648
 5978SOL    HW218834   3.400   5.423   1.747
 5979SOL     OW18835   6.809   0.673   2.616
 5979SOL    HW118836   6.805   0.575   2.637
 5979SOL    HW218837   6.754   0.691   2.534
 5980SOL     OW18838   3.979   4.159   1.350
 5980SOL    HW118839   3.995   4.207   1.264
 5980SOL    HW218840   3.887   4.179   1.384
 5981SOL     OW18841   5.062   1.563   0.470
 5981SOL    HW118842   5.080   1.466   0.455
 5981SOL    HW218843   5.030   1.605   0.385
 5982SOL     OW18844   6.338   2.147   2.958
 5982SOL    HW118845   6.280   2.076   2.998
 5982SOL    HW218846   6.304   2.168   2.866
 5983SOL     OW18847   0.909   1.434   4.512
 5983SOL    HW118848   0.987   1.495   4.501
 5983SOL    HW218849   0.831   1.484   4.550
 5984SOL     OW18850   5.441   6.660   3.206
 5984SOL    HW118851   5.369   6.596   3.235
 5984SOL    HW218852   5.449   6.657   3.107
 5985SOL     OW18853   6.720   2.951   3.360
 5985SOL    HW118854   6.672   2.893   3.294
 5985SOL    HW218855   6.684   3.044   3.355
 5986SOL     OW18856   3.015   3.996   4.816
 5986SOL    HW118857   3.101   4.046   4.808
 5986SOL    HW218858   2.969   3.995   4.727
 5987SOL     OW18859   4.926   0.343   4.217
 5987SOL    HW118860   4.932   0.317   4.313
 5987SOL    HW218861   4.986   0.421   4.199
 5988SOL     OW18862   4.661   0.761   5.554
 5988SOL    HW118863   4.599   0.756   5.633
 5988SOL    HW218864   4.660   0.853   5.516
 5989SOL     OW18865   1.964   5.374   6.082
 5989SOL    HW118866   1.873   5.347   6.049
 5989SOL    HW218867   1.997   5.452   6.030
 5990SOL     OW18868   3.914   3.417   0.418
 5990SOL    HW118869   3.841   3.434   0.352
 5990SOL    HW218870   3.903   3.327   0.458
 5991SOL     OW18871   3.951   5.625   6.758
 5991SOL    HW118872   3.908   5.699   6.707
 5991SOL    HW218873   3.941   5.642   6.856
 5992SOL     OW18874   3.279   0.223   1.981
 5992SOL    HW118875   3.207   0.182   2.037
 5992SOL    HW218876   3.323   0.152   1.927
 5993SOL     OW18877   4.010   4.069   5.740
 5993SOL    HW118878   4.110   4.061   5.739
 5993SOL    HW218879   3.982   4.141   5.676
 5994SOL     OW18880   6.760   2.159   0.257
 5994SOL    HW118881   6.720   2.189   0.344
 5994SOL    HW218882   6.837   2.098   0.276
 5995SOL     OW18883   4.861   3.097   2.263
 5995SOL    HW118884   4.884   3.193   2.280
 5995SOL    HW218885   4.832   3.086   2.168
 5996SOL     OW18886   0.329   6.338   0.820
 5996SOL    HW118887   0.395   6.266   0.846
 5996SOL    HW218888   0.295   6.320   0.728
 5997SOL     OW18889   0.675   5.430   2.839
 5997SOL    HW118890   0.736   5.429   2.759
 5997SOL    HW218891   0.691   5.513   2.891
 5998SOL     OW18892   6.250   1.612   2.326
 5998SOL    HW118893   6.152   1.627   2.322
 5998SOL    HW218894   6.289   1.618   2.234
 5999SOL     OW18895   2.861   3.244   1.336
 5999SOL    HW118896   2.822   3.214   1.249
 5999SOL    HW218897   2.911   3.168   1.378
 6000SOL     OW18898   1.969   6.170   6.750
 6000SOL    HW118899   1.912   6.118   6.814
 6000SOL    HW218900   2.063   6.134   6.754
 6001SOL     OW18901   0.195   4.983   6.747
 6001SOL    HW118902   0.221   4.913   6.682
 6001SOL    HW218903   0.234   4.962   6.837
 6002SOL     OW18904   5.628   6.814   6.911
 6002SOL    HW118905   5.685   6.895   6.920
 6002SOL    HW218906   5.600   6.783   7.002
 6003SOL     OW18907   5.534   1.953   5.303
 6003SOL    HW118908   5.478   1.975   5.224
 6003SOL    HW218909   5.615   2.012   5.305
 6004SOL     OW18910   6.624   3.879   3.167
 6004SOL    HW118911   6.679   3.959   3.193
 6004SOL    HW218912   6.562   3.905   3.093
 6005SOL     OW18913   5.474   5.313   4.899
 6005SOL    HW118914   5.557   5.320   4.843
 6005SOL    HW218915   5.422   5.232   4.872
 6006SOL     OW18916   2.068   0.980   4.999
 6006SOL    HW118917   2.152   1.034   4.998
 6006SOL    HW218918   2.045   0.952   4.906
 6007SOL     OW18919   6.272   3.457   5.925
 6007SOL    HW118920   6.252   3.555   5.929
 6007SOL    HW218921   6.274   3.428   5.829
 6008SOL     OW18922   2.775   5.125   5.594
 6008SOL    HW118923   2.786   5.219   5.627
 6008SOL    HW218924   2.799   5.062   5.668
 6009SOL     OW18925   3.478   0.501   4.002
 6009SOL    HW118926   3.500   0.438   3.927
 6009SOL    HW218927   3.434   0.583   3.965
 6010SOL     OW18928   1.325   4.575   4.134
 6010SOL    HW118929   1.361   4.625   4.056
 6010SOL    HW218930   1.383   4.591   4.214
 6011SOL     OW18931   6.133   3.210   3.586
 6011SOL    HW118932   6.077   3.280   3.629
 6011SOL    HW218933   6.080   3.126   3.574
 6012SOL     OW18934   5.699   0.809   0.806
 6012SOL    HW118935   5.705   0.878   0.878
 6012SOL    HW218936   5.768   0.828   0.736
 6013SOL     OW18937   4.611   0.974   2.857
 6013SOL    HW118938   4.572   1.040   2.793
 6013SOL    HW218939   4.691   0.931   2.816
 6014SOL     OW18940   3.659   4.152   3.581
 6014SOL    HW118941   3.624   4.170   3.673
 6014SOL    HW218942   3.584   4.126   3.521
 6015SOL     OW18943   5.880   4.403   4.852
 6015SOL    HW118944   5.793   4.374   4.812
 6015SOL    HW218945   5.895   4.500   4.835
 6016SOL     OW18946   6.637   1.746   6.117
 6016SOL    HW118947   6.691   1.718   6.196
 6016SOL    HW218948   6.541   1.726   6.133
 6017SOL     OW18949   6.251   4.825   4.284
 6017SOL    HW118950   6.153   4.842   4.279
 6017SOL    HW218951   6.298   4.873   4.210
 6018SOL     OW18952   3.452   1.204   6.404
 6018SOL    HW118953   3.382   1.275   6.397
 6018SOL    HW218954   3.477   1.191   6.500
 6019SOL     OW18955   0.821   2.780   5.159
 6019SOL    HW118956   0.803   2.813   5.252
 6019SOL    HW218957   0.860   2.853   5.104
 6020SOL     OW18958   0.852   4.857   0.492
 6020SOL    HW118959   0.836   4.833   0.396
 6020SOL    HW218960   0.898   4.781   0.538
 6021SOL     OW18961   4.425   0.732   3.406
 6021SOL    HW118962   4.464   0.791   3.335
 6021SOL    HW218963   4.368   0.662   3.363
 6022SOL     OW18964   6.559   1.636   3.839
 6022SOL    HW118965   6.534   1.711   3.900
 6022SOL    HW218966   6.494   1.632   3.764
 6023SOL     OW18967   5.191   1.034   1.771
 6023SOL    HW118968   5.187   0.943   1.730
 6023SOL    HW218969   5.136   1.098   1.717
 6024SOL     OW18970   1.352   4.727   1.609
 6024SOL    HW118971   1.313   4.744   1.700
 6024SOL    HW218972   1.298   4.659   1.561
 6025SOL     OW18973   3.079   1.874   3.528
 6025SOL    HW118974   3.060   1.849   3.433
 6025SOL    HW218975   2.996   1.865   3.583
 6026SOL     OW18976   6.832   5.298   4.909
 6026SOL    HW118977   6.858   5.219   4.963
 6026SOL    HW218978   6.901   5.312   4.837
 6027SOL     OW18979   6.907   3.715   6.207
 6027SOL    HW118980   6.909   3.743   6.303
 6027SOL    HW218981   6.996   3.733   6.165
 6028SOL     OW18982   5.814   4.689   1.196
 6028SOL    HW118983   5.841   4.785   1.191
 6028SOL    HW218984   5.728   4.681   1.246
 6029SOL     OW18985   2.951   6.492   3.798
 6029SOL    HW118986   2.857   6.525   3.806
 6029SOL    HW218987   2.954   6.411   3.739
 6030SOL     OW18988   4.309   4.909   3.103
 6030SOL    HW118989   4.307   4.983   3.036
 6030SOL    HW218990   4.357   4.940   3.186
 6031SOL     OW18991   3.471   5.352   4.080
 6031SOL    HW118992   3.530   5.402   4.144
 6031SOL    HW218993   3.524   5.280   4.036
 6032SOL     OW18994   2.259   4.601   2.295
 6032SOL    HW118995   2.286   4.607   2.391
 6032SOL    HW218996   2.275   4.690   2.251
 6033SOL     OW18997   2.121   2.686   3.076
 6033SOL    HW118998   2.174   2.639   3.006
 6033SOL    HW218999   2.026   2.693   3.047
 6034SOL     OW19000   1.286   0.933   5.238
 6034SOL    HW119001   1.264   1.028   5.216
 6034SOL    HW219002   1.300   0.925   5.337
 6035SOL     OW19003   1.072   1.371   1.582
 6035SOL    HW119004   1.009   1.295   1.570
 6035SOL    HW219005   1.021   1.454   1.604
 6036SOL     OW19006   5.245   5.494   2.757
 6036SOL    HW119007   5.315   5.429   2.788
 6036SOL    HW219008   5.286   5.585   2.747
 6037SOL     OW19009   3.795   0.548   0.558
 6037SOL    HW119010   3.882   0.512   0.591
 6037SOL    HW219011   3.731   0.558   0.634
 6038SOL     OW19012   1.571   3.053   6.220
 6038SOL    HW119013   1.629   2.978   6.188
 6038SOL    HW219014   1.497   3.069   6.155
 6039SOL     OW19015   3.709   3.373   3.059
 6039SOL    HW119016   3.705   3.422   2.971
 6039SOL    HW219017   3.801   3.336   3.073
 6040SOL     OW19018   1.422   1.875   0.995
 6040SOL    HW119019   1.447   1.791   0.946
 6040SOL    HW219020   1.476   1.881   1.079
 6041SOL     OW19021   3.103   1.264   5.367
 6041SOL    HW119022   3.087   1.186   5.427
 6041SOL    HW219023   3.106   1.348   5.422
 6042SOL     OW19024   4.390   6.715   2.696
 6042SOL    HW119025   4.460   6.702   2.626
 6042SOL    HW219026   4.362   6.811   2.697
 6043SOL     OW19027   1.052   6.510   5.400
 6043SOL    HW119028   0.971   6.529   5.456
 6043SOL    HW219029   1.075   6.591   5.347
 6044SOL     OW19030   1.844   2.692   1.348
 6044SOL    HW119031   1.831   2.680   1.447
 6044SOL    HW219032   1.807   2.612   1.301
 6045SOL     OW19033   5.688   4.111   3.015
 6045SOL    HW119034   5.652   4.018   3.010
 6045SOL    HW219035   5.613   4.176   3.022
 6046SOL     OW19036   3.314   2.510   1.363
 6046SOL    HW119037   3.264   2.548   1.440
 6046SOL    HW219038   3.381   2.443   1.397
 6047SOL     OW19039   5.028   1.640   1.827
 6047SOL    HW119040   5.078   1.674   1.906
 6047SOL    HW219041   4.975   1.559   1.853
 6048SOL     OW19042   4.582   5.299   5.111
 6048SOL    HW119043   4.586   5.282   5.013
 6048SOL    HW219044   4.660   5.256   5.156
 6049SOL     OW19045   4.650   3.778   0.041
 6049SOL    HW119046   4.567   3.827   0.067
 6049SOL    HW219047   4.626   3.698   7.009
 6050SOL     OW19048   2.559   5.072   6.184
 6050SOL    HW119049   2.508   5.043   6.103
 6050SOL    HW219050   2.646   5.024   6.188
 6051SOL     OW19051   1.939   0.166   3.368
 6051SOL    HW119052   1.843   0.167   3.341
 6051SOL    HW219053   1.978   0.257   3.353
 6052SOL     OW19054   5.082   1.101   1.052
 6052SOL    HW119055   5.114   1.159   0.977
 6052SOL    HW219056   4.988   1.073   1.035
 6053SOL     OW19057   4.042   1.180   6.209
 6053SOL    HW119058   3.949   1.207   6.234
 6053SOL    HW219059   4.092   1.261   6.177
 6054SOL     OW19060   2.692   3.641   0.193
 6054SOL    HW119061   2.712   3.555   0.240
 6054SOL    HW219062   2.640   3.701   0.253
 6055SOL     OW19063   5.391   6.915   5.618
 6055SOL    HW119064   5.465   6.888   5.679
 6055SOL    HW219065   5.335   6.836   5.595
 6056SOL     OW19066   4.964   3.504   5.270
 6056SOL    HW119067   4.963   3.563   5.351
 6056SOL    HW219068   4.888   3.530   5.210
 6057SOL     OW19069   0.133   1.040   2.097
 6057SOL    HW119070   0.053   1.069   2.045
 6057SOL    HW219071   0.193   1.118   2.112
 6058SOL     OW19072   5.588   4.020   0.841
 6058SOL    HW119073   5.580   4.085   0.765
 6058SOL    HW219074   5.514   4.035   0.906
 6059SOL     OW19075   4.808   5.404   6.393
 6059SOL    HW119076   4.836   5.325   6.448
 6059SOL    HW219077   4.709   5.415   6.399
 6060SOL     OW19078   2.950   3.256   5.652
 6060SOL    HW119079   2.966   3.219   5.743
 6060SOL    HW219080   2.989   3.348   5.646
 6061SOL     OW19081   5.308   3.244   0.556
 6061SOL    HW119082   5.246   3.165   0.559
 6061SOL    HW219083   5.333   3.263   0.461
 6062SOL     OW19084   2.287   1.333   5.456
 6062SOL    HW119085   2.349   1.394   5.408
 6062SOL    HW219086   2.235   1.279   5.390
 6063SOL     OW19087   4.499   2.456   6.154
 6063SOL    HW119088   4.473   2.504   6.070
 6063SOL    HW219089   4.516   2.360   6.133
 6064SOL     OW19090   1.439   0.556   0.754
 6064SOL    HW119091   1.452   0.476   0.812
 6064SOL    HW219092   1.526   0.601   0.738
 6065SOL     OW19093   1.023   6.170   2.716
 6065SOL    HW119094   1.034   6.080   2.757
 6065SOL    HW219095   1.043   6.240   2.785
 6066SOL     OW19096   5.330   1.666   5.245
 6066SOL    HW119097   5.407   1.722   5.213
 6066SOL    HW219098   5.363   1.574   5.266
 6067SOL     OW19099   5.169   0.955   5.783
 6067SOL    HW119100   5.194   1.038   5.733
 6067SOL    HW219101   5.071   0.952   5.797
 6068SOL     OW19102   4.718   2.724   4.454
 6068SOL    HW119103   4.660   2.643   4.459
 6068SOL    HW219104   4.800   2.704   4.401
 6069SOL     OW19105   5.719   2.890   5.047
 6069SOL    HW119106   5.629   2.921   5.017
 6069SOL    HW219107   5.757   2.957   5.111
 6070SOL     OW19108   2.879   2.543   1.373
 6070SOL    HW119109   2.807   2.610   1.391
 6070SOL    HW219110   2.896   2.489   1.456
 6071SOL     OW19111   6.769   5.713   5.137
 6071SOL    HW119112   6.746   5.743   5.229
 6071SOL    HW219113   6.729   5.777   5.070
 6072SOL     OW19114   0.284   0.323   1.653
 6072SOL    HW119115   0.185   0.336   1.661
 6072SOL    HW219116   0.321   0.292   1.740
 6073SOL     OW19117   5.338   2.830   0.734
 6073SOL    HW119118   5.430   2.791   0.739
 6073SOL    HW219119   5.271   2.763   0.766
 6074SOL     OW19120   1.037   5.692   2.479
 6074SOL    HW119121   0.945   5.695   2.439
 6074SOL    HW219122   1.103   5.664   2.410
 6075SOL     OW19123   4.408   7.002   5.624
 6075SOL    HW119124   4.316   6.970   5.601
 6075SOL    HW219125   4.459   6.928   5.666
 6076SOL     OW19126   3.347   5.394   3.032
 6076SOL    HW119127   3.286   5.442   2.969
 6076SOL    HW219128   3.372   5.455   3.107
 6077SOL     OW19129   6.258   5.199   1.685
 6077SOL    HW119130   6.282   5.296   1.686
 6077SOL    HW219131   6.320   5.150   1.624
 6078SOL     OW19132   5.003   5.359   0.307
 6078SOL    HW119133   5.090   5.332   0.347
 6078SOL    HW219134   4.990   5.310   0.220
 6079SOL     OW19135   4.940   3.730   5.466
 6079SOL    HW119136   4.930   3.734   5.565
 6079SOL    HW219137   5.024   3.776   5.438
 6080SOL     OW19138   6.985   6.009   1.027
 6080SOL    HW119139   6.986   6.103   1.061
 6080SOL    HW219140   0.015   5.951   1.090
 6081SOL     OW19141   6.758   2.950   5.554
 6081SOL    HW119142   6.685   2.886   5.532
 6081SOL    HW219143   6.785   3.000   5.472
 6082SOL     OW19144   2.621   0.159   3.387
 6082SOL    HW119145   2.709   0.114   3.371
 6082SOL    HW219146   2.549   0.108   3.340
 6083SOL     OW19147   6.145   6.225   0.472
 6083SOL    HW119148   6.218   6.293   0.467
 6083SOL    HW219149   6.071   6.261   0.529
 6084SOL     OW19150   0.794   6.887   2.935
 6084SOL    HW119151   0.823   6.808   2.882
 6084SOL    HW219152   0.861   6.906   3.007
 6085SOL     OW19153   0.349   6.929   0.192
 6085SOL    HW119154   0.283   6.854   0.186
 6085SOL    HW219155   0.299   7.016   0.204
 6086SOL     OW19156   2.669   1.368   5.533
 6086SOL    HW119157   2.626   1.435   5.594
 6086SOL    HW219158   2.691   1.411   5.446
 6087SOL     OW19159   3.292   5.962   1.447
 6087SOL    HW119160   3.286   5.924   1.354
 6087SOL    HW219161   3.326   5.892   1.510
 6088SOL     OW19162   5.759   6.354   4.759
 6088SOL    HW119163   5.663   6.326   4.762
 6088SOL    HW219164   5.798   6.328   4.671
 6089SOL     OW19165   5.342   2.406   2.921
 6089SOL    HW119166   5.348   2.323   2.866
 6089SOL    HW219167   5.268   2.463   2.888
 6090SOL     OW19168   2.789   5.698   4.370
 6090SOL    HW119169   2.777   5.797   4.364
 6090SOL    HW219170   2.885   5.677   4.392
 6091SOL     OW19171   2.358   1.288   6.820
 6091SOL    HW119172   2.446   1.286   6.867
 6091SOL    HW219173   2.286   1.261   6.885
 6092SOL     OW19174   4.016   0.526   2.818
 6092SOL    HW119175   4.080   0.593   2.855
 6092SOL    HW219176   4.050   0.434   2.838
 6093SOL     OW19177   2.249   2.888   2.212
 6093SOL    HW119178   2.188   2.965   2.193
 6093SOL    HW219179   2.270   2.841   2.127
 6094SOL     OW19180   1.228   5.800   2.700
 6094SOL    HW119181   1.267   5.745   2.626
 6094SOL    HW219182   1.273   5.889   2.703
 6095SOL     OW19183   4.924   4.903   0.196
 6095SOL    HW119184   4.886   4.814   0.171
 6095SOL    HW219185   4.850   4.966   0.219
 6096SOL     OW19186   6.147   0.265   3.381
 6096SOL    HW119187   6.159   0.217   3.294
 6096SOL    HW219188   6.130   0.362   3.363
 6097SOL     OW19189   1.829   5.526   2.085
 6097SOL    HW119190   1.803   5.446   2.030
 6097SOL    HW219191   1.815   5.506   2.182
 6098SOL     OW19192   0.314   1.548   5.424
 6098SOL    HW119193   0.413   1.540   5.410
 6098SOL    HW219194   0.294   1.553   5.521
 6099SOL     OW19195   5.540   6.272   6.498
 6099SOL    HW119196   5.636   6.289   6.516
 6099SOL    HW219197   5.491   6.359   6.491
 6100SOL     OW19198   5.420   5.960   1.642
 6100SOL    HW119199   5.327   5.989   1.622
 6100SOL    HW219200   5.444   5.986   1.736
 6101SOL     OW19201   6.997   3.051   3.313
 6101SOL    HW119202   6.994   3.108   3.231
 6101SOL    HW219203   6.907   3.012   3.330
 6102SOL     OW19204   3.456   5.792   3.038
 6102SOL    HW119205   3.477   5.888   3.058
 6102SOL    HW219206   3.377   5.788   2.977
 6103SOL     OW19207   5.870   1.068   2.126
 6103SOL    HW119208   5.865   1.068   2.226
 6103SOL    HW219209   5.960   1.098   2.097
 6104SOL     OW19210   5.354   0.112   5.450
 6104SOL    HW119211   5.395   0.186   5.503
 6104SOL    HW219212   5.380   0.024   5.490
 6105SOL     OW19213   2.713   5.700   6.444
 6105SOL    HW119214   2.787   5.655   6.494
 6105SOL    HW219215   2.625   5.669   6.478
 6106SOL     OW19216   1.047   4.586   6.170
 6106SOL    HW119217   0.975   4.545   6.114
 6106SOL    HW219218   1.111   4.516   6.198
 6107SOL     OW19219   4.828   6.059   4.901
 6107SOL    HW119220   4.830   6.146   4.950
 6107SOL    HW219221   4.734   6.040   4.872
 6108SOL     OW19222   2.196   2.654   2.371
 6108SOL    HW119223   2.164   2.582   2.309
 6108SOL    HW219224   2.252   2.719   2.321
 6109SOL     OW19225   5.789   1.788   5.076
 6109SOL    HW119226   5.838   1.821   5.157
 6109SOL    HW219227   5.758   1.694   5.092
 6110SOL     OW19228   2.951   3.885   0.970
 6110SOL    HW119229   2.898   3.863   0.888
 6110SOL    HW219230   2.894   3.937   1.034
 6111SOL     OW19231   1.392   2.983   2.313
 6111SOL    HW119232   1.420   3.077   2.293
 6111SOL    HW219233   1.469   2.921   2.298
 6112SOL     OW19234   2.852   0.199   2.713
 6112SOL    HW119235   2.783   0.270   2.727
 6112SOL    HW219236   2.815   0.110   2.740
 6113SOL     OW19237   2.653   2.164   6.171
 6113SOL    HW119238   2.708   2.235   6.127
 6113SOL    HW219239   2.567   2.203   6.204
 6114SOL     OW19240   5.191   4.777   2.394
 6114SOL    HW119241   5.250   4.767   2.474
 6114SOL    HW219242   5.096   4.779   2.423
 6115SOL     OW19243   5.737   0.283   4.944
 6115SOL    HW119244   5.679   0.202   4.952
 6115SOL    HW219245   5.750   0.305   4.847
 6116SOL     OW19246   4.383   1.791   6.306
 6116SOL    HW119247   4.389   1.832   6.215
 6116SOL    HW219248   4.474   1.790   6.349
 6117SOL     OW19249   1.561   1.237   3.578
 6117SOL    HW119250   1.609   1.150   3.593
 6117SOL    HW219251   1.608   1.310   3.628
 6118SOL     OW19252   6.018   0.972   0.998
 6118SOL    HW119253   6.054   1.061   1.027
 6118SOL    HW219254   5.918   0.972   1.008
 6119SOL     OW19255   0.922   3.705   0.008
 6119SOL    HW119256   0.977   3.682   6.950
 6119SOL    HW219257   0.830   3.732   7.001
 6120SOL     OW19258   3.294   6.406   5.724
 6120SOL    HW119259   3.311   6.333   5.658
 6120SOL    HW219260   3.288   6.367   5.816
 6121SOL     OW19261   0.818   3.621   4.934
 6121SOL    HW119262   0.721   3.597   4.928
 6121SOL    HW219263   0.852   3.599   5.026
 6122SOL     OW19264   4.316   4.974   0.284
 6122SOL    HW119265   4.350   4.946   0.194
 6122SOL    HW219266   4.257   5.054   0.274
 6123SOL     OW19267   5.271   6.800   6.423
 6123SOL    HW119268   5.228   6.789   6.333
 6123SOL    HW219269   5.201   6.816   6.492
 6124SOL     OW19270   1.536   6.693   5.740
 6124SOL    HW119271   1.476   6.634   5.685
 6124SOL    HW219272   1.596   6.636   5.796
 6125SOL     OW19273   2.260   4.087   0.123
 6125SOL    HW119274   2.261   4.176   0.076
 6125SOL    HW219275   2.351   4.067   0.157
 6126SOL     OW19276   0.042   0.617   3.889
 6126SOL    HW119277   7.017   0.538   3.850
 6126SOL    HW219278   6.999   0.692   3.902
 6127SOL     OW19279   3.232   0.003   0.691
 6127SOL    HW119280   3.209   0.038   0.782
 6127SOL    HW219281   3.172   6.948   0.669
 6128SOL     OW19282   6.687   4.931   0.852
 6128SOL    HW119283   6.645   4.998   0.792
 6128SOL    HW219284   6.616   4.874   0.894
 6129SOL     OW19285   6.878   3.201   1.921
 6129SOL    HW119286   6.879   3.104   1.946
 6129SOL    HW219287   6.826   3.252   1.989
 6130SOL     OW19288   5.242   2.728   2.346
 6130SOL    HW119289   5.316   2.753   2.284
 6130SOL    HW219290   5.166   2.793   2.334
 6131SOL     OW19291   0.208   1.530   3.299
 6131SOL    HW119292   0.126   1.499   3.249
 6131SOL    HW219293   0.289   1.501   3.249
 6132SOL     OW19294   4.409   1.921   0.093
 6132SOL    HW119295   4.407   1.826   0.124
 6132SOL    HW219296   4.322   1.965   0.115
 6133SOL     OW19297   2.100   3.644   3.134
 6133SOL    HW119298   2.030   3.608   3.073
 6133SOL    HW219299   2.145   3.569   3.181
 6134SOL     OW19300   3.992   5.347   0.086
 6134SOL    HW119301   3.952   5.291   0.013
 6134SOL    HW219302   4.058   5.411   0.046
 6135SOL     OW19303   6.899   6.932   0.377
 6135SOL    HW119304   6.915   6.843   0.336
 6135SOL    HW219305   6.978   6.959   0.431
 6136SOL     OW19306   1.069   3.155   1.639
 6136SOL    HW119307   1.050   3.111   1.727
 6136SOL    HW219308   1.138   3.225   1.651
 6137SOL     OW19309   6.954   3.639   2.021
 6137SOL    HW119310   6.968   3.709   2.092
 6137SOL    HW219311   6.972   3.549   2.059
 6138SOL     OW19312   3.547   0.094   2.661
 6138SOL    HW119313   3.559   0.151   2.579
 6138SOL    HW219314   3.506   0.006   2.634
 6139SOL     OW19315   1.327   6.859   6.154
 6139SOL    HW119316   1.373   6.935   6.107
 6139SOL    HW219317   1.261   6.817   6.092
 6140SOL     OW19318   1.125   0.393   1.943
 6140SOL    HW119319   1.147   0.485   1.910
 6140SOL    HW219320   1.191   0.328   1.905
 6141SOL     OW19321   0.527   0.037   6.089
 6141SOL    HW119322   0.473   7.013   6.019
 6141SOL    HW219323   0.504   0.000   6.179
 6142SOL     OW19324   0.335   5.977   6.295
 6142SOL    HW119325   0.387   6.062   6.308
 6142SOL    HW219326   0.359   5.913   6.368
 6143SOL     OW19327   6.782   3.111   1.290
 6143SOL    HW119328   6.799   3.087   1.386
 6143SOL    HW219329   6.764   3.027   1.238
 6144SOL     OW19330   4.734   4.904   4.605
 6144SOL    HW119331   4.643   4.940   4.626
 6144SOL    HW219332   4.727   4.840   4.528
 6145SOL     OW19333   5.312   4.980   4.548
 6145SOL    HW119334   5.352   4.938   4.630
 6145SOL    HW219335   5.381   5.036   4.502
 6146SOL     OW19336   3.495   5.166   3.548
 6146SOL    HW119337   3.585   5.137   3.514
 6146SOL    HW219338   3.498   5.175   3.647
 6147SOL     OW19339   1.999   2.296   4.987
 6147SOL    HW119340   1.962   2.389   4.977
 6147SOL    HW219341   2.032   2.284   5.080
 6148SOL     OW19342   4.290   6.714   4.980
 6148SOL    HW119343   4.213   6.773   5.005
 6148SOL    HW219344   4.269   6.620   5.005
 6149SOL     OW19345   2.478   0.069   1.331
 6149SOL    HW119346   2.392   0.034   1.368
 6149SOL    HW219347   2.460   0.124   1.249
 6150SOL     OW19348   5.864   4.611   0.914
 6150SOL    HW119349   5.954   4.568   0.928
 6150SOL    HW219350   5.832   4.650   1.000
 6151SOL     OW19351   6.418   5.021   6.426
 6151SOL    HW119352   6.485   5.042   6.355
 6151SOL    HW219353   6.434   4.928   6.460
 6152SOL     OW19354   0.154   5.569   4.650
 6152SOL    HW119355   0.153   5.500   4.577
 6152SOL    HW219356   0.203   5.650   4.619
 6153SOL     OW19357   5.424   4.499   1.064
 6153SOL    HW119358   5.463   4.543   1.144
 6153SOL    HW219359   5.445   4.552   0.982
 6154SOL     OW19360   6.433   2.512   2.688
 6154SOL    HW119361   6.370   2.435   2.702
 6154SOL    HW219362   6.389   2.597   2.716
 6155SOL     OW19363   1.433   1.281   3.341
 6155SOL    HW119364   1.467   1.271   3.434
 6155SOL    HW219365   1.389   1.195   3.312
 6156SOL     OW19366   4.476   4.703   2.176
 6156SOL    HW119367   4.503   4.654   2.259
 6156SOL    HW219368   4.466   4.638   2.101
 6157SOL     OW19369   6.757   1.943   4.175
 6157SOL    HW119370   6.742   1.845   4.181
 6157SOL    HW219371   6.843   1.962   4.129
 6158SOL     OW19372   3.832   1.832   6.940
 6158SOL    HW119373   3.738   1.808   6.962
 6158SOL    HW219374   3.834   1.919   6.892
 6159SOL     OW19375   4.584   2.002   1.331
 6159SOL    HW119376   4.616   1.908   1.315
 6159SOL    HW219377   4.489   2.010   1.303
 6160SOL     OW19378   5.210   0.650   6.552
 6160SOL    HW119379   5.232   0.552   6.548
 6160SOL    HW219380   5.117   0.661   6.589
 6161SOL     OW19381   5.684   1.883   6.114
 6161SOL    HW119382   5.587   1.906   6.124
 6161SOL    HW219383   5.739   1.945   6.169
 6162SOL     OW19384   6.440   6.473   3.723
 6162SOL    HW119385   6.540   6.473   3.718
 6162SOL    HW219386   6.411   6.416   3.800
 6163SOL     OW19387   6.092   6.269   1.373
 6163SOL    HW119388   6.128   6.243   1.463
 6163SOL    HW219389   6.077   6.368   1.371
 6164SOL     OW19390   3.620   3.884   3.795
 6164SOL    HW119391   3.569   3.970   3.788
 6164SOL    HW219392   3.678   3.885   3.877
 6165SOL     OW19393   4.090   1.512   6.732
 6165SOL    HW119394   4.125   1.504   6.639
 6165SOL    HW219395   4.123   1.435   6.787
 6166SOL     OW19396   5.931   1.902   6.337
 6166SOL    HW119397   5.847   1.898   6.391
 6166SOL    HW219398   5.937   1.822   6.277
 6167SOL     OW19399   1.097   5.153   3.052
 6167SOL    HW119400   1.013   5.098   3.044
 6167SOL    HW219401   1.115   5.172   3.148
 6168SOL     OW19402   1.855   3.233   2.791
 6168SOL    HW119403   1.833   3.296   2.716
 6168SOL    HW219404   1.770   3.203   2.835
 6169SOL     OW19405   1.118   1.917   0.273
 6169SOL    HW119406   1.107   1.912   0.174
 6169SOL    HW219407   1.210   1.951   0.295
 6170SOL     OW19408   2.560   4.052   5.310
 6170SOL    HW119409   2.484   4.031   5.248
 6170SOL    HW219410   2.559   4.150   5.330
 6171SOL     OW19411   1.892   3.620   0.851
 6171SOL    HW119412   1.802   3.586   0.880
 6171SOL    HW219413   1.961   3.594   0.918
 6172SOL     OW19414   1.946   1.554   3.565
 6172SOL    HW119415   2.009   1.493   3.613
 6172SOL    HW219416   1.989   1.644   3.556
 6173SOL     OW19417   6.327   5.199   2.305
 6173SOL    HW119418   6.300   5.211   2.401
 6173SOL    HW219419   6.282   5.118   2.267
 6174SOL     OW19420   5.299   5.255   3.402
 6174SOL    HW119421   5.242   5.228   3.480
 6174SOL    HW219422   5.346   5.174   3.366
 6175SOL     OW19423   4.560   0.623   3.638
 6175SOL    HW119424   4.542   0.688   3.564
 6175SOL    HW219425   4.587   0.535   3.599
 6176SOL     OW19426   5.858   3.079   6.953
 6176SOL    HW119427   5.809   3.063   0.017
 6176SOL    HW219428   5.832   3.010   6.886
 6177SOL     OW19429   5.854   0.643   1.234
 6177SOL    HW119430   5.756   0.652   1.213
 6177SOL    HW219431   5.886   0.725   1.281
 6178SOL     OW19432   4.633   4.410   3.437
 6178SOL    HW119433   4.658   4.347   3.511
 6178SOL    HW219434   4.710   4.472   3.418
 6179SOL     OW19435   6.719   4.647   4.301
 6179SOL    HW119436   6.816   4.667   4.298
 6179SOL    HW219437   6.671   4.700   4.231
 6180SOL     OW19438   3.896   4.877   0.146
 6180SOL    HW119439   3.931   4.820   0.220
 6180SOL    HW219440   3.835   4.947   0.185
 6181SOL     OW19441   3.653   6.852   0.572
 6181SOL    HW119442   3.737   6.894   0.538
 6181SOL    HW219443   3.580   6.921   0.577
 6182SOL     OW19444   5.345   3.542   5.965
 6182SOL    HW119445   5.376   3.614   6.027
 6182SOL    HW219446   5.418   3.519   5.901
 6183SOL     OW19447   2.239   1.281   3.234
 6183SOL    HW119448   2.180   1.362   3.237
 6183SOL    HW219449   2.332   1.309   3.211
 6184SOL     OW19450   1.864   6.797   5.937
 6184SOL    HW119451   1.939   6.852   5.973
 6184SOL    HW219452   1.788   6.856   5.909
 6185SOL     OW19453   6.861   4.080   6.675
 6185SOL    HW119454   6.941   4.040   6.630
 6185SOL    HW219455   6.807   4.132   6.608
 6186SOL     OW19456   6.407   6.614   5.515
 6186SOL    HW119457   6.416   6.708   5.485
 6186SOL    HW219458   6.489   6.585   5.563
 6187SOL     OW19459   4.344   4.598   3.036
 6187SOL    HW119460   4.410   4.530   3.067
 6187SOL    HW219461   4.373   4.689   3.067
 6188SOL     OW19462   2.667   0.028   1.090
 6188SOL    HW119463   2.619   0.058   1.172
 6188SOL    HW219464   2.700   0.108   1.039
 6189SOL     OW19465   4.737   4.182   4.010
 6189SOL    HW119466   4.741   4.212   4.105
 6189SOL    HW219467   4.685   4.248   3.956
 6190SOL     OW19468   6.979   4.000   5.878
 6190SOL    HW119469   0.034   3.997   5.941
 6190SOL    HW219470   6.893   3.998   5.929
 6191SOL     OW19471   4.114   2.101   6.713
 6191SOL    HW119472   4.185   2.138   6.772
 6191SOL    HW219473   4.143   2.013   6.676
 6192SOL     OW19474   4.272   3.015   6.528
 6192SOL    HW119475   4.264   2.956   6.608
 6192SOL    HW219476   4.208   2.984   6.457
 6193SOL     OW19477   5.212   1.253   2.188
 6193SOL    HW119478   5.271   1.313   2.244
 6193SOL    HW219479   5.222   1.278   2.092
 6194SOL     OW19480   1.533   6.812   0.674
 6194SOL    HW119481   1.561   6.901   0.638
 6194SOL    HW219482   1.524   6.817   0.774
 6195SOL     OW19483   4.388   6.721   5.274
 6195SOL    HW119484   4.478   6.742   5.312
 6195SOL    HW219485   4.388   6.628   5.238
 6196SOL     OW19486   6.021   2.399   1.698
 6196SOL    HW119487   5.937   2.379   1.747
 6196SOL    HW219488   6.003   2.469   1.629
 6197SOL     OW19489   4.589   4.705   1.058
 6197SOL    HW119490   4.514   4.700   1.123
 6197SOL    HW219491   4.658   4.636   1.080
 6198SOL     OW19492   3.734   6.208   2.119
 6198SOL    HW119493   3.780   6.216   2.208
 6198SOL    HW219494   3.788   6.150   2.059
 6199SOL     OW19495   1.067   0.467   0.783
 6199SOL    HW119496   1.076   0.382   0.730
 6199SOL    HW219497   1.114   0.457   0.871
 6200SOL     OW19498   1.571   1.178   5.395
 6200SOL    HW119499   1.564   1.167   5.494
 6200SOL    HW219500   1.660   1.217   5.372
 6201SOL     OW19501   0.854   3.479   5.197
 6201SOL    HW119502   0.781   3.415   5.222
 6201SOL    HW219503   0.924   3.479   5.269
 6202SOL     OW19504   4.073   1.763   2.264
 6202SOL    HW119505   4.049   1.856   2.290
 6202SOL    HW219506   3.998   1.701   2.286
 6203SOL     OW19507   6.250   6.923   3.311
 6203SOL    HW119508   6.296   6.975   3.384
 6203SOL    HW219509   6.312   6.852   3.277
 6204SOL     OW19510   1.122   5.498   4.694
 6204SOL    HW119511   1.109   5.401   4.674
 6204SOL    HW219512   1.116   5.513   4.793
 6205SOL     OW19513   6.379   6.295   0.286
 6205SOL    HW119514   6.407   6.199   0.289
 6205SOL    HW219515   6.459   6.351   0.265
 6206SOL     OW19516   0.053   1.051   2.861
 6206SOL    HW119517   0.125   1.107   2.821
 6206SOL    HW219518   0.016   0.989   2.792
 6207SOL     OW19519   1.660   4.871   4.816
 6207SOL    HW119520   1.625   4.945   4.760
 6207SOL    HW219521   1.627   4.882   4.910
 6208SOL     OW19522   5.667   1.607   6.100
 6208SOL    HW119523   5.655   1.702   6.127
 6208SOL    HW219524   5.759   1.594   6.062
 6209SOL     OW19525   4.807   5.717   0.149
 6209SOL    HW119526   4.741   5.744   0.079
 6209SOL    HW219527   4.759   5.683   0.230
 6210SOL     OW19528   4.882   3.354   3.654
 6210SOL    HW119529   4.979   3.332   3.651
 6210SOL    HW219530   4.856   3.377   3.748
 6211SOL     OW19531   3.404   6.137   5.595
 6211SOL    HW119532   3.478   6.144   5.662
 6211SOL    HW219533   3.393   6.041   5.569
 6212SOL     OW19534   1.804   5.077   3.678
 6212SOL    HW119535   1.722   5.058   3.731
 6212SOL    HW219536   1.796   5.169   3.638
 6213SOL     OW19537   5.606   0.112   0.223
 6213SOL    HW119538   5.696   0.117   0.179
 6213SOL    HW219539   5.535   0.138   0.158
 6214SOL     OW19540   4.874   4.982   4.864
 6214SOL    HW119541   4.811   5.016   4.933
 6214SOL    HW219542   4.868   5.039   4.782
 6215SOL     OW19543   4.247   1.116   1.028
 6215SOL    HW119544   4.272   1.209   1.001
 6215SOL    HW219545   4.330   1.067   1.055
 6216SOL     OW19546   6.232   1.317   2.091
 6216SOL    HW119547   6.314   1.342   2.142
 6216SOL    HW219548   6.215   1.218   2.100
 6217SOL     OW19549   0.087   3.440   2.151
 6217SOL    HW119550   0.115   3.419   2.245
 6217SOL    HW219551   0.111   3.363   2.091
 6218SOL     OW19552   4.409   5.651   5.953
 6218SOL    HW119553   4.317   5.635   5.919
 6218SOL    HW219554   4.419   5.607   6.043
 6219SOL     OW19555   0.558   2.677   4.350
 6219SOL    HW119556   0.542   2.718   4.440
 6219SOL    HW219557   0.486   2.706   4.287
 6220SOL     OW19558   1.635   2.321   5.245
 6220SOL    HW119559   1.564   2.364   5.301
 6220SOL    HW219560   1.689   2.259   5.303
 6221SOL     OW19561   5.667   5.673   0.187
 6221SOL    HW119562   5.642   5.576   0.189
 6221SOL    HW219563   5.691   5.703   0.279
 6222SOL     OW19564   0.414   0.079   1.599
 6222SOL    HW119565   0.368   0.166   1.618
 6222SOL    HW219566   0.513   0.093   1.593
 6223SOL     OW19567   0.415   5.167   4.205
 6223SOL    HW119568   0.327   5.128   4.176
 6223SOL    HW219569   0.479   5.166   4.128
 6224SOL     OW19570   2.447   1.720   6.036
 6224SOL    HW119571   2.456   1.809   5.991
 6224SOL    HW219572   2.522   1.660   6.007
 6225SOL     OW19573   3.718   4.186   6.960
 6225SOL    HW119574   3.658   4.177   6.881
 6225SOL    HW219575   3.686   4.126   0.011
 6226SOL     OW19576   6.429   1.424   5.363
 6226SOL    HW119577   6.458   1.431   5.268
 6226SOL    HW219578   6.402   1.514   5.397
 6227SOL     OW19579   3.830   6.110   5.482
 6227SOL    HW119580   3.753   6.052   5.452
 6227SOL    HW219581   3.899   6.053   5.526
 6228SOL     OW19582   1.072   2.575   3.254
 6228SOL    HW119583   1.089   2.486   3.296
 6228SOL    HW219584   1.104   2.648   3.314
 6229SOL     OW19585   0.306   2.304   3.357
 6229SOL    HW119586   0.250   2.380   3.326
 6229SOL    HW219587   0.319   2.239   3.282
 6230SOL     OW19588   1.234   1.917   3.660
 6230SOL    HW119589   1.232   1.872   3.571
 6230SOL    HW219590   1.169   1.872   3.722
 6231SOL     OW19591   5.929   5.317   1.372
 6231SOL    HW119592   5.944   5.228   1.415
 6231SOL    HW219593   5.911   5.304   1.274
 6232SOL     OW19594   6.564   0.700   1.010
 6232SOL    HW119595   6.623   0.632   0.967
 6232SOL    HW219596   6.495   0.654   1.065
 6233SOL     OW19597   6.332   0.780   0.716
 6233SOL    HW119598   6.283   0.709   0.767
 6233SOL    HW219599   6.283   0.867   0.726
 6234SOL     OW19600   5.983   1.307   5.512
 6234SOL    HW119601   5.936   1.319   5.424
 6234SOL    HW219602   5.947   1.227   5.558
 6235SOL     OW19603   1.025   6.699   1.802
 6235SOL    HW119604   1.051   6.669   1.710
 6235SOL    HW219605   0.967   6.780   1.795
 6236SOL     OW19606   0.975   3.381   0.676
 6236SOL    HW119607   1.038   3.346   0.745
 6236SOL    HW219608   0.894   3.322   0.672
 6237SOL     OW19609   3.249   6.804   6.781
 6237SOL    HW119610   3.282   6.715   6.811
 6237SOL    HW219611   3.323   6.855   6.738
 6238SOL     OW19612   4.219   4.668   2.472
 6238SOL    HW119613   4.126   4.633   2.461
 6238SOL    HW219614   4.237   4.736   2.401
 6239SOL     OW19615   2.240   0.482   1.953
 6239SOL    HW119616   2.290   0.565   1.977
 6239SOL    HW219617   2.280   0.404   2.001
 6240SOL     OW19618   2.377   3.222   5.881
 6240SOL    HW119619   2.311   3.173   5.823
 6240SOL    HW219620   2.455   3.251   5.824
 6241SOL     OW19621   3.991   0.033   1.628
 6241SOL    HW119622   3.996   6.959   1.602
 6241SOL    HW219623   3.897   0.066   1.620
 6242SOL     OW19624   4.698   0.371   3.657
 6242SOL    HW119625   4.776   0.367   3.720
 6242SOL    HW219626   4.640   0.291   3.671
 6243SOL     OW19627   6.342   6.808   4.443
 6243SOL    HW119628   6.270   6.784   4.377
 6243SOL    HW219629   6.431   6.795   4.400
 6244SOL     OW19630   0.086   2.612   2.017
 6244SOL    HW119631   0.150   2.612   2.093
 6244SOL    HW219632   0.121   2.669   1.943
 6245SOL     OW19633   1.676   4.091   0.416
 6245SOL    HW119634   1.665   4.183   0.453
 6245SOL    HW219635   1.763   4.053   0.448
 6246SOL     OW19636   2.277   2.077   5.800
 6246SOL    HW119637   2.267   2.137   5.721
 6246SOL    HW219638   2.189   2.070   5.847
 6247SOL     OW19639   1.280   6.225   4.507
 6247SOL    HW119640   1.284   6.232   4.607
 6247SOL    HW219641   1.194   6.264   4.475
 6248SOL     OW19642   4.003   3.009   0.122
 6248SOL    HW119643   3.906   3.033   0.128
 6248SOL    HW219644   4.026   2.945   0.195
 6249SOL     OW19645   1.130   4.045   0.891
 6249SOL    HW119646   1.094   4.133   0.860
 6249SOL    HW219647   1.200   4.013   0.828
 6250SOL     OW19648   6.786   6.557   0.157
 6250SOL    HW119649   6.754   6.627   0.094
 6250SOL    HW219650   6.841   6.490   0.108
 6251SOL     OW19651   4.132   5.371   6.630
 6251SOL    HW119652   4.118   5.272   6.639
 6251SOL    HW219653   4.227   5.393   6.651
 6252SOL     OW19654   1.362   6.537   5.584
 6252SOL    HW119655   1.262   6.539   5.578
 6252SOL    HW219656   1.401   6.543   5.492
 6253SOL     OW19657   2.067   4.236   3.082
 6253SOL    HW119658   2.154   4.193   3.060
 6253SOL    HW219659   2.054   4.238   3.181
 6254SOL     OW19660   5.412   1.619   1.320
 6254SOL    HW119661   5.442   1.552   1.253
 6254SOL    HW219662   5.420   1.711   1.282
 6255SOL     OW19663   3.365   0.661   1.277
 6255SOL    HW119664   3.420   0.649   1.194
 6255SOL    HW219665   3.419   0.635   1.357
 6256SOL     OW19666   3.604   5.261   1.847
 6256SOL    HW119667   3.608   5.361   1.842
 6256SOL    HW219668   3.508   5.232   1.850
 6257SOL     OW19669   5.250   2.263   0.653
 6257SOL    HW119670   5.250   2.340   0.588
 6257SOL    HW219671   5.239   2.178   0.602
 6258SOL     OW19672   4.019   6.716   3.584
 6258SOL    HW119673   3.932   6.689   3.625
 6258SOL    HW219674   4.029   6.815   3.586
 6259SOL     OW19675   2.311   2.527   0.398
 6259SOL    HW119676   2.233   2.531   0.335
 6259SOL    HW219677   2.290   2.579   0.480
 6260SOL     OW19678   3.196   5.446   0.130
 6260SOL    HW119679   3.099   5.423   0.128
 6260SOL    HW219680   3.250   5.362   0.126
 6261SOL     OW19681   3.847   0.815   6.747
 6261SOL    HW119682   3.828   0.762   6.664
 6261SOL    HW219683   3.764   0.824   6.801
 6262SOL     OW19684   2.457   6.254   1.007
 6262SOL    HW119685   2.546   6.212   0.989
 6262SOL    HW219686   2.441   6.256   1.106
 6263SOL     OW19687   6.579   0.667   5.071
 6263SOL    HW119688   6.506   0.645   5.007
 6263SOL    HW219689   6.540   0.688   5.161
 6264SOL     OW19690   1.482   6.539   2.356
 6264SOL    HW119691   1.430   6.582   2.282
 6264SOL    HW219692   1.574   6.518   2.323
 6265SOL     OW19693   3.487   4.130   0.373
 6265SOL    HW119694   3.505   4.212   0.428
 6265SOL    HW219695   3.433   4.065   0.426
 6266SOL     OW19696   4.020   0.880   4.805
 6266SOL    HW119697   3.941   0.823   4.783
 6266SOL    HW219698   3.995   0.977   4.797
 6267SOL     OW19699   2.206   0.116   6.424
 6267SOL    HW119700   2.213   0.032   6.477
 6267SOL    HW219701   2.208   0.195   6.486
 6268SOL     OW19702   2.846   0.260   3.531
 6268SOL    HW119703   2.788   0.327   3.577
 6268SOL    HW219704   2.808   0.240   3.440
 6269SOL     OW19705   0.005   6.556   1.626
 6269SOL    HW119706   0.092   6.508   1.643
 6269SOL    HW219707   6.967   6.496   1.572
 6270SOL     OW19708   1.727   0.346   5.332
 6270SOL    HW119709   1.817   0.346   5.287
 6270SOL    HW219710   1.732   0.400   5.416
 6271SOL     OW19711   6.442   2.306   0.063
 6271SOL    HW119712   6.533   2.304   0.022
 6271SOL    HW219713   6.385   2.236   0.019
 6272SOL     OW19714   0.326   2.371   0.182
 6272SOL    HW119715   0.423   2.354   0.160
 6272SOL    HW219716   0.279   2.402   0.100
 6273SOL     OW19717   1.311   6.678   2.590
 6273SOL    HW119718   1.392   6.679   2.532
 6273SOL    HW219719   1.296   6.586   2.626
 6274SOL     OW19720   3.137   5.600   6.027
 6274SOL    HW119721   3.131   5.554   5.938
 6274SOL    HW219722   3.055   5.578   6.080
 6275SOL     OW19723   2.263   6.735   5.870
 6275SOL    HW119724   2.349   6.723   5.919
 6275SOL    HW219725   2.254   6.663   5.801
 6276SOL     OW19726   1.719   4.265   3.132
 6276SOL    HW119727   1.759   4.194   3.074
 6276SOL    HW219728   1.774   4.348   3.125
 6277SOL     OW19729   5.672   3.640   2.387
 6277SOL    HW119730   5.737   3.642   2.312
 6277SOL    HW219731   5.588   3.688   2.361
 6278SOL     OW19732   5.246   6.015   4.861
 6278SOL    HW119733   5.295   6.096   4.893
 6278SOL    HW219734   5.176   5.990   4.928
 6279SOL     OW19735   3.648   0.137   6.859
 6279SOL    HW119736   3.725   0.161   6.918
 6279SOL    HW219737   3.596   0.063   6.900
 6280SOL     OW19738   0.999   2.066   5.414
 6280SOL    HW119739   0.910   2.023   5.428
 6280SOL    HW219740   0.991   2.137   5.344
 6281SOL     OW19741   1.096   5.329   3.709
 6281SOL    HW119742   1.149   5.296   3.786
 6281SOL    HW219743   1.127   5.421   3.684
 6282SOL     OW19744   1.133   5.980   5.020
 6282SOL    HW119745   1.177   5.946   4.937
 6282SOL    HW219746   1.200   5.984   5.094
 6283SOL     OW19747   6.448   3.354   5.634
 6283SOL    HW119748   6.389   3.274   5.624
 6283SOL    HW219749   6.543   3.325   5.639
 6284SOL     OW19750   1.391   5.565   4.739
 6284SOL    HW119751   1.300   5.550   4.701
 6284SOL    HW219752   1.398   5.518   4.828
 6285SOL     OW19753   0.431   3.789   4.739
 6285SOL    HW119754   0.465   3.880   4.718
 6285SOL    HW219755   0.343   3.797   4.786
 6286SOL     OW19756   5.944   1.726   4.030
 6286SOL    HW119757   5.990   1.677   3.955
 6286SOL    HW219758   5.974   1.688   4.118
 6287SOL     OW19759   3.744   4.897   4.005
 6287SOL    HW119760   3.841   4.916   3.990
 6287SOL    HW219761   3.699   4.882   3.917
 6288SOL     OW19762   4.975   4.384   3.004
 6288SOL    HW119763   4.930   4.330   2.932
 6288SOL    HW219764   4.957   4.340   3.092
 6289SOL     OW19765   1.873   4.637   1.258
 6289SOL    HW119766   1.792   4.696   1.264
 6289SOL    HW219767   1.891   4.615   1.163
 6290SOL     OW19768   0.176   4.832   5.569
 6290SOL    HW119769   0.136   4.828   5.478
 6290SOL    HW219770   0.198   4.927   5.591
 6291SOL     OW19771   4.157   3.472   4.556
 6291SOL    HW119772   4.064   3.438   4.539
 6291SOL    HW219773   4.207   3.406   4.611
 6292SOL     OW19774   1.496   2.283   4.212
 6292SOL    HW119775   1.425   2.352   4.203
 6292SOL    HW219776   1.535   2.286   4.304
 6293SOL     OW19777   3.463   1.249   0.282
 6293SOL    HW119778   3.540   1.222   0.340
 6293SOL    HW219779   3.380   1.202   0.314
 6294SOL     OW19780   4.378   5.513   4.118
 6294SOL    HW119781   4.394   5.591   4.178
 6294SOL    HW219782   4.280   5.506   4.099
 6295SOL     OW19783   5.388   4.700   6.441
 6295SOL    HW119784   5.338   4.678   6.525
 6295SOL    HW219785   5.323   4.724   6.369
 6296SOL     OW19786   0.432   6.656   5.737
 6296SOL    HW119787   0.531   6.667   5.742
 6296SOL    HW219788   0.394   6.725   5.674
 6297SOL     OW19789   4.363   6.947   3.836
 6297SOL    HW119790   4.443   6.916   3.887
 6297SOL    HW219791   4.287   6.965   3.898
 6298SOL     OW19792   1.247   2.716   6.596
 6298SOL    HW119793   1.328   2.711   6.653
 6298SOL    HW219794   1.187   2.790   6.629
 6299SOL     OW19795   5.644   2.186   0.063
 6299SOL    HW119796   5.545   2.200   0.062
 6299SOL    HW219797   5.678   2.180   6.992
 6300SOL     OW19798   6.160   0.589   0.816
 6300SOL    HW119799   6.090   0.616   0.882
 6300SOL    HW219800   6.168   0.489   0.815
 6301SOL     OW19801   3.507   0.185   0.230
 6301SOL    HW119802   3.480   0.233   0.313
 6301SOL    HW219803   3.501   0.247   0.152
 6302SOL     OW19804   2.226   1.046   3.104
 6302SOL    HW119805   2.128   1.027   3.099
 6302SOL    HW219806   2.240   1.143   3.126
 6303SOL     OW19807   1.716   1.473   4.238
 6303SOL    HW119808   1.688   1.562   4.273
 6303SOL    HW219809   1.710   1.474   4.138
 6304SOL     OW19810   2.214   0.687   1.417
 6304SOL    HW119811   2.202   0.635   1.501
 6304SOL    HW219812   2.195   0.784   1.434
 6305SOL     OW19813   6.169   6.862   1.480
 6305SOL    HW119814   6.141   6.806   1.401
 6305SOL    HW219815   6.253   6.911   1.457
 6306SOL     OW19816   0.730   4.464   3.938
 6306SOL    HW119817   0.668   4.515   3.998
 6306SOL    HW219818   0.818   4.510   3.934
 6307SOL     OW19819   3.921   4.259   5.549
 6307SOL    HW119820   3.979   4.285   5.472
 6307SOL    HW219821   3.826   4.253   5.518
 6308SOL     OW19822   2.078   2.532   4.507
 6308SOL    HW119823   1.983   2.564   4.509
 6308SOL    HW219824   2.119   2.554   4.418
 6309SOL     OW19825   5.524   4.754   5.859
 6309SOL    HW119826   5.560   4.806   5.782
 6309SOL    HW219827   5.599   4.708   5.907
 6310SOL     OW19828   1.875   5.869   2.635
 6310SOL    HW119829   1.973   5.888   2.624
 6310SOL    HW219830   1.826   5.897   2.553
 6311SOL     OW19831   4.421   1.072   6.212
 6311SOL    HW119832   4.430   1.060   6.113
 6311SOL    HW219833   4.467   1.156   6.240
 6312SOL     OW19834   6.156   5.955   5.900
 6312SOL    HW119835   6.106   5.961   5.986
 6312SOL    HW219836   6.092   5.943   5.824
 6313SOL     OW19837   1.219   6.292   4.802
 6313SOL    HW119838   1.180   6.384   4.793
 6313SOL    HW219839   1.151   6.231   4.843
 6314SOL     OW19840   3.593   6.612   1.480
 6314SOL    HW119841   3.517   6.674   1.495
 6314SOL    HW219842   3.632   6.585   1.568
 6315SOL     OW19843   1.753   2.537   5.579
 6315SOL    HW119844   1.812   2.517   5.501
 6315SOL    HW219845   1.657   2.530   5.551
 6316SOL     OW19846   4.726   1.372   6.883
 6316SOL    HW119847   4.693   1.446   6.824
 6316SOL    HW219848   4.746   1.291   6.827
 6317SOL     OW19849   4.641   5.700   1.728
 6317SOL    HW119850   4.560   5.752   1.757
 6317SOL    HW219851   4.639   5.609   1.769
 6318SOL     OW19852   3.835   1.119   5.284
 6318SOL    HW119853   3.866   1.029   5.313
 6318SOL    HW219854   3.735   1.122   5.285
 6319SOL     OW19855   6.507   0.990   4.585
 6319SOL    HW119856   6.500   0.920   4.656
 6319SOL    HW219857   6.538   0.949   4.499
 6320SOL     OW19858   5.801   5.758   5.471
 6320SOL    HW119859   5.841   5.798   5.389
 6320SOL    HW219860   5.721   5.703   5.446
 6321SOL     OW19861   3.469   3.170   1.104
 6321SOL    HW119862   3.372   3.183   1.126
 6321SOL    HW219863   3.505   3.251   1.059
 6322SOL     OW19864   1.698   2.387   0.184
 6322SOL    HW119865   1.676   2.454   0.114
 6322SOL    HW219866   1.736   2.305   0.142
 6323SOL     OW19867   3.233   2.857   1.826
 6323SOL    HW119868   3.184   2.924   1.882
 6323SOL    HW219869   3.179   2.838   1.744
 6324SOL     OW19870   5.124   6.908   6.873
 6324SOL    HW119871   5.222   6.894   6.857
 6324SOL    HW219872   5.110   6.993   6.924
 6325SOL     OW19873   2.040   1.560   2.469
 6325SOL    HW119874   2.051   1.550   2.370
 6325SOL    HW219875   2.127   1.591   2.509
 6326SOL     OW19876   4.783   5.291   1.705
 6326SOL    HW119877   4.718   5.240   1.649
 6326SOL    HW219878   4.838   5.227   1.759
 6327SOL     OW19879   0.085   0.343   4.580
 6327SOL    HW119880   0.030   0.388   4.650
 6327SOL    HW219881   0.175   0.387   4.575
 6328SOL     OW19882   3.328   3.284   0.660
 6328SOL    HW119883   3.287   3.211   0.714
 6328SOL    HW219884   3.288   3.372   0.686
 6329SOL     OW19885   2.162   2.328   3.921
 6329SOL    HW119886   2.079   2.357   3.874
 6329SOL    HW219887   2.140   2.298   4.013
 6330SOL     OW19888   5.165   0.832   0.966
 6330SOL    HW119889   5.152   0.898   1.040
 6330SOL    HW219890   5.079   0.784   0.949
 6331SOL     OW19891   6.474   3.111   5.836
 6331SOL    HW119892   6.525   3.027   5.851
 6331SOL    HW219893   6.487   3.173   5.914
 6332SOL     OW19894   6.947   3.689   1.516
 6332SOL    HW119895   6.955   3.787   1.533
 6332SOL    HW219896   6.966   3.669   1.420
 6333SOL     OW19897   4.813   5.954   5.249
 6333SOL    HW119898   4.757   5.969   5.330
 6333SOL    HW219899   4.796   5.863   5.213
 6334SOL     OW19900   3.134   0.439   1.920
 6334SOL    HW119901   3.207   0.383   1.959
 6334SOL    HW219902   3.070   0.381   1.870
 6335SOL     OW19903   3.726   1.179   0.369
 6335SOL    HW119904   3.733   1.190   0.468
 6335SOL    HW219905   3.818   1.181   0.329
 6336SOL     OW19906   0.659   2.444   5.873
 6336SOL    HW119907   0.592   2.517   5.886
 6336SOL    HW219908   0.697   2.451   5.780
 6337SOL     OW19909   5.263   4.580   6.098
 6337SOL    HW119910   5.283   4.676   6.078
 6337SOL    HW219911   5.168   4.560   6.077
 6338SOL     OW19912   3.735   1.896   4.569
 6338SOL    HW119913   3.665   1.941   4.624
 6338SOL    HW219914   3.771   1.961   4.501
 6339SOL     OW19915   1.264   3.768   3.143
 6339SOL    HW119916   1.179   3.818   3.128
 6339SOL    HW219917   1.331   3.796   3.074
 6340SOL     OW19918   1.573   5.023   2.683
 6340SOL    HW119919   1.570   4.958   2.607
 6340SOL    HW219920   1.624   5.105   2.654
 6341SOL     OW19921   0.837   4.383   4.596
 6341SOL    HW119922   0.912   4.389   4.662
 6341SOL    HW219923   0.869   4.334   4.515
 6342SOL     OW19924   1.679   1.460   1.902
 6342SOL    HW119925   1.695   1.474   1.804
 6342SOL    HW219926   1.643   1.369   1.917
 6343SOL     OW19927   4.959   2.142   0.004
 6343SOL    HW119928   4.991   2.201   6.952
 6343SOL    HW219929   4.999   2.051   7.015
 6344SOL     OW19930   5.852   3.023   4.617
 6344SOL    HW119931   5.833   3.106   4.565
 6344SOL    HW219932   5.908   2.961   4.563
 6345SOL     OW19933   5.954   2.974   2.125
 6345SOL    HW119934   6.017   2.943   2.197
 6345SOL    HW219935   5.968   2.918   2.044
 6346SOL     OW19936   6.746   5.393   3.843
 6346SOL    HW119937   6.647   5.398   3.830
 6346SOL    HW219938   6.767   5.400   3.941
 6347SOL     OW19939   2.394   6.825   0.194
 6347SOL    HW119940   2.427   6.731   0.197
 6347SOL    HW219941   2.296   6.827   0.213
 6348SOL     OW19942   0.659   3.757   5.496
 6348SOL    HW119943   0.700   3.758   5.404
 6348SOL    HW219944   0.687   3.839   5.546
 6349SOL     OW19945   2.185   0.638   1.684
 6349SOL    HW119946   2.175   0.566   1.753
 6349SOL    HW219947   2.139   0.721   1.715
 6350SOL     OW19948   1.435   5.411   3.818
 6350SOL    HW119949   1.361   5.385   3.880
 6350SOL    HW219950   1.508   5.454   3.869
 6351SOL     OW19951   6.243   3.739   3.603
 6351SOL    HW119952   6.254   3.801   3.525
 6351SOL    HW219953   6.303   3.659   3.590
 6352SOL     OW19954   3.920   5.965   4.948
 6352SOL    HW119955   3.922   6.036   4.879
 6352SOL    HW219956   3.997   5.976   5.011
 6353SOL     OW19957   0.549   0.217   5.791
 6353SOL    HW119958   0.576   0.308   5.759
 6353SOL    HW219959   0.628   0.156   5.785
 6354SOL     OW19960   2.329   5.684   2.815
 6354SOL    HW119961   2.400   5.639   2.761
 6354SOL    HW219962   2.239   5.663   2.776
 6355SOL     OW19963   0.688   5.363   6.338
 6355SOL    HW119964   0.696   5.326   6.431
 6355SOL    HW219965   0.677   5.288   6.273
 6356SOL     OW19966   4.233   5.472   1.867
 6356SOL    HW119967   4.289   5.552   1.889
 6356SOL    HW219968   4.137   5.500   1.857
 6357SOL     OW19969   5.832   3.340   2.840
 6357SOL    HW119970   5.921   3.320   2.881
 6357SOL    HW219971   5.842   3.410   2.769
 6358SOL     OW19972   0.597   2.295   6.375
 6358SOL    HW119973   0.604   2.327   6.281
 6358SOL    HW219974   0.571   2.199   6.376
 6359SOL     OW19975   5.574   6.582   6.761
 6359SOL    HW119976   5.577   6.494   6.808
 6359SOL    HW219977   5.565   6.655   6.829
 6360SOL     OW19978   1.182   4.021   3.922
 6360SOL    HW119979   1.173   4.032   4.021
 6360SOL    HW219980   1.167   4.109   3.877
 6361SOL     OW19981   0.025   0.134   1.448
 6361SOL    HW119982   0.035   0.210   1.384
 6361SOL    HW219983   0.100   0.070   1.435
 6362SOL     OW19984   6.982   6.397   0.075
 6362SOL    HW119985   6.983   6.323   0.008
 6362SOL    HW219986   0.040   6.455   0.061
 6363SOL     OW19987   2.087   4.701   3.346
 6363SOL    HW119988   2.027   4.723   3.269
 6363SOL    HW219989   2.102   4.783   3.402
 6364SOL     OW19990   2.940   1.219   6.128
 6364SOL    HW119991   3.020   1.202   6.185
 6364SOL    HW219992   2.866   1.156   6.154
 6365SOL     OW19993   5.653   0.172   4.047
 6365SOL    HW119994   5.619   0.138   4.135
 6365SOL    HW219995   5.600   0.251   4.019
 6366SOL     OW19996   0.793   6.301   5.703
 6366SOL    HW119997   0.855   6.304   5.782
 6366SOL    HW219998   0.822   6.369   5.636
 6367SOL     OW19999   4.465   1.383   5.527
 6367SOL    HW120000   4.440   1.478   5.546
 6367SOL    HW220001   4.432   1.356   5.437
 6368SOL     OW20002   3.603   4.921   3.445
 6368SOL    HW120003   3.648   4.976   3.375
 6368SOL    HW220004   3.546   4.851   3.401
 6369SOL     OW20005   2.048   5.541   3.246
 6369SOL    HW120006   1.986   5.464   3.231
 6369SOL    HW220007   2.104   5.523   3.327
 6370SOL     OW20008   0.726   3.593   3.354
 6370SOL    HW120009   0.715   3.505   3.400
 6370SOL    HW220010   0.646   3.650   3.371
 6371SOL     OW20011   5.426   4.240   4.308
 6371SOL    HW120012   5.460   4.211   4.219
 6371SOL    HW220013   5.497   4.292   4.356
 6372SOL     OW20014   2.083   0.502   2.292
 6372SOL    HW120015   2.063   0.595   2.323
 6372SOL    HW220016   2.001   0.445   2.302
 6373SOL     OW20017   4.909   3.902   2.798
 6373SOL    HW120018   4.847   3.923   2.723
 6373SOL    HW220019   4.970   3.979   2.815
 6374SOL     OW20020   3.157   3.836   3.644
 6374SOL    HW120021   3.171   3.860   3.740
 6374SOL    HW220022   3.243   3.806   3.604
 6375SOL     OW20023   6.960   2.009   3.689
 6375SOL    HW120024   6.885   2.071   3.713
 6375SOL    HW220025   6.936   1.915   3.715
 6376SOL     OW20026   6.416   2.577   4.988
 6376SOL    HW120027   6.469   2.593   5.071
 6376SOL    HW220028   6.389   2.480   4.985
 6377SOL     OW20029   6.129   2.133   5.710
 6377SOL    HW120030   6.083   2.215   5.676
 6377SOL    HW220031   6.227   2.152   5.719
 6378SOL     OW20032   4.485   5.244   4.207
 6378SOL    HW120033   4.457   5.329   4.161
 6378SOL    HW220034   4.581   5.226   4.187
 6379SOL     OW20035   1.648   3.554   4.129
 6379SOL    HW120036   1.564   3.501   4.146
 6379SOL    HW220037   1.726   3.504   4.165
 6380SOL     OW20038   0.118   2.001   5.509
 6380SOL    HW120039   0.096   1.957   5.596
 6380SOL    HW220040   0.195   1.953   5.466
 6381SOL     OW20041   3.766   3.292   1.791
 6381SOL    HW120042   3.835   3.220   1.790
 6381SOL    HW220043   3.675   3.251   1.790
 6382SOL     OW20044   1.253   1.484   0.964
 6382SOL    HW120045   1.173   1.501   1.020
 6382SOL    HW220046   1.326   1.445   1.020
 6383SOL     OW20047   1.451   1.508   2.813
 6383SOL    HW120048   1.445   1.560   2.898
 6383SOL    HW220049   1.490   1.418   2.832
 6384SOL     OW20050   5.712   4.105   1.635
 6384SOL    HW120051   5.757   4.080   1.550
 6384SOL    HW220052   5.649   4.181   1.619
 6385SOL     OW20053   0.122   4.819   3.971
 6385SOL    HW120054   0.047   4.780   3.918
 6385SOL    HW220055   0.206   4.769   3.952
 6386SOL     OW20056   2.236   4.193   6.067
 6386SOL    HW120057   2.159   4.131   6.080
 6386SOL    HW220058   2.240   4.222   5.971
 6387SOL     OW20059   0.311   1.647   6.400
 6387SOL    HW120060   0.392   1.633   6.343
 6387SOL    HW220061   0.231   1.608   6.355
 6388SOL     OW20062   3.535   4.936   1.447
 6388SOL    HW120063   3.500   4.962   1.358
 6388SOL    HW220064   3.565   5.018   1.497
 6389SOL     OW20065   0.323   5.896   2.475
 6389SOL    HW120066   0.227   5.905   2.503
 6389SOL    HW220067   0.328   5.851   2.386
 6390SOL     OW20068   0.565   1.370   5.753
 6390SOL    HW120069   0.518   1.380   5.841
 6390SOL    HW220070   0.500   1.339   5.684
 6391SOL     OW20071   2.161   0.398   5.969
 6391SOL    HW120072   2.160   0.343   6.053
 6391SOL    HW220073   2.220   0.478   5.982
 6392SOL     OW20074   2.798   6.018   2.967
 6392SOL    HW120075   2.816   6.048   3.061
 6392SOL    HW220076   2.752   5.929   2.968
 6393SOL     OW20077   6.869   0.152   2.132
 6393SOL    HW120078   6.954   0.124   2.176
 6393SOL    HW220079   6.869   0.123   2.037
 6394SOL     OW20080   2.273   5.016   1.101
 6394SOL    HW120081   2.258   5.068   1.185
 6394SOL    HW220082   2.229   4.926   1.109
 6395SOL     OW20083   6.563   2.283   0.795
 6395SOL    HW120084   6.569   2.183   0.804
 6395SOL    HW220085   6.648   2.324   0.828
 6396SOL     OW20086   4.783   3.255   5.868
 6396SOL    HW120087   4.833   3.326   5.919
 6396SOL    HW220088   4.718   3.210   5.930
 6397SOL     OW20089   5.512   2.662   6.674
 6397SOL    HW120090   5.530   2.588   6.739
 6397SOL    HW220091   5.494   2.746   6.724
 6398SOL     OW20092   2.750   6.856   0.938
 6398SOL    HW120093   2.711   6.925   0.999
 6398SOL    HW220094   2.688   6.777   0.932
 6399SOL     OW20095   1.681   6.328   6.531
 6399SOL    HW120096   1.630   6.314   6.446
 6399SOL    HW220097   1.775   6.297   6.519
 6400SOL     OW20098   2.443   6.523   2.031
 6400SOL    HW120099   2.405   6.439   1.993
 6400SOL    HW220100   2.397   6.602   1.988
 6401SOL     OW20101   6.021   4.981   3.987
 6401SOL    HW120102   6.084   4.929   3.930
 6401SOL    HW220103   6.009   5.073   3.949
 6402SOL     OW20104   3.884   2.193   3.072
 6402SOL    HW120105   3.837   2.165   3.155
 6402SOL    HW220106   3.828   2.171   2.992
 6403SOL     OW20107   6.864   6.322   6.532
 6403SOL    HW120108   6.837   6.247   6.472
 6403SOL    HW220109   6.964   6.326   6.538
 6404SOL     OW20110   4.396   1.843   2.153
 6404SOL    HW120111   4.323   1.850   2.085
 6404SOL    HW220112   4.482   1.874   2.112
 6405SOL     OW20113   3.033   0.528   4.002
 6405SOL    HW120114   2.934   0.532   4.016
 6405SOL    HW220115   3.059   0.591   3.929
 6406SOL     OW20116   1.208   2.511   3.012
 6406SOL    HW120117   1.150   2.572   2.959
 6406SOL    HW220118   1.190   2.525   3.110
 6407SOL     OW20119   3.076   5.978   4.016
 6407SOL    HW120120   3.026   5.894   4.038
 6407SOL    HW220121   3.015   6.056   4.024
 6408SOL     OW20122   5.750   1.832   0.458
 6408SOL    HW120123   5.846   1.855   0.441
 6408SOL    HW220124   5.709   1.796   0.374
 6409SOL     OW20125   6.786   4.828   3.464
 6409SOL    HW120126   6.737   4.760   3.409
 6409SOL    HW220127   6.867   4.858   3.414
 6410SOL     OW20128   1.679   1.466   0.765
 6410SOL    HW120129   1.623   1.470   0.682
 6410SOL    HW220130   1.712   1.557   0.788
 6411SOL     OW20131   0.761   2.585   3.272
 6411SOL    HW120132   0.691   2.586   3.201
 6411SOL    HW220133   0.852   2.586   3.230
 6412SOL     OW20134   0.550   2.260   5.315
 6412SOL    HW120135   0.623   2.192   5.311
 6412SOL    HW220136   0.471   2.228   5.264
 6413SOL     OW20137   4.311   4.742   3.877
 6413SOL    HW120138   4.213   4.758   3.865
 6413SOL    HW220139   4.363   4.799   3.813
 6414SOL     OW20140   5.887   0.914   0.630
 6414SOL    HW120141   5.889   1.014   0.635
 6414SOL    HW220142   5.977   0.879   0.656
 6415SOL     OW20143   1.635   2.927   3.149
 6415SOL    HW120144   1.697   3.005   3.141
 6415SOL    HW220145   1.579   2.920   3.067
 6416SOL     OW20146   1.006   1.394   6.285
 6416SOL    HW120147   1.094   1.357   6.255
 6416SOL    HW220148   0.943   1.319   6.303
 6417SOL     OW20149   6.426   5.024   1.540
 6417SOL    HW120150   6.394   4.981   1.456
 6417SOL    HW220151   6.444   4.954   1.609
 6418SOL     OW20152   4.647   4.352   1.722
 6418SOL    HW120153   4.721   4.303   1.768
 6418SOL    HW220154   4.562   4.339   1.773
 6419SOL     OW20155   2.136   5.072   3.248
 6419SOL    HW120156   2.197   5.049   3.171
 6419SOL    HW220157   2.042   5.054   3.222
 6420SOL     OW20158   3.524   4.942   4.641
 6420SOL    HW120159   3.472   5.010   4.692
 6420SOL    HW220160   3.513   4.958   4.543
 6421SOL     OW20161   5.034   0.634   3.139
 6421SOL    HW120162   5.090   0.687   3.076
 6421SOL    HW220163   4.942   0.673   3.143
 6422SOL     OW20164   0.481   0.649   3.959
 6422SOL    HW120165   0.510   0.646   3.864
 6422SOL    HW220166   0.555   0.684   4.016
 6423SOL     OW20167   4.531   5.736   2.748
 6423SOL    HW120168   4.584   5.651   2.743
 6423SOL    HW220169   4.465   5.738   2.672
 6424SOL     OW20170   0.050   5.955   5.987
 6424SOL    HW120171   6.977   5.924   5.987
 6424SOL    HW220172   0.071   5.998   6.075
 6425SOL     OW20173   6.668   5.882   2.610
 6425SOL    HW120174   6.752   5.918   2.651
 6425SOL    HW220175   6.675   5.886   2.510
 6426SOL     OW20176   1.199   5.024   2.853
 6426SOL    HW120177   1.287   4.982   2.878
 6426SOL    HW220178   1.159   5.067   2.935
 6427SOL     OW20179   3.605   3.168   4.874
 6427SOL    HW120180   3.694   3.189   4.834
 6427SOL    HW220181   3.566   3.251   4.915
 6428SOL     OW20182   5.709   3.161   6.486
 6428SOL    HW120183   5.733   3.195   6.396
 6428SOL    HW220184   5.680   3.065   6.479
 6429SOL     OW20185   2.073   2.011   5.993
 6429SOL    HW120186   2.154   1.993   6.049
 6429SOL    HW220187   2.016   1.929   5.990
 6430SOL     OW20188   5.954   0.964   1.802
 6430SOL    HW120189   5.945   0.868   1.773
 6430SOL    HW220190   5.864   1.006   1.807
 6431SOL     OW20191   5.271   6.864   3.715
 6431SOL    HW120192   5.214   6.840   3.793
 6431SOL    HW220193   5.363   6.827   3.728
 6432SOL     OW20194   4.034   4.221   6.595
 6432SOL    HW120195   4.057   4.263   6.508
 6432SOL    HW220196   3.957   4.270   6.637
 6433SOL     OW20197   2.459   4.155   6.837
 6433SOL    HW120198   2.372   4.204   6.840
 6433SOL    HW220199   2.512   4.187   6.758
 6434SOL     OW20200   2.268   4.521   0.185
 6434SOL    HW120201   2.306   4.585   0.252
 6434SOL    HW220202   2.342   4.468   0.144
 6435SOL     OW20203   4.364   6.629   0.064
 6435SOL    HW120204   4.394   6.535   0.079
 6435SOL    HW220205   4.311   6.660   0.144
 6436SOL     OW20206   2.043   3.362   3.494
 6436SOL    HW120207   2.098   3.374   3.412
 6436SOL    HW220208   2.102   3.344   3.572
 6437SOL     OW20209   2.466   1.815   0.647
 6437SOL    HW120210   2.499   1.748   0.713
 6437SOL    HW220211   2.389   1.777   0.596
 6438SOL     OW20212   6.750   4.455   6.520
 6438SOL    HW120213   6.834   4.431   6.471
 6438SOL    HW220214   6.770   4.472   6.616
 6439SOL     OW20215   5.189   0.808   1.578
 6439SOL    HW120216   5.210   0.762   1.492
 6439SOL    HW220217   5.116   0.759   1.625
 6440SOL     OW20218   2.075   1.306   6.582
 6440SOL    HW120219   2.031   1.280   6.496
 6440SOL    HW220220   2.027   1.384   6.622
 6441SOL     OW20221   0.313   6.499   1.763
 6441SOL    HW120222   0.339   6.588   1.801
 6441SOL    HW220223   0.362   6.484   1.677
 6442SOL     OW20224   2.399   0.802   4.611
 6442SOL    HW120225   2.484   0.775   4.565
 6442SOL    HW220226   2.342   0.721   4.627
 6443SOL     OW20227   3.881   2.362   5.496
 6443SOL    HW120228   3.972   2.348   5.535
 6443SOL    HW220229   3.858   2.285   5.436
 6444SOL     OW20230   6.578   3.139   4.242
 6444SOL    HW120231   6.552   3.073   4.172
 6444SOL    HW220232   6.594   3.228   4.200
 6445SOL     OW20233   3.975   3.737   5.639
 6445SOL    HW120234   4.046   3.716   5.706
 6445SOL    HW220235   4.017   3.751   5.549
 6446SOL     OW20236   1.552   1.450   5.897
 6446SOL    HW120237   1.585   1.356   5.900
 6446SOL    HW220238   1.593   1.502   5.973
 6447SOL     OW20239   5.735   4.914   3.023
 6447SOL    HW120240   5.812   4.966   3.060
 6447SOL    HW220241   5.687   4.968   2.955
 6448SOL     OW20242   4.126   5.888   2.214
 6448SOL    HW120243   4.047   5.900   2.273
 6448SOL    HW220244   4.118   5.948   2.135
 6449SOL     OW20245   2.754   4.660   0.475
 6449SOL    HW120246   2.686   4.699   0.538
 6449SOL    HW220247   2.806   4.734   0.433
 6450SOL     OW20248   1.211   3.913   0.642
 6450SOL    HW120249   1.227   3.837   0.580
 6450SOL    HW220250   1.143   3.975   0.603
 6451SOL     OW20251   2.488   0.408   4.826
 6451SOL    HW120252   2.547   0.463   4.767
 6451SOL    HW220253   2.427   0.468   4.878
 6452SOL     OW20254   3.703   6.468   4.543
 6452SOL    HW120255   3.674   6.558   4.509
 6452SOL    HW220256   3.736   6.477   4.637
 6453SOL     OW20257   2.408   5.929   1.126
 6453SOL    HW120258   2.410   5.839   1.083
 6453SOL    HW220259   2.502   5.961   1.140
 6454SOL     OW20260   2.234   2.318   3.504
 6454SOL    HW120261   2.261   2.340   3.410
 6454SOL    HW220262   2.262   2.393   3.565
 6455SOL     OW20263   0.196   2.804   3.770
 6455SOL    HW120264   0.282   2.783   3.816
 6455SOL    HW220265   0.197   2.899   3.738
 6456SOL     OW20266   1.840   0.769   3.549
 6456SOL    HW120267   1.934   0.804   3.543
 6456SOL    HW220268   1.841   0.670   3.534
 6457SOL     OW20269   5.105   1.307   0.844
 6457SOL    HW120270   5.124   1.351   0.932
 6457SOL    HW220271   5.188   1.305   0.789
 6458SOL     OW20272   0.904   6.684   3.746
 6458SOL    HW120273   0.887   6.777   3.713
 6458SOL    HW220274   1.002   6.671   3.760
 6459SOL     OW20275   6.296   4.027   0.201
 6459SOL    HW120276   6.295   3.988   0.109
 6459SOL    HW220277   6.273   3.956   0.267
 6460SOL     OW20278   4.869   5.952   5.800
 6460SOL    HW120279   4.807   5.944   5.878
 6460SOL    HW220280   4.913   6.042   5.801
 6461SOL     OW20281   2.426   4.849   5.574
 6461SOL    HW120282   2.515   4.808   5.593
 6461SOL    HW220283   2.361   4.777   5.549
 6462SOL     OW20284   2.285   2.722   4.996
 6462SOL    HW120285   2.305   2.820   4.999
 6462SOL    HW220286   2.301   2.687   4.904
 6463SOL     OW20287   6.687   3.509   0.102
 6463SOL    HW120288   6.699   3.556   0.015
 6463SOL    HW220289   6.775   3.506   0.150
 6464SOL     OW20290   1.409   5.332   4.185
 6464SOL    HW120291   1.380   5.237   4.177
 6464SOL    HW220292   1.340   5.392   4.144
 6465SOL     OW20293   6.453   2.907   2.907
 6465SOL    HW120294   6.526   2.842   2.928
 6465SOL    HW220295   6.402   2.874   2.827
 6466SOL     OW20296   1.326   1.451   6.045
 6466SOL    HW120297   1.244   1.492   6.004
 6466SOL    HW220298   1.396   1.438   5.974
 6467SOL     OW20299   2.941   1.267   0.011
 6467SOL    HW120300   2.900   1.229   0.093
 6467SOL    HW220301   2.935   1.200   6.959
 6468SOL     OW20302   3.733   5.901   0.376
 6468SOL    HW120303   3.637   5.897   0.347
 6468SOL    HW220304   3.779   5.977   0.331
 6469SOL     OW20305   5.114   0.956   4.959
 6469SOL    HW120306   5.147   0.907   5.040
 6469SOL    HW220307   5.161   0.922   4.878
 6470SOL     OW20308   6.071   4.228   0.387
 6470SOL    HW120309   6.012   4.305   0.360
 6470SOL    HW220310   6.105   4.183   0.305
 6471SOL     OW20311   6.181   6.149   5.605
 6471SOL    HW120312   6.165   6.243   5.635
 6471SOL    HW220313   6.252   6.107   5.661
 6472SOL     OW20314   0.694   5.744   0.799
 6472SOL    HW120315   0.729   5.811   0.865
 6472SOL    HW220316   0.654   5.667   0.849
 6473SOL     OW20317   3.309   1.617   4.469
 6473SOL    HW120318   3.401   1.619   4.510
 6473SOL    HW220319   3.243   1.590   4.539
 6474SOL     OW20320   2.120   4.335   5.520
 6474SOL    HW120321   2.145   4.249   5.476
 6474SOL    HW220322   2.108   4.406   5.451
 6475SOL     OW20323   6.315   5.388   4.338
 6475SOL    HW120324   6.258   5.309   4.317
 6475SOL    HW220325   6.331   5.441   4.255
 6476SOL     OW20326   4.661   3.460   1.409
 6476SOL    HW120327   4.605   3.409   1.474
 6476SOL    HW220328   4.757   3.461   1.440
 6477SOL     OW20329   6.074   5.100   1.496
 6477SOL    HW120330   6.130   5.152   1.561
 6477SOL    HW220331   6.105   5.006   1.493
 6478SOL     OW20332   3.506   6.638   2.085
 6478SOL    HW120333   3.588   6.591   2.054
 6478SOL    HW220334   3.487   6.715   2.025
 6479SOL     OW20335   4.263   5.665   3.784
 6479SOL    HW120336   4.236   5.569   3.783
 6479SOL    HW220337   4.230   5.710   3.701
 6480SOL     OW20338   3.251   2.687   6.086
 6480SOL    HW120339   3.204   2.761   6.037
 6480SOL    HW220340   3.308   2.727   6.157
 6481SOL     OW20341   3.655   2.023   1.778
 6481SOL    HW120342   3.643   2.105   1.834
 6481SOL    HW220343   3.587   2.024   1.704
 6482SOL     OW20344   0.282   0.658   5.620
 6482SOL    HW120345   0.268   0.701   5.709
 6482SOL    HW220346   0.255   0.562   5.625
 6483SOL     OW20347   0.884   6.154   1.396
 6483SOL    HW120348   0.923   6.229   1.343
 6483SOL    HW220349   0.785   6.154   1.386
 6484SOL     OW20350   3.412   0.062   1.797
 6484SOL    HW120351   3.467   0.131   1.750
 6484SOL    HW220352   3.342   0.027   1.735
 6485SOL     OW20353   1.778   5.318   3.602
 6485SOL    HW120354   1.830   5.318   3.517
 6485SOL    HW220355   1.682   5.342   3.583
 6486SOL     OW20356   2.399   4.934   3.948
 6486SOL    HW120357   2.488   4.973   3.971
 6486SOL    HW220358   2.387   4.848   3.998
 6487SOL     OW20359   0.160   6.487   5.197
 6487SOL    HW120360   0.246   6.468   5.149
 6487SOL    HW220361   0.136   6.583   5.187
 6488SOL     OW20362   3.740   6.067   4.555
 6488SOL    HW120363   3.789   6.088   4.639
 6488SOL    HW220364   3.648   6.106   4.560
 6489SOL     OW20365   2.885   2.643   6.928
 6489SOL    HW120366   2.985   2.645   6.924
 6489SOL    HW220367   2.848   2.619   6.839
 6490SOL     OW20368   4.209   1.391   6.195
 6490SOL    HW120369   4.286   1.442   6.158
 6490SOL    HW220370   4.185   1.426   6.285
 6491SOL     OW20371   3.860   1.428   0.522
 6491SOL    HW120372   3.889   1.444   0.428
 6491SOL    HW220373   3.791   1.497   0.548
 6492SOL     OW20374   5.223   5.247   0.391
 6492SOL    HW120375   5.213   5.149   0.380
 6492SOL    HW220376   5.293   5.265   0.460
 6493SOL     OW20377   1.084   5.241   4.618
 6493SOL    HW120378   1.131   5.226   4.531
 6493SOL    HW220379   1.004   5.181   4.624
 6494SOL     OW20380   0.029   1.128   3.281
 6494SOL    HW120381   6.993   1.206   3.304
 6494SOL    HW220382   7.003   1.069   3.216
 6495SOL     OW20383   5.501   6.419   4.679
 6495SOL    HW120384   5.462   6.457   4.763
 6495SOL    HW220385   5.435   6.357   4.636
 6496SOL     OW20386   7.009   0.814   2.726
 6496SOL    HW120387   0.071   0.761   2.740
 6496SOL    HW220388   6.950   0.766   2.661
 6497SOL     OW20389   2.217   2.982   1.259
 6497SOL    HW120390   2.269   2.921   1.200
 6497SOL    HW220391   2.121   2.982   1.230
 6498SOL     OW20392   2.236   4.401   4.326
 6498SOL    HW120393   2.278   4.383   4.415
 6498SOL    HW220394   2.222   4.314   4.278
 6499SOL     OW20395   5.154   2.759   4.736
 6499SOL    HW120396   5.122   2.852   4.718
 6499SOL    HW220397   5.218   2.731   4.664
 6500SOL     OW20398   7.000   4.273   3.877
 6500SOL    HW120399   6.915   4.247   3.924
 6500SOL    HW220400   7.014   4.214   3.798
 6501SOL     OW20401   6.366   2.097   6.916
 6501SOL    HW120402   6.327   2.005   6.916
 6501SOL    HW220403   6.450   2.097   6.862
 6502SOL     OW20404   6.434   3.217   1.633
 6502SOL    HW120405   6.431   3.260   1.723
 6502SOL    HW220406   6.489   3.274   1.571
 6503SOL     OW20407   4.678   1.200   3.070
 6503SOL    HW120408   4.679   1.101   3.076
 6503SOL    HW220409   4.584   1.232   3.059
 6504SOL     OW20410   4.502   6.511   5.716
 6504SOL    HW120411   4.407   6.496   5.686
 6504SOL    HW220412   4.520   6.610   5.718
 6505SOL     OW20413   5.494   6.040   1.885
 6505SOL    HW120414   5.504   6.137   1.861
 6505SOL    HW220415   5.544   6.023   1.970
 6506SOL     OW20416   6.419   2.870   1.775
 6506SOL    HW120417   6.437   2.916   1.687
 6506SOL    HW220418   6.457   2.778   1.772
 6507SOL     OW20419   2.353   5.299   5.561
 6507SOL    HW120420   2.440   5.318   5.515
 6507SOL    HW220421   2.342   5.200   5.571
 6508SOL     OW20422   1.967   0.607   2.858
 6508SOL    HW120423   1.937   0.610   2.953
 6508SOL    HW220424   1.968   0.512   2.826
 6509SOL     OW20425   2.953   1.904   4.685
 6509SOL    HW120426   2.878   1.898   4.751
 6509SOL    HW220427   3.010   1.983   4.707
 6510SOL     OW20428   0.326   4.706   0.252
 6510SOL    HW120429   0.327   4.727   0.154
 6510SOL    HW220430   0.363   4.784   0.303
 6511SOL     OW20431   4.536   1.354   4.390
 6511SOL    HW120432   4.444   1.324   4.416
 6511SOL    HW220433   4.591   1.368   4.472
 6512SOL     OW20434   4.728   6.673   1.596
 6512SOL    HW120435   4.813   6.676   1.544
 6512SOL    HW220436   4.683   6.763   1.592
 6513SOL     OW20437   3.137   4.957   2.694
 6513SOL    HW120438   3.136   4.928   2.789
 6513SOL    HW220439   3.043   4.965   2.660
 6514SOL     OW20440   5.561   0.878   3.796
 6514SOL    HW120441   5.531   0.954   3.855
 6514SOL    HW220442   5.661   0.880   3.789
 6515SOL     OW20443   0.361   5.410   4.295
 6515SOL    HW120444   0.437   5.454   4.249
 6515SOL    HW220445   0.374   5.311   4.294
 6516SOL     OW20446   0.336   3.110   1.837
 6516SOL    HW120447   0.393   3.030   1.854
 6516SOL    HW220448   0.369   3.156   1.753
 6517SOL     OW20449   6.321   0.478   0.430
 6517SOL    HW120450   6.261   0.554   0.453
 6517SOL    HW220451   6.270   0.392   0.436
 6518SOL     OW20452   6.723   6.512   6.675
 6518SOL    HW120453   6.784   6.560   6.738
 6518SOL    HW220454   6.777   6.463   6.607
 6519SOL     OW20455   2.411   1.512   3.513
 6519SOL    HW120456   2.502   1.525   3.473
 6519SOL    HW220457   2.400   1.417   3.542
 6520SOL     OW20458   5.145   5.483   2.399
 6520SOL    HW120459   5.162   5.425   2.478
 6520SOL    HW220460   5.047   5.488   2.381
 6521SOL     OW20461   2.132   3.418   4.837
 6521SOL    HW120462   2.135   3.334   4.892
 6521SOL    HW220463   2.117   3.395   4.741
 6522SOL     OW20464   3.967   4.465   0.570
 6522SOL    HW120465   3.948   4.466   0.471
 6522SOL    HW220466   4.065   4.455   0.585
 6523SOL     OW20467   3.600   1.139   0.044
 6523SOL    HW120468   3.587   1.193   0.127
 6523SOL    HW220469   3.673   1.179   7.011
 6524SOL     OW20470   2.674   3.851   1.600
 6524SOL    HW120471   2.677   3.769   1.544
 6524SOL    HW220472   2.749   3.848   1.667
 6525SOL     OW20473   1.444   4.571   2.696
 6525SOL    HW120474   1.376   4.611   2.758
 6525SOL    HW220475   1.523   4.540   2.749
 6526SOL     OW20476   2.007   6.904   6.561
 6526SOL    HW120477   1.937   6.844   6.523
 6526SOL    HW220478   2.098   6.871   6.533
 6527SOL     OW20479   0.683   2.768   4.623
 6527SOL    HW120480   0.744   2.699   4.662
 6527SOL    HW220481   0.719   2.860   4.643
 6528SOL     OW20482   0.084   0.902   4.438
 6528SOL    HW120483   0.085   1.001   4.452
 6528SOL    HW220484   7.020   0.876   4.395
 6529SOL     OW20485   1.170   1.266   2.646
 6529SOL    HW120486   1.235   1.334   2.610
 6529SOL    HW220487   1.111   1.234   2.573
 6530SOL     OW20488   0.193   3.542   1.064
 6530SOL    HW120489   0.184   3.456   1.014
 6530SOL    HW220490   0.111   3.555   1.121
 6531SOL     OW20491   5.817   3.691   4.762
 6531SOL    HW120492   5.877   3.724   4.688
 6531SOL    HW220493   5.874   3.662   4.840
 6532SOL     OW20494   6.104   0.397   0.215
 6532SOL    HW120495   6.195   0.405   0.174
 6532SOL    HW220496   6.058   0.486   0.209
 6533SOL     OW20497   4.495   6.690   1.413
 6533SOL    HW120498   4.594   6.693   1.426
 6533SOL    HW220499   4.464   6.595   1.408
 6534SOL     OW20500   3.427   4.108   1.475
 6534SOL    HW120501   3.442   4.046   1.398
 6534SOL    HW220502   3.330   4.106   1.500
 6535SOL     OW20503   6.370   3.882   4.541
 6535SOL    HW120504   6.438   3.847   4.476
 6535SOL    HW220505   6.403   3.870   4.634
 6536SOL     OW20506   0.522   1.748   5.659
 6536SOL    HW120507   0.562   1.793   5.578
 6536SOL    HW220508   0.596   1.710   5.714
 6537SOL     OW20509   6.568   5.110   0.443
 6537SOL    HW120510   6.526   5.184   0.390
 6537SOL    HW220511   6.576   5.028   0.386
 6538SOL     OW20512   2.872   3.810   6.759
 6538SOL    HW120513   2.823   3.827   6.845
 6538SOL    HW220514   2.860   3.714   6.732
 6539SOL     OW20515   3.160   0.576   6.410
 6539SOL    HW120516   3.243   0.615   6.369
 6539SOL    HW220517   3.145   0.617   6.500
 6540SOL     OW20518   4.969   1.319   5.421
 6540SOL    HW120519   4.918   1.273   5.493
 6540SOL    HW220520   5.033   1.255   5.378
 6541SOL     OW20521   4.736   1.463   5.584
 6541SOL    HW120522   4.673   1.386   5.570
 6541SOL    HW220523   4.714   1.536   5.519
 6542SOL     OW20524   6.473   4.369   4.158
 6542SOL    HW120525   6.426   4.442   4.109
 6542SOL    HW220526   6.473   4.285   4.103
 6543SOL     OW20527   5.616   3.246   5.966
 6543SOL    HW120528   5.716   3.253   5.968
 6543SOL    HW220529   5.579   3.313   5.901
 6544SOL     OW20530   0.341   6.291   2.980
 6544SOL    HW120531   0.341   6.389   3.000
 6544SOL    HW220532   0.392   6.274   2.895
 6545SOL     OW20533   5.361   2.223   0.060
 6545SOL    HW120534   5.275   2.206   0.108
 6545SOL    HW220535   5.373   2.321   0.047
 6546SOL     OW20536   3.571   4.723   6.782
 6546SOL    HW120537   3.633   4.776   6.840
 6546SOL    HW220538   3.561   4.630   6.819
 6547SOL     OW20539   4.700   1.263   5.959
 6547SOL    HW120540   4.646   1.278   5.876
 6547SOL    HW220541   4.796   1.248   5.935
 6548SOL     OW20542   1.261   3.808   6.585
 6548SOL    HW120543   1.299   3.765   6.667
 6548SOL    HW220544   1.320   3.786   6.507
 6549SOL     OW20545   4.698   0.666   1.368
 6549SOL    HW120546   4.747   0.733   1.424
 6549SOL    HW220547   4.600   0.672   1.387
 6550SOL     OW20548   0.837   6.536   3.971
 6550SOL    HW120549   0.841   6.581   3.882
 6550SOL    HW220550   0.883   6.448   3.966
 6551SOL     OW20551   1.272   4.839   3.184
 6551SOL    HW120552   1.365   4.833   3.220
 6551SOL    HW220553   1.227   4.921   3.220
 6552SOL     OW20554   2.340   0.192   5.482
 6552SOL    HW120555   2.265   0.157   5.538
 6552SOL    HW220556   2.304   0.217   5.392
 6553SOL     OW20557   0.138   1.647   2.982
 6553SOL    HW120558   0.166   1.729   3.033
 6553SOL    HW220559   0.154   1.566   3.038
 6554SOL     OW20560   5.983   0.719   5.252
 6554SOL    HW120561   6.021   0.771   5.328
 6554SOL    HW220562   6.024   0.750   5.166
 6555SOL     OW20563   0.199   1.830   1.961
 6555SOL    HW120564   0.166   1.899   1.896
 6555SOL    HW220565   0.244   1.876   2.038
 6556SOL     OW20566   4.777   4.498   5.203
 6556SOL    HW120567   4.722   4.428   5.158
 6556SOL    HW220568   4.719   4.553   5.263
 6557SOL     OW20569   3.286   5.824   1.218
 6557SOL    HW120570   3.217   5.765   1.260
 6557SOL    HW220571   3.376   5.781   1.227
 6558SOL     OW20572   6.041   4.651   0.580
 6558SOL    HW120573   6.009   4.693   0.495
 6558SOL    HW220574   6.075   4.722   0.641
 6559SOL     OW20575   0.411   4.454   6.125
 6559SOL    HW120576   0.375   4.453   6.032
 6559SOL    HW220577   0.488   4.391   6.132
 6560SOL     OW20578   4.337   4.632   1.158
 6560SOL    HW120579   4.362   4.540   1.131
 6560SOL    HW220580   4.243   4.651   1.128
 6561SOL     OW20581   3.774   4.079   2.432
 6561SOL    HW120582   3.839   4.152   2.410
 6561SOL    HW220583   3.686   4.099   2.390
 6562SOL     OW20584   5.522   4.178   0.604
 6562SOL    HW120585   5.478   4.266   0.623
 6562SOL    HW220586   5.621   4.188   0.613
 6563SOL     OW20587   6.575   6.513   0.306
 6563SOL    HW120588   6.494   6.558   0.268
 6563SOL    HW220589   6.653   6.528   0.245
 6564SOL     OW20590   0.081   4.327   3.055
 6564SOL    HW120591   0.070   4.368   2.965
 6564SOL    HW220592   0.161   4.366   3.100
 6565SOL     OW20593   6.394   2.817   3.957
 6565SOL    HW120594   6.454   2.737   3.954
 6565SOL    HW220595   6.341   2.823   3.872
 6566SOL     OW20596   3.285   6.451   2.770
 6566SOL    HW120597   3.243   6.535   2.804
 6566SOL    HW220598   3.220   6.403   2.710
 6567SOL     OW20599   4.153   1.812   1.340
 6567SOL    HW120600   4.238   1.768   1.312
 6567SOL    HW220601   4.126   1.879   1.270
 6568SOL     OW20602   4.222   0.720   3.749
 6568SOL    HW120603   4.294   0.650   3.747
 6568SOL    HW220604   4.229   0.772   3.834
 6569SOL     OW20605   3.044   3.719   6.300
 6569SOL    HW120606   3.102   3.672   6.234
 6569SOL    HW220607   2.966   3.662   6.324
 6570SOL     OW20608   3.984   6.879   2.556
 6570SOL    HW120609   3.909   6.884   2.491
 6570SOL    HW220610   4.064   6.927   2.518
 6571SOL     OW20611   2.552   5.647   2.191
 6571SOL    HW120612   2.625   5.705   2.227
 6571SOL    HW220613   2.502   5.697   2.120
 6572SOL     OW20614   6.691   5.324   5.594
 6572SOL    HW120615   6.651   5.352   5.681
 6572SOL    HW220616   6.644   5.243   5.560
 6573SOL     OW20617   2.753   1.477   2.103
 6573SOL    HW120618   2.847   1.455   2.129
 6573SOL    HW220619   2.754   1.535   2.021
 6574SOL     OW20620   3.148   6.244   2.652
 6574SOL    HW120621   3.051   6.226   2.667
 6574SOL    HW220622   3.193   6.161   2.621
 6575SOL     OW20623   1.418   0.438   2.122
 6575SOL    HW120624   1.341   0.501   2.106
 6575SOL    HW220625   1.475   0.434   2.040
 6576SOL     OW20626   2.154   6.216   6.066
 6576SOL    HW120627   2.106   6.298   6.035
 6576SOL    HW220628   2.243   6.211   6.021
 6577SOL     OW20629   0.891   1.600   3.959
 6577SOL    HW120630   0.968   1.640   3.909
 6577SOL    HW220631   0.819   1.576   3.895
 6578SOL     OW20632   1.012   4.403   3.195
 6578SOL    HW120633   1.043   4.492   3.160
 6578SOL    HW220634   1.070   4.375   3.271
 6579SOL     OW20635   0.190   3.505   4.787
 6579SOL    HW120636   0.117   3.469   4.845
 6579SOL    HW220637   0.195   3.452   4.703
 6580SOL     OW20638   6.161   1.712   1.223
 6580SOL    HW120639   6.173   1.803   1.185
 6580SOL    HW220640   6.063   1.689   1.227
 6581SOL     OW20641   2.648   1.248   0.353
 6581SOL    HW120642   2.562   1.207   0.325
 6581SOL    HW220643   2.633   1.305   0.434
 6582SOL     OW20644   1.246   1.067   1.351
 6582SOL    HW120645   1.210   1.159   1.361
 6582SOL    HW220646   1.345   1.072   1.333
 6583SOL     OW20647   4.399   0.365   5.136
 6583SOL    HW120648   4.385   0.327   5.044
 6583SOL    HW220649   4.356   0.305   5.203
 6584SOL     OW20650   4.689   1.862   0.268
 6584SOL    HW120651   4.737   1.946   0.293
 6584SOL    HW220652   4.715   1.835   0.175
 6585SOL     OW20653   6.975   6.681   0.314
 6585SOL    HW120654   7.010   6.636   0.397
 6585SOL    HW220655   6.901   6.625   0.276
 6586SOL     OW20656   6.399   1.849   5.798
 6586SOL    HW120657   6.427   1.753   5.790
 6586SOL    HW220658   6.300   1.856   5.786
 6587SOL     OW20659   3.038   6.147   5.040
 6587SOL    HW120660   2.971   6.081   5.005
 6587SOL    HW220661   3.130   6.109   5.029
 6588SOL     OW20662   1.408   3.796   2.149
 6588SOL    HW120663   1.353   3.713   2.146
 6588SOL    HW220664   1.391   3.850   2.067
 6589SOL     OW20665   5.046   0.487   0.262
 6589SOL    HW120666   4.953   0.524   0.255
 6589SOL    HW220667   5.053   0.430   0.344
 6590SOL     OW20668   0.849   1.531   5.472
 6590SOL    HW120669   0.939   1.564   5.443
 6590SOL    HW220670   0.847   1.431   5.465
 6591SOL     OW20671   5.499   6.320   2.325
 6591SOL    HW120672   5.435   6.336   2.250
 6591SOL    HW220673   5.585   6.285   2.287
 6592SOL     OW20674   6.009   6.747   4.052
 6592SOL    HW120675   5.946   6.824   4.065
 6592SOL    HW220676   6.018   6.696   4.138
 6593SOL     OW20677   2.588   1.592   3.127
 6593SOL    HW120678   2.647   1.671   3.115
 6593SOL    HW220679   2.500   1.609   3.084
 6594SOL     OW20680   3.583   1.791   0.091
 6594SOL    HW120681   3.599   1.742   0.176
 6594SOL    HW220682   3.625   1.882   0.096
 6595SOL     OW20683   0.968   2.987   0.323
 6595SOL    HW120684   1.048   3.047   0.332
 6595SOL    HW220685   0.941   2.981   0.227
 6596SOL     OW20686   3.576   6.655   4.362
 6596SOL    HW120687   3.515   6.584   4.327
 6596SOL    HW220688   3.636   6.687   4.289
 6597SOL     OW20689   2.270   6.192   2.382
 6597SOL    HW120690   2.263   6.226   2.289
 6597SOL    HW220691   2.358   6.221   2.421
 6598SOL     OW20692   0.931   6.729   4.169
 6598SOL    HW120693   0.945   6.662   4.243
 6598SOL    HW220694   0.882   6.685   4.094
 6599SOL     OW20695   4.653   6.724   5.362
 6599SOL    HW120696   4.716   6.706   5.286
 6599SOL    HW220697   4.696   6.786   5.427
 6600SOL     OW20698   5.254   5.368   6.074
 6600SOL    HW120699   5.159   5.393   6.091
 6600SOL    HW220700   5.310   5.392   6.154
 6601SOL     OW20701   1.231   1.897   5.414
 6601SOL    HW120702   1.156   1.962   5.404
 6601SOL    HW220703   1.252   1.885   5.511
 6602SOL     OW20704   0.642   1.563   1.591
 6602SOL    HW120705   0.650   1.513   1.505
 6602SOL    HW220706   0.563   1.623   1.589
 6603SOL     OW20707   0.702   2.769   3.789
 6603SOL    HW120708   0.668   2.863   3.786
 6603SOL    HW220709   0.740   2.744   3.699
 6604SOL     OW20710   2.182   6.546   0.917
 6604SOL    HW120711   2.277   6.532   0.887
 6604SOL    HW220712   2.146   6.460   0.953
 6605SOL     OW20713   5.873   4.040   1.436
 6605SOL    HW120714   5.816   4.050   1.355
 6605SOL    HW220715   5.939   3.965   1.422
 6606SOL     OW20716   6.769   6.279   2.539
 6606SOL    HW120717   6.839   6.259   2.608
 6606SOL    HW220718   6.680   6.286   2.583
 6607SOL     OW20719   1.668   2.637   2.650
 6607SOL    HW120720   1.611   2.590   2.582
 6607SOL    HW220721   1.757   2.659   2.609
 6608SOL     OW20722   5.874   6.287   1.937
 6608SOL    HW120723   5.957   6.314   1.985
 6608SOL    HW220724   5.808   6.248   2.002
 6609SOL     OW20725   4.894   0.953   5.824
 6609SOL    HW120726   4.834   0.903   5.886
 6609SOL    HW220727   4.861   1.048   5.816
 6610SOL     OW20728   2.472   1.151   6.619
 6610SOL    HW120729   2.436   1.188   6.704
 6610SOL    HW220730   2.431   1.200   6.542
 6611SOL     OW20731   6.232   2.971   4.150
 6611SOL    HW120732   6.284   2.923   4.079
 6611SOL    HW220733   6.264   3.066   4.156
 6612SOL     OW20734   6.191   2.116   6.591
 6612SOL    HW120735   6.101   2.140   6.554
 6612SOL    HW220736   6.247   2.198   6.598
 6613SOL     OW20737   6.299   6.563   5.195
 6613SOL    HW120738   6.263   6.502   5.125
 6613SOL    HW220739   6.250   6.650   5.192
 6614SOL     OW20740   5.616   6.039   0.672
 6614SOL    HW120741   5.542   6.048   0.739
 6614SOL    HW220742   5.702   6.063   0.715
 6615SOL     OW20743   0.817   4.554   2.977
 6615SOL    HW120744   0.794   4.562   3.074
 6615SOL    HW220745   0.797   4.460   2.946
 6616SOL     OW20746   3.683   0.957   6.174
 6616SOL    HW120747   3.630   0.906   6.241
 6616SOL    HW220748   3.770   0.910   6.158
 6617SOL     OW20749   3.369   5.141   2.935
 6617SOL    HW120750   3.352   5.239   2.944
 6617SOL    HW220751   3.285   5.091   2.957
 6618SOL     OW20752   1.157   3.264   2.914
 6618SOL    HW120753   1.196   3.220   2.995
 6618SOL    HW220754   1.134   3.359   2.935
 6619SOL     OW20755   6.551   0.280   4.536
 6619SOL    HW120756   6.491   0.359   4.524
 6619SOL    HW220757   6.568   0.266   4.634
 6620SOL     OW20758   1.835   2.952   5.492
 6620SOL    HW120759   1.896   2.874   5.480
 6620SOL    HW220760   1.827   2.974   5.589
 6621SOL     OW20761   2.488   3.390   6.269
 6621SOL    HW120762   2.462   3.300   6.234
 6621SOL    HW220763   2.495   3.386   6.369
 6622SOL     OW20764   6.122   0.071   2.016
 6622SOL    HW120765   6.165   0.160   2.030
 6622SOL    HW220766   6.128   0.046   1.920
 6623SOL     OW20767   2.371   2.646   6.416
 6623SOL    HW120768   2.422   2.729   6.436
 6623SOL    HW220769   2.311   2.624   6.494
 6624SOL     OW20770   1.324   6.084   4.271
 6624SOL    HW120771   1.306   5.986   4.275
 6624SOL    HW220772   1.317   6.123   4.363
 6625SOL     OW20773   5.045   1.709   5.635
 6625SOL    HW120774   4.986   1.632   5.657
 6625SOL    HW220775   5.073   1.703   5.539
 6626SOL     OW20776   4.401   5.648   5.372
 6626SOL    HW120777   4.337   5.572   5.378
 6626SOL    HW220778   4.468   5.630   5.300
 6627SOL     OW20779   2.375   0.463   5.390
 6627SOL    HW120780   2.445   0.492   5.455
 6627SOL    HW220781   2.287   0.504   5.415
 6628SOL     OW20782   4.420   4.587   4.615
 6628SOL    HW120783   4.429   4.602   4.714
 6628SOL    HW220784   4.357   4.653   4.576
 6629SOL     OW20785   4.260   6.163   0.203
 6629SOL    HW120786   4.189   6.104   0.166
 6629SOL    HW220787   4.248   6.174   0.302
 6630SOL     OW20788   4.108   1.286   1.788
 6630SOL    HW120789   4.152   1.366   1.829
 6630SOL    HW220790   4.009   1.298   1.788
 6631SOL     OW20791   2.673   6.780   2.872
 6631SOL    HW120792   2.721   6.694   2.857
 6631SOL    HW220793   2.617   6.801   2.791
 6632SOL     OW20794   0.595   5.855   1.841
 6632SOL    HW120795   0.640   5.943   1.853
 6632SOL    HW220796   0.498   5.864   1.865
 6633SOL     OW20797   0.929   4.504   6.703
 6633SOL    HW120798   0.915   4.445   6.623
 6633SOL    HW220799   0.897   4.597   6.682
 6634SOL     OW20800   6.120   2.265   4.307
 6634SOL    HW120801   6.141   2.209   4.387
 6634SOL    HW220802   6.030   2.307   4.317
 6635SOL     OW20803   3.934   4.806   2.839
 6635SOL    HW120804   3.849   4.758   2.858
 6635SOL    HW220805   3.995   4.799   2.918
 6636SOL     OW20806   4.983   1.999   5.599
 6636SOL    HW120807   4.985   1.905   5.634
 6636SOL    HW220808   4.896   2.041   5.624
 6637SOL     OW20809   1.300   6.992   6.414
 6637SOL    HW120810   1.224   6.992   6.348
 6637SOL    HW220811   1.379   6.948   6.372
 6638SOL     OW20812   3.308   4.056   4.112
 6638SOL    HW120813   3.310   4.019   4.205
 6638SOL    HW220814   3.332   4.153   4.114
 6639SOL     OW20815   5.939   4.963   6.252
 6639SOL    HW120816   6.038   4.964   6.259
 6639SOL    HW220817   5.912   4.975   6.156
 6640SOL     OW20818   1.273   1.792   5.173
 6640SOL    HW120819   1.310   1.835   5.090
 6640SOL    HW220820   1.261   1.862   5.244
 6641SOL     OW20821   2.566   2.367   6.948
 6641SOL    HW120822   2.607   2.434   7.010
 6641SOL    HW220823   2.623   2.356   6.867
 6642SOL     OW20824   2.958   5.120   6.404
 6642SOL    HW120825   3.051   5.158   6.408
 6642SOL    HW220826   2.948   5.050   6.475
 6643SOL     OW20827   6.915   5.385   0.187
 6643SOL    HW120828   6.941   5.364   0.093
 6643SOL    HW220829   6.938   5.480   0.208
 6644SOL     OW20830   2.709   4.749   2.189
 6644SOL    HW120831   2.770   4.710   2.120
 6644SOL    HW220832   2.691   4.681   2.260
 6645SOL     OW20833   6.850   4.763   0.715
 6645SOL    HW120834   6.827   4.764   0.618
 6645SOL    HW220835   6.798   4.835   0.762
 6646SOL     OW20836   3.933   0.162   4.993
 6646SOL    HW120837   3.869   0.100   5.038
 6646SOL    HW220838   3.900   0.256   5.002
 6647SOL     OW20839   4.066   1.157   2.058
 6647SOL    HW120840   4.101   1.171   1.966
 6647SOL    HW220841   4.108   1.076   2.099
 6648SOL     OW20842   3.926   6.661   2.701
 6648SOL    HW120843   3.951   6.749   2.662
 6648SOL    HW220844   3.936   6.663   2.801
 6649SOL     OW20845   5.705   0.763   6.516
 6649SOL    HW120846   5.730   0.809   6.601
 6649SOL    HW220847   5.606   0.763   6.505
 6650SOL     OW20848   3.148   1.661   5.202
 6650SOL    HW120849   3.118   1.696   5.113
 6650SOL    HW220850   3.155   1.562   5.198
 6651SOL     OW20851   2.010   1.675   6.559
 6651SOL    HW120852   2.091   1.733   6.551
 6651SOL    HW220853   1.985   1.640   6.469
 6652SOL     OW20854   0.100   4.047   0.637
 6652SOL    HW120855   0.115   3.980   0.709
 6652SOL    HW220856   0.029   4.014   0.575
 6653SOL     OW20857   3.830   2.995   2.123
 6653SOL    HW120858   3.845   2.915   2.065
 6653SOL    HW220859   3.742   2.987   2.169
 6654SOL     OW20860   1.454   3.504   1.592
 6654SOL    HW120861   1.500   3.469   1.674
 6654SOL    HW220862   1.497   3.466   1.511
 6655SOL     OW20863   2.022   0.007   1.693
 6655SOL    HW120864   1.998   6.933   1.676
 6655SOL    HW220865   2.122   0.014   1.703
 6656SOL     OW20866   5.758   1.435   2.321
 6656SOL    HW120867   5.810   1.361   2.278
 6656SOL    HW220868   5.665   1.436   2.284
 6657SOL     OW20869   5.873   6.025   6.588
 6657SOL    HW120870   5.847   6.121   6.599
 6657SOL    HW220871   5.928   5.996   6.666
 6658SOL     OW20872   6.080   1.195   5.173
 6658SOL    HW120873   6.034   1.284   5.171
 6658SOL    HW220874   6.179   1.210   5.176
 6659SOL     OW20875   1.891   2.705   0.740
 6659SOL    HW120876   1.978   2.723   0.785
 6659SOL    HW220877   1.839   2.790   0.734
 6660SOL     OW20878   0.899   5.415   0.286
 6660SOL    HW120879   0.813   5.382   0.248
 6660SOL    HW220880   0.893   5.419   0.385
 6661SOL     OW20881   1.455   6.037   4.632
 6661SOL    HW120882   1.529   6.099   4.655
 6661SOL    HW220883   1.400   6.076   4.559
 6662SOL     OW20884   0.829   1.247   0.381
 6662SOL    HW120885   0.834   1.221   0.284
 6662SOL    HW220886   0.879   1.180   0.436
 6663SOL     OW20887   6.992   5.262   3.743
 6663SOL    HW120888   6.904   5.283   3.786
 6663SOL    HW220889   0.040   5.252   3.813
 6664SOL     OW20890   2.438   6.098   0.081
 6664SOL    HW120891   2.419   6.067   7.010
 6664SOL    HW220892   2.412   6.194   0.091
 6665SOL     OW20893   1.383   0.139   2.900
 6665SOL    HW120894   1.313   0.106   2.963
 6665SOL    HW220895   1.471   0.099   2.924
 6666SOL     OW20896   5.424   6.804   6.038
 6666SOL    HW120897   5.362   6.859   6.094
 6666SOL    HW220898   5.478   6.744   6.098
 6667SOL     OW20899   6.730   6.063   6.462
 6667SOL    HW120900   6.795   6.015   6.402
 6667SOL    HW220901   6.692   5.998   6.528
 6668SOL     OW20902   6.864   5.639   2.047
 6668SOL    HW120903   6.792   5.677   1.989
 6668SOL    HW220904   6.896   5.709   2.111
 6669SOL     OW20905   1.853   2.867   4.063
 6669SOL    HW120906   1.875   2.770   4.077
 6669SOL    HW220907   1.907   2.903   3.987
 6670SOL     OW20908   3.682   2.165   5.661
 6670SOL    HW120909   3.599   2.208   5.694
 6670SOL    HW220910   3.686   2.169   5.561
 6671SOL     OW20911   5.803   5.588   1.330
 6671SOL    HW120912   5.872   5.596   1.258
 6671SOL    HW220913   5.798   5.493   1.361
 6672SOL     OW20914   6.919   2.203   5.811
 6672SOL    HW120915   6.887   2.110   5.828
 6672SOL    HW220916   6.907   2.226   5.715
 6673SOL     OW20917   5.435   5.900   3.856
 6673SOL    HW120918   5.372   5.927   3.929
 6673SOL    HW220919   5.382   5.868   3.777
 6674SOL     OW20920   1.401   4.622   5.477
 6674SOL    HW120921   1.323   4.583   5.428
 6674SOL    HW220922   1.482   4.619   5.417
 6675SOL     OW20923   4.448   3.465   1.655
 6675SOL    HW120924   4.503   3.548   1.665
 6675SOL    HW220925   4.503   3.386   1.681
 6676SOL     OW20926   6.650   4.571   5.707
 6676SOL    HW120927   6.579   4.501   5.704
 6676SOL    HW220928   6.621   4.650   5.653
 6677SOL     OW20929   0.810   2.029   6.178
 6677SOL    HW120930   0.794   2.071   6.089
 6677SOL    HW220931   0.755   1.946   6.186
 6678SOL     OW20932   2.791   3.200   6.744
 6678SOL    HW120933   2.700   3.202   6.702
 6678SOL    HW220934   2.850   3.138   6.692
 6679SOL     OW20935   2.309   1.974   3.784
 6679SOL    HW120936   2.308   1.876   3.762
 6679SOL    HW220937   2.221   2.000   3.823
 6680SOL     OW20938   4.480   0.280   6.252
 6680SOL    HW120939   4.457   0.287   6.350
 6680SOL    HW220940   4.566   0.327   6.234
 6681SOL     OW20941   4.576   5.387   0.630
 6681SOL    HW120942   4.553   5.290   0.626
 6681SOL    HW220943   4.672   5.400   0.605
 6682SOL     OW20944   1.886   4.477   3.175
 6682SOL    HW120945   1.908   4.574   3.188
 6682SOL    HW220946   1.949   4.437   3.108
 6683SOL     OW20947   5.567   3.144   5.387
 6683SOL    HW120948   5.644   3.115   5.330
 6683SOL    HW220949   5.600   3.169   5.478
 6684SOL     OW20950   2.622   6.643   1.280
 6684SOL    HW120951   2.575   6.698   1.211
 6684SOL    HW220952   2.700   6.596   1.238
 6685SOL     OW20953   5.468   3.013   5.990
 6685SOL    HW120954   5.551   3.069   5.991
 6685SOL    HW220955   5.439   2.994   6.084
 6686SOL     OW20956   5.399   5.797   4.850
 6686SOL    HW120957   5.337   5.874   4.860
 6686SOL    HW220958   5.492   5.831   4.835
 6687SOL     OW20959   1.029   2.732   0.425
 6687SOL    HW120960   0.961   2.659   0.417
 6687SOL    HW220961   0.996   2.813   0.377
 6688SOL     OW20962   0.103   4.274   1.839
 6688SOL    HW120963   0.200   4.269   1.814
 6688SOL    HW220964   0.067   4.365   1.816
 6689SOL     OW20965   4.427   3.445   0.022
 6689SOL    HW120966   4.358   3.411   6.981
 6689SOL    HW220967   4.497   3.497   6.994
 6690SOL     OW20968   2.300   0.672   1.155
 6690SOL    HW120969   2.232   0.614   1.110
 6690SOL    HW220970   2.260   0.712   1.237
 6691SOL     OW20971   3.071   6.530   1.269
 6691SOL    HW120972   2.979   6.526   1.229
 6691SOL    HW220973   3.076   6.607   1.333
 6692SOL     OW20974   4.150   4.037   5.465
 6692SOL    HW120975   4.140   4.126   5.421
 6692SOL    HW220976   4.082   3.973   5.428
 6693SOL     OW20977   4.408   3.636   6.011
 6693SOL    HW120978   4.479   3.575   6.047
 6693SOL    HW220979   4.430   3.731   6.036
 6694SOL     OW20980   5.305   4.983   0.747
 6694SOL    HW120981   5.244   4.954   0.821
 6694SOL    HW220982   5.317   4.909   0.682
 6695SOL     OW20983   2.266   1.571   6.735
 6695SOL    HW120984   2.167   1.565   6.720
 6695SOL    HW220985   2.306   1.480   6.726
 6696SOL     OW20986   0.999   2.995   6.087
 6696SOL    HW120987   0.964   2.902   6.078
 6696SOL    HW220988   1.061   3.015   6.011
 6697SOL     OW20989   4.809   2.895   3.061
 6697SOL    HW120990   4.852   2.867   3.147
 6697SOL    HW220991   4.759   2.818   3.022
 6698SOL     OW20992   3.133   2.603   0.754
 6698SOL    HW120993   3.113   2.529   0.818
 6698SOL    HW220994   3.194   2.669   0.798
 6699SOL     OW20995   3.216   5.215   6.176
 6699SOL    HW120996   3.302   5.219   6.124
 6699SOL    HW220997   3.179   5.122   6.171
 6700SOL     OW20998   0.070   6.717   0.789
 6700SOL    HW120999   0.054   6.812   0.762
 6700SOL    HW221000   7.010   6.664   0.775
 6701SOL     OW21001   5.391   2.599   1.510
 6701SOL    HW121002   5.334   2.681   1.507
 6701SOL    HW221003   5.335   2.520   1.533
 6702SOL     OW21004   2.958   2.448   1.613
 6702SOL    HW121005   2.977   2.352   1.593
 6702SOL    HW221006   2.962   2.464   1.711
 6703SOL     OW21007   6.098   1.883   0.157
 6703SOL    HW121008   6.023   1.908   0.096
 6703SOL    HW221009   6.132   1.792   0.132
 6704SOL     OW21010   4.102   2.188   2.890
 6704SOL    HW121011   4.179   2.220   2.945
 6704SOL    HW221012   4.018   2.191   2.945
 6705SOL     OW21013   6.655   2.115   1.223
 6705SOL    HW121014   6.739   2.111   1.169
 6705SOL    HW221015   6.672   2.076   1.313
 6706SOL     OW21016   1.087   3.862   1.862
 6706SOL    HW121017   1.060   3.944   1.811
 6706SOL    HW221018   1.009   3.827   1.914
 6707SOL     OW21019   0.219   6.274   3.714
 6707SOL    HW121020   0.190   6.305   3.624
 6707SOL    HW221021   0.151   6.301   3.782
 6708SOL     OW21022   0.159   5.592   2.172
 6708SOL    HW121023   0.195   5.581   2.265
 6708SOL    HW221024   0.069   5.549   2.167
 6709SOL     OW21025   2.687   0.029   1.780
 6709SOL    HW121026   2.609   0.057   1.834
 6709SOL    HW221027   2.656   7.007   1.696
 6710SOL     OW21028   2.871   0.966   5.612
 6710SOL    HW121029   2.862   1.066   5.609
 6710SOL    HW221030   2.899   0.939   5.704
 6711SOL     OW21031   5.185   4.981   0.265
 6711SOL    HW121032   5.091   4.956   0.239
 6711SOL    HW221033   5.224   5.040   0.195
 6712SOL     OW21034   4.565   5.257   0.321
 6712SOL    HW121035   4.481   5.260   0.266
 6712SOL    HW221036   4.610   5.346   0.316
 6713SOL     OW21037   2.558   1.469   1.767
 6713SOL    HW121038   2.603   1.384   1.741
 6713SOL    HW221039   2.547   1.527   1.686
 6714SOL     OW21040   5.784   0.924   6.731
 6714SOL    HW121041   5.749   1.003   6.681
 6714SOL    HW221042   5.833   0.956   6.813
 6715SOL     OW21043   0.164   0.133   6.405
 6715SOL    HW121044   0.262   0.148   6.414
 6715SOL    HW221045   0.118   0.220   6.389
 6716SOL     OW21046   0.739   5.757   2.077
 6716SOL    HW121047   0.692   5.752   1.989
 6716SOL    HW221048   0.833   5.726   2.065
 6717SOL     OW21049   4.461   2.798   0.219
 6717SOL    HW121050   4.506   2.797   0.309
 6717SOL    HW221051   4.488   2.716   0.168
 6718SOL     OW21052   4.696   0.200   5.863
 6718SOL    HW121053   4.752   0.147   5.801
 6718SOL    HW221054   4.601   0.200   5.831
 6719SOL     OW21055   1.436   0.044   6.028
 6719SOL    HW121056   1.390   0.131   6.045
 6719SOL    HW221057   1.533   0.054   6.048
 6720SOL     OW21058   0.712   5.338   3.601
 6720SOL    HW121059   0.793   5.307   3.552
 6720SOL    HW221060   0.709   5.438   3.600
 6721SOL     OW21061   6.541   0.482   5.355
 6721SOL    HW121062   6.636   0.489   5.324
 6721SOL    HW221063   6.532   0.521   5.446
 6722SOL     OW21064   6.708   3.661   1.681
 6722SOL    HW121065   6.710   3.619   1.772
 6722SOL    HW221066   6.798   3.652   1.638
 6723SOL     OW21067   1.747   0.058   2.804
 6723SOL    HW121068   1.693   0.050   2.721
 6723SOL    HW221069   1.823   7.015   2.800
 6724SOL     OW21070   1.104   3.627   6.164
 6724SOL    HW121071   1.061   3.558   6.105
 6724SOL    HW221072   1.142   3.582   6.245
 6725SOL     OW21073   1.252   3.720   0.871
 6725SOL    HW121074   1.218   3.741   0.779
 6725SOL    HW221075   1.338   3.769   0.887
 6726SOL     OW21076   0.925   2.283   4.948
 6726SOL    HW121077   0.881   2.372   4.942
 6726SOL    HW221078   1.003   2.280   4.885
 6727SOL     OW21079   6.305   3.975   5.751
 6727SOL    HW121080   6.333   3.950   5.658
 6727SOL    HW221081   6.324   3.899   5.813
 6728SOL     OW21082   4.565   1.286   4.102
 6728SOL    HW121083   4.540   1.287   4.199
 6728SOL    HW221084   4.659   1.320   4.092
 6729SOL     OW21085   0.159   1.557   2.045
 6729SOL    HW121086   0.208   1.639   2.016
 6729SOL    HW221087   0.062   1.568   2.026
 6730SOL     OW21088   2.611   6.251   6.833
 6730SOL    HW121089   2.658   6.318   6.890
 6730SOL    HW221090   2.564   6.298   6.758
 6731SOL     OW21091   1.332   5.206   1.246
 6731SOL    HW121092   1.276   5.288   1.251
 6731SOL    HW221093   1.411   5.223   1.187
 6732SOL     OW21094   4.255   5.130   6.087
 6732SOL    HW121095   4.255   5.185   6.171
 6732SOL    HW221096   4.268   5.190   6.008
 6733SOL     OW21097   4.081   5.266   0.860
 6733SOL    HW121098   4.026   5.208   0.800
 6733SOL    HW221099   4.158   5.303   0.808
 6734SOL     OW21100   0.062   2.538   4.677
 6734SOL    HW121101   0.155   2.514   4.650
 6734SOL    HW221102   0.010   2.568   4.597
 6735SOL     OW21103   6.912   4.680   4.679
 6735SOL    HW121104   6.989   4.730   4.642
 6735SOL    HW221105   6.861   4.738   4.743
 6736SOL     OW21106   2.982   3.646   0.139
 6736SOL    HW121107   2.882   3.643   0.133
 6736SOL    HW221108   3.015   3.563   0.183
 6737SOL     OW21109   2.265   2.882   0.678
 6737SOL    HW121110   2.228   2.971   0.652
 6737SOL    HW221111   2.355   2.871   0.635
 6738SOL     OW21112   2.112   3.989   2.707
 6738SOL    HW121113   2.115   4.057   2.780
 6738SOL    HW221114   2.143   3.901   2.743
 6739SOL     OW21115   3.681   4.895   5.721
 6739SOL    HW121116   3.679   4.814   5.781
 6739SOL    HW221117   3.773   4.932   5.719
 6740SOL     OW21118   1.680   1.364   4.729
 6740SOL    HW121119   1.613   1.405   4.667
 6740SOL    HW221120   1.744   1.435   4.760
 6741SOL     OW21121   4.300   1.453   5.820
 6741SOL    HW121122   4.305   1.434   5.722
 6741SOL    HW221123   4.204   1.466   5.846
 6742SOL     OW21124   6.225   5.582   2.729
 6742SOL    HW121125   6.234   5.677   2.757
 6742SOL    HW221126   6.309   5.533   2.749
 6743SOL     OW21127   4.476   4.196   0.846
 6743SOL    HW121128   4.524   4.271   0.891
 6743SOL    HW221129   4.431   4.139   0.914
 6744SOL     OW21130   4.927   5.415   5.786
 6744SOL    HW121131   4.929   5.486   5.856
 6744SOL    HW221132   4.832   5.401   5.755
 6745SOL     OW21133   0.718   6.560   1.911
 6745SOL    HW121134   0.802   6.512   1.886
 6745SOL    HW221135   0.658   6.498   1.962
 6746SOL     OW21136   1.214   0.853   3.342
 6746SOL    HW121137   1.211   0.939   3.392
 6746SOL    HW221138   1.299   0.846   3.290
 6747SOL     OW21139   5.388   0.368   5.005
 6747SOL    HW121140   5.431   0.345   5.093
 6747SOL    HW221141   5.349   0.285   4.965
 6748SOL     OW21142   1.247   0.429   2.885
 6748SOL    HW121143   1.279   0.466   2.798
 6748SOL    HW221144   1.309   0.357   2.916
 6749SOL     OW21145   3.006   5.818   0.236
 6749SOL    HW121146   2.927   5.871   0.206
 6749SOL    HW221147   3.048   5.773   0.158
 6750SOL     OW21148   4.500   1.106   5.137
 6750SOL    HW121149   4.449   1.113   5.051
 6750SOL    HW221150   4.598   1.105   5.117
 6751SOL     OW21151   3.761   1.326   3.630
 6751SOL    HW121152   3.787   1.230   3.635
 6751SOL    HW221153   3.843   1.383   3.619
 6752SOL     OW21154   6.982   3.132   2.738
 6752SOL    HW121155   6.883   3.144   2.737
 6752SOL    HW221156   7.021   3.165   2.652
 6753SOL     OW21157   4.510   0.788   6.213
 6753SOL    HW121158   4.567   0.782   6.294
 6753SOL    HW221159   4.470   0.880   6.207
 6754SOL     OW21160   6.747   1.200   6.585
 6754SOL    HW121161   6.728   1.153   6.671
 6754SOL    HW221162   6.703   1.151   6.510
 6755SOL     OW21163   4.662   1.735   3.359
 6755SOL    HW121164   4.706   1.694   3.439
 6755SOL    HW221165   4.572   1.695   3.345
 6756SOL     OW21166   4.525   4.607   4.163
 6756SOL    HW121167   4.432   4.644   4.163
 6756SOL    HW221168   4.536   4.545   4.241
 6757SOL     OW21169   4.763   6.989   1.398
 6757SOL    HW121170   4.765   6.894   1.367
 6757SOL    HW221171   4.668   0.000   1.396
 6758SOL     OW21172   6.453   3.693   1.204
 6758SOL    HW121173   6.485   3.667   1.295
 6758SOL    HW221174   6.371   3.750   1.212
 6759SOL     OW21175   0.957   3.772   4.733
 6759SOL    HW121176   0.915   3.726   4.812
 6759SOL    HW221177   1.022   3.841   4.765
 6760SOL     OW21178   6.851   4.991   4.405
 6760SOL    HW121179   6.869   5.064   4.470
 6760SOL    HW221180   6.787   4.925   4.445
 6761SOL     OW21181   5.946   2.750   6.586
 6761SOL    HW121182   6.012   2.683   6.620
 6761SOL    HW221183   5.993   2.817   6.529
 6762SOL     OW21184   6.730   5.414   3.495
 6762SOL    HW121185   6.749   5.478   3.570
 6762SOL    HW221186   6.811   5.405   3.438
 6763SOL     OW21187   6.673   6.101   3.731
 6763SOL    HW121188   6.689   6.119   3.829
 6763SOL    HW221189   6.678   6.003   3.714
 6764SOL     OW21190   2.946   5.068   6.696
 6764SOL    HW121191   3.025   5.063   6.757
 6764SOL    HW221192   2.877   5.128   6.737
 6765SOL     OW21193   4.956   5.182   3.528
 6765SOL    HW121194   4.929   5.143   3.440
 6765SOL    HW221195   4.905   5.265   3.545
 6766SOL     OW21196   4.088   6.762   6.490
 6766SOL    HW121197   4.119   6.855   6.508
 6766SOL    HW221198   4.139   6.724   6.412
 6767SOL     OW21199   0.846   2.317   0.703
 6767SOL    HW121200   0.828   2.258   0.625
 6767SOL    HW221201   0.760   2.351   0.740
 6768SOL     OW21202   1.005   6.302   3.964
 6768SOL    HW121203   1.082   6.332   3.907
 6768SOL    HW221204   1.038   6.236   4.032
 6769SOL     OW21205   3.162   0.852   5.377
 6769SOL    HW121206   3.134   0.922   5.442
 6769SOL    HW221207   3.208   0.777   5.425
 6770SOL     OW21208   6.788   2.334   3.612
 6770SOL    HW121209   6.756   2.363   3.522
 6770SOL    HW221210   6.828   2.412   3.660
 6771SOL     OW21211   3.446   2.020   2.916
 6771SOL    HW121212   3.420   2.036   2.821
 6771SOL    HW221213   3.546   2.027   2.924
 6772SOL     OW21214   5.566   1.735   2.757
 6772SOL    HW121215   5.475   1.763   2.728
 6772SOL    HW221216   5.635   1.788   2.708
 6773SOL     OW21217   6.833   0.066   1.049
 6773SOL    HW121218   6.913   0.020   1.089
 6773SOL    HW221219   6.794   0.009   0.977
 6774SOL     OW21220   1.800   2.271   4.625
 6774SOL    HW121221   1.891   2.230   4.627
 6774SOL    HW221222   1.766   2.283   4.718
 6775SOL     OW21223   0.361   2.181   3.593
 6775SOL    HW121224   0.271   2.167   3.635
 6775SOL    HW221225   0.350   2.228   3.506
 6776SOL     OW21226   3.629   3.524   1.491
 6776SOL    HW121227   3.723   3.516   1.522
 6776SOL    HW221228   3.598   3.437   1.452
 6777SOL     OW21229   4.359   5.450   1.075
 6777SOL    HW121230   4.437   5.507   1.101
 6777SOL    HW221231   4.368   5.424   0.979
 6778SOL     OW21232   5.746   3.080   2.713
 6778SOL    HW121233   5.657   3.045   2.686
 6778SOL    HW221234   5.736   3.174   2.746
 6779SOL     OW21235   5.253   4.983   6.553
 6779SOL    HW121236   5.282   4.962   6.459
 6779SOL    HW221237   5.250   4.899   6.606
 6780SOL     OW21238   2.141   3.759   2.856
 6780SOL    HW121239   2.115   3.669   2.822
 6780SOL    HW221240   2.063   3.802   2.901
 6781SOL     OW21241   6.663   1.213   3.160
 6781SOL    HW121242   6.668   1.114   3.148
 6781SOL    HW221243   6.628   1.255   3.077
 6782SOL     OW21244   1.156   0.893   3.925
 6782SOL    HW121245   1.088   0.835   3.881
 6782SOL    HW221246   1.127   0.913   4.019
 6783SOL     OW21247   0.931   4.157   4.890
 6783SOL    HW121248   0.946   4.174   4.792
 6783SOL    HW221249   0.877   4.232   4.928
 6784SOL     OW21250   2.310   4.140   1.870
 6784SOL    HW121251   2.286   4.232   1.841
 6784SOL    HW221252   2.392   4.110   1.821
 6785SOL     OW21253   5.758   5.355   5.791
 6785SOL    HW121254   5.856   5.376   5.793
 6785SOL    HW221255   5.706   5.437   5.818
 6786SOL     OW21256   6.581   3.193   6.804
 6786SOL    HW121257   6.609   3.142   6.886
 6786SOL    HW221258   6.488   3.166   6.779
 6787SOL     OW21259   2.875   2.321   1.154
 6787SOL    HW121260   2.777   2.332   1.170
 6787SOL    HW221261   2.926   2.371   1.225
 6788SOL     OW21262   0.525   4.033   2.724
 6788SOL    HW121263   0.458   4.095   2.765
 6788SOL    HW221264   0.591   4.004   2.793
 6789SOL     OW21265   0.234   4.975   4.432
 6789SOL    HW121266   0.252   5.048   4.499
 6789SOL    HW221267   0.171   4.908   4.473
 6790SOL     OW21268   0.311   4.531   6.705
 6790SOL    HW121269   0.360   4.534   6.792
 6790SOL    HW221270   0.325   4.441   6.663
 6791SOL     OW21271   4.430   1.786   3.052
 6791SOL    HW121272   4.399   1.813   3.143
 6791SOL    HW221273   4.384   1.842   2.983
 6792SOL     OW21274   4.273   6.983   5.169
 6792SOL    HW121275   4.274   0.037   5.234
 6792SOL    HW221276   4.345   6.918   5.193
 6793SOL     OW21277   3.095   1.820   6.982
 6793SOL    HW121278   3.063   1.915   6.978
 6793SOL    HW221279   3.036   1.768   0.023
 6794SOL     OW21280   4.927   1.242   5.819
 6794SOL    HW121281   4.986   1.311   5.778
 6794SOL    HW221282   4.860   1.210   5.752
 6795SOL     OW21283   0.853   6.788   0.399
 6795SOL    HW121284   0.891   6.854   0.464
 6795SOL    HW221285   0.882   6.812   0.307
 6796SOL     OW21286   5.462   0.876   2.076
 6796SOL    HW121287   5.459   0.954   2.013
 6796SOL    HW221288   5.368   0.849   2.099
 6797SOL     OW21289   6.636   1.825   1.115
 6797SOL    HW121290   6.676   1.913   1.089
 6797SOL    HW221291   6.685   1.788   1.194
 6798SOL     OW21292   5.928   6.949   1.552
 6798SOL    HW121293   5.912   7.001   1.468
 6798SOL    HW221294   6.017   6.904   1.547
 6799SOL     OW21295   5.269   0.539   2.597
 6799SOL    HW121296   5.334   0.496   2.659
 6799SOL    HW221297   5.272   0.639   2.610
 6800SOL     OW21298   2.354   2.570   1.765
 6800SOL    HW121299   2.351   2.473   1.790
 6800SOL    HW221300   2.261   2.608   1.771
 6801SOL     OW21301   0.726   6.478   3.668
 6801SOL    HW121302   0.641   6.527   3.644
 6801SOL    HW221303   0.802   6.543   3.670
 6802SOL     OW21304   3.633   5.615   0.293
 6802SOL    HW121305   3.550   5.652   0.335
 6802SOL    HW221306   3.713   5.663   0.330
 6803SOL     OW21307   4.878   3.966   6.998
 6803SOL    HW121308   4.952   3.933   0.035
 6803SOL    HW221309   4.798   3.908   7.009
 6804SOL     OW21310   2.818   4.829   2.584
 6804SOL    HW121311   2.816   4.905   2.519
 6804SOL    HW221312   2.789   4.745   2.539
 6805SOL     OW21313   0.731   5.269   6.583
 6805SOL    HW121314   0.688   5.284   6.672
 6805SOL    HW221315   0.823   5.233   6.596
 6806SOL     OW21316   6.786   0.826   4.086
 6806SOL    HW121317   6.752   0.732   4.092
 6806SOL    HW221318   6.708   0.889   4.084
 6807SOL     OW21319   3.683   3.573   3.383
 6807SOL    HW121320   3.645   3.548   3.295
 6807SOL    HW221321   3.751   3.505   3.411
 6808SOL     OW21322   5.556   1.110   5.344
 6808SOL    HW121323   5.543   1.154   5.433
 6808SOL    HW221324   5.621   1.034   5.353
 6809SOL     OW21325   6.531   3.933   1.026
 6809SOL    HW121326   6.498   3.845   1.059
 6809SOL    HW221327   6.554   3.991   1.104
 6810SOL     OW21328   3.519   1.017   3.357
 6810SOL    HW121329   3.421   1.019   3.340
 6810SOL    HW221330   3.552   0.923   3.357
 6811SOL     OW21331   6.831   2.907   2.385
 6811SOL    HW121332   6.765   2.838   2.355
 6811SOL    HW221333   6.862   2.886   2.478
 6812SOL     OW21334   3.465   3.521   4.496
 6812SOL    HW121335   3.559   3.548   4.518
 6812SOL    HW221336   3.456   3.422   4.502
 6813SOL     OW21337   5.642   3.675   2.644
 6813SOL    HW121338   5.647   3.632   2.554
 6813SOL    HW221339   5.726   3.656   2.695
 6814SOL     OW21340   4.607   1.482   6.651
 6814SOL    HW121341   4.681   1.548   6.639
 6814SOL    HW221342   4.534   1.500   6.585
 6815SOL     OW21343   1.746   5.328   6.709
 6815SOL    HW121344   1.701   5.401   6.760
 6815SOL    HW221345   1.843   5.349   6.700
 6816SOL     OW21346   6.750   1.609   4.176
 6816SOL    HW121347   6.770   1.572   4.267
 6816SOL    HW221348   6.836   1.630   4.129
 6817SOL     OW21349   2.478   2.557   4.362
 6817SOL    HW121350   2.470   2.504   4.278
 6817SOL    HW221351   2.534   2.506   4.428
 6818SOL     OW21352   2.073   6.458   6.322
 6818SOL    HW121353   2.021   6.389   6.372
 6818SOL    HW221354   2.010   6.520   6.275
 6819SOL     OW21355   4.625   6.733   2.019
 6819SOL    HW121356   4.574   6.662   2.068
 6819SOL    HW221357   4.635   6.706   1.923
 6820SOL     OW21358   1.557   6.069   1.035
 6820SOL    HW121359   1.540   6.080   0.938
 6820SOL    HW221360   1.470   6.067   1.085
 6821SOL     OW21361   4.751   2.655   5.893
 6821SOL    HW121362   4.772   2.752   5.877
 6821SOL    HW221363   4.836   2.605   5.910
 6822SOL     OW21364   6.756   2.543   6.709
 6822SOL    HW121365   6.733   2.623   6.763
 6822SOL    HW221366   6.847   2.511   6.733
 6823SOL     OW21367   5.377   4.202   6.634
 6823SOL    HW121368   5.455   4.139   6.637
 6823SOL    HW221369   5.400   4.282   6.580
 6824SOL     OW21370   1.249   1.609   6.673
 6824SOL    HW121371   1.297   1.578   6.754
 6824SOL    HW221372   1.153   1.627   6.695
 6825SOL     OW21373   6.441   6.032   0.609
 6825SOL    HW121374   6.397   6.001   0.524
 6825SOL    HW221375   6.476   6.125   0.597
 6826SOL     OW21376   0.726   3.533   3.699
 6826SOL    HW121377   0.702   3.436   3.693
 6826SOL    HW221378   0.814   3.548   3.654
 6827SOL     OW21379   4.624   4.955   5.861
 6827SOL    HW121380   4.651   4.933   5.955
 6827SOL    HW221381   4.704   4.984   5.809
 6828SOL     OW21382   3.741   1.708   2.360
 6828SOL    HW121383   3.772   1.771   2.288
 6828SOL    HW221384   3.659   1.745   2.403
 6829SOL     OW21385   5.533   0.280   5.263
 6829SOL    HW121386   5.554   0.186   5.291
 6829SOL    HW221387   5.465   0.319   5.325
 6830SOL     OW21388   5.984   1.291   3.215
 6830SOL    HW121389   5.989   1.389   3.234
 6830SOL    HW221390   6.075   1.258   3.187
 6831SOL     OW21391   1.062   1.494   5.871
 6831SOL    HW121392   1.101   1.547   5.796
 6831SOL    HW221393   0.985   1.440   5.838
 6832SOL     OW21394   2.787   3.364   0.271
 6832SOL    HW121395   2.885   3.372   0.293
 6832SOL    HW221396   2.737   3.332   0.352
 6833SOL     OW21397   3.398   5.272   5.953
 6833SOL    HW121398   3.439   5.259   5.863
 6833SOL    HW221399   3.459   5.235   6.023
 6834SOL     OW21400   4.804   0.006   0.878
 6834SOL    HW121401   4.787   6.967   0.801
 6834SOL    HW221402   4.874   6.989   0.938
 6835SOL     OW21403   4.079   1.664   4.747
 6835SOL    HW121404   4.135   1.680   4.828
 6835SOL    HW221405   4.123   1.705   4.667
 6836SOL     OW21406   1.800   4.255   6.494
 6836SOL    HW121407   1.773   4.260   6.590
 6836SOL    HW221408   1.832   4.344   6.464
 6837SOL     OW21409   1.303   0.927   2.577
 6837SOL    HW121410   1.338   0.989   2.507
 6837SOL    HW221411   1.218   0.964   2.615
 6838SOL     OW21412   2.453   4.440   5.288
 6838SOL    HW121413   2.546   4.404   5.280
 6838SOL    HW221414   2.428   4.445   5.385
 6839SOL     OW21415   5.820   2.279   3.715
 6839SOL    HW121416   5.728   2.276   3.678
 6839SOL    HW221417   5.822   2.237   3.806
 6840SOL     OW21418   2.674   6.329   5.220
 6840SOL    HW121419   2.623   6.280   5.291
 6840SOL    HW221420   2.666   6.427   5.234
 6841SOL     OW21421   3.989   4.861   1.438
 6841SOL    HW121422   3.911   4.798   1.439
 6841SOL    HW221423   3.962   4.947   1.395
 6842SOL     OW21424   1.356   2.169   6.358
 6842SOL    HW121425   1.307   2.151   6.443
 6842SOL    HW221426   1.424   2.097   6.342
 6843SOL     OW21427   4.783   0.892   1.599
 6843SOL    HW121428   4.852   0.955   1.564
 6843SOL    HW221429   4.820   0.799   1.602
 6844SOL     OW21430   5.570   5.835   4.089
 6844SOL    HW121431   5.562   5.844   3.990
 6844SOL    HW221432   5.622   5.752   4.110
 6845SOL     OW21433   4.929   4.052   2.084
 6845SOL    HW121434   5.016   4.082   2.122
 6845SOL    HW221435   4.937   3.957   2.052
 6846SOL     OW21436   4.004   3.272   1.397
 6846SOL    HW121437   4.019   3.174   1.381
 6846SOL    HW221438   4.064   3.302   1.471
 6847SOL     OW21439   5.433   3.952   2.292
 6847SOL    HW121440   5.431   3.861   2.250
 6847SOL    HW221441   5.380   3.951   2.376
 6848SOL     OW21442   1.695   5.643   3.304
 6848SOL    HW121443   1.776   5.671   3.356
 6848SOL    HW221444   1.677   5.709   3.231
 6849SOL     OW21445   3.715   5.559   3.886
 6849SOL    HW121446   3.622   5.554   3.920
 6849SOL    HW221447   3.778   5.578   3.962
 6850SOL     OW21448   5.624   2.735   3.075
 6850SOL    HW121449   5.597   2.825   3.044
 6850SOL    HW221450   5.680   2.690   3.005
 6851SOL     OW21451   1.867   4.299   4.798
 6851SOL    HW121452   1.774   4.314   4.831
 6851SOL    HW221453   1.900   4.212   4.832
 6852SOL     OW21454   1.243   4.824   1.034
 6852SOL    HW121455   1.183   4.887   0.985
 6852SOL    HW221456   1.336   4.831   0.998
 6853SOL     OW21457   6.385   3.907   6.979
 6853SOL    HW121458   6.391   3.907   6.879
 6853SOL    HW221459   6.354   3.818   7.010
 6854SOL     OW21460   5.839   0.971   5.922
 6854SOL    HW121461   5.760   1.020   5.959
 6854SOL    HW221462   5.886   0.923   5.995
 6855SOL     OW21463   3.473   6.236   2.575
 6855SOL    HW121464   3.402   6.204   2.512
 6855SOL    HW221465   3.556   6.255   2.523
 6856SOL     OW21466   4.765   4.437   5.532
 6856SOL    HW121467   4.790   4.363   5.594
 6856SOL    HW221468   4.822   4.432   5.450
 6857SOL     OW21469   3.051   1.537   6.600
 6857SOL    HW121470   3.019   1.507   6.690
 6857SOL    HW221471   3.110   1.617   6.611
 6858SOL     OW21472   3.989   3.280   5.029
 6858SOL    HW121473   4.022   3.211   5.093
 6858SOL    HW221474   3.897   3.308   5.055
 6859SOL     OW21475   1.403   6.408   0.798
 6859SOL    HW121476   1.350   6.477   0.848
 6859SOL    HW221477   1.500   6.417   0.819
 6860SOL     OW21478   5.740   4.739   1.941
 6860SOL    HW121479   5.814   4.804   1.921
 6860SOL    HW221480   5.658   4.789   1.970
 6861SOL     OW21481   5.764   4.528   1.469
 6861SOL    HW121482   5.775   4.621   1.502
 6861SOL    HW221483   5.820   4.466   1.524
 6862SOL     OW21484   2.106   4.391   4.696
 6862SOL    HW121485   2.010   4.388   4.724
 6862SOL    HW221486   2.165   4.377   4.775
 6863SOL     OW21487   5.656   1.431   4.259
 6863SOL    HW121488   5.653   1.530   4.250
 6863SOL    HW221489   5.752   1.401   4.257
 6864SOL     OW21490   3.620   5.799   3.687
 6864SOL    HW121491   3.521   5.795   3.681
 6864SOL    HW221492   3.655   5.714   3.726
 6865SOL     OW21493   6.130   5.270   3.335
 6865SOL    HW121494   6.034   5.298   3.329
 6865SOL    HW221495   6.171   5.310   3.417
 6866SOL     OW21496   5.836   4.195   1.858
 6866SOL    HW121497   5.749   4.203   1.907
 6866SOL    HW221498   5.822   4.152   1.769
 6867SOL     OW21499   1.222   4.767   1.304
 6867SOL    HW121500   1.151   4.698   1.315
 6867SOL    HW221501   1.232   4.791   1.207
 6868SOL     OW21502   1.918   5.417   4.969
 6868SOL    HW121503   1.834   5.380   4.930
 6868SOL    HW221504   1.906   5.514   4.989
 6869SOL     OW21505   5.844   2.612   5.515
 6869SOL    HW121506   5.877   2.630   5.423
 6869SOL    HW221507   5.761   2.556   5.511
 6870SOL     OW21508   6.475   3.566   2.591
 6870SOL    HW121509   6.399   3.511   2.556
 6870SOL    HW221510   6.542   3.506   2.634
 6871SOL     OW21511   5.878   4.815   2.236
 6871SOL    HW121512   5.974   4.787   2.230
 6871SOL    HW221513   5.819   4.739   2.208
 6872SOL     OW21514   1.684   3.287   0.879
 6872SOL    HW121515   1.773   3.302   0.922
 6872SOL    HW221516   1.692   3.213   0.812
 6873SOL     OW21517   5.817   3.450   5.761
 6873SOL    HW121518   5.835   3.408   5.849
 6873SOL    HW221519   5.902   3.483   5.720
 6874SOL     OW21520   0.326   4.639   3.337
 6874SOL    HW121521   0.418   4.662   3.307
 6874SOL    HW221522   0.303   4.692   3.419
 6875SOL     OW21523   1.607   2.455   3.393
 6875SOL    HW121524   1.628   2.472   3.296
 6875SOL    HW221525   1.677   2.395   3.432
 6876SOL     OW21526   4.019   5.022   6.153
 6876SOL    HW121527   4.107   5.063   6.129
 6876SOL    HW221528   4.027   4.922   6.149
 6877SOL     OW21529   2.136   4.010   6.579
 6877SOL    HW121530   2.205   3.937   6.585
 6877SOL    HW221531   2.093   4.008   6.489
 6878SOL     OW21532   2.183   2.497   5.353
 6878SOL    HW121533   2.165   2.572   5.289
 6878SOL    HW221534   2.141   2.518   5.441
 6879SOL     OW21535   0.949   1.780   0.448
 6879SOL    HW121536   1.000   1.844   0.391
 6879SOL    HW221537   0.955   1.808   0.544
 6880SOL     OW21538   2.179   3.530   5.114
 6880SOL    HW121539   2.087   3.555   5.144
 6880SOL    HW221540   2.175   3.497   5.020
 6881SOL     OW21541   6.789   4.108   2.384
 6881SOL    HW121542   6.705   4.129   2.434
 6881SOL    HW221543   6.765   4.066   2.296
 6882SOL     OW21544   2.404   0.363   5.712
 6882SOL    HW121545   2.422   0.293   5.642
 6882SOL    HW221546   2.312   0.350   5.748
 6883SOL     OW21547   3.494   1.442   1.455
 6883SOL    HW121548   3.543   1.456   1.541
 6883SOL    HW221549   3.515   1.518   1.393
 6884SOL     OW21550   1.909   3.561   4.436
 6884SOL    HW121551   1.986   3.589   4.494
 6884SOL    HW221552   1.823   3.587   4.480
 6885SOL     OW21553   3.766   5.386   4.214
 6885SOL    HW121554   3.853   5.357   4.175
 6885SOL    HW221555   3.773   5.480   4.246
 6886SOL     OW21556   0.050   1.067   2.527
 6886SOL    HW121557   0.148   1.086   2.531
 6886SOL    HW221558   0.034   0.981   2.478
 6887SOL     OW21559   4.758   6.876   5.551
 6887SOL    HW121560   4.781   6.950   5.486
 6887SOL    HW221561   4.838   6.852   5.605
 6888SOL     OW21562   5.743   6.547   6.556
 6888SOL    HW121563   5.697   6.573   6.641
 6888SOL    HW221564   5.787   6.628   6.516
 6889SOL     OW21565   0.573   2.702   5.933
 6889SOL    HW121566   0.635   2.718   6.010
 6889SOL    HW221567   0.485   2.745   5.953
 6890SOL     OW21568   3.111   5.900   1.001
 6890SOL    HW121569   3.054   5.979   1.025
 6890SOL    HW221570   3.175   5.881   1.076
 6891SOL     OW21571   2.189   3.928   4.752
 6891SOL    HW121572   2.185   3.836   4.789
 6891SOL    HW221573   2.218   3.992   4.824
 6892SOL     OW21574   3.531   0.717   3.637
 6892SOL    HW121575   3.575   0.742   3.723
 6892SOL    HW221576   3.433   0.739   3.642
 6893SOL     OW21577   5.762   5.942   0.964
 6893SOL    HW121578   5.782   5.911   0.871
 6893SOL    HW221579   5.713   5.870   1.013
 6894SOL     OW21580   6.368   5.535   6.828
 6894SOL    HW121581   6.418   5.489   6.755
 6894SOL    HW221582   6.427   5.546   6.908
 6895SOL     OW21583   2.758   5.188   6.866
 6895SOL    HW121584   2.695   5.123   6.909
 6895SOL    HW221585   2.811   5.235   6.936
 6896SOL     OW21586   3.022   6.980   4.368
 6896SOL    HW121587   3.063   6.895   4.337
 6896SOL    HW221588   3.091   0.031   4.365
 6897SOL     OW21589   2.420   3.881   6.876
 6897SOL    HW121590   2.435   3.871   6.778
 6897SOL    HW221591   2.393   3.975   6.897
 6898SOL     OW21592   3.506   1.822   2.098
 6898SOL    HW121593   3.601   1.801   2.075
 6898SOL    HW221594   3.477   1.768   2.177
 6899SOL     OW21595   4.780   6.999   0.501
 6899SOL    HW121596   4.686   0.007   0.485
 6899SOL    HW221597   4.783   6.944   0.584
 6900SOL     OW21598   5.969   0.465   6.229
 6900SOL    HW121599   5.978   0.501   6.322
 6900SOL    HW221600   5.880   0.420   6.219
 6901SOL     OW21601   0.870   0.315   6.162
 6901SOL    HW121602   0.778   0.286   6.134
 6901SOL    HW221603   0.927   0.328   6.081
 6902SOL     OW21604   0.561   6.088   0.597
 6902SOL    HW121605   0.527   6.141   0.519
 6902SOL    HW221606   0.527   6.129   0.682
 6903SOL     OW21607   3.966   4.718   5.827
 6903SOL    HW121608   4.043   4.708   5.765
 6903SOL    HW221609   3.881   4.695   5.780
 6904SOL     OW21610   6.235   1.490   4.010
 6904SOL    HW121611   6.210   1.570   4.064
 6904SOL    HW221612   6.176   1.483   3.930
 6905SOL     OW21613   6.257   6.690   6.916
 6905SOL    HW121614   6.238   6.768   6.855
 6905SOL    HW221615   6.354   6.667   6.911
 6906SOL     OW21616   3.958   0.889   3.857
 6906SOL    HW121617   3.974   0.791   3.869
 6906SOL    HW221618   3.892   0.920   3.925
 6907SOL     OW21619   4.846   0.853   1.053
 6907SOL    HW121620   4.780   0.782   1.029
 6907SOL    HW221621   4.830   0.883   1.147
 6908SOL     OW21622   1.187   6.764   5.308
 6908SOL    HW121623   1.272   6.750   5.359
 6908SOL    HW221624   1.210   6.779   5.211
 6909SOL     OW21625   5.375   4.865   1.174
 6909SOL    HW121626   5.391   4.834   1.268
 6909SOL    HW221627   5.461   4.861   1.123
 6910SOL     OW21628   6.498   2.548   3.264
 6910SOL    HW121629   6.445   2.481   3.213
 6910SOL    HW221630   6.462   2.557   3.356
 6911SOL     OW21631   3.482   0.123   2.996
 6911SOL    HW121632   3.561   0.123   2.934
 6911SOL    HW221633   3.463   0.216   3.026
 6912SOL     OW21634   4.639   4.652   1.762
 6912SOL    HW121635   4.661   4.557   1.742
 6912SOL    HW221636   4.558   4.679   1.709
 6913SOL     OW21637   4.863   4.962   5.618
 6913SOL    HW121638   4.957   4.981   5.648
 6913SOL    HW221639   4.814   5.049   5.608
 6914SOL     OW21640   6.276   4.663   7.014
 6914SOL    HW121641   6.237   4.590   6.958
 6914SOL    HW221642   6.249   4.650   0.087
 6915SOL     OW21643   6.748   4.593   1.819
 6915SOL    HW121644   6.754   4.590   1.719
 6915SOL    HW221645   6.833   4.630   1.857
 6916SOL     OW21646   6.011   3.869   0.257
 6916SOL    HW121647   5.944   3.928   0.212
 6916SOL    HW221648   5.986   3.857   0.354
 6917SOL     OW21649   3.449   4.872   0.617
 6917SOL    HW121650   3.423   4.808   0.545
 6917SOL    HW221651   3.466   4.822   0.702
 6918SOL     OW21652   0.991   4.130   4.602
 6918SOL    HW121653   0.923   4.113   4.531
 6918SOL    HW221654   1.079   4.153   4.560
 6919SOL     OW21655   0.704   5.588   3.499
 6919SOL    HW121656   0.628   5.585   3.433
 6919SOL    HW221657   0.787   5.618   3.453
 6920SOL     OW21658   4.111   5.563   5.926
 6920SOL    HW121659   4.041   5.608   5.982
 6920SOL    HW221660   4.089   5.576   5.829
 6921SOL     OW21661   4.646   5.853   3.098
 6921SOL    HW121662   4.689   5.921   3.039
 6921SOL    HW221663   4.681   5.863   3.192
 6922SOL     OW21664   1.868   5.767   6.993
 6922SOL    HW121665   1.860   5.797   0.066
 6922SOL    HW221666   1.828   5.837   6.933
 6923SOL     OW21667   5.176   6.852   3.229
 6923SOL    HW121668   5.241   6.904   3.174
 6923SOL    HW221669   5.226   6.783   3.282
 6924SOL     OW21670   0.451   4.239   6.990
 6924SOL    HW121671   0.477   4.234   6.894
 6924SOL    HW221672   0.413   4.151   7.019
 6925SOL     OW21673   3.548   5.859   4.507
 6925SOL    HW121674   3.617   5.886   4.574
 6925SOL    HW221675   3.593   5.812   4.430
 6926SOL     OW21676   3.235   3.077   2.179
 6926SOL    HW121677   3.188   3.065   2.267
 6926SOL    HW221678   3.172   3.058   2.104
 6927SOL     OW21679   5.992   3.597   5.972
 6927SOL    HW121680   5.986   3.695   5.989
 6927SOL    HW221681   6.038   3.581   5.885
 6928SOL     OW21682   6.310   6.543   0.678
 6928SOL    HW121683   6.234   6.552   0.744
 6928SOL    HW221684   6.278   6.568   0.587
 6929SOL     OW21685   4.846   5.470   0.624
 6929SOL    HW121686   4.833   5.459   0.723
 6929SOL    HW221687   4.943   5.459   0.602
 6930SOL     OW21688   6.781   6.911   1.337
 6930SOL    HW121689   6.858   6.885   1.394
 6930SOL    HW221690   6.792   7.006   1.308
 6931SOL     OW21691   1.257   0.623   1.837
 6931SOL    HW121692   1.273   0.716   1.870
 6931SOL    HW221693   1.301   0.611   1.748
 6932SOL     OW21694   3.933   1.226   0.690
 6932SOL    HW121695   3.892   1.295   0.631
 6932SOL    HW221696   3.861   1.168   0.729
 6933SOL     OW21697   3.869   6.161   4.768
 6933SOL    HW121698   3.908   6.237   4.715
 6933SOL    HW221699   3.845   6.193   4.859
 6934SOL     OW21700   4.762   4.302   5.860
 6934SOL    HW121701   4.771   4.222   5.800
 6934SOL    HW221702   4.704   4.279   5.938
 6935SOL     OW21703   4.504   6.131   3.051
 6935SOL    HW121704   4.423   6.185   3.028
 6935SOL    HW221705   4.493   6.039   3.015
 6936SOL     OW21706   6.705   2.670   2.667
 6936SOL    HW121707   6.739   2.581   2.698
 6936SOL    HW221708   6.652   2.657   2.583
 6937SOL     OW21709   6.103   6.176   6.949
 6937SOL    HW121710   6.030   6.203   7.012
 6937SOL    HW221711   6.183   6.235   6.964
 6938SOL     OW21712   5.292   3.718   5.288
 6938SOL    HW121713   5.356   3.788   5.318
 6938SOL    HW221714   5.303   3.636   5.344
 6939SOL     OW21715   0.075   4.953   1.939
 6939SOL    HW121716   0.055   5.011   2.018
 6939SOL    HW221717   0.136   5.000   1.876
 6940SOL     OW21718   4.977   1.272   0.442
 6940SOL    HW121719   4.909   1.283   0.514
 6940SOL    HW221720   4.931   1.272   0.353
 6941SOL     OW21721   3.901   3.041   2.825
 6941SOL    HW121722   3.933   3.002   2.911
 6941SOL    HW221723   3.962   3.115   2.797
 6942SOL     OW21724   6.507   2.910   0.903
 6942SOL    HW121725   6.545   2.961   0.826
 6942SOL    HW221726   6.475   2.975   0.973
 6943SOL     OW21727   4.455   6.392   0.141
 6943SOL    HW121728   4.549   6.362   0.159
 6943SOL    HW221729   4.391   6.331   0.188
 6944SOL     OW21730   0.990   4.490   5.643
 6944SOL    HW121731   0.954   4.407   5.687
 6944SOL    HW221732   1.083   4.507   5.674
 6945SOL     OW21733   6.132   2.896   6.438
 6945SOL    HW121734   6.165   2.881   6.344
 6945SOL    HW221735   6.210   2.901   6.500
 6946SOL     OW21736   6.724   5.871   2.314
 6946SOL    HW121737   6.741   5.956   2.266
 6946SOL    HW221738   6.808   5.816   2.317
 6947SOL     OW21739   3.006   6.794   4.811
 6947SOL    HW121740   2.976   6.855   4.737
 6947SOL    HW221741   2.932   6.731   4.835
 6948SOL     OW21742   6.118   0.650   0.534
 6948SOL    HW121743   6.059   0.581   0.491
 6948SOL    HW221744   6.110   0.642   0.634
 6949SOL     OW21745   5.293   0.176   4.204
 6949SOL    HW121746   5.270   0.271   4.224
 6949SOL    HW221747   5.379   0.152   4.249
 6950SOL     OW21748   2.545   0.161   3.652
 6950SOL    HW121749   2.587   0.146   3.563
 6950SOL    HW221750   2.567   0.085   3.713
 6951SOL     OW21751   5.893   6.302   5.965
 6951SOL    HW121752   5.986   6.335   5.946
 6951SOL    HW221753   5.898   6.216   6.016
 6952SOL     OW21754   6.951   6.030   3.618
 6952SOL    HW121755   6.890   6.109   3.620
 6952SOL    HW221756   6.916   5.963   3.553
 6953SOL     OW21757   4.955   0.259   6.726
 6953SOL    HW121758   4.937   0.178   6.782
 6953SOL    HW221759   4.975   0.231   6.633
 6954SOL     OW21760   0.665   3.373   4.288
 6954SOL    HW121761   0.755   3.413   4.269
 6954SOL    HW221762   0.627   3.334   4.204
 6955SOL     OW21763   0.010   0.383   2.662
 6955SOL    HW121764   7.021   0.416   2.756
 6955SOL    HW221765   6.943   0.379   2.617
 6956SOL     OW21766   4.916   6.811   2.272
 6956SOL    HW121767   4.829   6.861   2.272
 6956SOL    HW221768   4.927   6.764   2.184
 6957SOL     OW21769   5.804   4.988   1.733
 6957SOL    HW121770   5.770   5.001   1.826
 6957SOL    HW221771   5.735   5.017   1.668
 6958SOL     OW21772   2.935   4.203   5.462
 6958SOL    HW121773   2.944   4.238   5.555
 6958SOL    HW221774   2.976   4.112   5.457
 6959SOL     OW21775   2.846   1.023   4.675
 6959SOL    HW121776   2.835   0.928   4.705
 6959SOL    HW221777   2.768   1.077   4.705
 6960SOL     OW21778   0.899   5.192   1.212
 6960SOL    HW121779   0.970   5.122   1.224
 6960SOL    HW221780   0.896   5.219   1.116
 6961SOL     OW21781   6.920   2.710   4.181
 6961SOL    HW121782   6.905   2.719   4.083
 6961SOL    HW221783   6.966   2.792   4.216
 6962SOL     OW21784   4.872   5.513   2.438
 6962SOL    HW121785   4.909   5.482   2.526
 6962SOL    HW221786   4.855   5.612   2.442
 6963SOL     OW21787   6.967   5.495   0.787
 6963SOL    HW121788   6.951   5.397   0.797
 6963SOL    HW221789   0.011   5.511   0.714
 6964SOL     OW21790   4.608   4.890   4.057
 6964SOL    HW121791   4.636   4.798   4.030
 6964SOL    HW221792   4.574   4.889   4.151
 6965SOL     OW21793   0.849   3.589   5.765
 6965SOL    HW121794   0.761   3.557   5.732
 6965SOL    HW221795   0.909   3.511   5.783
 6966SOL     OW21796   6.366   2.327   3.164
 6966SOL    HW121797   6.364   2.269   3.083
 6966SOL    HW221798   6.302   2.291   3.233
 6967SOL     OW21799   1.960   0.977   5.560
 6967SOL    HW121800   1.909   0.970   5.474
 6967SOL    HW221801   2.053   1.007   5.541
 6968SOL     OW21802   3.494   6.732   2.343
 6968SOL    HW121803   3.443   6.672   2.405
 6968SOL    HW221804   3.480   6.702   2.248
 6969SOL     OW21805   3.367   2.023   1.666
 6969SOL    HW121806   3.341   2.028   1.763
 6969SOL    HW221807   3.345   1.932   1.630
 6970SOL     OW21808   4.625   3.890   0.545
 6970SOL    HW121809   4.544   3.879   0.603
 6970SOL    HW221810   4.642   3.805   0.495
 6971SOL     OW21811   6.808   3.996   2.117
 6971SOL    HW121812   6.905   4.020   2.125
 6971SOL    HW221813   6.795   3.899   2.138
 6972SOL     OW21814   5.282   5.365   4.264
 6972SOL    HW121815   5.195   5.319   4.245
 6972SOL    HW221816   5.358   5.302   4.250
 6973SOL     OW21817   0.763   3.830   5.228
 6973SOL    HW121818   0.706   3.772   5.169
 6973SOL    HW221819   0.860   3.808   5.213
 6974SOL     OW21820   3.482   3.185   3.072
 6974SOL    HW121821   3.520   3.103   3.031
 6974SOL    HW221822   3.551   3.257   3.074
 6975SOL     OW21823   2.839   6.572   6.227
 6975SOL    HW121824   2.885   6.488   6.256
 6975SOL    HW221825   2.907   6.636   6.190
 6976SOL     OW21826   4.226   4.808   5.692
 6976SOL    HW121827   4.286   4.730   5.713
 6976SOL    HW221828   4.249   4.884   5.753
 6977SOL     OW21829   4.650   2.664   1.944
 6977SOL    HW121830   4.621   2.569   1.932
 6977SOL    HW221831   4.610   2.721   1.872
 6978SOL     OW21832   6.117   2.328   1.358
 6978SOL    HW121833   6.118   2.364   1.452
 6978SOL    HW221834   6.208   2.338   1.318
 6979SOL     OW21835   1.429   5.414   0.808
 6979SOL    HW121836   1.432   5.354   0.888
 6979SOL    HW221837   1.417   5.509   0.839
 6980SOL     OW21838   2.089   0.833   3.495
 6980SOL    HW121839   2.134   0.803   3.411
 6980SOL    HW221840   2.151   0.823   3.572
 6981SOL     OW21841   2.491   3.111   6.948
 6981SOL    HW121842   2.512   3.205   6.973
 6981SOL    HW221843   2.576   3.058   6.940
 6982SOL     OW21844   1.121   1.287   3.854
 6982SOL    HW121845   1.173   1.255   3.933
 6982SOL    HW221846   1.095   1.209   3.797
 6983SOL     OW21847   5.296   1.789   3.485
 6983SOL    HW121848   5.366   1.783   3.556
 6983SOL    HW221849   5.220   1.727   3.508
 6984SOL     OW21850   2.174   2.226   4.209
 6984SOL    HW121851   2.189   2.134   4.247
 6984SOL    HW221852   2.262   2.266   4.182
 6985SOL     OW21853   3.771   5.500   2.064
 6985SOL    HW121854   3.703   5.433   2.094
 6985SOL    HW221855   3.750   5.590   2.103
 6986SOL     OW21856   2.087   6.121   6.326
 6986SOL    HW121857   2.093   6.158   6.233
 6986SOL    HW221858   2.140   6.036   6.331
 6987SOL     OW21859   0.289   1.808   6.113
 6987SOL    HW121860   0.203   1.796   6.163
 6987SOL    HW221861   0.283   1.889   6.055
 6988SOL     OW21862   6.723   0.801   5.551
 6988SOL    HW121863   6.684   0.840   5.467
 6988SOL    HW221864   6.650   0.786   5.618
 6989SOL     OW21865   0.478   3.696   3.290
 6989SOL    HW121866   0.444   3.603   3.280
 6989SOL    HW221867   0.425   3.758   3.233
 6990SOL     OW21868   5.217   2.072   1.058
 6990SOL    HW121869   5.170   1.990   1.026
 6990SOL    HW221870   5.166   2.153   1.029
 6991SOL     OW21871   2.494   4.488   4.008
 6991SOL    HW121872   2.480   4.504   3.910
 6991SOL    HW221873   2.405   4.489   4.054
 6992SOL     OW21874   5.602   6.338   5.244
 6992SOL    HW121875   5.639   6.276   5.313
 6992SOL    HW221876   5.630   6.431   5.264
 6993SOL     OW21877   0.236   0.702   2.503
 6993SOL    HW121878   0.169   0.767   2.466
 6993SOL    HW221879   0.213   0.610   2.473
 6994SOL     OW21880   0.954   3.371   4.819
 6994SOL    HW121881   1.003   3.433   4.881
 6994SOL    HW221882   0.926   3.420   4.737
 6995SOL     OW21883   6.442   5.505   5.851
 6995SOL    HW121884   6.441   5.569   5.927
 6995SOL    HW221885   6.477   5.550   5.769
 6996SOL     OW21886   2.166   1.005   5.379
 6996SOL    HW121887   2.159   1.090   5.327
 6996SOL    HW221888   2.236   0.946   5.339
 6997SOL     OW21889   5.639   5.713   5.163
 6997SOL    HW121890   5.591   5.666   5.089
 6997SOL    HW221891   5.582   5.713   5.245
 6998SOL     OW21892   2.254   2.568   1.493
 6998SOL    HW121893   2.320   2.557   1.568
 6998SOL    HW221894   2.208   2.656   1.502
 6999SOL     OW21895   2.381   2.251   6.296
 6999SOL    HW121896   2.429   2.265   6.383
 6999SOL    HW221897   2.300   2.194   6.312
 7000SOL     OW21898   6.194   5.269   2.541
 7000SOL    HW121899   6.099   5.243   2.524
 7000SOL    HW221900   6.197   5.360   2.582
 7001SOL     OW21901   2.694   3.154   5.298
 7001SOL    HW121902   2.625   3.109   5.242
 7001SOL    HW221903   2.677   3.132   5.395
 7002SOL     OW21904   1.983   4.905   2.865
 7002SOL    HW121905   2.069   4.905   2.814
 7002SOL    HW221906   1.954   5.000   2.880
 7003SOL     OW21907   3.650   5.516   6.991
 7003SOL    HW121908   3.573   5.551   6.937
 7003SOL    HW221909   3.696   5.592   0.014
 7004SOL     OW21910   2.157   4.924   1.501
 7004SOL    HW121911   2.165   4.988   1.578
 7004SOL    HW221912   2.247   4.912   1.459
 7005SOL     OW21913   1.326   6.606   6.443
 7005SOL    HW121914   1.373   6.658   6.372
 7005SOL    HW221915   1.360   6.633   6.533
 7006SOL     OW21916   4.886   4.758   5.195
 7006SOL    HW121917   4.985   4.763   5.210
 7006SOL    HW221918   4.855   4.665   5.217
 7007SOL     OW21919   4.687   6.893   3.461
 7007SOL    HW121920   4.734   6.807   3.445
 7007SOL    HW221921   4.628   6.885   3.541
 7008SOL     OW21922   1.593   5.422   4.633
 7008SOL    HW121923   1.668   5.486   4.617
 7008SOL    HW221924   1.515   5.470   4.672
 7009SOL     OW21925   5.978   5.494   2.551
 7009SOL    HW121926   5.954   5.398   2.533
 7009SOL    HW221927   5.937   5.524   2.637
 7010SOL     OW21928   4.045   3.910   5.968
 7010SOL    HW121929   4.073   3.969   6.043
 7010SOL    HW221930   4.006   3.965   5.894
 7011SOL     OW21931   2.265   0.379   6.559
 7011SOL    HW121932   2.345   0.432   6.589
 7011SOL    HW221933   2.217   0.430   6.487
 7012SOL     OW21934   1.909   1.125   2.218
 7012SOL    HW121935   1.874   1.196   2.279
 7012SOL    HW221936   1.981   1.074   2.265
 7013SOL     OW21937   0.382   6.887   0.671
 7013SOL    HW121938   0.399   6.820   0.744
 7013SOL    HW221939   0.468   6.913   0.628
 7014SOL     OW21940   5.199   3.023   1.693
 7014SOL    HW121941   5.214   3.026   1.594
 7014SOL    HW221942   5.100   3.029   1.711
 7015SOL     OW21943   5.523   4.981   2.523
 7015SOL    HW121944   5.529   5.080   2.513
 7015SOL    HW221945   5.534   4.938   2.433
 7016SOL     OW21946   3.822   4.768   1.750
 7016SOL    HW121947   3.794   4.822   1.671
 7016SOL    HW221948   3.743   4.718   1.787
 7017SOL     OW21949   2.164   6.738   2.010
 7017SOL    HW121950   2.226   6.815   1.993
 7017SOL    HW221951   2.111   6.756   2.093
 7018SOL     OW21952   6.223   4.668   5.120
 7018SOL    HW121953   6.253   4.654   5.214
 7018SOL    HW221954   6.126   4.644   5.112
 7019SOL     OW21955   2.762   3.868   6.441
 7019SOL    HW121956   2.844   3.877   6.384
 7019SOL    HW221957   2.788   3.872   6.538
 7020SOL     OW21958   6.188   6.963   6.757
 7020SOL    HW121959   6.220   6.991   6.848
 7020SOL    HW221960   6.218   0.007   6.689
 7021SOL     OW21961   2.156   1.224   5.234
 7021SOL    HW121962   2.234   1.216   5.172
 7021SOL    HW221963   2.095   1.297   5.203
 7022SOL     OW21964   4.621   5.355   0.983
 7022SOL    HW121965   4.683   5.295   0.932
 7022SOL    HW221966   4.611   5.320   1.076
 7023SOL     OW21967   0.121   1.948   3.426
 7023SOL    HW121968   0.172   1.934   3.511
 7023SOL    HW221969   0.094   2.044   3.418
 7024SOL     OW21970   1.340   5.143   5.707
 7024SOL    HW121971   1.370   5.189   5.623
 7024SOL    HW221972   1.331   5.045   5.689
 7025SOL     OW21973   2.521   1.102   0.056
 7025SOL    HW121974   2.443   1.064   0.106
 7025SOL    HW221975   2.606   1.068   0.096
 7026SOL     OW21976   2.600   1.842   2.113
 7026SOL    HW121977   2.657   1.829   2.194
 7026SOL    HW221978   2.581   1.754   2.070
 7027SOL     OW21979   2.533   4.752   3.555
 7027SOL    HW121980   2.631   4.764   3.571
 7027SOL    HW221981   2.493   4.696   3.628
 7028SOL     OW21982   5.449   6.543   4.376
 7028SOL    HW121983   5.503   6.555   4.293
 7028SOL    HW221984   5.497   6.582   4.454
 7029SOL     OW21985   4.082   6.282   6.313
 7029SOL    HW121986   4.002   6.306   6.367
 7029SOL    HW221987   4.094   6.349   6.239
 7030SOL     OW21988   6.302   2.562   5.924
 7030SOL    HW121989   6.347   2.545   6.012
 7030SOL    HW221990   6.205   2.581   5.940
 7031SOL     OW21991   2.384   6.581   4.707
 7031SOL    HW121992   2.337   6.536   4.783
 7031SOL    HW221993   2.364   6.533   4.622
 7032SOL     OW21994   3.756   6.750   3.664
 7032SOL    HW121995   3.739   6.842   3.627
 7032SOL    HW221996   3.704   6.683   3.611
 7033SOL     OW21997   0.146   1.952   3.918
 7033SOL    HW121998   0.236   1.958   3.960
 7033SOL    HW221999   0.081   2.007   3.970
 7034SOL     OW22000   6.161   0.358   3.120
 7034SOL    HW122001   6.225   0.282   3.105
 7034SOL    HW222002   6.202   0.443   3.089
 7035SOL     OW22003   1.039   6.479   2.039
 7035SOL    HW122004   1.052   6.547   1.967
 7035SOL    HW222005   0.977   6.408   2.007
 7036SOL     OW22006   0.164   0.789   1.994
 7036SOL    HW122007   0.260   0.764   2.000
 7036SOL    HW222008   0.146   0.869   2.051
 7037SOL     OW22009   1.555   0.787   6.086
 7037SOL    HW122010   1.573   0.881   6.116
 7037SOL    HW222011   1.472   0.784   6.031
 7038SOL     OW22012   1.534   3.144   4.135
 7038SOL    HW122013   1.506   3.240   4.133
 7038SOL    HW222014   1.465   3.088   4.091
 7039SOL     OW22015   2.927   5.318   1.525
 7039SOL    HW122016   2.830   5.342   1.527
 7039SOL    HW222017   2.959   5.317   1.430
 7040SOL     OW22018   5.941   2.049   5.027
 7040SOL    HW122019   5.902   2.128   4.979
 7040SOL    HW222020   5.871   1.979   5.039
 7041SOL     OW22021   0.590   2.281   2.760
 7041SOL    HW122022   0.534   2.235   2.829
 7041SOL    HW222023   0.572   2.379   2.762
 7042SOL     OW22024   5.875   5.344   6.969
 7042SOL    HW122025   5.885   5.250   7.000
 7042SOL    HW222026   5.962   5.392   6.977
 7043SOL     OW22027   2.200   2.988   3.289
 7043SOL    HW122028   2.243   2.911   3.335
 7043SOL    HW222029   2.214   3.071   3.343
 7044SOL     OW22030   4.632   5.175   2.362
 7044SOL    HW122031   4.614   5.259   2.413
 7044SOL    HW222032   4.636   5.195   2.264
 7045SOL     OW22033   4.973   5.875   2.320
 7045SOL    HW122034   4.948   5.801   2.257
 7045SOL    HW222035   4.918   5.869   2.403
 7046SOL     OW22036   3.670   1.933   3.217
 7046SOL    HW122037   3.699   1.934   3.312
 7046SOL    HW222038   3.570   1.931   3.213
 7047SOL     OW22039   0.740   2.649   2.352
 7047SOL    HW122040   0.698   2.705   2.425
 7047SOL    HW222041   0.839   2.649   2.364
 7048SOL     OW22042   0.362   5.824   2.081
 7048SOL    HW122043   0.305   5.900   2.050
 7048SOL    HW222044   0.305   5.742   2.089
 7049SOL     OW22045   2.113   1.898   1.079
 7049SOL    HW122046   2.151   1.816   1.121
 7049SOL    HW222047   2.039   1.933   1.136
 7050SOL     OW22048   4.002   3.680   2.775
 7050SOL    HW122049   3.941   3.755   2.800
 7050SOL    HW222050   4.040   3.696   2.684
 7051SOL     OW22051   0.176   0.784   0.889
 7051SOL    HW122052   0.222   0.777   0.801
 7051SOL    HW222053   0.149   0.693   0.920
 7052SOL     OW22054   6.238   2.813   3.719
 7052SOL    HW122055   6.258   2.845   3.627
 7052SOL    HW222056   6.198   2.887   3.773
 7053SOL     OW22057   0.674   3.556   4.663
 7053SOL    HW122058   0.744   3.499   4.620
 7053SOL    HW222059   0.687   3.651   4.637
 7054SOL     OW22060   0.709   6.287   0.960
 7054SOL    HW122061   0.714   6.307   1.058
 7054SOL    HW222062   0.770   6.348   0.910
 7055SOL     OW22063   3.699   5.897   5.384
 7055SOL    HW122064   3.703   5.937   5.292
 7055SOL    HW222065   3.719   5.799   5.378
 7056SOL     OW22066   5.611   6.014   2.535
 7056SOL    HW122067   5.562   5.963   2.464
 7056SOL    HW222068   5.637   5.952   2.609
 7057SOL     OW22069   1.235   6.030   3.392
 7057SOL    HW122070   1.304   6.073   3.334
 7057SOL    HW222071   1.146   6.033   3.347
 7058SOL     OW22072   6.739   5.599   6.502
 7058SOL    HW122073   6.657   5.623   6.451
 7058SOL    HW222074   6.816   5.654   6.470
 7059SOL     OW22075   6.888   1.003   3.116
 7059SOL    HW122076   6.937   1.014   3.029
 7059SOL    HW222077   6.790   0.994   3.097
 7060SOL     OW22078   4.212   0.029   1.801
 7060SOL    HW122079   4.146   0.028   1.726
 7060SOL    HW222080   4.182   6.991   1.874
 7061SOL     OW22081   0.219   3.170   3.935
 7061SOL    HW122082   0.296   3.113   3.907
 7061SOL    HW222083   0.223   3.258   3.888
 7062SOL     OW22084   5.638   1.234   5.821
 7062SOL    HW122085   5.637   1.175   5.901
 7062SOL    HW222086   5.590   1.320   5.842
 7063SOL     OW22087   0.351   0.271   1.299
 7063SOL    HW122088   0.348   0.351   1.359
 7063SOL    HW222089   0.393   0.296   1.212
 7064SOL     OW22090   4.306   2.014   2.362
 7064SOL    HW122091   4.368   1.987   2.288
 7064SOL    HW222092   4.294   1.937   2.425
 7065SOL     OW22093   4.133   2.842   5.972
 7065SOL    HW122094   4.081   2.923   5.998
 7065SOL    HW222095   4.196   2.865   5.898
 7066SOL     OW22096   4.057   0.541   0.643
 7066SOL    HW122097   4.126   0.476   0.673
 7066SOL    HW222098   4.099   0.605   0.578
 7067SOL     OW22099   1.741   1.467   5.581
 7067SOL    HW122100   1.779   1.379   5.608
 7067SOL    HW222101   1.644   1.470   5.605
 7068SOL     OW22102   0.593   4.550   4.407
 7068SOL    HW122103   0.646   4.538   4.323
 7068SOL    HW222104   0.581   4.461   4.452
 7069SOL     OW22105   6.126   2.151   3.880
 7069SOL    HW122106   6.131   2.104   3.968
 7069SOL    HW222107   6.035   2.191   3.869
 7070SOL     OW22108   0.056   6.708   4.952
 7070SOL    HW122109   0.081   6.730   4.858
 7070SOL    HW222110   6.985   6.673   4.955
 7071SOL     OW22111   1.774   6.534   5.876
 7071SOL    HW122112   1.784   6.517   5.778
 7071SOL    HW222113   1.820   6.620   5.900
 7072SOL     OW22114   0.438   6.228   6.394
 7072SOL    HW122115   0.378   6.298   6.354
 7072SOL    HW222116   0.514   6.272   6.441
 7073SOL     OW22117   5.463   6.736   4.788
 7073SOL    HW122118   5.494   6.683   4.867
 7073SOL    HW222119   5.531   6.805   4.765
 7074SOL     OW22120   4.274   2.332   1.331
 7074SOL    HW122121   4.307   2.238   1.330
 7074SOL    HW222122   4.351   2.394   1.320
 7075SOL     OW22123   1.696   5.572   5.499
 7075SOL    HW122124   1.770   5.629   5.462
 7075SOL    HW222125   1.706   5.478   5.467
 7076SOL     OW22126   5.150   2.432   6.523
 7076SOL    HW122127   5.199   2.508   6.481
 7076SOL    HW222128   5.210   2.352   6.526
 7077SOL     OW22129   2.313   4.327   4.857
 7077SOL    HW122130   2.396   4.372   4.890
 7077SOL    HW222131   2.311   4.233   4.889
 7078SOL     OW22132   6.325   0.733   1.675
 7078SOL    HW122133   6.422   0.740   1.697
 7078SOL    HW222134   6.271   0.739   1.758
 7079SOL     OW22135   6.558   6.443   5.347
 7079SOL    HW122136   6.479   6.478   5.396
 7079SOL    HW222137   6.537   6.437   5.249
 7080SOL     OW22138   3.309   2.079   4.636
 7080SOL    HW122139   3.364   2.098   4.556
 7080SOL    HW222140   3.212   2.091   4.614
 7081SOL     OW22141   2.653   1.596   6.854
 7081SOL    HW122142   2.717   1.618   6.780
 7081SOL    HW222143   2.646   1.497   6.864
 7082SOL     OW22144   6.143   4.276   6.697
 7082SOL    HW122145   6.057   4.230   6.718
 7082SOL    HW222146   6.140   4.370   6.732
 7083SOL     OW22147   2.901   0.798   0.242
 7083SOL    HW122148   2.846   0.746   0.308
 7083SOL    HW222149   2.966   0.855   0.292
 7084SOL     OW22150   0.403   6.395   5.762
 7084SOL    HW122151   0.414   6.337   5.842
 7084SOL    HW222152   0.426   6.490   5.786
 7085SOL     OW22153   1.341   1.426   1.904
 7085SOL    HW122154   1.388   1.396   1.821
 7085SOL    HW222155   1.383   1.510   1.938
 7086SOL     OW22156   5.267   1.146   5.429
 7086SOL    HW122157   5.359   1.116   5.405
 7086SOL    HW222158   5.223   1.078   5.487
 7087SOL     OW22159   5.779   4.320   3.817
 7087SOL    HW122160   5.761   4.363   3.905
 7087SOL    HW222161   5.841   4.378   3.764
 7088SOL     OW22162   5.874   2.712   3.558
 7088SOL    HW122163   5.919   2.624   3.575
 7088SOL    HW222164   5.841   2.715   3.463
 7089SOL     OW22165   3.428   1.921   5.205
 7089SOL    HW122166   3.458   1.904   5.299
 7089SOL    HW222167   3.340   1.875   5.190
 7090SOL     OW22168   2.038   1.569   6.298
 7090SOL    HW122169   2.106   1.603   6.234
 7090SOL    HW222170   2.025   1.470   6.284
 7091SOL     OW22171   0.039   1.833   0.139
 7091SOL    HW122172   0.122   1.811   0.088
 7091SOL    HW222173   0.046   1.926   0.175
 7092SOL     OW22174   4.375   2.667   6.276
 7092SOL    HW122175   4.354   2.688   6.181
 7092SOL    HW222176   4.445   2.596   6.280
 7093SOL     OW22177   2.883   3.453   3.219
 7093SOL    HW122178   2.869   3.398   3.137
 7093SOL    HW222179   2.870   3.550   3.198
 7094SOL     OW22180   1.179   5.629   5.724
 7094SOL    HW122181   1.203   5.666   5.635
 7094SOL    HW222182   1.174   5.529   5.718
 7095SOL     OW22183   3.389   4.220   5.887
 7095SOL    HW122184   3.473   4.180   5.924
 7095SOL    HW222185   3.328   4.148   5.856
 7096SOL     OW22186   6.113   0.714   3.960
 7096SOL    HW122187   6.122   0.740   3.864
 7096SOL    HW222188   6.201   0.681   3.994
 7097SOL     OW22189   5.896   1.567   1.283
 7097SOL    HW122190   5.861   1.527   1.368
 7097SOL    HW222191   5.865   1.661   1.275
 7098SOL     OW22192   0.812   0.290   4.502
 7098SOL    HW122193   0.885   0.281   4.434
 7098SOL    HW222194   0.760   0.373   4.483
 7099SOL     OW22195   2.547   0.951   4.897
 7099SOL    HW122196   2.549   0.870   4.838
 7099SOL    HW222197   2.598   0.933   4.980
 7100SOL     OW22198   5.856   2.976   0.686
 7100SOL    HW122199   5.909   2.979   0.771
 7100SOL    HW222200   5.769   3.024   0.699
 7101SOL     OW22201   2.075   0.925   4.710
 7101SOL    HW122202   2.043   1.019   4.709
 7101SOL    HW222203   1.999   0.863   4.687
 7102SOL     OW22204   4.188   0.511   1.055
 7102SOL    HW122205   4.265   0.535   0.996
 7102SOL    HW222206   4.223   0.465   1.138
 7103SOL     OW22207   4.412   4.665   1.626
 7103SOL    HW122208   4.422   4.701   1.533
 7103SOL    HW222209   4.316   4.673   1.654
 7104SOL     OW22210   1.253   3.297   4.769
 7104SOL    HW122211   1.285   3.214   4.816
 7104SOL    HW222212   1.225   3.365   4.837
 7105SOL     OW22213   3.074   2.835   5.268
 7105SOL    HW122214   3.125   2.752   5.294
 7105SOL    HW222215   3.138   2.906   5.239
 7106SOL     OW22216   2.893   3.721   3.052
 7106SOL    HW122217   2.948   3.799   3.023
 7106SOL    HW222218   2.905   3.646   2.986
 7107SOL     OW22219   2.600   1.903   0.422
 7107SOL    HW122220   2.648   1.950   0.496
 7107SOL    HW222221   2.528   1.845   0.461
 7108SOL     OW22222   3.764   6.584   2.496
 7108SOL    HW122223   3.828   6.604   2.570
 7108SOL    HW222224   3.766   6.658   2.429
 7109SOL     OW22225   3.097   0.304   6.382
 7109SOL    HW122226   3.094   0.403   6.398
 7109SOL    HW222227   3.142   0.259   6.460
 7110SOL     OW22228   3.742   6.235   3.823
 7110SOL    HW122229   3.686   6.156   3.849
 7110SOL    HW222230   3.813   6.205   3.760
 7111SOL     OW22231   2.218   1.994   4.340
 7111SOL    HW122232   2.153   1.964   4.410
 7111SOL    HW222233   2.260   1.914   4.298
 7112SOL     OW22234   1.757   5.774   4.098
 7112SOL    HW122235   1.854   5.789   4.121
 7112SOL    HW222236   1.700   5.808   4.172
 7113SOL     OW22237   3.397   4.199   4.825
 7113SOL    HW122238   3.379   4.280   4.769
 7113SOL    HW222239   3.371   4.117   4.775
 7114SOL     OW22240   3.874   6.417   1.488
 7114SOL    HW122241   3.875   6.392   1.585
 7114SOL    HW222242   3.780   6.421   1.456
 7115SOL     OW22243   5.175   3.324   2.275
 7115SOL    HW122244   5.195   3.240   2.224
 7115SOL    HW222245   5.229   3.326   2.359
 7116SOL     OW22246   5.604   3.903   3.453
 7116SOL    HW122247   5.619   3.944   3.543
 7116SOL    HW222248   5.553   3.818   3.464
 7117SOL     OW22249   6.876   6.369   4.865
 7117SOL    HW122250   6.906   6.366   4.960
 7117SOL    HW222251   6.946   6.329   4.806
 7118SOL     OW22252   2.495   3.903   1.229
 7118SOL    HW122253   2.579   3.957   1.231
 7118SOL    HW222254   2.458   3.894   1.321
 7119SOL     OW22255   4.940   1.416   2.879
 7119SOL    HW122256   4.883   1.420   2.962
 7119SOL    HW222257   4.894   1.360   2.810
 7120SOL     OW22258   3.931   2.134   2.630
 7120SOL    HW122259   3.976   2.220   2.658
 7120SOL    HW222260   3.888   2.147   2.540
 7121SOL     OW22261   1.708   6.693   2.458
 7121SOL    HW122262   1.727   6.617   2.396
 7121SOL    HW222263   1.730   6.666   2.551
 7122SOL     OW22264   0.910   0.545   5.688
 7122SOL    HW122265   0.983   0.585   5.631
 7122SOL    HW222266   0.841   0.615   5.705
 7123SOL     OW22267   2.235   4.711   2.552
 7123SOL    HW122268   2.160   4.768   2.520
 7123SOL    HW222269   2.202   4.648   2.622
 7124SOL     OW22270   0.204   2.388   0.600
 7124SOL    HW122271   0.107   2.364   0.588
 7124SOL    HW222272   0.211   2.462   0.667
 7125SOL     OW22273   6.229   6.650   0.445
 7125SOL    HW122274   6.130   6.660   0.436
 7125SOL    HW222275   6.268   6.620   0.358
 7126SOL     OW22276   3.280   4.171   0.203
 7126SOL    HW122277   3.246   4.262   0.230
 7126SOL    HW222278   3.370   4.156   0.245
 7127SOL     OW22279   1.677   6.200   4.644
 7127SOL    HW122280   1.675   6.292   4.603
 7127SOL    HW222281   1.714   6.206   4.737
 7128SOL     OW22282   3.209   4.339   0.596
 7128SOL    HW122283   3.253   4.255   0.629
 7128SOL    HW222284   3.111   4.332   0.611
 7129SOL     OW22285   2.157   1.445   0.584
 7129SOL    HW122286   2.183   1.542   0.582
 7129SOL    HW222287   2.057   1.438   0.582
 7130SOL     OW22288   3.824   4.891   5.118
 7130SOL    HW122289   3.844   4.918   5.024
 7130SOL    HW222290   3.909   4.864   5.163
 7131SOL     OW22291   2.353   1.252   0.650
 7131SOL    HW122292   2.320   1.243   0.744
 7131SOL    HW222293   2.287   1.304   0.596
 7132SOL     OW22294   3.700   3.505   6.780
 7132SOL    HW122295   3.649   3.425   6.749
 7132SOL    HW222296   3.726   3.561   6.702
 7133SOL     OW22297   5.220   5.613   4.560
 7133SOL    HW122298   5.153   5.562   4.505
 7133SOL    HW222299   5.204   5.595   4.657
 7134SOL     OW22300   5.983   6.709   1.876
 7134SOL    HW122301   6.013   6.664   1.960
 7134SOL    HW222302   5.910   6.774   1.897
 7135SOL     OW22303   1.205   3.195   2.608
 7135SOL    HW122304   1.232   3.211   2.703
 7135SOL    HW222305   1.162   3.105   2.601
 7136SOL     OW22306   1.698   2.466   1.207
 7136SOL    HW122307   1.610   2.425   1.233
 7136SOL    HW222308   1.682   2.533   1.134
 7137SOL     OW22309   4.429   0.406   6.827
 7137SOL    HW122310   4.359   0.463   6.870
 7137SOL    HW222311   4.475   0.457   6.755
 7138SOL     OW22312   1.692   2.750   0.184
 7138SOL    HW122313   1.763   2.707   0.240
 7138SOL    HW222314   1.641   2.816   0.239
 7139SOL     OW22315   5.208   3.581   2.190
 7139SOL    HW122316   5.204   3.490   2.229
 7139SOL    HW222317   5.118   3.624   2.197
 7140SOL     OW22318   5.653   4.310   4.463
 7140SOL    HW122319   5.717   4.366   4.410
 7140SOL    HW222320   5.701   4.231   4.500
 7141SOL     OW22321   3.153   6.114   1.615
 7141SOL    HW122322   3.219   6.175   1.658
 7141SOL    HW222323   3.202   6.049   1.556
 7142SOL     OW22324   4.398   7.019   3.418
 7142SOL    HW122325   4.350   6.964   3.349
 7142SOL    HW222326   4.453   6.958   3.476
 7143SOL     OW22327   1.576   3.292   6.332
 7143SOL    HW122328   1.567   3.200   6.294
 7143SOL    HW222329   1.670   3.324   6.318
 7144SOL     OW22330   1.681   1.490   3.218
 7144SOL    HW122331   1.778   1.475   3.202
 7144SOL    HW222332   1.659   1.471   3.313
 7145SOL     OW22333   4.128   0.030   6.708
 7145SOL    HW122334   4.063   6.989   6.750
 7145SOL    HW222335   4.156   0.099   6.776
 7146SOL     OW22336   2.116   0.827   0.392
 7146SOL    HW122337   2.093   0.835   0.296
 7146SOL    HW222338   2.105   0.916   0.437
 7147SOL     OW22339   6.640   6.570   3.132
 7147SOL    HW122340   6.739   6.578   3.129
 7147SOL    HW222341   6.614   6.499   3.199
 7148SOL     OW22342   0.587   7.005   0.032
 7148SOL    HW122343   0.590   7.012   6.955
 7148SOL    HW222344   0.499   0.018   0.065
 7149SOL     OW22345   6.307   6.605   2.768
 7149SOL    HW122346   6.219   6.591   2.724
 7149SOL    HW222347   6.380   6.601   2.700
 7150SOL     OW22348   3.186   1.785   2.230
 7150SOL    HW122349   3.091   1.811   2.212
 7150SOL    HW222350   3.232   1.765   2.144
 7151SOL     OW22351   1.703   6.092   0.390
 7151SOL    HW122352   1.687   6.119   0.485
 7151SOL    HW222353   1.675   6.166   0.329
 7152SOL     OW22354   1.142   1.560   4.790
 7152SOL    HW122355   1.163   1.464   4.769
 7152SOL    HW222356   1.087   1.564   4.874
 7153SOL     OW22357   3.210   5.690   2.261
 7153SOL    HW122358   3.248   5.678   2.169
 7153SOL    HW222359   3.284   5.699   2.327
 7154SOL     OW22360   3.393   0.795   4.008
 7154SOL    HW122361   3.461   0.857   3.970
 7154SOL    HW222362   3.416   0.774   4.103
 7155SOL     OW22363   2.109   4.028   1.761
 7155SOL    HW122364   2.082   3.941   1.720
 7155SOL    HW222365   2.193   4.015   1.815
 7156SOL     OW22366   0.577   4.289   4.633
 7156SOL    HW122367   0.669   4.323   4.651
 7156SOL    HW222368   0.582   4.199   4.590
 7157SOL     OW22369   5.967   4.422   1.925
 7157SOL    HW122370   5.987   4.421   2.023
 7157SOL    HW222371   5.912   4.342   1.901
 7158SOL     OW22372   1.195   0.142   2.655
 7158SOL    HW122373   1.159   0.203   2.725
 7158SOL    HW222374   1.293   0.160   2.642
 7159SOL     OW22375   0.538   4.540   2.751
 7159SOL    HW122376   0.483   4.510   2.673
 7159SOL    HW222377   0.587   4.461   2.788
 7160SOL     OW22378   5.226   0.813   3.070
 7160SOL    HW122379   5.248   0.787   3.165
 7160SOL    HW222380   5.299   0.780   3.009
 7161SOL     OW22381   2.973   3.431   5.101
 7161SOL    HW122382   2.914   3.509   5.123
 7161SOL    HW222383   2.944   3.352   5.154
 7162SOL     OW22384   2.276   5.708   5.834
 7162SOL    HW122385   2.304   5.784   5.775
 7162SOL    HW222386   2.322   5.624   5.805
 7163SOL     OW22387   2.805   6.538   2.849
 7163SOL    HW122388   2.822   6.541   2.948
 7163SOL    HW222389   2.796   6.442   2.820
 7164SOL     OW22390   1.922   0.997   4.163
 7164SOL    HW122391   2.018   0.973   4.177
 7164SOL    HW222392   1.913   1.049   4.078
 7165SOL     OW22393   6.781   1.488   1.680
 7165SOL    HW122394   6.771   1.388   1.677
 7165SOL    HW222395   6.792   1.523   1.587
 7166SOL     OW22396   5.731   3.076   0.188
 7166SOL    HW122397   5.689   3.167   0.181
 7166SOL    HW222398   5.728   3.046   0.283
 7167SOL     OW22399   4.887   3.694   4.362
 7167SOL    HW122400   4.881   3.616   4.301
 7167SOL    HW222401   4.906   3.662   4.455
 7168SOL     OW22402   1.841   2.673   3.830
 7168SOL    HW122403   1.777   2.607   3.868
 7168SOL    HW222404   1.790   2.751   3.792
 7169SOL     OW22405   0.069   3.388   5.002
 7169SOL    HW122406   7.004   3.349   4.972
 7169SOL    HW222407   0.063   3.417   5.097
 7170SOL     OW22408   5.088   5.698   3.237
 7170SOL    HW122409   5.147   5.648   3.300
 7170SOL    HW222410   5.141   5.728   3.158
 7171SOL     OW22411   5.200   3.985   6.689
 7171SOL    HW122412   5.107   4.020   6.701
 7171SOL    HW222413   5.265   4.061   6.693
 7172SOL     OW22414   1.492   0.777   5.011
 7172SOL    HW122415   1.480   0.854   5.073
 7172SOL    HW222416   1.478   0.691   5.061
 7173SOL     OW22417   0.070   4.476   6.065
 7173SOL    HW122418   0.079   4.480   5.966
 7173SOL    HW222419   0.124   4.549   6.107
 7174SOL     OW22420   1.062   4.335   0.853
 7174SOL    HW122421   1.012   4.421   0.857
 7174SOL    HW222422   1.133   4.341   0.783
 7175SOL     OW22423   5.113   2.867   6.620
 7175SOL    HW122424   5.057   2.940   6.582
 7175SOL    HW222425   5.114   2.789   6.557
 7176SOL     OW22426   1.001   5.900   2.813
 7176SOL    HW122427   0.926   5.836   2.792
 7176SOL    HW222428   1.086   5.865   2.773
 7177SOL     OW22429   2.150   6.351   4.315
 7177SOL    HW122430   2.123   6.447   4.307
 7177SOL    HW222431   2.240   6.338   4.273
 7178SOL     OW22432   1.999   3.205   5.483
 7178SOL    HW122433   2.021   3.179   5.389
 7178SOL    HW222434   1.936   3.138   5.522
 7179SOL     OW22435   1.942   3.980   4.430
 7179SOL    HW122436   1.948   4.057   4.366
 7179SOL    HW222437   1.910   3.898   4.381
 7180SOL     OW22438   1.601   4.526   6.924
 7180SOL    HW122439   1.640   4.436   6.907
 7180SOL    HW222440   1.503   4.524   6.906
 7181SOL     OW22441   2.350   6.294   0.643
 7181SOL    HW122442   2.335   6.311   0.546
 7181SOL    HW222443   2.288   6.223   0.675
 7182SOL     OW22444   1.516   2.489   5.446
 7182SOL    HW122445   1.466   2.410   5.480
 7182SOL    HW222446   1.460   2.571   5.453
 7183SOL     OW22447   2.510   6.026   0.322
 7183SOL    HW122448   2.570   5.946   0.328
 7183SOL    HW222449   2.500   6.053   0.226
 7184SOL     OW22450   0.431   0.971   2.787
 7184SOL    HW122451   0.407   0.897   2.850
 7184SOL    HW222452   0.396   1.057   2.822
 7185SOL     OW22453   5.827   0.315   5.362
 7185SOL    HW122454   5.735   0.291   5.394
 7185SOL    HW222455   5.883   0.231   5.357
 7186SOL     OW22456   6.111   0.213   6.969
 7186SOL    HW122457   6.172   0.288   6.945
 7186SOL    HW222458   6.019   0.231   6.934
 7187SOL     OW22459   3.375   3.767   6.901
 7187SOL    HW122460   3.329   3.845   6.943
 7187SOL    HW222461   3.392   3.697   6.970
 7188SOL     OW22462   6.149   6.908   0.923
 7188SOL    HW122463   6.106   6.992   0.890
 7188SOL    HW222464   6.087   6.861   0.986
 7189SOL     OW22465   0.047   1.009   5.981
 7189SOL    HW122466   0.049   1.072   5.903
 7189SOL    HW222467   6.979   0.966   5.987
 7190SOL     OW22468   6.922   3.836   2.937
 7190SOL    HW122469   6.823   3.850   2.935
 7190SOL    HW222470   6.969   3.924   2.927
 7191SOL     OW22471   0.244   4.380   3.348
 7191SOL    HW122472   0.176   4.360   3.418
 7191SOL    HW222473   0.265   4.477   3.348
 7192SOL     OW22474   3.492   4.849   5.526
 7192SOL    HW122475   3.548   4.868   5.606
 7192SOL    HW222476   3.442   4.763   5.539
 7193SOL     OW22477   2.049   2.289   2.498
 7193SOL    HW122478   2.071   2.323   2.406
 7193SOL    HW222479   2.130   2.247   2.538
 7194SOL     OW22480   2.807   2.364   0.625
 7194SOL    HW122481   2.727   2.373   0.685
 7194SOL    HW222482   2.794   2.420   0.543
 7195SOL     OW22483   0.112   4.879   0.127
 7195SOL    HW122484   0.087   4.788   0.161
 7195SOL    HW222485   0.031   4.923   0.087
 7196SOL     OW22486   3.164   4.151   1.539
 7196SOL    HW122487   3.103   4.127   1.463
 7196SOL    HW222488   3.109   4.173   1.619
 7197SOL     OW22489   6.773   1.979   5.714
 7197SOL    HW122490   6.721   2.039   5.653
 7197SOL    HW222491   6.714   1.947   5.788
 7198SOL     OW22492   0.824   0.778   6.370
 7198SOL    HW122493   0.757   0.755   6.441
 7198SOL    HW222494   0.777   0.817   6.291
 7199SOL     OW22495   2.015   0.753   2.401
 7199SOL    HW122496   2.057   0.836   2.363
 7199SOL    HW222497   2.041   0.743   2.497
 7200SOL     OW22498   2.512   2.336   0.420
 7200SOL    HW122499   2.427   2.387   0.411
 7200SOL    HW222500   2.585   2.399   0.448
 7201SOL     OW22501   1.289   5.824   4.246
 7201SOL    HW122502   1.296   5.811   4.147
 7201SOL    HW222503   1.209   5.776   4.280
 7202SOL     OW22504   4.367   0.750   5.977
 7202SOL    HW122505   4.425   0.719   6.052
 7202SOL    HW222506   4.376   0.849   5.967
 7203SOL     OW22507   6.874   2.058   1.068
 7203SOL    HW122508   6.896   2.057   0.971
 7203SOL    HW222509   6.953   2.090   1.120
 7204SOL     OW22510   0.082   6.952   5.533
 7204SOL    HW122511   0.020   0.004   5.510
 7204SOL    HW222512   0.072   6.878   5.466
 7205SOL     OW22513   0.680   5.571   3.108
 7205SOL    HW122514   0.744   5.495   3.095
 7205SOL    HW222515   0.621   5.553   3.187
 7206SOL     OW22516   1.985   7.011   0.778
 7206SOL    HW122517   2.074   0.016   0.741
 7206SOL    HW222518   1.981   6.912   0.787
 7207SOL     OW22519   3.437   0.392   2.184
 7207SOL    HW122520   3.535   0.374   2.192
 7207SOL    HW222521   3.400   0.341   2.106
 7208SOL     OW22522   4.263   6.603   3.549
 7208SOL    HW122523   4.170   6.639   3.553
 7208SOL    HW222524   4.284   6.555   3.634
 7209SOL     OW22525   3.101   3.827   2.482
 7209SOL    HW122526   3.035   3.824   2.557
 7209SOL    HW222527   3.094   3.743   2.428
 7210SOL     OW22528   4.405   0.594   4.285
 7210SOL    HW122529   4.434   0.655   4.359
 7210SOL    HW222530   4.486   0.563   4.234
 7211SOL     OW22531   2.490   5.653   4.310
 7211SOL    HW122532   2.486   5.616   4.217
 7211SOL    HW222533   2.580   5.633   4.349
 7212SOL     OW22534   0.725   6.310   4.698
 7212SOL    HW122535   0.815   6.346   4.723
 7212SOL    HW222536   0.737   6.224   4.648
 7213SOL     OW22537   5.646   0.346   6.590
 7213SOL    HW122538   5.707   0.267   6.598
 7213SOL    HW222539   5.565   0.331   6.646
 7214SOL     OW22540   0.895   5.733   5.093
 7214SOL    HW122541   0.948   5.743   5.177
 7214SOL    HW222542   0.824   5.804   5.091
 7215SOL     OW22543   0.510   3.145   5.126
 7215SOL    HW122544   0.424   3.191   5.104
 7215SOL    HW222545   0.553   3.114   5.042
 7216SOL     OW22546   2.824   5.992   0.079
 7216SOL    HW122547   2.787   6.077   0.115
 7216SOL    HW222548   2.837   6.000   7.003
 7217SOL     OW22549   2.095   4.391   2.631
 7217SOL    HW122550   2.054   4.333   2.561
 7217SOL    HW222551   2.187   4.358   2.652
 7218SOL     OW22552   5.193   2.645   5.268
 7218SOL    HW122553   5.152   2.736   5.281
 7218SOL    HW222554   5.221   2.609   5.357
 7219SOL     OW22555   4.646   6.660   4.524
 7219SOL    HW122556   4.706   6.739   4.537
 7219SOL    HW222557   4.675   6.586   4.585
 7220SOL     OW22558   0.705   6.058   4.595
 7220SOL    HW122559   0.633   6.046   4.663
 7220SOL    HW222560   0.724   5.971   4.551
 7221SOL     OW22561   4.478   4.889   4.326
 7221SOL    HW122562   4.406   4.828   4.360
 7221SOL    HW222563   4.463   4.981   4.362
 7222SOL     OW22564   6.439   0.479   2.618
 7222SOL    HW122565   6.355   0.532   2.624
 7222SOL    HW222566   6.434   0.416   2.541
 7223SOL     OW22567   2.621   2.196   1.256
 7223SOL    HW122568   2.525   2.206   1.227
 7223SOL    HW222569   2.636   2.248   1.340
 7224SOL     OW22570   5.713   2.198   4.550
 7224SOL    HW122571   5.654   2.118   4.553
 7224SOL    HW222572   5.741   2.216   4.455
 7225SOL     OW22573   1.092   6.087   6.331
 7225SOL    HW122574   1.136   6.014   6.280
 7225SOL    HW222575   1.122   6.176   6.295
 7226SOL     OW22576   0.407   0.418   0.571
 7226SOL    HW122577   0.315   0.393   0.602
 7226SOL    HW222578   0.456   0.461   0.647
 7227SOL     OW22579   0.888   2.550   0.871
 7227SOL    HW122580   0.813   2.542   0.937
 7227SOL    HW222581   0.907   2.460   0.831
 7228SOL     OW22582   0.469   0.615   2.242
 7228SOL    HW122583   0.464   0.679   2.319
 7228SOL    HW222584   0.542   0.549   2.258
 7229SOL     OW22585   0.931   6.902   5.100
 7229SOL    HW122586   0.942   6.954   5.015
 7229SOL    HW222587   0.870   6.951   5.162
 7230SOL     OW22588   5.014   5.041   4.469
 7230SOL    HW122589   5.101   5.036   4.519
 7230SOL    HW222590   4.938   5.034   4.534
 7231SOL     OW22591   4.654   0.023   0.145
 7231SOL    HW122592   4.636   6.953   0.112
 7231SOL    HW222593   4.634   0.028   0.243
 7232SOL     OW22594   5.016   5.418   3.041
 7232SOL    HW122595   5.015   5.513   3.009
 7232SOL    HW222596   4.990   5.357   2.966
 7233SOL     OW22597   0.207   2.449   4.100
 7233SOL    HW122598   0.180   2.475   4.193
 7233SOL    HW222599   0.306   2.451   4.092
 7234SOL     OW22600   5.407   3.227   3.775
 7234SOL    HW122601   5.476   3.279   3.826
 7234SOL    HW222602   5.451   3.184   3.696
 7235SOL     OW22603   6.627   4.121   2.860
 7235SOL    HW122604   6.560   4.047   2.867
 7235SOL    HW222605   6.652   4.152   2.952
 7236SOL     OW22606   3.109   1.388   2.676
 7236SOL    HW122607   3.184   1.358   2.617
 7236SOL    HW222608   3.032   1.417   2.619
 7237SOL     OW22609   5.901   6.277   5.167
 7237SOL    HW122610   5.964   6.340   5.211
 7237SOL    HW222611   5.937   6.184   5.171
 7238SOL     OW22612   2.769   2.192   0.913
 7238SOL    HW122613   2.818   2.132   0.976
 7238SOL    HW222614   2.803   2.286   0.923
 7239SOL     OW22615   2.342   1.629   3.021
 7239SOL    HW122616   2.298   1.549   2.979
 7239SOL    HW222617   2.328   1.709   2.964
 7240SOL     OW22618   2.128   4.379   6.280
 7240SOL    HW122619   2.160   4.348   6.190
 7240SOL    HW222620   2.207   4.397   6.339
 7241SOL     OW22621   3.061   0.754   0.010
 7241SOL    HW122622   3.134   0.687   0.024
 7241SOL    HW222623   3.005   0.760   0.092
 7242SOL     OW22624   6.478   6.045   0.229
 7242SOL    HW122625   6.542   6.062   0.154
 7242SOL    HW222626   6.388   6.022   0.192
 7243SOL     OW22627   0.099   4.671   6.283
 7243SOL    HW122628   0.129   4.763   6.260
 7243SOL    HW222629   0.034   4.674   6.359
 7244SOL     OW22630   5.843   0.265   1.152
 7244SOL    HW122631   5.751   0.268   1.111
 7244SOL    HW222632   5.841   0.310   1.241
 7245SOL     OW22633   0.323   2.101   5.222
 7245SOL    HW122634   0.348   2.052   5.305
 7245SOL    HW222635   0.326   2.039   5.143
 7246SOL     OW22636   5.861   6.780   4.672
 7246SOL    HW122637   5.958   6.774   4.649
 7246SOL    HW222638   5.852   6.791   4.771
 7247SOL     OW22639   3.304   6.713   3.610
 7247SOL    HW122640   3.380   6.733   3.672
 7247SOL    HW222641   3.280   6.796   3.559
 7248SOL     OW22642   3.625   0.843   3.039
 7248SOL    HW122643   3.648   0.746   3.039
 7248SOL    HW222644   3.703   0.895   3.074
 7249SOL     OW22645   5.374   4.950   1.747
 7249SOL    HW122646   5.295   4.888   1.747
 7249SOL    HW222647   5.369   5.009   1.827
 7250SOL     OW22648   4.025   5.754   6.286
 7250SOL    HW122649   4.036   5.835   6.344
 7250SOL    HW222650   4.050   5.672   6.338
 7251SOL     OW22651   0.271   6.529   5.515
 7251SOL    HW122652   0.335   6.583   5.460
 7251SOL    HW222653   0.320   6.488   5.592
 7252SOL     OW22654   3.828   2.951   3.638
 7252SOL    HW122655   3.775   2.915   3.714
 7252SOL    HW222656   3.899   3.012   3.674
 7253SOL     OW22657   2.020   6.362   0.052
 7253SOL    HW122658   1.950   6.330   7.010
 7253SOL    HW222659   2.022   6.300   0.131
 7254SOL     OW22660   4.563   5.318   4.829
 7254SOL    HW122661   4.615   5.310   4.744
 7254SOL    HW222662   4.470   5.283   4.815
 7255SOL     OW22663   4.032   3.703   0.930
 7255SOL    HW122664   4.009   3.780   0.870
 7255SOL    HW222665   3.948   3.656   0.957
 7256SOL     OW22666   4.720   4.758   4.388
 7256SOL    HW122667   4.803   4.797   4.347
 7256SOL    HW222668   4.639   4.801   4.348
 7257SOL     OW22669   4.790   2.713   3.704
 7257SOL    HW122670   4.771   2.733   3.800
 7257SOL    HW222671   4.712   2.664   3.665
 7258SOL     OW22672   4.140   1.326   3.258
 7258SOL    HW122673   4.116   1.312   3.162
 7258SOL    HW222674   4.058   1.345   3.311
 7259SOL     OW22675   3.453   3.705   1.544
 7259SOL    HW122676   3.516   3.630   1.525
 7259SOL    HW222677   3.371   3.669   1.589
 7260SOL     OW22678   3.061   2.156   2.816
 7260SOL    HW122679   3.079   2.179   2.912
 7260SOL    HW222680   3.147   2.149   2.767
 7261SOL     OW22681   2.381   3.052   0.925
 7261SOL    HW122682   2.310   3.095   0.870
 7261SOL    HW222683   2.398   2.959   0.892
 7262SOL     OW22684   5.285   2.023   3.980
 7262SOL    HW122685   5.201   2.026   4.033
 7262SOL    HW222686   5.311   2.115   3.951
 7263SOL     OW22687   0.025   5.882   2.576
 7263SOL    HW122688   0.016   5.956   2.509
 7263SOL    HW222689   7.008   5.911   2.663
 7264SOL     OW22690   6.049   1.377   6.582
 7264SOL    HW122691   6.116   1.450   6.596
 7264SOL    HW222692   6.088   1.308   6.520
 7265SOL     OW22693   5.796   5.856   5.950
 7265SOL    HW122694   5.874   5.793   5.944
 7265SOL    HW222695   5.715   5.814   5.910
 7266SOL     OW22696   3.777   1.023   0.850
 7266SOL    HW122697   3.730   0.943   0.889
 7266SOL    HW222698   3.859   1.042   0.903
 7267SOL     OW22699   6.987   5.193   5.657
 7267SOL    HW122700   6.949   5.154   5.741
 7267SOL    HW222701   6.913   5.227   5.599
 7268SOL     OW22702   4.111   4.723   3.069
 7268SOL    HW122703   4.171   4.800   3.088
 7268SOL    HW222704   4.166   4.641   3.051
 7269SOL     OW22705   6.883   6.413   0.754
 7269SOL    HW122706   6.966   6.399   0.808
 7269SOL    HW222707   6.807   6.363   0.796
 7270SOL     OW22708   1.099   2.677   4.378
 7270SOL    HW122709   1.196   2.662   4.395
 7270SOL    HW222710   1.069   2.760   4.425
 7271SOL     OW22711   0.354   4.844   4.201
 7271SOL    HW122712   0.336   4.882   4.292
 7271SOL    HW222713   0.268   4.835   4.151
 7272SOL     OW22714   5.762   4.594   2.162
 7272SOL    HW122715   5.670   4.557   2.167
 7272SOL    HW222716   5.791   4.601   2.066
 7273SOL     OW22717   5.537   4.729   2.384
 7273SOL    HW122718   5.468   4.658   2.374
 7273SOL    HW222719   5.591   4.712   2.466
 7274SOL     OW22720   0.808   6.542   5.956
 7274SOL    HW122721   0.875   6.532   6.029
 7274SOL    HW222722   0.723   6.495   5.981
 7275SOL     OW22723   6.932   1.110   1.976
 7275SOL    HW122724   6.896   1.019   1.995
 7275SOL    HW222725   6.930   1.127   1.877
 7276SOL     OW22726   3.191   1.444   3.947
 7276SOL    HW122727   3.209   1.352   3.981
 7276SOL    HW222728   3.260   1.507   3.983
 7277SOL     OW22729   5.612   1.248   4.634
 7277SOL    HW122730   5.597   1.191   4.553
 7277SOL    HW222731   5.568   1.207   4.713
 7278SOL     OW22732   3.210   1.960   3.027
 7278SOL    HW122733   3.168   2.049   3.042
 7278SOL    HW222734   3.307   1.972   3.005
 7279SOL     OW22735   4.251   3.300   6.571
 7279SOL    HW122736   4.290   3.346   6.492
 7279SOL    HW222737   4.256   3.201   6.559
 7280SOL     OW22738   6.683   2.390   4.936
 7280SOL    HW122739   6.632   2.455   4.880
 7280SOL    HW222740   6.643   2.299   4.926
 7281SOL     OW22741   2.558   0.175   0.221
 7281SOL    HW122742   2.543   0.265   0.180
 7281SOL    HW222743   2.564   0.107   0.148
 7282SOL     OW22744   6.588   6.700   0.518
 7282SOL    HW122745   6.513   6.669   0.576
 7282SOL    HW222746   6.595   6.642   0.437
 7283SOL     OW22747   2.354   6.926   1.914
 7283SOL    HW122748   2.369   6.968   1.825
 7283SOL    HW222749   2.431   6.867   1.937
 7284SOL     OW22750   0.229   3.029   4.453
 7284SOL    HW122751   0.233   3.051   4.356
 7284SOL    HW222752   0.320   3.038   4.493
 7285SOL     OW22753   5.278   3.629   1.619
 7285SOL    HW122754   5.334   3.662   1.543
 7285SOL    HW222755   5.223   3.704   1.655
 7286SOL     OW22756   1.033   1.110   0.499
 7286SOL    HW122757   1.054   1.014   0.518
 7286SOL    HW222758   1.107   1.150   0.445
 7287SOL     OW22759   6.816   3.306   4.697
 7287SOL    HW122760   6.806   3.306   4.597
 7287SOL    HW222761   6.868   3.226   4.726
 7288SOL     OW22762   1.589   2.802   2.313
 7288SOL    HW122763   1.669   2.847   2.354
 7288SOL    HW222764   1.556   2.730   2.374
 7289SOL     OW22765   6.504   2.522   2.406
 7289SOL    HW122766   6.428   2.536   2.342
 7289SOL    HW222767   6.468   2.489   2.493
 7290SOL     OW22768   3.152   1.045   5.558
 7290SOL    HW122769   3.239   1.004   5.582
 7290SOL    HW222770   3.094   1.051   5.639
 7291SOL     OW22771   3.126   6.784   0.658
 7291SOL    HW122772   3.170   6.752   0.742
 7291SOL    HW222773   3.179   6.753   0.578
 7292SOL     OW22774   2.323   6.732   3.237
 7292SOL    HW122775   2.371   6.813   3.271
 7292SOL    HW222776   2.238   6.760   3.193
 7293SOL     OW22777   1.619   1.197   5.968
 7293SOL    HW122778   1.628   1.142   5.884
 7293SOL    HW222779   1.557   1.151   6.031
 7294SOL     OW22780   2.830   4.462   0.949
 7294SOL    HW122781   2.792   4.438   0.860
 7294SOL    HW222782   2.835   4.561   0.958
 7295SOL     OW22783   6.783   4.305   1.436
 7295SOL    HW122784   6.882   4.308   1.421
 7295SOL    HW222785   6.762   4.243   1.511
 7296SOL     OW22786   4.300   5.295   2.714
 7296SOL    HW122787   4.282   5.391   2.738
 7296SOL    HW222788   4.303   5.285   2.614
 7297SOL     OW22789   2.424   6.774   2.728
 7297SOL    HW122790   2.398   6.683   2.759
 7297SOL    HW222791   2.374   6.842   2.782
 7298SOL     OW22792   5.237   5.547   0.002
 7298SOL    HW122793   5.269   5.640   7.006
 7298SOL    HW222794   5.155   5.551   0.060
 7299SOL     OW22795   0.630   2.012   1.162
 7299SOL    HW122796   0.636   1.977   1.068
 7299SOL    HW222797   0.666   1.943   1.225
 7300SOL     OW22798   0.944   5.363   1.794
 7300SOL    HW122799   0.914   5.268   1.785
 7300SOL    HW222800   1.033   5.366   1.840
 7301SOL     OW22801   7.019   1.125   5.745
 7301SOL    HW122802   6.999   1.028   5.732
 7301SOL    HW222803   0.002   1.170   5.656
 7302SOL     OW22804   6.673   1.790   4.868
 7302SOL    HW122805   6.716   1.875   4.899
 7302SOL    HW222806   6.593   1.771   4.924
 7303SOL     OW22807   3.338   1.150   6.984
 7303SOL    HW122808   3.297   1.067   6.946
 7303SOL    HW222809   3.430   1.129   7.018
 7304SOL     OW22810   2.060   5.408   1.878
 7304SOL    HW122811   2.048   5.506   1.889
 7304SOL    HW222812   1.982   5.360   1.917
 7305SOL     OW22813   5.704   2.226   1.442
 7305SOL    HW122814   5.744   2.317   1.434
 7305SOL    HW222815   5.694   2.202   1.539
 7306SOL     OW22816   3.711   1.675   1.800
 7306SOL    HW122817   3.702   1.772   1.779
 7306SOL    HW222818   3.793   1.660   1.856
 7307SOL     OW22819   4.201   6.751   2.149
 7307SOL    HW122820   4.126   6.789   2.095
 7307SOL    HW222821   4.278   6.815   2.149
 7308SOL     OW22822   0.114   1.336   3.098
 7308SOL    HW122823   0.096   1.265   3.166
 7308SOL    HW222824   0.207   1.326   3.064
 7309SOL     OW22825   2.235   6.286   2.131
 7309SOL    HW122826   2.254   6.234   2.047
 7309SOL    HW222827   2.166   6.355   2.112
 7310SOL     OW22828   1.604   3.590   5.987
 7310SOL    HW122829   1.515   3.636   5.994
 7310SOL    HW222830   1.660   3.638   5.918
 7311SOL     OW22831   0.887   0.371   0.180
 7311SOL    HW122832   0.789   0.353   0.191
 7311SOL    HW222833   0.917   0.336   0.091
 7312SOL     OW22834   0.799   1.433   4.927
 7312SOL    HW122835   0.830   1.507   4.986
 7312SOL    HW222836   0.799   1.464   4.832
 7313SOL     OW22837   2.577   1.605   0.760
 7313SOL    HW122838   2.603   1.518   0.802
 7313SOL    HW222839   2.657   1.648   0.720
 7314SOL     OW22840   6.762   3.646   6.562
 7314SOL    HW122841   6.716   3.726   6.601
 7314SOL    HW222842   6.711   3.563   6.584
 7315SOL     OW22843   5.860   5.344   2.244
 7315SOL    HW122844   5.942   5.362   2.189
 7315SOL    HW222845   5.842   5.246   2.246
 7316SOL     OW22846   3.435   2.018   6.599
 7316SOL    HW122847   3.368   1.990   6.531
 7316SOL    HW222848   3.407   1.985   6.690
 7317SOL     OW22849   3.749   1.416   2.298
 7317SOL    HW122850   3.703   1.347   2.354
 7317SOL    HW222851   3.702   1.504   2.309
 7318SOL     OW22852   3.329   6.526   2.470
 7318SOL    HW122853   3.373   6.532   2.559
 7318SOL    HW222854   3.352   6.439   2.426
 7319SOL     OW22855   6.027   3.556   6.285
 7319SOL    HW122856   6.003   3.601   6.199
 7319SOL    HW222857   5.955   3.572   6.353
 7320SOL     OW22858   0.393   3.420   0.431
 7320SOL    HW122859   0.429   3.495   0.487
 7320SOL    HW222860   0.457   3.399   0.358
 7321SOL     OW22861   1.792   6.601   6.199
 7321SOL    HW122862   1.852   6.656   6.141
 7321SOL    HW222863   1.697   6.623   6.179
 7322SOL     OW22864   7.022   3.205   3.099
 7322SOL    HW122865   0.097   3.189   3.082
 7322SOL    HW222866   7.000   3.300   3.078
 7323SOL     OW22867   2.580   1.990   1.083
 7323SOL    HW122868   2.536   2.013   0.996
 7323SOL    HW222869   2.637   2.067   1.113
 7324SOL     OW22870   5.915   4.167   2.512
 7324SOL    HW122871   5.867   4.081   2.496
 7324SOL    HW222872   5.874   4.214   2.591
 7325SOL     OW22873   2.651   0.345   5.524
 7325SOL    HW122874   2.556   0.313   5.525
 7325SOL    HW222875   2.662   0.417   5.456
 7326SOL     OW22876   3.947   0.819   6.367
 7326SOL    HW122877   4.028   0.859   6.324
 7326SOL    HW222878   3.890   0.892   6.404
 7327SOL     OW22879   5.735   3.589   4.124
 7327SOL    HW122880   5.662   3.622   4.065
 7327SOL    HW222881   5.710   3.501   4.164
 7328SOL     OW22882   4.365   6.429   6.240
 7328SOL    HW122883   4.381   6.394   6.148
 7328SOL    HW222884   4.367   6.354   6.305
 7329SOL     OW22885   0.828   2.782   6.983
 7329SOL    HW122886   0.823   2.741   6.892
 7329SOL    HW222887   0.819   2.710   0.030
 7330SOL     OW22888   3.098   2.786   1.299
 7330SOL    HW122889   3.067   2.742   1.214
 7330SOL    HW222890   3.070   2.730   1.377
 7331SOL     OW22891   4.952   6.813   1.972
 7331SOL    HW122892   4.912   6.895   1.931
 7331SOL    HW222893   5.048   6.807   1.946
 7332SOL     OW22894   4.083   4.315   6.870
 7332SOL    HW122895   4.141   4.262   6.809
 7332SOL    HW222896   4.034   4.254   6.931
 7333SOL     OW22897   6.082   3.267   2.991
 7333SOL    HW122898   6.048   3.353   3.030
 7333SOL    HW222899   6.139   3.220   3.058
 7334SOL     OW22900   2.848   5.367   5.760
 7334SOL    HW122901   2.771   5.373   5.824
 7334SOL    HW222902   2.934   5.372   5.810
 7335SOL     OW22903   0.466   3.222   3.187
 7335SOL    HW122904   0.414   3.289   3.240
 7335SOL    HW222905   0.553   3.263   3.158
 7336SOL     OW22906   2.185   6.244   1.235
 7336SOL    HW122907   2.251   6.300   1.286
 7336SOL    HW222908   2.213   6.149   1.238
 7337SOL     OW22909   2.624   2.860   1.286
 7337SOL    HW122910   2.546   2.859   1.225
 7337SOL    HW222911   2.617   2.939   1.348
 7338SOL     OW22912   6.220   2.126   1.843
 7338SOL    HW122913   6.146   2.096   1.783
 7338SOL    HW222914   6.303   2.139   1.790
 7339SOL     OW22915   6.947   6.409   5.912
 7339SOL    HW122916   6.994   6.431   5.827
 7339SOL    HW222917   6.932   6.493   5.964
 7340SOL     OW22918   4.358   1.639   0.020
 7340SOL    HW122919   4.325   1.545   0.014
 7340SOL    HW222920   4.344   1.685   6.954
 7341SOL     OW22921   1.212   5.136   4.833
 7341SOL    HW122922   1.205   5.172   4.926
 7341SOL    HW222923   1.159   5.195   4.771
 7342SOL     OW22924   6.371   0.157   0.591
 7342SOL    HW122925   6.352   0.067   0.631
 7342SOL    HW222926   6.293   0.217   0.607
 7343SOL     OW22927   5.522   3.000   2.349
 7343SOL    HW122928   5.541   2.971   2.442
 7343SOL    HW222929   5.512   2.920   2.290
 7344SOL     OW22930   1.642   0.178   6.644
 7344SOL    HW122931   1.675   0.159   6.737
 7344SOL    HW222932   1.569   0.246   6.648
 7345SOL     OW22933   4.439   5.361   5.676
 7345SOL    HW122934   4.474   5.447   5.713
 7345SOL    HW222935   4.506   5.321   5.614
 7346SOL     OW22936   3.940   3.861   0.739
 7346SOL    HW122937   3.894   3.785   0.693
 7346SOL    HW222938   3.903   3.947   0.705
 7347SOL     OW22939   6.655   2.480   1.607
 7347SOL    HW122940   6.741   2.445   1.571
 7347SOL    HW222941   6.632   2.565   1.560
 7348SOL     OW22942   1.488   3.524   3.709
 7348SOL    HW122943   1.554   3.559   3.776
 7348SOL    HW222944   1.472   3.426   3.725
 7349SOL     OW22945   3.567   1.825   1.490
 7349SOL    HW122946   3.472   1.846   1.511
 7349SOL    HW222947   3.572   1.742   1.435
 7350SOL     OW22948   0.805   3.251   3.945
 7350SOL    HW122949   0.852   3.172   3.985
 7350SOL    HW222950   0.710   3.252   3.973
 7351SOL     OW22951   4.551   4.898   6.420
 7351SOL    HW122952   4.614   4.893   6.497
 7351SOL    HW222953   4.484   4.824   6.427
 7352SOL     OW22954   1.610   2.499   3.902
 7352SOL    HW122955   1.639   2.450   3.985
 7352SOL    HW222956   1.542   2.445   3.853
 7353SOL     OW22957   0.852   0.875   5.380
 7353SOL    HW122958   0.923   0.817   5.340
 7353SOL    HW222959   0.813   0.934   5.310
 7354SOL     OW22960   0.415   0.931   6.288
 7354SOL    HW122961   0.446   1.020   6.322
 7354SOL    HW222962   0.491   0.883   6.245
 7355SOL     OW22963   1.763   6.618   6.917
 7355SOL    HW122964   1.859   6.598   6.937
 7355SOL    HW222965   1.706   6.587   6.993
 7356SOL     OW22966   5.385   2.660   6.107
 7356SOL    HW122967   5.433   2.573   6.096
 7356SOL    HW222968   5.332   2.680   6.025
 7357SOL     OW22969   4.428   0.882   1.135
 7357SOL    HW122970   4.485   0.927   1.204
 7357SOL    HW222971   4.354   0.833   1.180
 7358SOL     OW22972   1.972   2.073   2.301
 7358SOL    HW122973   1.965   2.101   2.205
 7358SOL    HW222974   1.965   2.152   2.361
 7359SOL     OW22975   3.474   1.884   1.152
 7359SOL    HW122976   3.487   1.896   1.053
 7359SOL    HW222977   3.537   1.944   1.201
 7360SOL     OW22978   2.759   1.922   5.541
 7360SOL    HW122979   2.794   1.990   5.477
 7360SOL    HW222980   2.814   1.839   5.535
 7361SOL     OW22981   4.595   6.511   1.780
 7361SOL    HW122982   4.500   6.545   1.781
 7361SOL    HW222983   4.650   6.570   1.721
 7362SOL     OW22984   0.408   6.510   4.982
 7362SOL    HW122985   0.344   6.457   4.925
 7362SOL    HW222986   0.391   6.607   4.970
 7363SOL     OW22987   4.185   1.737   0.998
 7363SOL    HW122988   4.198   1.659   1.059
 7363SOL    HW222989   4.246   1.728   0.919
 7364SOL     OW22990   3.698   0.148   1.138
 7364SOL    HW122991   3.711   0.078   1.208
 7364SOL    HW222992   3.725   0.112   1.049
 7365SOL     OW22993   1.522   5.917   1.941
 7365SOL    HW122994   1.523   5.979   1.863
 7365SOL    HW222995   1.562   5.964   2.021
 7366SOL     OW22996   1.788   5.798   0.244
 7366SOL    HW122997   1.825   5.709   0.270
 7366SOL    HW222998   1.709   5.819   0.301
 7367SOL     OW22999   4.180   3.689   1.522
 7367SOL    HW123000   4.091   3.729   1.544
 7367SOL    HW223001   4.252   3.751   1.552
 7368SOL     OW23002   3.624   2.886   4.132
 7368SOL    HW123003   3.525   2.870   4.133
 7368SOL    HW223004   3.657   2.897   4.226
 7369SOL     OW23005   5.247   3.388   0.780
 7369SOL    HW123006   5.264   3.328   0.858
 7369SOL    HW223007   5.251   3.334   0.695
 7370SOL     OW23008   2.004   0.989   5.838
 7370SOL    HW123009   2.069   1.065   5.838
 7370SOL    HW223010   1.984   0.962   5.744
 7371SOL     OW23011   2.849   5.405   3.748
 7371SOL    HW123012   2.907   5.486   3.735
 7371SOL    HW223013   2.803   5.383   3.662
 7372SOL     OW23014   2.742   0.694   5.557
 7372SOL    HW123015   2.786   0.781   5.578
 7372SOL    HW223016   2.644   0.701   5.578
 7373SOL     OW23017   4.905   1.274   3.645
 7373SOL    HW123018   4.818   1.300   3.686
 7373SOL    HW223019   4.912   1.174   3.643
 7374SOL     OW23020   2.869   2.638   5.329
 7374SOL    HW123021   2.944   2.700   5.307
 7374SOL    HW223022   2.798   2.687   5.379
 7375SOL     OW23023   2.025   2.070   3.663
 7375SOL    HW123024   2.051   2.163   3.689
 7375SOL    HW223025   1.926   2.063   3.657
 7376SOL     OW23026   3.912   1.894   0.456
 7376SOL    HW123027   3.832   1.845   0.422
 7376SOL    HW223028   3.884   1.962   0.523
 7377SOL     OW23029   5.064   6.034   1.910
 7377SOL    HW123030   4.974   6.027   1.953
 7377SOL    HW223031   5.080   6.129   1.884
 7378SOL     OW23032   0.356   2.255   4.494
 7378SOL    HW123033   0.445   2.231   4.455
 7378SOL    HW223034   0.284   2.212   4.441
 7379SOL     OW23035   4.216   2.089   3.434
 7379SOL    HW123036   4.296   2.038   3.400
 7379SOL    HW223037   4.160   2.117   3.356
 7380SOL     OW23038   6.810   3.406   5.407
 7380SOL    HW123039   6.891   3.441   5.454
 7380SOL    HW223040   6.783   3.469   5.335
 7381SOL     OW23041   4.948   3.671   2.291
 7381SOL    HW123042   4.912   3.726   2.215
 7381SOL    HW223043   4.887   3.593   2.308
 7382SOL     OW23044   0.184   5.599   5.667
 7382SOL    HW123045   0.222   5.541   5.595
 7382SOL    HW223046   0.100   5.557   5.702
 7383SOL     OW23047   0.060   6.740   2.531
 7383SOL    HW123048   0.085   6.675   2.603
 7383SOL    HW223049   0.060   6.694   2.443
 7384SOL     OW23050   4.609   0.554   2.304
 7384SOL    HW123051   4.526   0.608   2.316
 7384SOL    HW223052   4.586   0.457   2.307
 7385SOL     OW23053   3.932   6.521   2.072
 7385SOL    HW123054   3.970   6.579   2.144
 7385SOL    HW223055   3.836   6.500   2.094
 7386SOL     OW23056   0.372   2.642   5.177
 7386SOL    HW123057   0.445   2.631   5.246
 7386SOL    HW223058   0.407   2.695   5.100
 7387SOL     OW23059   4.253   7.004   4.604
 7387SOL    HW123060   4.174   6.942   4.610
 7387SOL    HW223061   4.264   0.030   4.691
 7388SOL     OW23062   6.697   5.814   3.725
 7388SOL    HW123063   6.759   5.739   3.706
 7388SOL    HW223064   6.625   5.782   3.787
 7389SOL     OW23065   1.215   5.031   6.727
 7389SOL    HW123066   1.231   4.978   6.810
 7389SOL    HW223067   1.164   5.114   6.749
 7390SOL     OW23068   1.706   1.360   6.575
 7390SOL    HW123069   1.613   1.390   6.596
 7390SOL    HW223070   1.723   1.271   6.618
 7391SOL     OW23071   4.869   4.509   4.760
 7391SOL    HW123072   4.957   4.497   4.806
 7391SOL    HW223073   4.809   4.565   4.818
 7392SOL     OW23074   3.032   5.847   6.185
 7392SOL    HW123075   3.016   5.748   6.195
 7392SOL    HW223076   3.078   5.864   6.098
 7393SOL     OW23077   5.969   5.487   1.586
 7393SOL    HW123078   5.975   5.431   1.503
 7393SOL    HW223079   6.036   5.561   1.581
 7394SOL     OW23080   3.075   2.858   6.390
 7394SOL    HW123081   3.166   2.848   6.350
 7394SOL    HW223082   3.005   2.844   6.320
 7395SOL     OW23083   1.547   1.135   6.918
 7395SOL    HW123084   1.621   1.186   6.963
 7395SOL    HW223085   1.567   1.037   6.924
 7396SOL     OW23086   1.065   0.502   0.351
 7396SOL    HW123087   1.023   0.566   0.416
 7396SOL    HW223088   0.995   0.440   0.316
 7397SOL     OW23089   5.252   5.186   4.795
 7397SOL    HW123090   5.153   5.192   4.805
 7397SOL    HW223091   5.275   5.117   4.726
 7398SOL     OW23092   3.290   4.907   4.146
 7398SOL    HW123093   3.239   4.973   4.092
 7398SOL    HW223094   3.227   4.855   4.205
 7399SOL     OW23095   0.462   3.359   5.614
 7399SOL    HW123096   0.496   3.271   5.648
 7399SOL    HW223097   0.366   3.349   5.588
 7400SOL     OW23098   3.164   3.664   6.619
 7400SOL    HW123099   3.127   3.754   6.595
 7400SOL    HW223100   3.244   3.675   6.678
 7401SOL     OW23101   0.720   1.048   3.551
 7401SOL    HW123102   0.641   1.076   3.604
 7401SOL    HW223103   0.801   1.044   3.611
 7402SOL     OW23104   2.007   5.722   4.657
 7402SOL    HW123105   2.054   5.658   4.718
 7402SOL    HW223106   2.047   5.813   4.668
 7403SOL     OW23107   1.815   3.556   3.118
 7403SOL    HW123108   1.822   3.578   3.215
 7403SOL    HW223109   1.822   3.457   3.106
 7404SOL     OW23110   2.411   6.294   1.395
 7404SOL    HW123111   2.389   6.205   1.435
 7404SOL    HW223112   2.361   6.366   1.444
 7405SOL     OW23113   1.619   5.162   4.524
 7405SOL    HW123114   1.706   5.174   4.475
 7405SOL    HW223115   1.588   5.250   4.560
 7406SOL     OW23116   1.454   3.638   2.744
 7406SOL    HW123117   1.427   3.712   2.806
 7406SOL    HW223118   1.372   3.594   2.706
 7407SOL     OW23119   6.971   5.931   5.054
 7407SOL    HW123120   0.002   5.868   5.110
 7407SOL    HW223121   6.986   5.910   4.957
 7408SOL     OW23122   1.042   4.004   5.433
 7408SOL    HW123123   1.098   4.051   5.501
 7408SOL    HW223124   0.956   4.054   5.420
 7409SOL     OW23125   0.246   0.766   4.636
 7409SOL    HW123126   0.306   0.694   4.599
 7409SOL    HW223127   0.185   0.798   4.564
 7410SOL     OW23128   0.120   4.420   1.101
 7410SOL    HW123129   0.036   4.470   1.118
 7410SOL    HW223130   0.198   4.482   1.111
 7411SOL     OW23131   3.214   6.457   4.246
 7411SOL    HW123132   3.187   6.539   4.196
 7411SOL    HW223133   3.314   6.453   4.251
 7412SOL     OW23134   4.284   1.026   1.932
 7412SOL    HW123135   4.297   0.964   2.009
 7412SOL    HW223136   4.352   1.100   1.937
 7413SOL     OW23137   6.394   5.579   4.552
 7413SOL    HW123138   6.330   5.583   4.629
 7413SOL    HW223139   6.360   5.515   4.483
 7414SOL     OW23140   0.350   0.288   3.345
 7414SOL    HW123141   0.270   0.336   3.308
 7414SOL    HW223142   0.430   0.347   3.340
 7415SOL     OW23143   0.815   4.102   3.350
 7415SOL    HW123144   0.817   4.023   3.411
 7415SOL    HW223145   0.743   4.165   3.380
 7416SOL     OW23146   2.895   0.411   4.325
 7416SOL    HW123147   2.818   0.364   4.369
 7416SOL    HW223148   2.976   0.404   4.384
 7417SOL     OW23149   1.775   0.343   6.333
 7417SOL    HW123150   1.704   0.305   6.274
 7417SOL    HW223151   1.788   0.282   6.412
 7418SOL     OW23152   3.894   5.245   1.230
 7418SOL    HW123153   3.859   5.156   1.199
 7418SOL    HW223154   3.985   5.259   1.191
 7419SOL     OW23155   6.549   2.567   4.178
 7419SOL    HW123156   6.566   2.657   4.216
 7419SOL    HW223157   6.625   2.505   4.202
 7420SOL     OW23158   6.678   6.537   2.180
 7420SOL    HW123159   6.677   6.466   2.110
 7420SOL    HW223160   6.605   6.520   2.246
 7421SOL     OW23161   3.044   3.342   1.788
 7421SOL    HW123162   3.139   3.332   1.760
 7421SOL    HW223163   3.040   3.377   1.882
 7422SOL     OW23164   0.374   3.935   2.209
 7422SOL    HW123165   0.398   3.926   2.305
 7422SOL    HW223166   0.429   3.871   2.155
 7423SOL     OW23167   6.615   3.798   6.286
 7423SOL    HW123168   6.712   3.782   6.303
 7423SOL    HW223169   6.562   3.767   6.365
 7424SOL     OW23170   6.571   0.869   4.312
 7424SOL    HW123171   6.566   0.771   4.292
 7424SOL    HW223172   6.492   0.916   4.271
 7425SOL     OW23173   4.375   5.814   6.420
 7425SOL    HW123174   4.413   5.891   6.471
 7425SOL    HW223175   4.279   5.833   6.398
 7426SOL     OW23176   0.801   2.234   6.546
 7426SOL    HW123177   0.743   2.264   6.470
 7426SOL    HW223178   0.866   2.307   6.569
 7427SOL     OW23179   3.328   5.921   4.696
 7427SOL    HW123180   3.395   5.888   4.630
 7427SOL    HW223181   3.282   5.844   4.740
 7428SOL     OW23182   3.691   1.688   5.261
 7428SOL    HW123183   3.772   1.678   5.319
 7428SOL    HW223184   3.717   1.732   5.175
 7429SOL     OW23185   5.673   0.603   3.317
 7429SOL    HW123186   5.675   0.702   3.330
 7429SOL    HW223187   5.683   0.582   3.219
 7430SOL     OW23188   0.045   4.483   6.664
 7430SOL    HW123189   0.136   4.515   6.692
 7430SOL    HW223190   0.017   4.408   6.724
 7431SOL     OW23191   0.664   3.971   1.944
 7431SOL    HW123192   0.668   4.063   1.983
 7431SOL    HW223193   0.652   3.904   2.017
 7432SOL     OW23194   0.143   6.873   3.157
 7432SOL    HW123195   0.128   6.883   3.058
 7432SOL    HW223196   0.123   6.960   3.202
 7433SOL     OW23197   6.661   5.522   0.729
 7433SOL    HW123198   6.659   5.612   0.772
 7433SOL    HW223199   6.750   5.479   0.746
 7434SOL     OW23200   4.307   1.144   6.512
 7434SOL    HW123201   4.253   1.099   6.440
 7434SOL    HW223202   4.375   1.204   6.470
 7435SOL     OW23203   3.528   5.831   6.671
 7435SOL    HW123204   3.534   5.732   6.654
 7435SOL    HW223205   3.444   5.866   6.631
 7436SOL     OW23206   5.435   3.232   6.192
 7436SOL    HW123207   5.498   3.246   6.115
 7436SOL    HW223208   5.458   3.147   6.239
 7437SOL     OW23209   0.092   5.630   6.788
 7437SOL    HW123210   0.124   5.696   6.856
 7437SOL    HW223211   7.022   5.600   6.811
 7438SOL     OW23212   1.004   5.213   0.696
 7438SOL    HW123213   0.954   5.243   0.615
 7438SOL    HW223214   1.091   5.263   0.702
 7439SOL     OW23215   1.656   6.475   4.595
 7439SOL    HW123216   1.750   6.507   4.586
 7439SOL    HW223217   1.597   6.526   4.532
 7440SOL     OW23218   1.043   3.236   4.355
 7440SOL    HW123219   1.097   3.180   4.292
 7440SOL    HW223220   1.029   3.326   4.315
 7441SOL     OW23221   5.487   6.022   4.675
 7441SOL    HW123222   5.450   6.070   4.754
 7441SOL    HW223223   5.568   5.970   4.703
 7442SOL     OW23224   1.225   1.239   6.222
 7442SOL    HW123225   1.277   1.293   6.156
 7442SOL    HW223226   1.149   1.194   6.174
 7443SOL     OW23227   0.031   1.341   1.497
 7443SOL    HW123228   0.024   1.302   1.589
 7443SOL    HW223229   7.018   1.434   1.497
 7444SOL     OW23230   6.503   3.543   5.199
 7444SOL    HW123231   6.520   3.641   5.185
 7444SOL    HW223232   6.413   3.530   5.239
 7445SOL     OW23233   3.319   0.766   1.659
 7445SOL    HW123234   3.412   0.802   1.672
 7445SOL    HW223235   3.268   0.827   1.598
 7446SOL     OW23236   5.673   4.268   0.318
 7446SOL    HW123237   5.684   4.250   0.416
 7446SOL    HW223238   5.582   4.304   0.301
 7447SOL     OW23239   1.570   3.372   5.694
 7447SOL    HW123240   1.611   3.459   5.666
 7447SOL    HW223241   1.621   3.335   5.772
 7448SOL     OW23242   5.648   6.589   5.321
 7448SOL    HW123243   5.729   6.640   5.349
 7448SOL    HW223244   5.581   6.651   5.282
 7449SOL     OW23245   5.916   2.464   2.148
 7449SOL    HW123246   6.014   2.450   2.163
 7449SOL    HW223247   5.873   2.376   2.128
 7450SOL     OW23248   5.248   2.048   4.523
 7450SOL    HW123249   5.347   2.049   4.540
 7450SOL    HW223250   5.221   2.136   4.484
 7451SOL     OW23251   2.254   0.642   2.840
 7451SOL    HW123252   2.155   0.636   2.851
 7451SOL    HW223253   2.299   0.608   2.922
 7452SOL     OW23254   1.003   6.212   4.994
 7452SOL    HW123255   0.904   6.206   5.008
 7452SOL    HW223256   1.042   6.120   4.997
 7453SOL     OW23257   4.956   5.853   6.333
 7453SOL    HW123258   5.051   5.875   6.311
 7453SOL    HW223259   4.945   5.754   6.340
 7454SOL     OW23260   0.798   2.615   2.043
 7454SOL    HW123261   0.881   2.671   2.044
 7454SOL    HW223262   0.759   2.612   2.136
 7455SOL     OW23263   6.936   1.650   1.830
 7455SOL    HW123264   6.876   1.581   1.789
 7455SOL    HW223265   6.976   1.707   1.758
 7456SOL     OW23266   0.747   2.143   4.218
 7456SOL    HW123267   0.786   2.224   4.174
 7456SOL    HW223268   0.820   2.081   4.246
 7457SOL     OW23269   3.760   0.494   5.740
 7457SOL    HW123270   3.719   0.457   5.657
 7457SOL    HW223271   3.701   0.475   5.818
 7458SOL     OW23272   1.892   0.532   5.962
 7458SOL    HW123273   1.948   0.614   5.955
 7458SOL    HW223274   1.949   0.451   5.945
 7459SOL     OW23275   4.596   0.415   0.579
 7459SOL    HW123276   4.565   0.377   0.492
 7459SOL    HW223277   4.645   0.500   0.564
 7460SOL     OW23278   1.631   4.762   1.238
 7460SOL    HW123279   1.591   4.754   1.329
 7460SOL    HW223280   1.562   4.742   1.169
 7461SOL     OW23281   6.123   1.473   6.287
 7461SOL    HW123282   6.040   1.419   6.273
 7461SOL    HW223283   6.195   1.413   6.324
 7462SOL     OW23284   2.094   3.110   2.344
 7462SOL    HW123285   2.148   3.026   2.348
 7462SOL    HW223286   2.039   3.118   2.428
 7463SOL     OW23287   3.362   4.336   1.302
 7463SOL    HW123288   3.370   4.246   1.345
 7463SOL    HW223289   3.404   4.404   1.362
 7464SOL     OW23290   3.302   6.957   6.451
 7464SOL    HW123291   3.398   6.934   6.465
 7464SOL    HW223292   3.266   6.905   6.374
 7465SOL     OW23293   1.688   6.725   0.394
 7465SOL    HW123294   1.730   6.811   0.423
 7465SOL    HW223295   1.603   6.710   0.445
 7466SOL     OW23296   0.638   0.204   6.611
 7466SOL    HW123297   0.687   0.290   6.597
 7466SOL    HW223298   0.671   0.136   6.545
 7467SOL     OW23299   6.950   1.343   0.856
 7467SOL    HW123300   6.889   1.273   0.818
 7467SOL    HW223301   6.906   1.385   0.936
 7468SOL     OW23302   5.967   3.054   2.902
 7468SOL    HW123303   5.908   3.084   2.827
 7468SOL    HW223304   6.011   3.134   2.943
 7469SOL     OW23305   0.172   6.992   0.544
 7469SOL    HW123306   0.248   6.933   0.573
 7469SOL    HW223307   0.101   6.991   0.614
 7470SOL     OW23308   0.500   3.062   4.523
 7470SOL    HW123309   0.515   2.965   4.543
 7470SOL    HW223310   0.569   3.117   4.571
 7471SOL     OW23311   5.820   6.281   5.633
 7471SOL    HW123312   5.775   6.254   5.548
 7471SOL    HW223313   5.812   6.208   5.700
 7472SOL     OW23314   5.902   6.410   4.249
 7472SOL    HW123315   5.863   6.346   4.183
 7472SOL    HW223316   5.867   6.502   4.232
 7473SOL     OW23317   0.696   4.322   2.898
 7473SOL    HW123318   0.632   4.256   2.938
 7473SOL    HW223319   0.740   4.283   2.818
 7474SOL     OW23320   2.349   1.691   5.120
 7474SOL    HW123321   2.424   1.681   5.185
 7474SOL    HW223322   2.317   1.600   5.093
 7475SOL     OW23323   3.302   1.696   2.516
 7475SOL    HW123324   3.275   1.770   2.454
 7475SOL    HW223325   3.230   1.683   2.585
 7476SOL     OW23326   3.382   6.043   4.358
 7476SOL    HW123327   3.410   5.952   4.389
 7476SOL    HW223328   3.415   6.112   4.423
 7477SOL     OW23329   6.202   1.142   4.557
 7477SOL    HW123330   6.281   1.201   4.540
 7477SOL    HW223331   6.157   1.169   4.643
 7478SOL     OW23332   4.360   4.708   6.927
 7478SOL    HW123333   4.289   4.727   6.995
 7478SOL    HW223334   4.374   4.788   6.870
 7479SOL     OW23335   4.509   2.565   1.037
 7479SOL    HW123336   4.420   2.531   1.010
 7479SOL    HW223337   4.509   2.665   1.034
 7480SOL     OW23338   6.654   4.168   1.766
 7480SOL    HW123339   6.743   4.124   1.757
 7480SOL    HW223340   6.655   4.229   1.845
 7481SOL     OW23341   5.838   5.081   2.296
 7481SOL    HW123342   5.745   5.111   2.275
 7481SOL    HW223343   5.852   4.989   2.260
 7482SOL     OW23344   5.381   1.631   3.037
 7482SOL    HW123345   5.307   1.564   3.035
 7482SOL    HW223346   5.468   1.586   3.014
 7483SOL     OW23347   4.491   2.365   5.276
 7483SOL    HW123348   4.566   2.314   5.319
 7483SOL    HW223349   4.474   2.326   5.185
 7484SOL     OW23350   0.385   0.087   3.084
 7484SOL    HW123351   0.436   0.155   3.031
 7484SOL    HW223352   0.395   0.108   3.182
 7485SOL     OW23353   3.179   6.368   4.951
 7485SOL    HW123354   3.137   6.281   4.975
 7485SOL    HW223355   3.143   6.400   4.863
 7486SOL     OW23356   2.817   0.399   6.120
 7486SOL    HW123357   2.802   0.463   6.045
 7486SOL    HW223358   2.737   0.339   6.129
 7487SOL     OW23359   2.562   6.394   2.239
 7487SOL    HW123360   2.597   6.316   2.188
 7487SOL    HW223361   2.517   6.458   2.177
 7488SOL     OW23362   1.751   6.882   4.702
 7488SOL    HW123363   1.679   6.832   4.653
 7488SOL    HW223364   1.762   6.842   4.793
 7489SOL     OW23365   5.445   2.243   4.813
 7489SOL    HW123366   5.530   2.206   4.774
 7489SOL    HW223367   5.464   2.288   4.900
 7490SOL     OW23368   0.923   1.664   1.132
 7490SOL    HW123369   0.898   1.574   1.097
 7490SOL    HW223370   0.919   1.731   1.057
 7491SOL     OW23371   6.906   3.839   0.196
 7491SOL    HW123372   6.808   3.859   0.189
 7491SOL    HW223373   6.943   3.818   0.105
 7492SOL     OW23374   2.887   1.448   4.525
 7492SOL    HW123375   2.790   1.471   4.537
 7492SOL    HW223376   2.943   1.505   4.584
 7493SOL     OW23377   0.038   4.337   6.975
 7493SOL    HW123378   0.052   4.436   6.964
 7493SOL    HW223379   6.973   4.321   7.019
 7494SOL     OW23380   5.975   0.718   2.065
 7494SOL    HW123381   6.008   0.723   2.159
 7494SOL    HW223382   5.887   0.766   2.059
 7495SOL     OW23383   2.392   0.980   1.014
 7495SOL    HW123384   2.484   1.020   1.020
 7495SOL    HW223385   2.400   0.885   0.981
 7496SOL     OW23386   0.668   3.556   6.478
 7496SOL    HW123387   0.594   3.623   6.484
 7496SOL    HW223388   0.656   3.487   6.550
 7497SOL     OW23389   2.947   4.314   0.596
 7497SOL    HW123390   2.941   4.248   0.520
 7497SOL    HW223391   2.862   4.366   0.601
 7498SOL     OW23392   2.241   1.453   4.995
 7498SOL    HW123393   2.175   1.519   4.957
 7498SOL    HW223394   2.256   1.380   4.929
 7499SOL     OW23395   5.268   0.753   3.352
 7499SOL    HW123396   5.179   0.751   3.398
 7499SOL    HW223397   5.327   0.682   3.391
 7500SOL     OW23398   3.902   5.897   4.052
 7500SOL    HW123399   3.978   5.929   3.995
 7500SOL    HW223400   3.845   5.975   4.079
 7501SOL     OW23401   6.753   4.390   4.161
 7501SOL    HW123402   6.658   4.358   4.170
 7501SOL    HW223403   6.759   4.483   4.195
 7502SOL     OW23404   1.192   0.355   5.184
 7502SOL    HW123405   1.269   0.388   5.238
 7502SOL    HW223406   1.206   0.259   5.161
 7503SOL     OW23407   2.075   1.150   0.446
 7503SOL    HW123408   2.123   1.237   0.434
 7503SOL    HW223409   2.049   1.140   0.542
 7504SOL     OW23410   2.426   0.255   3.875
 7504SOL    HW123411   2.474   0.269   3.788
 7504SOL    HW223412   2.418   0.157   3.893
 7505SOL     OW23413   2.084   1.445   5.563
 7505SOL    HW123414   2.164   1.417   5.511
 7505SOL    HW223415   2.031   1.365   5.589
 7506SOL     OW23416   4.556   6.375   2.864
 7506SOL    HW123417   4.649   6.404   2.885
 7506SOL    HW223418   4.541   6.283   2.899
 7507SOL     OW23419   0.841   0.472   1.378
 7507SOL    HW123420   0.790   0.414   1.443
 7507SOL    HW223421   0.828   0.568   1.403
 7508SOL     OW23422   6.842   6.681   2.303
 7508SOL    HW123423   6.814   6.774   2.324
 7508SOL    HW223424   6.775   6.639   2.242
 7509SOL     OW23425   5.732   4.134   1.200
 7509SOL    HW123426   5.654   4.183   1.239
 7509SOL    HW223427   5.732   4.144   1.101
 7510SOL     OW23428   2.851   4.675   5.388
 7510SOL    HW123429   2.860   4.622   5.303
 7510SOL    HW223430   2.836   4.771   5.365
 7511SOL     OW23431   1.579   6.982   3.497
 7511SOL    HW123432   1.599   7.008   3.592
 7511SOL    HW223433   1.480   6.977   3.484
 7512SOL     OW23434   3.708   4.618   0.152
 7512SOL    HW123435   3.701   4.527   0.193
 7512SOL    HW223436   3.762   4.613   0.068
 7513SOL     OW23437   2.065   2.169   1.251
 7513SOL    HW123438   2.000   2.093   1.252
 7513SOL    HW223439   2.148   2.141   1.204
 7514SOL     OW23440   2.341   5.095   2.189
 7514SOL    HW123441   2.351   5.112   2.090
 7514SOL    HW223442   2.263   5.035   2.204
 7515SOL     OW23443   0.596   5.930   2.233
 7515SOL    HW123444   0.509   5.899   2.195
 7515SOL    HW223445   0.671   5.898   2.175
 7516SOL     OW23446   6.682   6.185   4.263
 7516SOL    HW123447   6.680   6.271   4.313
 7516SOL    HW223448   6.601   6.130   4.287
 7517SOL     OW23449   0.042   3.279   1.235
 7517SOL    HW123450   0.019   3.299   1.139
 7517SOL    HW223451   6.985   3.237   1.279
 7518SOL     OW23452   3.773   5.215   3.364
 7518SOL    HW123453   3.826   5.289   3.324
 7518SOL    HW223454   3.834   5.143   3.396
 7519SOL     OW23455   0.364   6.632   3.857
 7519SOL    HW123456   0.383   6.610   3.761
 7519SOL    HW223457   0.357   6.731   3.868
 7520SOL     OW23458   3.099   0.089   2.140
 7520SOL    HW123459   3.107   0.009   2.200
 7520SOL    HW223460   3.010   0.088   2.095
 7521SOL     OW23461   4.978   4.885   6.535
 7521SOL    HW123462   5.065   4.934   6.545
 7521SOL    HW223463   4.987   4.816   6.463
 7522SOL     OW23464   2.190   6.626   6.535
 7522SOL    HW123465   2.219   6.715   6.499
 7522SOL    HW223466   2.152   6.571   6.460
 7523SOL     OW23467   5.624   0.287   6.335
 7523SOL    HW123468   5.632   0.195   6.296
 7523SOL    HW223469   5.672   0.289   6.422
 7524SOL     OW23470   1.282   2.204   6.645
 7524SOL    HW123471   1.288   2.128   6.711
 7524SOL    HW223472   1.314   2.288   6.688
 7525SOL     OW23473   2.431   6.897   6.698
 7525SOL    HW123474   2.513   6.952   6.716
 7525SOL    HW223475   2.361   6.918   6.766
 7526SOL     OW23476   3.530   3.008   2.136
 7526SOL    HW123477   3.555   2.970   2.047
 7526SOL    HW223478   3.435   3.039   2.133
 7527SOL     OW23479   3.876   5.583   3.205
 7527SOL    HW123480   3.853   5.546   3.294
 7527SOL    HW223481   3.842   5.523   3.133
 7528SOL     OW23482   4.277   1.743   6.752
 7528SOL    HW123483   4.258   1.659   6.701
 7528SOL    HW223484   4.296   1.817   6.688
 7529SOL     OW23485   5.800   0.548   4.585
 7529SOL    HW123486   5.839   0.552   4.677
 7529SOL    HW223487   5.868   0.577   4.518
 7530SOL     OW23488   0.019   4.022   2.433
 7530SOL    HW123489   0.048   3.939   2.480
 7530SOL    HW223490   6.943   4.017   2.415
 7531SOL     OW23491   4.943   2.203   3.941
 7531SOL    HW123492   4.969   2.295   3.913
 7531SOL    HW223493   4.849   2.184   3.913
 7532SOL     OW23494   5.159   5.354   1.290
 7532SOL    HW123495   5.102   5.327   1.368
 7532SOL    HW223496   5.115   5.326   1.205
 7533SOL     OW23497   2.613   1.329   2.880
 7533SOL    HW123498   2.661   1.416   2.870
 7533SOL    HW223499   2.525   1.335   2.834
 7534SOL     OW23500   3.875   6.765   6.065
 7534SOL    HW123501   3.804   6.771   6.135
 7534SOL    HW223502   3.923   6.853   6.060
 7535SOL     OW23503   3.165   0.732   5.882
 7535SOL    HW123504   3.213   0.782   5.954
 7535SOL    HW223505   3.079   0.779   5.860
 7536SOL     OW23506   5.353   5.338   5.155
 7536SOL    HW123507   5.410   5.366   5.078
 7536SOL    HW223508   5.333   5.417   5.213
 7537SOL     OW23509   2.518   5.364   3.724
 7537SOL    HW123510   2.591   5.334   3.662
 7537SOL    HW223511   2.557   5.387   3.813
 7538SOL     OW23512   3.342   3.309   2.054
 7538SOL    HW123513   3.417   3.354   2.102
 7538SOL    HW223514   3.310   3.231   2.107
 7539SOL     OW23515   2.391   2.382   4.144
 7539SOL    HW123516   2.402   2.384   4.044
 7539SOL    HW223517   2.452   2.314   4.183
 7540SOL     OW23518   2.950   6.994   5.837
 7540SOL    HW123519   2.966   0.037   5.910
 7540SOL    HW223520   3.026   6.997   5.772
 7541SOL     OW23521   0.303   3.933   4.492
 7541SOL    HW123522   0.281   3.836   4.497
 7541SOL    HW223523   0.224   3.987   4.522
 7542SOL     OW23524   0.995   5.205   6.619
 7542SOL    HW123525   1.007   5.202   6.719
 7542SOL    HW223526   1.029   5.292   6.584
 7543SOL     OW23527   4.328   2.051   1.239
 7543SOL    HW123528   4.267   1.973   1.257
 7543SOL    HW223529   4.328   2.072   1.141
 7544SOL     OW23530   0.270   2.713   3.321
 7544SOL    HW123531   0.341   2.679   3.383
 7544SOL    HW223532   0.298   2.799   3.281
 7545SOL     OW23533   6.124   6.308   2.112
 7545SOL    HW123534   6.110   6.236   2.179
 7545SOL    HW223535   6.222   6.325   2.100
 7546SOL     OW23536   3.513   0.424   1.867
 7546SOL    HW123537   3.522   0.498   1.934
 7546SOL    HW223538   3.426   0.433   1.818
 7547SOL     OW23539   4.282   0.274   0.305
 7547SOL    HW123540   4.200   0.318   0.268
 7547SOL    HW223541   4.255   0.197   0.363
 7548SOL     OW23542   3.720   2.030   0.103
 7548SOL    HW123543   3.766   1.991   0.182
 7548SOL    HW223544   3.715   2.130   0.112
 7549SOL     OW23545   5.567   1.528   0.933
 7549SOL    HW123546   5.592   1.580   1.015
 7549SOL    HW223547   5.485   1.568   0.891
 7550SOL     OW23548   2.392   4.606   2.016
 7550SOL    HW123549   2.408   4.588   2.113
 7550SOL    HW223550   2.390   4.704   2.000
 7551SOL     OW23551   5.093   3.677   6.648
 7551SOL    HW123552   5.138   3.759   6.686
 7551SOL    HW223553   4.998   3.674   6.678
 7552SOL     OW23554   1.658   5.825   3.109
 7552SOL    HW123555   1.587   5.895   3.116
 7552SOL    HW223556   1.713   5.842   3.027
 7553SOL     OW23557   4.669   5.269   5.578
 7553SOL    HW123558   4.740   5.258   5.508
 7553SOL    HW223559   4.613   5.187   5.582
 7554SOL     OW23560   4.772   0.304   1.247
 7554SOL    HW123561   4.771   0.255   1.160
 7554SOL    HW223562   4.867   0.319   1.274
 7555SOL     OW23563   1.770   5.074   5.068
 7555SOL    HW123564   1.699   5.138   5.040
 7555SOL    HW223565   1.729   4.999   5.121
 7556SOL     OW23566   0.441   2.940   5.354
 7556SOL    HW123567   0.442   2.989   5.266
 7556SOL    HW223568   0.437   3.006   5.429
 7557SOL     OW23569   4.957   2.403   6.101
 7557SOL    HW123570   4.871   2.355   6.089
 7557SOL    HW223571   5.009   2.402   6.016
 7558SOL     OW23572   2.071   2.835   3.834
 7558SOL    HW123573   2.164   2.808   3.807
 7558SOL    HW223574   2.009   2.758   3.819
 7559SOL     OW23575   6.282   4.937   7.017
 7559SOL    HW123576   6.325   5.009   6.962
 7559SOL    HW223577   6.302   4.848   6.976
 7560SOL     OW23578   4.562   6.668   0.339
 7560SOL    HW123579   4.547   6.682   0.241
 7560SOL    HW223580   4.660   6.676   0.360
 7561SOL     OW23581   0.930   3.022   0.023
 7561SOL    HW123582   0.891   2.930   0.015
 7561SOL    HW223583   0.950   3.058   6.955
 7562SOL     OW23584   5.289   5.933   5.187
 7562SOL    HW123585   5.277   5.954   5.284
 7562SOL    HW223586   5.214   5.974   5.135
 7563SOL     OW23587   2.633   6.090   0.851
 7563SOL    HW123588   2.708   6.024   0.848
 7563SOL    HW223589   2.588   6.093   0.762
 7564SOL     OW23590   5.278   1.259   2.738
 7564SOL    HW123591   5.353   1.272   2.803
 7564SOL    HW223592   5.223   1.343   2.734
 7565SOL     OW23593   5.015   4.298   6.894
 7565SOL    HW123594   4.938   4.289   6.958
 7565SOL    HW223595   5.013   4.389   6.853
 7566SOL     OW23596   6.827   5.585   3.689
 7566SOL    HW123597   6.924   5.582   3.666
 7566SOL    HW223598   6.806   5.515   3.758
 7567SOL     OW23599   1.669   2.714   5.070
 7567SOL    HW123600   1.642   2.755   5.157
 7567SOL    HW223601   1.725   2.779   5.018
 7568SOL     OW23602   5.644   5.919   2.961
 7568SOL    HW123603   5.551   5.897   2.989
 7568SOL    HW223604   5.651   5.914   2.861
 7569SOL     OW23605   4.378   4.692   6.478
 7569SOL    HW123606   4.297   4.751   6.479
 7569SOL    HW223607   4.387   4.646   6.566
 7570SOL     OW23608   5.444   4.857   5.500
 7570SOL    HW123609   5.433   4.880   5.404
 7570SOL    HW223610   5.425   4.759   5.513
 7571SOL     OW23611   4.662   5.447   2.781
 7571SOL    HW123612   4.733   5.377   2.781
 7571SOL    HW223613   4.647   5.480   2.874
 7572SOL     OW23614   4.410   1.256   3.051
 7572SOL    HW123615   4.314   1.232   3.035
 7572SOL    HW223616   4.424   1.273   3.149
 7573SOL     OW23617   6.396   6.544   4.859
 7573SOL    HW123618   6.326   6.503   4.917
 7573SOL    HW223619   6.395   6.500   4.769
 7574SOL     OW23620   6.872   0.628   4.445
 7574SOL    HW123621   6.830   0.716   4.423
 7574SOL    HW223622   6.815   0.579   4.511
 7575SOL     OW23623   4.027   0.547   5.701
 7575SOL    HW123624   3.928   0.550   5.711
 7575SOL    HW223625   4.066   0.635   5.729
 7576SOL     OW23626   6.399   5.246   0.246
 7576SOL    HW123627   6.468   5.269   0.177
 7576SOL    HW223628   6.319   5.305   0.233
 7577SOL     OW23629   0.180   6.313   6.124
 7577SOL    HW123630   0.202   6.402   6.163
 7577SOL    HW223631   0.255   6.282   6.066
 7578SOL     OW23632   2.899   6.010   2.558
 7578SOL    HW123633   2.830   6.001   2.487
 7578SOL    HW223634   2.988   6.028   2.517
 7579SOL     OW23635   5.501   2.418   2.222
 7579SOL    HW123636   5.561   2.480   2.173
 7579SOL    HW223637   5.405   2.441   2.203
 7580SOL     OW23638   1.007   4.230   4.136
 7580SOL    HW123639   1.057   4.290   4.074
 7580SOL    HW223640   1.005   4.270   4.227
 7581SOL     OW23641   6.357   0.011   1.394
 7581SOL    HW123642   6.360   0.076   1.318
 7581SOL    HW223643   6.365   0.061   1.481
 7582SOL     OW23644   2.766   0.978   0.557
 7582SOL    HW123645   2.760   0.999   0.460
 7582SOL    HW223646   2.856   1.003   0.592
 7583SOL     OW23647   6.445   3.220   1.223
 7583SOL    HW123648   6.532   3.252   1.261
 7583SOL    HW223649   6.445   3.234   1.124
 7584SOL     OW23650   2.548   6.727   0.791
 7584SOL    HW123651   2.548   6.636   0.833
 7584SOL    HW223652   2.468   6.778   0.822
 7585SOL     OW23653   1.870   3.125   6.073
 7585SOL    HW123654   1.930   3.045   6.067
 7585SOL    HW223655   1.879   3.166   6.164
 7586SOL     OW23656   3.645   0.724   3.393
 7586SOL    HW123657   3.741   0.698   3.406
 7586SOL    HW223658   3.606   0.751   3.482
 7587SOL     OW23659   3.045   2.035   6.684
 7587SOL    HW123660   3.106   2.102   6.642
 7587SOL    HW223661   3.037   2.054   6.782
 7588SOL     OW23662   1.471   3.048   2.623
 7588SOL    HW123663   1.534   3.126   2.613
 7588SOL    HW223664   1.423   3.032   2.537
 7589SOL     OW23665   6.776   6.740   1.748
 7589SOL    HW123666   6.813   6.707   1.835
 7589SOL    HW223667   6.849   6.744   1.680
 7590SOL     OW23668   4.123   2.211   6.447
 7590SOL    HW123669   4.129   2.310   6.434
 7590SOL    HW223670   4.146   2.188   6.541
 7591SOL     OW23671   0.058   4.307   0.483
 7591SOL    HW123672   0.066   4.295   0.384
 7591SOL    HW223673   6.985   4.295   0.510
 7592SOL     OW23674   6.513   4.107   6.268
 7592SOL    HW123675   6.527   4.151   6.356
 7592SOL    HW223676   6.537   4.010   6.275
 7593SOL     OW23677   5.813   2.491   1.453
 7593SOL    HW123678   5.902   2.535   1.458
 7593SOL    HW223679   5.776   2.500   1.360
 7594SOL     OW23680   0.133   4.471   2.250
 7594SOL    HW123681   0.052   4.413   2.242
 7594SOL    HW223682   0.131   4.541   2.179
 7595SOL     OW23683   0.027   2.836   6.068
 7595SOL    HW123684   7.006   2.892   5.998
 7595SOL    HW223685   6.985   2.820   6.142
 7596SOL     OW23686   4.689   5.888   3.447
 7596SOL    HW123687   4.637   5.806   3.472
 7596SOL    HW223688   4.626   5.960   3.419
 7597SOL     OW23689   2.636   6.500   2.479
 7597SOL    HW123690   2.598   6.592   2.478
 7597SOL    HW223691   2.608   6.452   2.395
 7598SOL     OW23692   0.103   1.689   3.507
 7598SOL    HW123693   0.177   1.659   3.448
 7598SOL    HW223694   0.091   1.788   3.499
 7599SOL     OW23695   5.927   1.557   3.065
 7599SOL    HW123696   5.973   1.549   3.153
 7599SOL    HW223697   5.874   1.474   3.048
 7600SOL     OW23698   1.502   1.293   2.460
 7600SOL    HW123699   1.523   1.286   2.557
 7600SOL    HW223700   1.411   1.256   2.442
 7601SOL     OW23701   2.054   5.443   2.385
 7601SOL    HW123702   2.093   5.446   2.477
 7601SOL    HW223703   2.127   5.428   2.318
 7602SOL     OW23704   1.207   4.731   6.732
 7602SOL    HW123705   1.147   4.801   6.694
 7602SOL    HW223706   1.210   4.652   6.671
 7603SOL     OW23707   1.756   5.127   5.682
 7603SOL    HW123708   1.852   5.098   5.680
 7603SOL    HW223709   1.717   5.118   5.590
 7604SOL     OW23710   1.742   4.733   4.418
 7604SOL    HW123711   1.838   4.751   4.395
 7604SOL    HW223712   1.687   4.813   4.397
 7605SOL     OW23713   0.752   6.778   0.765
 7605SOL    HW123714   0.717   6.865   0.732
 7605SOL    HW223715   0.759   6.714   0.689
 7606SOL     OW23716   6.671   3.109   3.684
 7606SOL    HW123717   6.650   3.021   3.726
 7606SOL    HW223718   6.700   3.095   3.589
 7607SOL     OW23719   4.947   5.132   0.602
 7607SOL    HW123720   4.941   5.175   0.512
 7607SOL    HW223721   4.888   5.179   0.666
 7608SOL     OW23722   3.114   4.037   3.262
 7608SOL    HW123723   3.138   4.052   3.358
 7608SOL    HW223724   3.180   4.083   3.203
 7609SOL     OW23725   0.203   4.022   3.719
 7609SOL    HW123726   0.270   4.027   3.645
 7609SOL    HW223727   0.251   4.021   3.807
 7610SOL     OW23728   5.753   6.216   0.266
 7610SOL    HW123729   5.677   6.151   0.265
 7610SOL    HW223730   5.723   6.303   0.229
 7611SOL     OW23731   0.489   1.577   0.122
 7611SOL    HW123732   0.405   1.528   0.101
 7611SOL    HW223733   0.494   1.595   0.221
 7612SOL     OW23734   5.275   3.443   5.068
 7612SOL    HW123735   5.187   3.476   5.103
 7612SOL    HW223736   5.321   3.389   5.138
 7613SOL     OW23737   6.220   3.385   1.165
 7613SOL    HW123738   6.296   3.325   1.189
 7613SOL    HW223739   6.200   3.446   1.241
 7614SOL     OW23740   5.446   3.561   0.742
 7614SOL    HW123741   5.387   3.482   0.762
 7614SOL    HW223742   5.542   3.534   0.753
 7615SOL     OW23743   4.748   3.769   6.503
 7615SOL    HW123744   4.654   3.791   6.530
 7615SOL    HW223745   4.759   3.669   6.499
 7616SOL     OW23746   6.451   4.865   5.288
 7616SOL    HW123747   6.486   4.827   5.203
 7616SOL    HW223748   6.361   4.905   5.273
 7617SOL     OW23749   3.278   5.464   2.572
 7617SOL    HW123750   3.250   5.407   2.495
 7617SOL    HW223751   3.309   5.553   2.538
 7618SOL     OW23752   0.435   2.122   6.074
 7618SOL    HW123753   0.511   2.064   6.046
 7618SOL    HW223754   0.351   2.093   6.027
 7619SOL     OW23755   5.671   3.208   5.642
 7619SOL    HW123756   5.725   3.290   5.662
 7619SOL    HW223757   5.699   3.134   5.703
 7620SOL     OW23758   4.016   5.150   0.578
 7620SOL    HW123759   3.916   5.156   0.569
 7620SOL    HW223760   4.039   5.069   0.631
 7621SOL     OW23761   6.927   1.590   0.392
 7621SOL    HW123762   6.950   1.541   0.475
 7621SOL    HW223763   6.985   1.558   0.317
 7622SOL     OW23764   5.402   5.389   1.737
 7622SOL    HW123765   5.403   5.389   1.637
 7622SOL    HW223766   5.348   5.466   1.770
 7623SOL     OW23767   4.459   4.003   6.836
 7623SOL    HW123768   4.372   4.019   6.789
 7623SOL    HW223769   4.456   4.042   6.927
 7624SOL     OW23770   0.144   2.574   4.342
 7624SOL    HW123771   0.049   2.555   4.370
 7624SOL    HW223772   0.205   2.560   4.421
 7625SOL     OW23773   5.065   0.390   1.128
 7625SOL    HW123774   4.993   0.446   1.168
 7625SOL    HW223775   5.026   0.305   1.094
 7626SOL     OW23776   6.357   6.527   4.161
 7626SOL    HW123777   6.322   6.594   4.096
 7626SOL    HW223778   6.291   6.514   4.235
 7627SOL     OW23779   5.564   2.988   6.851
 7627SOL    HW123780   5.484   2.944   6.810
 7627SOL    HW223781   5.647   2.942   6.819
 7628SOL     OW23782   3.860   0.125   2.625
 7628SOL    HW123783   3.800   0.204   2.613
 7628SOL    HW223784   3.811   0.041   2.603
 7629SOL     OW23785   0.008   0.491   2.911
 7629SOL    HW123786   0.038   0.574   2.957
 7629SOL    HW223787   6.949   0.455   2.956
 7630SOL     OW23788   6.453   0.396   2.087
 7630SOL    HW123789   6.358   0.379   2.060
 7630SOL    HW223790   6.461   0.393   2.186
 7631SOL     OW23791   0.582   0.489   5.748
 7631SOL    HW123792   0.625   0.563   5.799
 7631SOL    HW223793   0.548   0.524   5.661
 7632SOL     OW23794   3.628   2.680   1.776
 7632SOL    HW123795   3.588   2.662   1.687
 7632SOL    HW223796   3.634   2.595   1.828
 7633SOL     OW23797   4.885   1.629   1.213
 7633SOL    HW123798   4.881   1.540   1.259
 7633SOL    HW223799   4.962   1.681   1.249
 7634SOL     OW23800   0.297   1.768   2.621
 7634SOL    HW123801   0.207   1.768   2.664
 7634SOL    HW223802   0.361   1.823   2.675
 7635SOL     OW23803   3.321   5.748   5.057
 7635SOL    HW123804   3.310   5.650   5.044
 7635SOL    HW223805   3.253   5.797   5.002
 7636SOL     OW23806   1.264   2.748   3.924
 7636SOL    HW123807   1.273   2.654   3.891
 7636SOL    HW223808   1.353   2.782   3.952
 7637SOL     OW23809   2.632   5.920   2.748
 7637SOL    HW123810   2.639   5.870   2.834
 7637SOL    HW223811   2.695   5.998   2.750
 7638SOL     OW23812   3.629   6.407   0.775
 7638SOL    HW123813   3.615   6.502   0.748
 7638SOL    HW223814   3.715   6.373   0.735
 7639SOL     OW23815   1.491   1.675   0.377
 7639SOL    HW123816   1.589   1.697   0.376
 7639SOL    HW223817   1.438   1.757   0.356
 7640SOL     OW23818   3.302   1.772   0.194
 7640SOL    HW123819   3.253   1.699   0.146
 7640SOL    HW223820   3.394   1.781   0.156
 7641SOL     OW23821   1.059   4.175   1.661
 7641SOL    HW123822   1.021   4.095   1.615
 7641SOL    HW223823   0.985   4.236   1.689
 7642SOL     OW23824   3.418   0.589   2.791
 7642SOL    HW123825   3.386   0.504   2.749
 7642SOL    HW223826   3.514   0.603   2.768
 7643SOL     OW23827   5.004   3.405   4.546
 7643SOL    HW123828   5.005   3.362   4.456
 7643SOL    HW223829   5.086   3.461   4.558
 7644SOL     OW23830   5.945   2.524   2.564
 7644SOL    HW123831   5.914   2.616   2.589
 7644SOL    HW223832   5.880   2.456   2.597
 7645SOL     OW23833   4.390   3.939   5.532
 7645SOL    HW123834   4.399   3.839   5.530
 7645SOL    HW223835   4.308   3.966   5.482
 7646SOL     OW23836   1.904   2.708   2.514
 7646SOL    HW123837   1.930   2.743   2.604
 7646SOL    HW223838   1.979   2.721   2.449
 7647SOL     OW23839   6.728   3.183   2.383
 7647SOL    HW123840   6.745   3.084   2.380
 7647SOL    HW223841   6.636   3.199   2.417
 7648SOL     OW23842   3.088   1.569   3.723
 7648SOL    HW123843   3.001   1.613   3.748
 7648SOL    HW223844   3.126   1.523   3.804
 7649SOL     OW23845   0.895   1.164   2.985
 7649SOL    HW123846   0.891   1.072   3.024
 7649SOL    HW223847   0.858   1.163   2.892
 7650SOL     OW23848   4.875   2.706   1.708
 7650SOL    HW123849   4.800   2.651   1.670
 7650SOL    HW223850   4.837   2.786   1.755
 7651SOL     OW23851   2.207   0.140   4.579
 7651SOL    HW123852   2.278   0.071   4.567
 7651SOL    HW223853   2.128   0.118   4.521
 7652SOL     OW23854   6.595   3.822   4.390
 7652SOL    HW123855   6.615   3.896   4.325
 7652SOL    HW223856   6.681   3.786   4.426
 7653SOL     OW23857   2.746   1.682   0.329
 7653SOL    HW123858   2.684   1.760   0.323
 7653SOL    HW223859   2.830   1.701   0.277
 7654SOL     OW23860   5.113   2.608   4.072
 7654SOL    HW123861   5.060   2.594   4.156
 7654SOL    HW223862   5.072   2.554   3.998
 7655SOL     OW23863   3.360   0.233   3.629
 7655SOL    HW123864   3.296   0.230   3.706
 7655SOL    HW223865   3.310   0.222   3.544
 7656SOL     OW23866   2.228   4.902   6.305
 7656SOL    HW123867   2.203   4.986   6.353
 7656SOL    HW223868   2.187   4.902   6.213
 7657SOL     OW23869   2.328   2.769   3.892
 7657SOL    HW123870   2.399   2.837   3.912
 7657SOL    HW223871   2.371   2.682   3.868
 7658SOL     OW23872   3.202   0.066   6.046
 7658SOL    HW123873   3.137   0.031   6.114
 7658SOL    HW223874   3.162   0.145   5.999
 7659SOL     OW23875   6.243   5.004   0.258
 7659SOL    HW123876   6.287   5.094   0.258
 7659SOL    HW223877   6.245   4.966   0.166
 7660SOL     OW23878   0.435   6.285   3.537
 7660SOL    HW123879   0.500   6.210   3.531
 7660SOL    HW223880   0.385   6.280   3.624
 7661SOL     OW23881   5.762   2.468   4.519
 7661SOL    HW123882   5.819   2.494   4.597
 7661SOL    HW223883   5.721   2.378   4.536
 7662SOL     OW23884   0.937   2.781   2.666
 7662SOL    HW123885   1.021   2.822   2.630
 7662SOL    HW223886   0.958   2.724   2.745
 7663SOL     OW23887   1.409   6.393   5.875
 7663SOL    HW123888   1.403   6.482   5.829
 7663SOL    HW223889   1.395   6.320   5.808
 7664SOL     OW23890   3.476   0.219   2.410
 7664SOL    HW123891   3.437   0.309   2.392
 7664SOL    HW223892   3.404   0.150   2.399
 7665SOL     OW23893   4.497   0.194   4.882
 7665SOL    HW123894   4.401   0.222   4.881
 7665SOL    HW223895   4.509   0.122   4.950
 7666SOL     OW23896   0.760   6.514   1.447
 7666SOL    HW123897   0.722   6.605   1.428
 7666SOL    HW223898   0.859   6.520   1.455
 7667SOL     OW23899   4.896   5.668   1.859
 7667SOL    HW123900   4.813   5.705   1.818
 7667SOL    HW223901   4.941   5.605   1.795
 7668SOL     OW23902   3.130   4.425   1.206
 7668SOL    HW123903   3.211   4.375   1.236
 7668SOL    HW223904   3.158   4.515   1.170
 7669SOL     OW23905   5.548   1.793   5.748
 7669SOL    HW123906   5.457   1.834   5.744
 7669SOL    HW223907   5.594   1.822   5.832
 7670SOL     OW23908   1.166   5.051   6.420
 7670SOL    HW123909   1.074   5.079   6.446
 7670SOL    HW223910   1.225   5.050   6.501
 7671SOL     OW23911   4.231   0.881   3.534
 7671SOL    HW123912   4.212   0.815   3.606
 7671SOL    HW223913   4.321   0.861   3.493
 7672SOL     OW23914   6.040   6.843   3.542
 7672SOL    HW123915   6.104   6.834   3.618
 7672SOL    HW223916   6.091   6.866   3.459
 7673SOL     OW23917   1.781   5.511   0.023
 7673SOL    HW123918   1.703   5.506   6.984
 7673SOL    HW223919   1.825   5.601   0.016
 7674SOL     OW23920   5.865   1.611   4.372
 7674SOL    HW123921   5.861   1.605   4.472
 7674SOL    HW223922   5.923   1.537   4.337
 7675SOL     OW23923   5.756   6.982   2.525
 7675SOL    HW123924   5.745   0.053   2.558
 7675SOL    HW223925   5.712   6.918   2.588
 7676SOL     OW23926   1.804   2.408   0.429
 7676SOL    HW123927   1.861   2.333   0.463
 7676SOL    HW223928   1.762   2.382   0.342
 7677SOL     OW23929   0.410   4.529   2.520
 7677SOL    HW123930   0.376   4.610   2.473
 7677SOL    HW223931   0.391   4.448   2.465
 7678SOL     OW23932   2.425   2.108   4.685
 7678SOL    HW123933   2.387   2.018   4.706
 7678SOL    HW223934   2.368   2.155   4.618
 7679SOL     OW23935   2.869   5.575   6.671
 7679SOL    HW123936   2.777   5.554   6.703
 7679SOL    HW223937   2.909   5.494   6.628
 7680SOL     OW23938   1.951   1.832   0.629
 7680SOL    HW123939   1.894   1.799   0.705
 7680SOL    HW223940   2.000   1.914   0.657
 7681SOL     OW23941   2.745   6.479   0.169
 7681SOL    HW123942   2.813   6.499   0.239
 7681SOL    HW223943   2.730   6.560   0.113
 7682SOL     OW23944   2.615   0.495   1.998
 7682SOL    HW123945   2.556   0.436   1.942
 7682SOL    HW223946   2.692   0.526   1.943
 7683SOL     OW23947   6.267   1.514   3.647
 7683SOL    HW123948   6.282   1.426   3.602
 7683SOL    HW223949   6.333   1.581   3.612
 7684SOL     OW23950   3.941   1.975   1.783
 7684SOL    HW123951   3.849   2.014   1.773
 7684SOL    HW223952   3.965   1.924   1.700
 7685SOL     OW23953   3.785   2.603   0.022
 7685SOL    HW123954   3.751   2.684   6.997
 7685SOL    HW223955   3.855   2.630   0.088
 7686SOL     OW23956   6.473   6.929   3.022
 7686SOL    HW123957   6.463   6.856   3.090
 7686SOL    HW223958   6.410   6.913   2.947
 7687SOL     OW23959   5.748   4.733   4.701
 7687SOL    HW123960   5.805   4.753   4.621
 7687SOL    HW223961   5.805   4.723   4.782
 7688SOL     OW23962   0.751   5.958   5.127
 7688SOL    HW123963   0.672   5.946   5.187
 7688SOL    HW223964   0.832   5.980   5.182
 7689SOL     OW23965   5.142   6.687   2.964
 7689SOL    HW123966   5.107   6.680   3.058
 7689SOL    HW223967   5.151   6.784   2.940
 7690SOL     OW23968   6.222   4.869   1.363
 7690SOL    HW123969   6.292   4.881   1.292
 7690SOL    HW223970   6.170   4.785   1.344
 7691SOL     OW23971   5.175   2.745   4.385
 7691SOL    HW123972   5.165   2.844   4.375
 7691SOL    HW223973   5.260   2.725   4.433
 7692SOL     OW23974   0.487   6.409   1.991
 7692SOL    HW123975   0.474   6.389   1.894
 7692SOL    HW223976   0.528   6.330   2.036
 7693SOL     OW23977   3.675   6.925   1.304
 7693SOL    HW123978   3.611   6.848   1.314
 7693SOL    HW223979   3.766   6.889   1.282
 7694SOL     OW23980   0.290   4.616   4.433
 7694SOL    HW123981   0.342   4.576   4.509
 7694SOL    HW223982   0.340   4.601   4.347
 7695SOL     OW23983   4.279   6.134   0.729
 7695SOL    HW123984   4.212   6.072   0.770
 7695SOL    HW223985   4.286   6.217   0.785
 7696SOL     OW23986   6.794   1.527   4.428
 7696SOL    HW123987   6.878   1.503   4.476
 7696SOL    HW223988   6.757   1.612   4.465
 7697SOL     OW23989   3.463   6.885   1.961
 7697SOL    HW123990   3.488   6.926   2.048
 7697SOL    HW223991   3.443   6.957   1.895
 7698SOL     OW23992   6.676   2.338   3.351
 7698SOL    HW123993   6.615   2.273   3.395
 7698SOL    HW223994   6.622   2.409   3.306
 7699SOL     OW23995   3.429   6.024   6.880
 7699SOL    HW123996   3.388   5.949   6.931
 7699SOL    HW223997   3.492   5.987   6.811
 7700SOL     OW23998   4.922   6.539   4.481
 7700SOL    HW123999   4.860   6.497   4.548
 7700SOL    HW224000   4.987   6.470   4.448
 7701SOL     OW24001   6.571   1.286   7.002
 7701SOL    HW124002   6.656   1.274   0.032
 7701SOL    HW224003   6.502   1.222   0.013
 7702SOL     OW24004   3.226   6.227   6.191
 7702SOL    HW124005   3.297   6.297   6.199
 7702SOL    HW224006   3.214   6.202   6.095
 7703SOL     OW24007   6.273   0.632   5.168
 7703SOL    HW124008   6.309   0.609   5.078
 7703SOL    HW224009   6.343   0.681   5.221
 7704SOL     OW24010   5.680   4.849   5.656
 7704SOL    HW124011   5.725   4.762   5.638
 7704SOL    HW224012   5.619   4.872   5.579
 7705SOL     OW24013   3.534   5.245   5.707
 7705SOL    HW124014   3.596   5.209   5.776
 7705SOL    HW224015   3.553   5.202   5.619
 7706SOL     OW24016   4.650   2.796   4.945
 7706SOL    HW124017   4.570   2.855   4.952
 7706SOL    HW224018   4.722   2.843   4.893
 7707SOL     OW24019   0.967   5.777   5.992
 7707SOL    HW124020   0.963   5.692   5.940
 7707SOL    HW224021   0.891   5.837   5.963
 7708SOL     OW24022   6.167   6.846   5.793
 7708SOL    HW124023   6.170   6.943   5.819
 7708SOL    HW224024   6.093   6.801   5.842
 7709SOL     OW24025   5.448   4.217   1.311
 7709SOL    HW124026   5.413   4.171   1.392
 7709SOL    HW224027   5.373   4.228   1.244
 7710SOL     OW24028   3.384   0.543   0.653
 7710SOL    HW124029   3.342   0.518   0.740
 7710SOL    HW224030   3.330   0.615   0.610
 7711SOL     OW24031   6.194   6.230   5.324
 7711SOL    HW124032   6.160   6.324   5.317
 7711SOL    HW224033   6.224   6.212   5.418
 7712SOL     OW24034   5.097   6.177   2.480
 7712SOL    HW124035   5.067   6.148   2.389
 7712SOL    HW224036   5.188   6.141   2.498
 7713SOL     OW24037   1.623   5.002   0.549
 7713SOL    HW124038   1.679   5.072   0.592
 7713SOL    HW224039   1.584   5.037   0.464
 7714SOL     OW24040   6.340   4.134   5.437
 7714SOL    HW124041   6.418   4.164   5.492
 7714SOL    HW224042   6.362   4.048   5.391
 7715SOL     OW24043   4.671   1.956   7.009
 7715SOL    HW124044   4.749   2.013   6.982
 7715SOL    HW224045   4.598   2.013   0.023
 7716SOL     OW24046   6.782   4.207   4.004
 7716SOL    HW124047   6.759   4.289   4.055
 7716SOL    HW224048   6.701   4.174   3.955
 7717SOL     OW24049   1.512   0.891   4.580
 7717SOL    HW124050   1.555   0.960   4.639
 7717SOL    HW224051   1.559   0.888   4.492
 7718SOL     OW24052   1.509   2.073   3.395
 7718SOL    HW124053   1.547   2.098   3.306
 7718SOL    HW224054   1.527   1.977   3.413
 7719SOL     OW24055   7.010   3.631   4.532
 7719SOL    HW124056   7.011   3.729   4.513
 7719SOL    HW224057   0.078   3.593   4.512
 7720SOL     OW24058   0.628   0.683   0.170
 7720SOL    HW124059   0.635   0.611   0.238
 7720SOL    HW224060   0.544   0.670   0.116
 7721SOL     OW24061   0.024   5.100   2.675
 7721SOL    HW124062   0.095   5.040   2.640
 7721SOL    HW224063   0.029   5.189   2.628
 7722SOL     OW24064   0.582   6.205   3.134
 7722SOL    HW124065   0.578   6.212   3.035
 7722SOL    HW224066   0.490   6.213   3.172
 7723SOL     OW24067   6.247   3.369   6.863
 7723SOL    HW124068   6.168   3.389   6.805
 7723SOL    HW224069   6.239   3.277   6.900
 7724SOL     OW24070   2.778   4.450   1.620
 7724SOL    HW124071   2.839   4.457   1.541
 7724SOL    HW224072   2.831   4.462   1.704
 7725SOL     OW24073   5.682   2.975   3.228
 7725SOL    HW124074   5.753   2.905   3.222
 7725SOL    HW224075   5.628   2.975   3.144
 7726SOL     OW24076   2.091   6.040   5.172
 7726SOL    HW124077   1.998   6.066   5.145
 7726SOL    HW224078   2.111   6.077   5.263
 7727SOL     OW24079   0.402   0.255   2.384
 7727SOL    HW124080   0.334   0.321   2.417
 7727SOL    HW224081   0.426   0.192   2.458
 7728SOL     OW24082   1.047   5.001   3.434
 7728SOL    HW124083   0.952   5.030   3.429
 7728SOL    HW224084   1.052   4.911   3.477
 7729SOL     OW24085   5.623   2.751   0.746
 7729SOL    HW124086   5.628   2.657   0.781
 7729SOL    HW224087   5.666   2.813   0.812
 7730SOL     OW24088   6.049   6.134   0.994
 7730SOL    HW124089   6.022   6.229   1.003
 7730SOL    HW224090   5.971   6.074   1.012
 7731SOL     OW24091   6.750   0.485   0.897
 7731SOL    HW124092   6.675   0.435   0.853
 7731SOL    HW224093   6.813   0.517   0.827
 7732SOL     OW24094   3.898   6.581   0.503
 7732SOL    HW124095   3.800   6.596   0.488
 7732SOL    HW224096   3.949   6.663   0.478
 7733SOL     OW24097   4.695   6.998   2.138
 7733SOL    HW124098   4.629   0.050   2.149
 7733SOL    HW224099   4.666   6.938   2.064
 7734SOL     OW24100   2.311   5.543   3.694
 7734SOL    HW124101   2.257   5.550   3.610
 7734SOL    HW224102   2.370   5.462   3.689
 7735SOL     OW24103   4.683   6.266   6.414
 7735SOL    HW124104   4.783   6.272   6.407
 7735SOL    HW224105   4.644   6.358   6.413
 7736SOL     OW24106   3.517   4.106   6.821
 7736SOL    HW124107   3.523   4.037   6.893
 7736SOL    HW224108   3.428   4.152   6.827
 7737SOL     OW24109   3.721   0.945   2.316
 7737SOL    HW124110   3.627   0.909   2.315
 7737SOL    HW224111   3.736   1.001   2.235
 7738SOL     OW24112   2.979   5.531   6.920
 7738SOL    HW124113   2.885   5.548   6.948
 7738SOL    HW224114   2.982   5.514   6.821
 7739SOL     OW24115   0.763   2.282   1.716
 7739SOL    HW124116   0.843   2.230   1.685
 7739SOL    HW224117   0.752   2.272   1.815
 7740SOL     OW24118   1.840   1.047   3.344
 7740SOL    HW124119   1.805   1.118   3.283
 7740SOL    HW224120   1.814   1.069   3.438
 7741SOL     OW24121   0.962   5.077   5.078
 7741SOL    HW124122   1.022   5.100   5.154
 7741SOL    HW224123   0.959   5.152   5.013
 7742SOL     OW24124   5.913   1.730   3.486
 7742SOL    HW124125   5.965   1.815   3.493
 7742SOL    HW224126   5.832   1.735   3.544
 7743SOL     OW24127   5.118   1.925   6.982
 7743SOL    HW124128   5.170   1.925   6.896
 7743SOL    HW224129   5.151   1.851   0.018
 7744SOL     OW24130   1.099   6.315   3.247
 7744SOL    HW124131   1.010   6.331   3.205
 7744SOL    HW224132   1.095   6.337   3.344
 7745SOL     OW24133   2.707   1.100   5.883
 7745SOL    HW124134   2.716   1.194   5.849
 7745SOL    HW224135   2.646   1.049   5.823
 7746SOL     OW24136   2.903   6.212   0.319
 7746SOL    HW124137   2.832   6.216   0.248
 7746SOL    HW224138   2.993   6.216   0.276
 7747SOL     OW24139   4.999   5.896   1.488
 7747SOL    HW124140   4.909   5.934   1.468
 7747SOL    HW224141   4.992   5.797   1.499
 7748SOL     OW24142   3.390   3.568   5.359
 7748SOL    HW124143   3.485   3.597   5.364
 7748SOL    HW224144   3.338   3.634   5.304
 7749SOL     OW24145   2.960   3.010   5.438
 7749SOL    HW124146   2.863   3.033   5.431
 7749SOL    HW224147   2.985   2.950   5.362
 7750SOL     OW24148   0.010   6.249   1.211
 7750SOL    HW124149   0.000   6.346   1.190
 7750SOL    HW224150   0.093   6.234   1.265
 7751SOL     OW24151   1.128   2.290   2.294
 7751SOL    HW124152   1.124   2.350   2.374
 7751SOL    HW224153   1.193   2.216   2.310
 7752SOL     OW24154   5.325   0.522   5.943
 7752SOL    HW124155   5.247   0.574   5.908
 7752SOL    HW224156   5.310   0.500   6.039
 7753SOL     OW24157   2.619   1.342   4.375
 7753SOL    HW124158   2.610   1.401   4.455
 7753SOL    HW224159   2.716   1.326   4.356
 7754SOL     OW24160   3.559   5.934   1.141
 7754SOL    HW124161   3.601   5.876   1.072
 7754SOL    HW224162   3.507   6.007   1.095
 7755SOL     OW24163   1.941   2.686   5.955
 7755SOL    HW124164   1.982   2.596   5.968
 7755SOL    HW224165   1.924   2.701   5.857
 7756SOL     OW24166   2.671   7.008   2.267
 7756SOL    HW124167   2.719   0.025   2.189
 7756SOL    HW224168   2.728   7.014   2.348
 7757SOL     OW24169   5.531   5.016   1.542
 7757SOL    HW124170   5.465   4.986   1.610
 7757SOL    HW224171   5.544   5.115   1.548
 7758SOL     OW24172   1.891   0.235   6.073
 7758SOL    HW124173   1.866   0.274   6.161
 7758SOL    HW224174   1.983   0.196   6.078
 7759SOL     OW24175   1.961   1.461   5.312
 7759SOL    HW124176   1.864   1.486   5.318
 7759SOL    HW224177   2.002   1.465   5.403
 7760SOL     OW24178   5.539   2.893   2.600
 7760SOL    HW124179   5.467   2.915   2.666
 7760SOL    HW224180   5.551   2.794   2.594
 7761SOL     OW24181   6.644   6.318   4.725
 7761SOL    HW124182   6.722   6.337   4.785
 7761SOL    HW224183   6.660   6.359   4.635
 7762SOL     OW24184   2.440   6.987   3.902
 7762SOL    HW124185   2.456   6.901   3.951
 7762SOL    HW224186   2.346   6.987   3.867
 7763SOL     OW24187   2.412   0.204   6.825
 7763SOL    HW124188   2.434   0.256   6.908
 7763SOL    HW224189   2.325   0.157   6.838
 7764SOL     OW24190   3.345   4.044   5.652
 7764SOL    HW124191   3.247   4.028   5.669
 7764SOL    HW224192   3.355   4.123   5.592
 7765SOL     OW24193   5.830   2.822   4.801
 7765SOL    HW124194   5.811   2.883   4.723
 7765SOL    HW224195   5.763   2.839   4.873
 7766SOL     OW24196   0.100   3.648   0.653
 7766SOL    HW124197   0.047   3.564   0.656
 7766SOL    HW224198   0.190   3.632   0.694
 7767SOL     OW24199   4.473   6.350   2.350
 7767SOL    HW124200   4.477   6.433   2.294
 7767SOL    HW224201   4.466   6.376   2.447
 7768SOL     OW24202   5.214   4.752   3.679
 7768SOL    HW124203   5.190   4.658   3.701
 7768SOL    HW224204   5.211   4.765   3.580
 7769SOL     OW24205   4.541   1.402   4.794
 7769SOL    HW124206   4.619   1.382   4.854
 7769SOL    HW224207   4.564   1.478   4.734
 7770SOL     OW24208   0.671   3.278   4.807
 7770SOL    HW124209   0.598   3.346   4.816
 7770SOL    HW224210   0.759   3.325   4.796
 7771SOL     OW24211   3.020   1.507   5.570
 7771SOL    HW124212   2.942   1.461   5.612
 7771SOL    HW224213   2.991   1.597   5.537
 7772SOL     OW24214   5.051   7.002   1.111
 7772SOL    HW124215   5.029   0.037   1.190
 7772SOL    HW224216   4.993   6.921   1.112
 7773SOL     OW24217   1.953   5.348   5.772
 7773SOL    HW124218   1.858   5.337   5.800
 7773SOL    HW224219   1.997   5.258   5.768
 7774SOL     OW24220   4.802   2.758   4.001
 7774SOL    HW124221   4.801   2.701   4.083
 7774SOL    HW224222   4.817   2.853   4.027
 7775SOL     OW24223   4.228   0.190   6.924
 7775SOL    HW124224   4.207   0.129   7.001
 7775SOL    HW224225   4.161   0.264   6.921
 7776SOL     OW24226   1.245   5.786   6.751
 7776SOL    HW124227   1.272   5.726   6.826
 7776SOL    HW224228   1.165   5.839   6.779
 7777SOL     OW24229   5.797   5.611   4.593
 7777SOL    HW124230   5.727   5.650   4.534
 7777SOL    HW224231   5.860   5.555   4.539
 7778SOL     OW24232   5.727   3.965   2.273
 7778SOL    HW124233   5.632   3.964   2.241
 7778SOL    HW224234   5.788   3.950   2.195
 7779SOL     OW24235   2.607   1.129   1.907
 7779SOL    HW124236   2.639   1.193   1.977
 7779SOL    HW224237   2.650   1.152   1.820
 7780SOL     OW24238   1.095   5.109   5.313
 7780SOL    HW124239   1.177   5.070   5.353
 7780SOL    HW224240   1.016   5.087   5.370
 7781SOL     OW24241   0.862   3.881   1.312
 7781SOL    HW124242   0.852   3.927   1.224
 7781SOL    HW224243   0.843   3.783   1.301
 7782SOL     OW24244   5.012   5.198   4.193
 7782SOL    HW124245   5.040   5.112   4.151
 7782SOL    HW224246   4.990   5.182   4.290
 7783SOL     OW24247   1.033   0.391   5.914
 7783SOL    HW124248   0.973   0.418   5.839
 7783SOL    HW224249   1.116   0.447   5.912
 7784SOL     OW24250   3.440   2.198   1.394
 7784SOL    HW124251   3.502   2.123   1.372
 7784SOL    HW224252   3.453   2.225   1.489
 7785SOL     OW24253   2.393   6.283   4.179
 7785SOL    HW124254   2.453   6.323   4.110
 7785SOL    HW224255   2.436   6.202   4.219
 7786SOL     OW24256   3.977   0.602   6.880
 7786SOL    HW124257   3.960   0.527   6.815
 7786SOL    HW224258   3.949   0.689   6.839
 7787SOL     OW24259   2.068   3.097   0.225
 7787SOL    HW124260   1.975   3.062   0.213
 7787SOL    HW224261   2.079   3.181   0.173
 7788SOL     OW24262   1.725   5.152   1.478
 7788SOL    HW124263   1.694   5.069   1.524
 7788SOL    HW224264   1.764   5.128   1.389
 7789SOL     OW24265   2.958   0.109   6.219
 7789SOL    HW124266   2.997   0.184   6.271
 7789SOL    HW224267   2.863   0.129   6.196
 7790SOL     OW24268   5.377   5.711   2.659
 7790SOL    HW124269   5.372   5.804   2.695
 7790SOL    HW224270   5.471   5.677   2.669
 7791SOL     OW24271   1.760   4.715   1.999
 7791SOL    HW124272   1.741   4.799   1.947
 7791SOL    HW224273   1.693   4.645   1.975
 7792SOL     OW24274   1.372   6.227   3.232
 7792SOL    HW124275   1.279   6.263   3.222
 7792SOL    HW224276   1.437   6.302   3.237
 7793SOL     OW24277   4.250   0.487   0.048
 7793SOL    HW124278   4.285   0.458   0.137
 7793SOL    HW224279   4.150   0.480   0.047
 7794SOL     OW24280   0.330   4.312   2.347
 7794SOL    HW124281   0.394   4.292   2.273
 7794SOL    HW224282   0.257   4.371   2.312
 7795SOL     OW24283   2.892   5.247   5.081
 7795SOL    HW124284   2.928   5.291   5.164
 7795SOL    HW224285   2.890   5.148   5.094
 7796SOL     OW24286   3.840   2.633   5.418
 7796SOL    HW124287   3.836   2.533   5.426
 7796SOL    HW224288   3.934   2.661   5.401
 7797SOL     OW24289   0.750   5.961   0.966
 7797SOL    HW124290   0.724   5.932   1.058
 7797SOL    HW224291   0.752   6.061   0.961
 7798SOL     OW24292   1.339   2.035   2.674
 7798SOL    HW124293   1.425   1.989   2.654
 7798SOL    HW224294   1.291   1.987   2.747
 7799SOL     OW24295   1.684   5.256   2.584
 7799SOL    HW124296   1.593   5.294   2.570
 7799SOL    HW224297   1.742   5.324   2.630
 7800SOL     OW24298   0.852   6.037   3.037
 7800SOL    HW124299   0.885   5.960   2.983
 7800SOL    HW224300   0.776   6.007   3.095
 7801SOL     OW24301   1.487   1.165   2.723
 7801SOL    HW124302   1.513   1.123   2.810
 7801SOL    HW224303   1.390   1.147   2.705
 7802SOL     OW24304   6.656   3.039   0.231
 7802SOL    HW124305   6.630   3.108   0.298
 7802SOL    HW224306   6.578   2.980   0.212
 7803SOL     OW24307   4.548   1.924   0.513
 7803SOL    HW124308   4.575   1.889   0.423
 7803SOL    HW224309   4.585   1.865   0.584
 7804SOL     OW24310   4.530   2.108   4.765
 7804SOL    HW124311   4.620   2.096   4.723
 7804SOL    HW224312   4.488   2.019   4.780
 7805SOL     OW24313   5.036   3.617   2.646
 7805SOL    HW124314   5.031   3.550   2.572
 7805SOL    HW224315   4.977   3.588   2.721
 7806SOL     OW24316   5.842   1.393   6.217
 7806SOL    HW124317   5.820   1.360   6.125
 7806SOL    HW224318   5.764   1.378   6.278
 7807SOL     OW24319   0.773   4.517   5.307
 7807SOL    HW124320   0.839   4.442   5.320
 7807SOL    HW224321   0.805   4.576   5.233
 7808SOL     OW24322   5.711   3.228   3.333
 7808SOL    HW124323   5.692   3.149   3.275
 7808SOL    HW224324   5.757   3.299   3.280
 7809SOL     OW24325   4.975   5.232   4.766
 7809SOL    HW124326   4.955   5.289   4.686
 7809SOL    HW224327   4.944   5.279   4.849
 7810SOL     OW24328   2.837   6.733   5.743
 7810SOL    HW124329   2.781   6.767   5.667
 7810SOL    HW224330   2.840   6.802   5.815
 7811SOL     OW24331   1.235   5.351   1.839
 7811SOL    HW124332   1.271   5.382   1.927
 7811SOL    HW224333   1.237   5.251   1.835
 7812SOL     OW24334   2.120   2.495   4.759
 7812SOL    HW124335   2.028   2.494   4.797
 7812SOL    HW224336   2.115   2.505   4.659
 7813SOL     OW24337   4.494   2.486   1.287
 7813SOL    HW124338   4.581   2.449   1.319
 7813SOL    HW224339   4.508   2.534   1.200
 7814SOL     OW24340   0.055   3.751   3.139
 7814SOL    HW124341   7.005   3.759   3.071
 7814SOL    HW224342   0.143   3.777   3.098
 7815SOL     OW24343   5.820   1.878   4.617
 7815SOL    HW124344   5.756   1.896   4.692
 7815SOL    HW224345   5.913   1.869   4.653
 7816SOL     OW24346   0.247   2.675   6.508
 7816SOL    HW124347   0.313   2.742   6.543
 7816SOL    HW224348   0.272   2.649   6.415
 7817SOL     OW24349   4.567   4.383   5.061
 7817SOL    HW124350   4.598   4.398   4.967
 7817SOL    HW224351   4.482   4.433   5.077
 7818SOL     OW24352   4.214   0.366   2.929
 7818SOL    HW124353   4.260   0.455   2.927
 7818SOL    HW224354   4.282   0.294   2.942
 7819SOL     OW24355   0.440   3.864   3.946
 7819SOL    HW124356   0.484   3.805   3.878
 7819SOL    HW224357   0.510   3.910   4.001
 7820SOL     OW24358   1.867   1.271   5.705
 7820SOL    HW124359   1.843   1.274   5.802
 7820SOL    HW224360   1.840   1.183   5.666
 7821SOL     OW24361   5.830   6.201   0.780
 7821SOL    HW124362   5.801   6.147   0.859
 7821SOL    HW224363   5.788   6.292   0.786
 7822SOL     OW24364   1.502   1.434   6.277
 7822SOL    HW124365   1.459   1.373   6.343
 7822SOL    HW224366   1.440   1.448   6.200
 7823SOL     OW24367   2.223   3.767   6.234
 7823SOL    HW124368   2.233   3.752   6.333
 7823SOL    HW224369   2.312   3.792   6.195
 7824SOL     OW24370   5.325   0.639   4.912
 7824SOL    HW124371   5.347   0.542   4.897
 7824SOL    HW224372   5.388   0.678   4.978
 7825SOL     OW24373   1.540   3.095   1.087
 7825SOL    HW124374   1.523   3.092   1.185
 7825SOL    HW224375   1.582   3.183   1.063
 7826SOL     OW24376   4.974   1.894   6.556
 7826SOL    HW124377   4.967   1.874   6.458
 7826SOL    HW224378   4.968   1.992   6.571
 7827SOL     OW24379   2.946   4.694   1.105
 7827SOL    HW124380   3.032   4.698   1.155
 7827SOL    HW224381   2.929   4.782   1.060
 7828SOL     OW24382   0.328   5.360   0.958
 7828SOL    HW124383   0.355   5.339   0.864
 7828SOL    HW224384   0.348   5.282   1.017
 7829SOL     OW24385   2.131   2.823   0.206
 7829SOL    HW124386   2.226   2.834   0.177
 7829SOL    HW224387   2.080   2.907   0.185
 7830SOL     OW24388   5.176   3.756   5.868
 7830SOL    HW124389   5.196   3.673   5.920
 7830SOL    HW224390   5.221   3.834   5.911
 7831SOL     OW24391   1.505   5.487   0.541
 7831SOL    HW124392   1.474   5.428   0.616
 7831SOL    HW224393   1.555   5.565   0.578
 7832SOL     OW24394   3.337   1.290   4.345
 7832SOL    HW124395   3.257   1.266   4.291
 7832SOL    HW224396   3.309   1.319   4.436
 7833SOL     OW24397   0.416   0.699   6.978
 7833SOL    HW124398   0.339   0.706   6.914
 7833SOL    HW224399   0.383   0.659   0.041
 7834SOL     OW24400   0.664   1.706   3.187
 7834SOL    HW124401   0.736   1.686   3.253
 7834SOL    HW224402   0.599   1.770   3.228
 7835SOL     OW24403   1.729   2.256   4.895
 7835SOL    HW124404   1.809   2.243   4.954
 7835SOL    HW224405   1.688   2.345   4.914
 7836SOL     OW24406   3.716   1.969   6.575
 7836SOL    HW124407   3.708   1.898   6.644
 7836SOL    HW224408   3.636   2.030   6.580
 7837SOL     OW24409   6.363   6.490   1.703
 7837SOL    HW124410   6.381   6.481   1.801
 7837SOL    HW224411   6.450   6.507   1.655
 7838SOL     OW24412   4.211   6.018   6.958
 7838SOL    HW124413   4.276   5.942   6.957
 7838SOL    HW224414   4.260   6.104   6.974
 7839SOL     OW24415   6.631   4.937   5.953
 7839SOL    HW124416   6.544   4.947   5.905
 7839SOL    HW224417   6.649   4.840   5.969
 7840SOL     OW24418   5.258   3.495   4.444
 7840SOL    HW124419   5.261   3.428   4.370
 7840SOL    HW224420   5.351   3.523   4.468
 7841SOL     OW24421   5.697   1.030   0.175
 7841SOL    HW124422   5.757   0.977   0.234
 7841SOL    HW224423   5.750   1.069   0.100
 7842SOL     OW24424   2.082   1.789   3.323
 7842SOL    HW124425   2.091   1.889   3.319
 7842SOL    HW224426   2.168   1.747   3.294
 7843SOL     OW24427   5.273   4.362   1.699
 7843SOL    HW124428   5.242   4.453   1.674
 7843SOL    HW224429   5.364   4.368   1.740
 7844SOL     OW24430   4.016   0.221   3.724
 7844SOL    HW124431   3.998   0.274   3.807
 7844SOL    HW224432   4.110   0.240   3.694
 7845SOL     OW24433   6.968   1.110   3.829
 7845SOL    HW124434   7.001   1.159   3.748
 7845SOL    HW224435   6.896   1.163   3.873
 7846SOL     OW24436   1.437   0.650   1.593
 7846SOL    HW124437   1.371   0.674   1.521
 7846SOL    HW224438   1.446   0.727   1.656
 7847SOL     OW24439   6.665   1.765   1.612
 7847SOL    HW124440   6.703   1.696   1.672
 7847SOL    HW224441   6.567   1.775   1.629
 7848SOL     OW24442   3.196   3.908   1.095
 7848SOL    HW124443   3.203   3.972   1.171
 7848SOL    HW224444   3.104   3.911   1.057
 7849SOL     OW24445   5.247   3.674   4.152
 7849SOL    HW124446   5.182   3.667   4.076
 7849SOL    HW224447   5.204   3.639   4.235
 7850SOL     OW24448   0.172   1.536   4.087
 7850SOL    HW124449   0.112   1.615   4.102
 7850SOL    HW224450   0.230   1.523   4.167
 7851SOL     OW24451   6.629   0.251   0.708
 7851SOL    HW124452   6.613   0.345   0.676
 7851SOL    HW224453   6.541   0.204   0.718
 7852SOL     OW24454   3.013   0.233   5.936
 7852SOL    HW124455   2.949   0.278   5.997
 7852SOL    HW224456   3.072   0.302   5.893
 7853SOL     OW24457   4.091   1.584   1.807
 7853SOL    HW124458   4.181   1.567   1.847
 7853SOL    HW224459   4.100   1.603   1.710
 7854SOL     OW24460   3.425   4.266   1.016
 7854SOL    HW124461   3.362   4.247   0.941
 7854SOL    HW224462   3.373   4.284   1.099
 7855SOL     OW24463   3.867   5.880   5.852
 7855SOL    HW124464   3.779   5.921   5.830
 7855SOL    HW224465   3.853   5.799   5.909
 7856SOL     OW24466   5.789   4.993   3.766
 7856SOL    HW124467   5.769   4.918   3.703
 7856SOL    HW224468   5.763   4.967   3.859
 7857SOL     OW24469   6.829   3.115   5.355
 7857SOL    HW124470   6.856   3.211   5.344
 7857SOL    HW224471   6.904   3.056   5.327
 7858SOL     OW24472   4.653   5.143   3.664
 7858SOL    HW124473   4.720   5.129   3.737
 7858SOL    HW224474   4.668   5.074   3.593
 7859SOL     OW24475   6.507   4.289   5.630
 7859SOL    HW124476   6.414   4.323   5.639
 7859SOL    HW224477   6.548   4.278   5.720
 7860SOL     OW24478   3.776   6.949   2.990
 7860SOL    HW124479   3.812   6.892   2.917
 7860SOL    HW224480   3.708   6.898   3.042
 7861SOL     OW24481   3.955   5.595   1.805
 7861SOL    HW124482   3.911   5.624   1.890
 7861SOL    HW224483   3.896   5.528   1.759
 7862SOL     OW24484   3.127   4.551   1.680
 7862SOL    HW124485   3.056   4.520   1.743
 7862SOL    HW224486   3.195   4.479   1.668
 7863SOL     OW24487   6.631   6.526   4.040
 7863SOL    HW124488   6.539   6.536   4.076
 7863SOL    HW224489   6.686   6.605   4.066
 7864SOL     OW24490   6.864   6.283   6.141
 7864SOL    HW124491   6.906   6.323   6.059
 7864SOL    HW224492   6.853   6.354   6.211
 7865SOL     OW24493   4.843   6.839   3.974
 7865SOL    HW124494   4.939   6.866   3.974
 7865SOL    HW224495   4.819   6.801   3.885
 7866SOL     OW24496   2.502   2.685   0.312
 7866SOL    HW124497   2.461   2.772   0.286
 7866SOL    HW224498   2.430   2.618   0.330
 7867SOL     OW24499   4.845   5.843   2.578
 7867SOL    HW124500   4.910   5.887   2.639
 7867SOL    HW224501   4.752   5.864   2.607
 7868SOL     OW24502   5.884   6.871   2.287
 7868SOL    HW124503   5.845   6.928   2.360
 7868SOL    HW224504   5.827   6.790   2.275
 7869SOL     OW24505   5.615   3.935   0.470
 7869SOL    HW124506   5.597   3.905   0.376
 7869SOL    HW224507   5.561   4.017   0.489
 7870SOL     OW24508   5.058   5.869   4.138
 7870SOL    HW124509   5.001   5.848   4.218
 7870SOL    HW224510   5.154   5.861   4.163
 7871SOL     OW24511   6.167   3.978   2.610
 7871SOL    HW124512   6.158   3.892   2.661
 7871SOL    HW224513   6.084   3.994   2.557
 7872SOL     OW24514   1.731   4.461   2.759
 7872SOL    HW124515   1.775   4.550   2.765
 7872SOL    HW224516   1.777   4.396   2.820
 7873SOL     OW24517   5.191   0.050   5.235
 7873SOL    HW124518   5.229   0.093   5.317
 7873SOL    HW224519   5.137   0.117   5.184
 7874SOL     OW24520   4.895   0.911   0.415
 7874SOL    HW124521   4.852   0.862   0.338
 7874SOL    HW224522   4.982   0.949   0.386
 7875SOL     OW24523   4.463   2.922   6.354
 7875SOL    HW124524   4.402   2.959   6.424
 7875SOL    HW224525   4.439   2.827   6.336
 7876SOL     OW24526   0.189   0.021   5.225
 7876SOL    HW124527   0.145   0.022   5.135
 7876SOL    HW224528   0.120   0.006   5.295
 7877SOL     OW24529   0.418   2.993   2.365
 7877SOL    HW124530   0.434   2.897   2.390
 7877SOL    HW224531   0.372   2.997   2.276
 7878SOL     OW24532   4.920   4.865   4.261
 7878SOL    HW124533   4.966   4.925   4.327
 7878SOL    HW224534   4.934   4.900   4.169
 7879SOL     OW24535   4.505   5.455   3.901
 7879SOL    HW124536   4.456   5.504   3.829
 7879SOL    HW224537   4.465   5.476   3.990
 7880SOL     OW24538   0.611   5.242   0.936
 7880SOL    HW124539   0.547   5.198   0.874
 7880SOL    HW224540   0.621   5.186   1.019
 7881SOL     OW24541   6.050   3.330   4.929
 7881SOL    HW124542   6.028   3.386   4.849
 7881SOL    HW224543   6.120   3.263   4.904
 7882SOL     OW24544   1.404   2.902   2.976
 7882SOL    HW124545   1.398   2.843   2.896
 7882SOL    HW224546   1.313   2.923   3.010
 7883SOL     OW24547   1.595   6.525   1.039
 7883SOL    HW124548   1.643   6.497   0.956
 7883SOL    HW224549   1.542   6.448   1.074
 7884SOL     OW24550   1.829   4.523   4.013
 7884SOL    HW124551   1.912   4.478   3.982
 7884SOL    HW224552   1.812   4.500   4.109
 7885SOL     OW24553   6.387   5.994   2.729
 7885SOL    HW124554   6.464   5.949   2.685
 7885SOL    HW224555   6.391   6.092   2.711
 7886SOL     OW24556   4.740   3.817   1.481
 7886SOL    HW124557   4.668   3.883   1.505
 7886SOL    HW224558   4.808   3.862   1.423
 7887SOL     OW24559   3.309   2.308   5.523
 7887SOL    HW124560   3.345   2.249   5.596
 7887SOL    HW224561   3.281   2.251   5.445
 7888SOL     OW24562   0.249   0.393   4.959
 7888SOL    HW124563   0.286   0.484   4.942
 7888SOL    HW224564   0.317   0.324   4.933
 7889SOL     OW24565   0.772   4.780   0.232
 7889SOL    HW124566   0.804   4.717   0.161
 7889SOL    HW224567   0.673   4.776   0.238
 7890SOL     OW24568   0.335   3.376   3.828
 7890SOL    HW124569   0.265   3.418   3.771
 7890SOL    HW224570   0.331   3.414   3.920
 7891SOL     OW24571   1.435   3.793   4.360
 7891SOL    HW124572   1.361   3.861   4.355
 7891SOL    HW224573   1.396   3.701   4.350
 7892SOL     OW24574   1.088   2.359   3.519
 7892SOL    HW124575   1.162   2.316   3.571
 7892SOL    HW224576   1.100   2.341   3.422
 7893SOL     OW24577   6.333   6.846   2.495
 7893SOL    HW124578   6.368   6.752   2.491
 7893SOL    HW224579   6.234   6.844   2.507
 7894SOL     OW24580   2.861   1.144   1.150
 7894SOL    HW124581   2.812   1.063   1.116
 7894SOL    HW224582   2.797   1.205   1.196
 7895SOL     OW24583   4.796   6.660   5.134
 7895SOL    HW124584   4.862   6.715   5.084
 7895SOL    HW224585   4.713   6.648   5.079
 7896SOL     OW24586   5.815   3.221   1.057
 7896SOL    HW124587   5.734   3.264   1.018
 7896SOL    HW224588   5.896   3.274   1.032
 7897SOL     OW24589   3.510   2.920   1.187
 7897SOL    HW124590   3.463   3.002   1.154
 7897SOL    HW224591   3.607   2.939   1.197
 7898SOL     OW24592   3.511   0.030   4.175
 7898SOL    HW124593   3.508   6.970   4.118
 7898SOL    HW224594   3.530   0.110   4.117
 7899SOL     OW24595   6.083   7.002   1.778
 7899SOL    HW124596   6.022   6.987   1.700
 7899SOL    HW224597   6.137   6.919   1.794
 7900SOL     OW24598   0.823   4.600   1.789
 7900SOL    HW124599   0.748   4.650   1.745
 7900SOL    HW224600   0.887   4.665   1.830
 7901SOL     OW24601   4.692   0.806   5.974
 7901SOL    HW124602   4.670   0.804   6.072
 7901SOL    HW224603   4.661   0.721   5.932
 7902SOL     OW24604   6.112   5.913   3.100
 7902SOL    HW124605   6.127   6.003   3.141
 7902SOL    HW224606   6.146   5.842   3.162
 7903SOL     OW24607   4.569   2.112   2.951
 7903SOL    HW124608   4.551   2.169   3.032
 7903SOL    HW224609   4.484   2.069   2.921
 7904SOL     OW24610   5.567   0.501   2.795
 7904SOL    HW124611   5.570   0.522   2.697
 7904SOL    HW224612   5.603   0.410   2.810
 7905SOL     OW24613   5.696   1.789   0.730
 7905SOL    HW124614   5.681   1.798   0.631
 7905SOL    HW224615   5.629   1.844   0.779
 7906SOL     OW24616   1.257   5.931   0.690
 7906SOL    HW124617   1.174   5.966   0.734
 7906SOL    HW224618   1.237   5.910   0.595
 7907SOL     OW24619   6.645   0.963   3.026
 7907SOL    HW124620   6.605   0.882   3.068
 7907SOL    HW224621   6.613   0.973   2.932
 7908SOL     OW24622   0.609   1.513   6.006
 7908SOL    HW124623   0.642   1.548   6.093
 7908SOL    HW224624   0.654   1.561   5.931
 7909SOL     OW24625   5.052   4.222   3.613
 7909SOL    HW124626   5.011   4.222   3.704
 7909SOL    HW224627   5.075   4.128   3.588
 7910SOL     OW24628   1.786   3.361   0.478
 7910SOL    HW124629   1.841   3.419   0.417
 7910SOL    HW224630   1.834   3.349   0.565
 7911SOL     OW24631   1.019   4.591   1.279
 7911SOL    HW124632   0.985   4.528   1.348
 7911SOL    HW224633   1.059   4.540   1.203
 7912SOL     OW24634   6.124   4.483   1.016
 7912SOL    HW124635   6.151   4.409   1.078
 7912SOL    HW224636   6.147   4.457   0.922
 7913SOL     OW24637   1.419   4.178   1.782
 7913SOL    HW124638   1.386   4.263   1.823
 7913SOL    HW224639   1.406   4.182   1.683
 7914SOL     OW24640   0.427   4.368   1.080
 7914SOL    HW124641   0.441   4.452   1.026
 7914SOL    HW224642   0.513   4.316   1.082
 7915SOL     OW24643   4.983   1.963   2.721
 7915SOL    HW124644   4.997   1.901   2.799
 7915SOL    HW224645   4.977   2.057   2.755
 7916SOL     OW24646   0.610   6.221   5.486
 7916SOL    HW124647   0.517   6.197   5.513
 7916SOL    HW224648   0.674   6.193   5.557
 7917SOL     OW24649   4.450   3.207   5.677
 7917SOL    HW124650   4.425   3.238   5.586
 7917SOL    HW224651   4.378   3.233   5.742
 7918SOL     OW24652   6.842   0.899   4.349
 7918SOL    HW124653   6.743   0.889   4.358
 7918SOL    HW224654   6.867   0.895   4.252
 7919SOL     OW24655   1.434   4.913   2.900
 7919SOL    HW124656   1.391   4.823   2.902
 7919SOL    HW224657   1.501   4.917   2.825
 7920SOL     OW24658   6.017   6.533   1.398
 7920SOL    HW124659   5.947   6.537   1.469
 7920SOL    HW224660   6.015   6.617   1.344
 7921SOL     OW24661   5.804   6.434   2.531
 7921SOL    HW124662   5.893   6.423   2.576
 7921SOL    HW224663   5.731   6.409   2.595
 7922SOL     OW24664   0.499   5.888   6.751
 7922SOL    HW124665   0.585   5.864   6.796
 7922SOL    HW224666   0.458   5.967   6.797
 7923SOL     OW24667   3.870   1.312   5.946
 7923SOL    HW124668   3.837   1.392   5.996
 7923SOL    HW224669   3.916   1.250   6.009
 7924SOL     OW24670   4.398   0.261   0.979
 7924SOL    HW124671   4.326   0.279   1.045
 7924SOL    HW224672   4.391   0.167   0.946
 7925SOL     OW24673   1.093   0.002   0.432
 7925SOL    HW124674   1.091   6.962   0.510
 7925SOL    HW224675   1.002   0.041   0.418
 7926SOL     OW24676   5.186   1.571   6.828
 7926SOL    HW124677   5.095   1.580   6.869
 7926SOL    HW224678   5.206   1.475   6.811
 7927SOL     OW24679   4.891   0.091   2.287
 7927SOL    HW124680   4.795   0.066   2.273
 7927SOL    HW224681   4.933   0.027   2.351
 7928SOL     OW24682   0.392   1.775   4.153
 7928SOL    HW124683   0.308   1.723   4.144
 7928SOL    HW224684   0.460   1.740   4.089
 7929SOL     OW24685   3.751   3.623   5.859
 7929SOL    HW124686   3.778   3.627   5.762
 7929SOL    HW224687   3.705   3.708   5.883
 7930SOL     OW24688   4.327   5.029   5.805
 7930SOL    HW124689   4.421   5.007   5.833
 7930SOL    HW224690   4.313   5.128   5.812
 7931SOL     OW24691   4.345   2.755   0.802
 7931SOL    HW124692   4.339   2.669   0.751
 7931SOL    HW224693   4.274   2.757   0.872
 7932SOL     OW24694   1.350   5.457   6.575
 7932SOL    HW124695   1.385   5.536   6.523
 7932SOL    HW224696   1.395   5.374   6.543
 7933SOL     OW24697   6.703   0.355   5.701
 7933SOL    HW124698   6.795   0.317   5.702
 7933SOL    HW224699   6.638   0.286   5.735
 7934SOL     OW24700   1.624   5.096   6.827
 7934SOL    HW124701   1.622   5.004   6.789
 7934SOL    HW224702   1.685   5.153   6.772
 7935SOL     OW24703   5.388   6.262   1.379
 7935SOL    HW124704   5.386   6.296   1.473
 7935SOL    HW224705   5.469   6.204   1.366
 7936SOL     OW24706   3.068   5.884   3.150
 7936SOL    HW124707   2.981   5.925   3.177
 7936SOL    HW224708   3.060   5.784   3.152
 7937SOL     OW24709   0.894   5.837   3.998
 7937SOL    HW124710   0.853   5.878   3.916
 7937SOL    HW224711   0.938   5.908   4.052
 7938SOL     OW24712   6.011   6.013   5.435
 7938SOL    HW124713   6.084   6.080   5.450
 7938SOL    HW224714   6.010   5.946   5.510
 7939SOL     OW24715   1.711   2.341   6.056
 7939SOL    HW124716   1.802   2.308   6.030
 7939SOL    HW224717   1.704   2.344   6.156
 7940SOL     OW24718   2.624   2.313   2.780
 7940SOL    HW124719   2.617   2.245   2.853
 7940SOL    HW224720   2.705   2.294   2.725
 7941SOL     OW24721   5.383   6.164   2.514
 7941SOL    HW124722   5.465   6.110   2.533
 7941SOL    HW224723   5.407   6.246   2.464
 7942SOL     OW24724   0.703   3.899   2.890
 7942SOL    HW124725   0.756   3.920   2.972
 7942SOL    HW224726   0.749   3.828   2.837
 7943SOL     OW24727   0.672   4.439   5.824
 7943SOL    HW124728   0.750   4.382   5.800
 7943SOL    HW224729   0.659   4.509   5.754
 7944SOL     OW24730   0.607   2.811   1.036
 7944SOL    HW124731   0.627   2.823   0.939
 7944SOL    HW224732   0.677   2.858   1.090
 7945SOL     OW24733   6.388   6.024   1.697
 7945SOL    HW124734   6.394   5.924   1.704
 7945SOL    HW224735   6.437   6.054   1.615
 7946SOL     OW24736   3.548   0.426   5.892
 7946SOL    HW124737   3.516   0.444   5.985
 7946SOL    HW224738   3.489   0.472   5.826
 7947SOL     OW24739   2.545   1.733   5.336
 7947SOL    HW124740   2.627   1.734   5.279
 7947SOL    HW224741   2.528   1.825   5.372
 7948SOL     OW24742   0.974   6.005   0.771
 7948SOL    HW124743   0.952   5.953   0.688
 7948SOL    HW224744   0.909   5.981   0.843
 7949SOL     OW24745   4.515   3.888   6.086
 7949SOL    HW124746   4.608   3.908   6.117
 7949SOL    HW224747   4.453   3.960   6.115
 7950SOL     OW24748   4.983   5.827   4.413
 7950SOL    HW124749   5.035   5.849   4.496
 7950SOL    HW224750   4.893   5.870   4.418
 7951SOL     OW24751   1.756   4.980   1.887
 7951SOL    HW124752   1.830   5.029   1.840
 7951SOL    HW224753   1.690   5.046   1.923
 7952SOL     OW24754   0.456   3.330   0.181
 7952SOL    HW124755   0.408   3.242   0.177
 7952SOL    HW224756   0.547   3.320   0.141
 7953SOL     OW24757   4.271   2.318   2.227
 7953SOL    HW124758   4.255   2.417   2.219
 7953SOL    HW224759   4.194   2.276   2.274
 7954SOL     OW24760   3.702   4.398   6.104
 7954SOL    HW124761   3.684   4.329   6.174
 7954SOL    HW224762   3.615   4.437   6.073
 7955SOL     OW24763   1.914   0.928   6.553
 7955SOL    HW124764   2.008   0.960   6.562
 7955SOL    HW224765   1.897   0.900   6.458
 7956SOL     OW24766   5.140   0.411   2.183
 7956SOL    HW124767   5.041   0.405   2.184
 7956SOL    HW224768   5.171   0.444   2.093
 7957SOL     OW24769   1.532   0.810   0.177
 7957SOL    HW124770   1.438   0.805   0.142
 7957SOL    HW224771   1.531   0.842   0.271
 7958SOL     OW24772   4.781   5.038   6.119
 7958SOL    HW124773   4.753   4.944   6.095
 7958SOL    HW224774   4.819   5.082   6.038
 7959SOL     OW24775   4.834   6.549   0.678
 7959SOL    HW124776   4.926   6.511   0.678
 7959SOL    HW224777   4.779   6.506   0.750
 7960SOL     OW24778   2.345   0.596   6.041
 7960SOL    HW124779   2.414   0.586   5.970
 7960SOL    HW224780   2.357   0.684   6.087
 7961SOL     OW24781   6.563   0.517   0.605
 7961SOL    HW124782   6.629   0.573   0.554
 7961SOL    HW224783   6.473   0.527   0.564
 7962SOL     OW24784   0.693   1.040   5.552
 7962SOL    HW124785   0.745   0.962   5.516
 7962SOL    HW224786   0.604   1.045   5.505
 7963SOL     OW24787   6.161   5.629   4.712
 7963SOL    HW124788   6.169   5.535   4.747
 7963SOL    HW224789   6.171   5.694   4.787
 7964SOL     OW24790   6.951   3.575   2.683
 7964SOL    HW124791   0.000   3.548   2.618
 7964SOL    HW224792   6.912   3.662   2.654
 7965SOL     OW24793   3.917   2.199   5.961
 7965SOL    HW124794   3.999   2.245   5.994
 7965SOL    HW224795   3.932   2.167   5.867
 7966SOL     OW24796   2.974   3.257   5.941
 7966SOL    HW124797   2.967   3.166   5.984
 7966SOL    HW224798   2.897   3.314   5.972
 7967SOL     OW24799   2.902   5.643   1.751
 7967SOL    HW124800   2.986   5.604   1.713
 7967SOL    HW224801   2.851   5.572   1.800
 7968SOL     OW24802   6.357   2.416   4.362
 7968SOL    HW124803   6.291   2.351   4.324
 7968SOL    HW224804   6.349   2.503   4.314
 7969SOL     OW24805   6.048   5.613   1.157
 7969SOL    HW124806   6.110   5.679   1.115
 7969SOL    HW224807   6.100   5.546   1.209
 7970SOL     OW24808   6.200   3.409   2.051
 7970SOL    HW124809   6.174   3.409   1.955
 7970SOL    HW224810   6.242   3.321   2.074
 7971SOL     OW24811   3.056   1.720   1.163
 7971SOL    HW124812   3.098   1.643   1.212
 7971SOL    HW224813   3.071   1.709   1.065
 7972SOL     OW24814   3.192   3.259   1.101
 7972SOL    HW124815   3.157   3.204   1.176
 7972SOL    HW224816   3.155   3.351   1.107
 7973SOL     OW24817   4.783   4.510   4.071
 7973SOL    HW124818   4.711   4.556   4.121
 7973SOL    HW224819   4.862   4.496   4.130
 7974SOL     OW24820   6.001   0.881   5.490
 7974SOL    HW124821   5.955   0.959   5.532
 7974SOL    HW224822   6.029   0.817   5.561
 7975SOL     OW24823   6.042   0.844   1.310
 7975SOL    HW124824   6.099   0.852   1.228
 7975SOL    HW224825   6.067   0.761   1.360
 7976SOL     OW24826   1.286   0.285   6.081
 7976SOL    HW124827   1.237   0.366   6.114
 7976SOL    HW224828   1.235   0.203   6.108
 7977SOL     OW24829   4.324   5.537   3.039
 7977SOL    HW124830   4.267   5.576   3.113
 7977SOL    HW224831   4.419   5.562   3.054
 7978SOL     OW24832   6.905   2.870   6.376
 7978SOL    HW124833   6.863   2.952   6.337
 7978SOL    HW224834   6.835   2.801   6.391
 7979SOL     OW24835   3.367   5.200   5.408
 7979SOL    HW124836   3.369   5.299   5.404
 7979SOL    HW224837   3.460   5.165   5.420
 7980SOL     OW24838   3.226   5.170   6.514
 7980SOL    HW124839   3.288   5.093   6.500
 7980SOL    HW224840   3.212   5.185   6.611
 7981SOL     OW24841   0.964   4.520   2.193
 7981SOL    HW124842   1.048   4.552   2.236
 7981SOL    HW224843   0.906   4.599   2.172
 7982SOL     OW24844   1.616   1.769   0.066
 7982SOL    HW124845   1.545   1.706   0.098
 7982SOL    HW224846   1.704   1.722   0.065
 7983SOL     OW24847   5.912   2.086   0.673
 7983SOL    HW124848   5.927   2.022   0.598
 7983SOL    HW224849   5.915   2.180   0.638
 7984SOL     OW24850   0.735   1.339   0.649
 7984SOL    HW124851   0.792   1.347   0.567
 7984SOL    HW224852   0.741   1.246   0.685
 7985SOL     OW24853   2.657   2.255   4.811
 7985SOL    HW124854   2.627   2.305   4.892
 7985SOL    HW224855   2.609   2.290   4.731
 7986SOL     OW24856   2.674   0.622   6.379
 7986SOL    HW124857   2.681   0.523   6.377
 7986SOL    HW224858   2.753   0.661   6.427
 7987SOL     OW24859   1.897   2.361   6.933
 7987SOL    HW124860   1.937   2.328   6.848
 7987SOL    HW224861   1.939   2.313   7.011
 7988SOL     OW24862   1.609   0.872   2.447
 7988SOL    HW124863   1.530   0.895   2.391
 7988SOL    HW224864   1.667   0.807   2.397
 7989SOL     OW24865   2.872   2.922   0.474
 7989SOL    HW124866   2.883   2.831   0.514
 7989SOL    HW224867   2.804   2.918   0.401
 7990SOL     OW24868   2.214   5.433   4.525
 7990SOL    HW124869   2.186   5.469   4.614
 7990SOL    HW224870   2.202   5.504   4.456
 7991SOL     OW24871   6.018   1.260   3.718
 7991SOL    HW124872   6.080   1.251   3.796
 7991SOL    HW224873   5.931   1.215   3.740
 7992SOL     OW24874   1.141   0.567   0.098
 7992SOL    HW124875   1.145   0.543   0.195
 7992SOL    HW224876   1.052   0.608   0.077
 7993SOL     OW24877   0.428   6.960   0.980
 7993SOL    HW124878   0.442   6.890   1.051
 7993SOL    HW224879   0.485   0.017   0.999
 7994SOL     OW24880   3.773   0.105   3.700
 7994SOL    HW124881   3.797   0.049   3.621
 7994SOL    HW224882   3.855   0.148   3.736
 7995SOL     OW24883   5.898   5.530   3.534
 7995SOL    HW124884   5.845   5.477   3.468
 7995SOL    HW224885   5.944   5.468   3.597
 7996SOL     OW24886   3.514   6.412   4.239
 7996SOL    HW124887   3.575   6.381   4.166
 7996SOL    HW224888   3.513   6.346   4.314
 7997SOL     OW24889   6.677   1.084   0.276
 7997SOL    HW124890   6.586   1.091   0.317
 7997SOL    HW224891   6.699   1.169   0.228
 7998SOL     OW24892   3.179   0.344   0.471
 7998SOL    HW124893   3.148   0.310   0.560
 7998SOL    HW224894   3.278   0.330   0.463
 7999SOL     OW24895   0.435   1.057   5.743
 7999SOL    HW124896   0.417   1.152   5.765
 7999SOL    HW224897   0.482   1.051   5.654
 8000SOL     OW24898   4.991   6.997   6.660
 8000SOL    HW124899   4.911   6.939   6.646
 8000SOL    HW224900   5.040   6.968   6.741
 8001SOL     OW24901   4.208   6.045   2.013
 8001SOL    HW124902   4.268   6.055   1.933
 8001SOL    HW224903   4.259   6.069   2.095
 8002SOL     OW24904   1.524   0.568   6.386
 8002SOL    HW124905   1.603   0.520   6.348
 8002SOL    HW224906   1.542   0.666   6.387
 8003SOL     OW24907   2.493   5.669   1.564
 8003SOL    HW124908   2.532   5.610   1.493
 8003SOL    HW224909   2.555   5.745   1.581
 8004SOL     OW24910   2.143   3.340   3.242
 8004SOL    HW124911   2.215   3.310   3.179
 8004SOL    HW224912   2.091   3.261   3.273
 8005SOL     OW24913   3.261   0.973   3.324
 8005SOL    HW124914   3.186   1.018   3.372
 8005SOL    HW224915   3.242   0.875   3.318
 8006SOL     OW24916   2.446   5.948   5.230
 8006SOL    HW124917   2.359   5.901   5.214
 8006SOL    HW224918   2.428   6.043   5.256
 8007SOL     OW24919   5.504   1.408   5.992
 8007SOL    HW124920   5.535   1.497   6.026
 8007SOL    HW224921   5.505   1.342   6.068
 8008SOL     OW24922   3.884   6.215   6.541
 8008SOL    HW124923   3.874   6.304   6.586
 8008SOL    HW224924   3.793   6.174   6.529
 8009SOL     OW24925   5.509   0.808   1.143
 8009SOL    HW124926   5.518   0.721   1.191
 8009SOL    HW224927   5.477   0.791   1.049
 8010SOL     OW24928   2.092   1.712   5.276
 8010SOL    HW124929   2.040   1.628   5.260
 8010SOL    HW224930   2.177   1.710   5.223
 8011SOL     OW24931   3.194   1.955   1.144
 8011SOL    HW124932   3.292   1.952   1.164
 8011SOL    HW224933   3.155   1.864   1.155
 8012SOL     OW24934   2.485   3.721   0.412
 8012SOL    HW124935   2.385   3.725   0.404
 8012SOL    HW224936   2.510   3.685   0.502
 8013SOL     OW24937   1.174   5.504   3.321
 8013SOL    HW124938   1.267   5.529   3.347
 8013SOL    HW224939   1.145   5.562   3.245
 8014SOL     OW24940   1.521   6.776   4.581
 8014SOL    HW124941   1.547   6.770   4.484
 8014SOL    HW224942   1.423   6.791   4.588
 8015SOL     OW24943   2.169   0.702   6.669
 8015SOL    HW124944   2.252   0.738   6.712
 8015SOL    HW224945   2.192   0.622   6.614
 8016SOL     OW24946   3.819   0.786   5.606
 8016SOL    HW124947   3.769   0.701   5.623
 8016SOL    HW224948   3.803   0.850   5.680
 8017SOL     OW24949   5.532   6.936   0.404
 8017SOL    HW124950   5.556   6.984   0.488
 8017SOL    HW224951   5.563   6.989   0.325
 8018SOL     OW24952   3.458   2.474   0.265
 8018SOL    HW124953   3.517   2.483   0.346
 8018SOL    HW224954   3.449   2.377   0.242
 8019SOL     OW24955   2.381   4.831   1.404
 8019SOL    HW124956   2.432   4.776   1.470
 8019SOL    HW224957   2.418   4.815   1.312
 8020SOL     OW24958   6.246   0.165   6.588
 8020SOL    HW124959   6.192   0.244   6.618
 8020SOL    HW224960   6.340   0.175   6.618
 8021SOL     OW24961   1.310   3.003   0.710
 8021SOL    HW124962   1.351   2.925   0.663
 8021SOL    HW224963   1.336   3.088   0.664
 8022SOL     OW24964   6.005   0.449   2.135
 8022SOL    HW124965   5.980   0.432   2.230
 8022SOL    HW224966   5.982   0.543   2.111
 8023SOL     OW24967   5.896   4.861   2.550
 8023SOL    HW124968   5.851   4.889   2.465
 8023SOL    HW224969   5.910   4.762   2.548
 8024SOL     OW24970   1.383   5.286   5.933
 8024SOL    HW124971   1.367   5.208   5.994
 8024SOL    HW224972   1.383   5.255   5.838
 8025SOL     OW24973   2.426   5.643   1.035
 8025SOL    HW124974   2.348   5.602   0.988
 8025SOL    HW224975   2.444   5.593   1.119
 8026SOL     OW24976   0.004   4.113   1.032
 8026SOL    HW124977   0.081   4.164   1.069
 8026SOL    HW224978   6.941   4.151   1.067
 8027SOL     OW24979   3.681   0.417   5.473
 8027SOL    HW124980   3.667   0.318   5.479
 8027SOL    HW224981   3.648   0.450   5.384
 8028SOL     OW24982   4.238   5.088   5.041
 8028SOL    HW124983   4.228   5.014   4.974
 8028SOL    HW224984   4.148   5.127   5.060
 8029SOL     OW24985   5.349   2.909   1.963
 8029SOL    HW124986   5.383   2.984   1.906
 8029SOL    HW224987   5.269   2.868   1.918
 8030SOL     OW24988   5.492   4.913   0.221
 8030SOL    HW124989   5.433   4.965   0.160
 8030SOL    HW224990   5.437   4.847   0.273
 8031SOL     OW24991   6.646   6.167   2.309
 8031SOL    HW124992   6.710   6.217   2.367
 8031SOL    HW224993   6.658   6.195   2.214
 8032SOL     OW24994   6.038   4.129   2.026
 8032SOL    HW124995   5.966   4.139   1.957
 8032SOL    HW224996   6.126   4.151   1.985
 8033SOL     OW24997   4.430   2.166   6.654
 8033SOL    HW124998   4.522   2.142   6.622
 8033SOL    HW224999   4.416   2.264   6.644
 8034SOL     OW25000   4.620   0.189   5.147
 8034SOL    HW125001   4.573   0.268   5.108
 8034SOL    HW225002   4.668   0.217   5.230
 8035SOL     OW25003   5.248   1.712   2.235
 8035SOL    HW125004   5.256   1.806   2.203
 8035SOL    HW225005   5.160   1.675   2.206
 8036SOL     OW25006   6.632   3.855   3.944
 8036SOL    HW125007   6.686   3.774   3.966
 8036SOL    HW225008   6.620   3.910   4.027
 8037SOL     OW25009   2.425   3.410   6.944
 8037SOL    HW125010   2.332   3.386   6.916
 8037SOL    HW225011   2.475   3.447   6.865
 8038SOL     OW25012   4.422   6.922   2.125
 8038SOL    HW125013   4.505   6.870   2.142
 8038SOL    HW225014   4.436   7.018   2.150
 8039SOL     OW25015   6.952   1.692   4.883
 8039SOL    HW125016   6.857   1.721   4.874
 8039SOL    HW225017   6.957   1.592   4.876
 8040SOL     OW25018   1.491   5.664   0.111
 8040SOL    HW125019   1.537   5.746   0.076
 8040SOL    HW225020   1.501   5.590   0.045
 8041SOL     OW25021   3.121   0.882   3.096
 8041SOL    HW125022   3.198   0.828   3.062
 8041SOL    HW225023   3.154   0.957   3.152
 8042SOL     OW25024   3.774   3.001   5.404
 8042SOL    HW125025   3.811   2.948   5.481
 8042SOL    HW225026   3.719   3.077   5.440
 8043SOL     OW25027   3.744   5.435   0.549
 8043SOL    HW125028   3.807   5.437   0.472
 8043SOL    HW225029   3.744   5.524   0.595
 8044SOL     OW25030   4.447   3.246   1.022
 8044SOL    HW125031   4.357   3.250   0.978
 8044SOL    HW225032   4.510   3.306   0.973
 8045SOL     OW25033   5.916   2.182   2.681
 8045SOL    HW125034   5.890   2.085   2.684
 8045SOL    HW225035   5.997   2.192   2.623
 8046SOL     OW25036   1.202   4.590   2.298
 8046SOL    HW125037   1.247   4.679   2.301
 8046SOL    HW225038   1.143   4.580   2.378
 8047SOL     OW25039   3.750   5.678   6.394
 8047SOL    HW125040   3.673   5.615   6.379
 8047SOL    HW225041   3.833   5.625   6.410
 8048SOL     OW25042   4.106   1.826   6.992
 8048SOL    HW125043   4.151   1.801   6.907
 8048SOL    HW225044   4.007   1.832   6.977
 8049SOL     OW25045   0.896   6.857   0.149
 8049SOL    HW125046   0.894   6.933   0.084
 8049SOL    HW225047   0.949   6.782   0.111
 8050SOL     OW25048   1.843   3.313   3.660
 8050SOL    HW125049   1.889   3.266   3.735
 8050SOL    HW225050   1.905   3.320   3.581
 8051SOL     OW25051   4.751   6.489   4.698
 8051SOL    HW125052   4.845   6.504   4.728
 8051SOL    HW225053   4.716   6.404   4.737
 8052SOL     OW25054   2.584   1.781   1.273
 8052SOL    HW125055   2.553   1.819   1.360
 8052SOL    HW225056   2.584   1.852   1.203
 8053SOL     OW25057   3.703   2.917   4.725
 8053SOL    HW125058   3.633   2.943   4.658
 8053SOL    HW225059   3.661   2.862   4.797
 8054SOL     OW25060   6.859   3.931   4.930
 8054SOL    HW125061   6.775   3.922   4.876
 8054SOL    HW225062   6.906   4.016   4.905
 8055SOL     OW25063   6.976   0.857   5.666
 8055SOL    HW125064   6.883   0.874   5.631
 8055SOL    HW225065   6.975   0.775   5.724
 8056SOL     OW25066   3.116   0.973   4.736
 8056SOL    HW125067   3.028   1.003   4.699
 8056SOL    HW225068   3.104   0.886   4.783
 8057SOL     OW25069   3.082   2.157   3.433
 8057SOL    HW125070   3.077   2.057   3.428
 8057SOL    HW225071   3.177   2.186   3.424
 8058SOL     OW25072   3.520   7.009   3.276
 8058SOL    HW125073   3.567   0.038   3.348
 8058SOL    HW225074   3.548   0.022   3.186
 8059SOL     OW25075   2.607   1.548   4.566
 8059SOL    HW125076   2.538   1.535   4.637
 8059SOL    HW225077   2.564   1.588   4.485
 8060SOL     OW25078   6.977   2.509   6.500
 8060SOL    HW125079   7.020   2.594   6.531
 8060SOL    HW225080   7.003   2.435   6.562
 8061SOL     OW25081   0.342   0.416   2.772
 8061SOL    HW125082   0.413   0.435   2.705
 8061SOL    HW225083   0.279   0.348   2.736
 8062SOL     OW25084   3.895   4.827   3.539
 8062SOL    HW125085   3.925   4.855   3.448
 8062SOL    HW225086   3.797   4.806   3.537
 8063SOL     OW25087   2.263   1.859   2.867
 8063SOL    HW125088   2.171   1.821   2.856
 8063SOL    HW225089   2.261   1.933   2.933
 8064SOL     OW25090   5.983   2.429   1.135
 8064SOL    HW125091   5.980   2.355   1.067
 8064SOL    HW225092   6.019   2.393   1.221
 8065SOL     OW25093   2.969   5.709   3.986
 8065SOL    HW125094   2.884   5.663   4.013
 8065SOL    HW225095   2.972   5.719   3.887
 8066SOL     OW25096   0.351   0.798   5.400
 8066SOL    HW125097   0.311   0.733   5.336
 8066SOL    HW225098   0.326   0.773   5.494
 8067SOL     OW25099   5.212   2.607   2.824
 8067SOL    HW125100   5.209   2.596   2.724
 8067SOL    HW225101   5.132   2.659   2.854
 8068SOL     OW25102   0.093   4.547   1.648
 8068SOL    HW125103   0.050   4.491   1.577
 8068SOL    HW225104   0.191   4.553   1.631
 8069SOL     OW25105   2.070   5.410   1.305
 8069SOL    HW125106   2.156   5.422   1.355
 8069SOL    HW225107   2.000   5.469   1.345
 8070SOL     OW25108   4.218   3.371   0.571
 8070SOL    HW125109   4.246   3.378   0.476
 8070SOL    HW225110   4.191   3.462   0.604
 8071SOL     OW25111   3.225   6.517   5.368
 8071SOL    HW125112   3.222   6.419   5.385
 8071SOL    HW225113   3.239   6.534   5.270
 8072SOL     OW25114   3.643   1.727   0.569
 8072SOL    HW125115   3.552   1.761   0.592
 8072SOL    HW225116   3.698   1.721   0.652
 8073SOL     OW25117   4.032   6.082   5.198
 8073SOL    HW125118   4.090   6.000   5.205
 8073SOL    HW225119   3.968   6.084   5.275
 8074SOL     OW25120   3.064   2.933   0.911
 8074SOL    HW125121   2.977   2.883   0.913
 8074SOL    HW225122   3.140   2.869   0.915
 8075SOL     OW25123   6.625   6.979   0.648
 8075SOL    HW125124   6.565   0.037   0.653
 8075SOL    HW225125   6.627   6.945   0.554
 8076SOL     OW25126   5.923   0.131   5.691
 8076SOL    HW125127   5.948   0.094   5.781
 8076SOL    HW225128   5.942   0.230   5.690
 8077SOL     OW25129   3.637   6.359   2.393
 8077SOL    HW125130   3.660   6.456   2.397
 8077SOL    HW225131   3.596   6.339   2.304
 8078SOL     OW25132   0.463   1.896   0.740
 8078SOL    HW125133   0.400   1.866   0.811
 8078SOL    HW225134   0.428   1.978   0.696
 8079SOL     OW25135   6.431   1.345   3.491
 8079SOL    HW125136   6.527   1.355   3.519
 8079SOL    HW225137   6.406   1.248   3.489
 8080SOL     OW25138   1.025   2.480   2.545
 8080SOL    HW125139   1.101   2.497   2.608
 8080SOL    HW225140   0.976   2.397   2.574
 8081SOL     OW25141   6.218   5.526   6.127
 8081SOL    HW125142   6.250   5.432   6.116
 8081SOL    HW225143   6.295   5.589   6.117
 8082SOL     OW25144   3.770   1.150   2.117
 8082SOL    HW125145   3.781   1.211   2.039
 8082SOL    HW225146   3.860   1.115   2.144
 8083SOL     OW25147   4.808   2.866   3.469
 8083SOL    HW125148   4.795   2.965   3.483
 8083SOL    HW225149   4.818   2.822   3.558
 8084SOL     OW25150   3.525   6.924   6.634
 8084SOL    HW125151   3.607   6.891   6.680
 8084SOL    HW225152   3.529   0.001   6.624
 8085SOL     OW25153   6.006   6.575   2.124
 8085SOL    HW125154   5.928   6.579   2.187
 8085SOL    HW225155   6.058   6.492   2.142
 8086SOL     OW25156   6.603   0.724   2.403
 8086SOL    HW125157   6.605   0.666   2.321
 8086SOL    HW225158   6.513   0.718   2.446
 8087SOL     OW25159   2.033   0.140   6.994
 8087SOL    HW125160   2.029   0.048   0.011
 8087SOL    HW225161   2.106   0.145   6.926
 8088SOL     OW25162   5.818   0.999   1.304
 8088SOL    HW125163   5.820   1.092   1.268
 8088SOL    HW225164   5.911   0.962   1.307
 8089SOL     OW25165   5.591   2.724   0.468
 8089SOL    HW125166   5.595   2.731   0.568
 8089SOL    HW225167   5.498   2.746   0.438
 8090SOL     OW25168   3.274   1.232   6.710
 8090SOL    HW125169   3.291   1.290   6.789
 8090SOL    HW225170   3.277   1.136   6.738
 8091SOL     OW25171   1.942   4.068   4.880
 8091SOL    HW125172   2.012   3.996   4.880
 8091SOL    HW225173   1.880   4.055   4.957
 8092SOL     OW25174   5.270   1.816   5.723
 8092SOL    HW125175   5.311   1.875   5.653
 8092SOL    HW225176   5.186   1.775   5.688
 8093SOL     OW25177   2.778   5.165   3.289
 8093SOL    HW125178   2.680   5.146   3.297
 8093SOL    HW225179   2.830   5.093   3.335
 8094SOL     OW25180   0.195   3.086   4.749
 8094SOL    HW125181   0.185   3.016   4.679
 8094SOL    HW225182   0.220   3.173   4.706
 8095SOL     OW25183   0.644   4.647   4.679
 8095SOL    HW125184   0.672   4.740   4.656
 8095SOL    HW225185   0.712   4.582   4.645
 8096SOL     OW25186   2.359   0.053   2.837
 8096SOL    HW125187   2.412   0.078   2.756
 8096SOL    HW225188   2.270   0.098   2.834
 8097SOL     OW25189   4.110   6.925   4.917
 8097SOL    HW125190   4.182   6.960   4.976
 8097SOL    HW225191   4.022   6.964   4.944
 8098SOL     OW25192   1.898   6.578   3.281
 8098SOL    HW125193   1.950   6.546   3.201
 8098SOL    HW225194   1.944   6.548   3.365
 8099SOL     OW25195   4.166   6.317   4.396
 8099SOL    HW125196   4.220   6.243   4.434
 8099SOL    HW225197   4.226   6.387   4.357
 8100SOL     OW25198   0.045   0.387   6.978
 8100SOL    HW125199   0.044   0.308   0.017
 8100SOL    HW225200   0.019   0.469   0.007
 8101SOL     OW25201   1.533   5.785   1.352
 8101SOL    HW125202   1.473   5.767   1.273
 8101SOL    HW225203   1.514   5.718   1.423
 8102SOL     OW25204   0.449   4.113   3.602
 8102SOL    HW125205   0.489   4.204   3.594
 8102SOL    HW225206   0.521   4.045   3.609
 8103SOL     OW25207   2.857   7.017   1.520
 8103SOL    HW125208   2.815   0.085   1.517
 8103SOL    HW225209   2.813   6.957   1.454
 8104SOL     OW25210   1.920   0.562   6.236
 8104SOL    HW125211   1.906   0.545   6.138
 8104SOL    HW225212   1.874   0.491   6.289
 8105SOL     OW25213   0.363   3.433   3.310
 8105SOL    HW125214   0.275   3.480   3.313
 8105SOL    HW225215   0.399   3.424   3.403
 8106SOL     OW25216   3.414   5.872   3.373
 8106SOL    HW125217   3.340   5.932   3.345
 8106SOL    HW225218   3.404   5.783   3.327
 8107SOL     OW25219   0.545   4.922   4.012
 8107SOL    HW125220   0.569   5.018   4.022
 8107SOL    HW225221   0.500   4.890   4.096
 8108SOL     OW25222   6.391   3.132   6.270
 8108SOL    HW125223   6.463   3.109   6.335
 8108SOL    HW225224   6.311   3.165   6.320
 8109SOL     OW25225   6.722   3.994   5.965
 8109SOL    HW125226   6.735   4.005   6.063
 8109SOL    HW225227   6.650   3.927   5.948
 8110SOL     OW25228   3.906   5.907   2.361
 8110SOL    HW125229   3.887   6.002   2.384
 8110SOL    HW225230   3.948   5.861   2.440
 8111SOL     OW25231   5.072   1.056   4.674
 8111SOL    HW125232   4.973   1.059   4.660
 8111SOL    HW225233   5.110   0.977   4.626
 8112SOL     OW25234   2.354   2.757   4.626
 8112SOL    HW125235   2.385   2.711   4.708
 8112SOL    HW225236   2.354   2.693   4.549
 8113SOL     OW25237   1.587   3.131   0.036
 8113SOL    HW125238   1.556   3.224   0.052
 8113SOL    HW225239   1.536   3.068   0.096
 8114SOL     OW25240   1.385   3.908   2.877
 8114SOL    HW125241   1.452   3.977   2.852
 8114SOL    HW225242   1.295   3.951   2.887
 8115SOL     OW25243   3.682   0.428   6.569
 8115SOL    HW125244   3.769   0.407   6.615
 8115SOL    HW225245   3.701   0.477   6.484
 8116SOL     OW25246   4.198   4.575   0.684
 8116SOL    HW125247   4.252   4.646   0.640
 8116SOL    HW225248   4.117   4.615   0.727
 8117SOL     OW25249   2.117   6.967   3.411
 8117SOL    HW125250   2.033   7.020   3.399
 8117SOL    HW225251   2.099   6.892   3.475
 8118SOL     OW25252   5.056   4.515   6.449
 8118SOL    HW125253   4.985   4.565   6.399
 8118SOL    HW225254   5.084   4.435   6.395
 8119SOL     OW25255   5.499   5.609   6.750
 8119SOL    HW125256   5.572   5.542   6.763
 8119SOL    HW225257   5.422   5.565   6.703
 8120SOL     OW25258   2.882   5.099   1.136
 8120SOL    HW125259   2.926   5.114   1.048
 8120SOL    HW225260   2.930   5.027   1.186
 8121SOL     OW25261   6.906   4.936   2.144
 8121SOL    HW125262   6.936   5.029   2.164
 8121SOL    HW225263   6.923   4.915   2.047
 8122SOL     OW25264   6.669   4.850   3.703
 8122SOL    HW125265   6.602   4.923   3.690
 8122SOL    HW225266   6.718   4.834   3.618
 8123SOL     OW25267   6.692   1.594   6.363
 8123SOL    HW125268   6.731   1.566   6.451
 8123SOL    HW225269   6.598   1.624   6.377
 8124SOL     OW25270   5.075   6.294   1.839
 8124SOL    HW125271   5.050   6.326   1.747
 8124SOL    HW225272   5.072   6.371   1.903
 8125SOL     OW25273   1.468   1.615   3.066
 8125SOL    HW125274   1.548   1.568   3.105
 8125SOL    HW225275   1.426   1.672   3.137
 8126SOL     OW25276   4.858   3.959   2.525
 8126SOL    HW125277   4.817   3.969   2.434
 8126SOL    HW225278   4.939   3.900   2.519
 8127SOL     OW25279   2.402   3.717   6.592
 8127SOL    HW125280   2.438   3.772   6.516
 8127SOL    HW225281   2.302   3.712   6.585
 8128SOL     OW25282   2.768   2.288   2.237
 8128SOL    HW125283   2.799   2.320   2.148
 8128SOL    HW225284   2.842   2.297   2.304
 8129SOL     OW25285   3.895   1.398   6.374
 8129SOL    HW125286   3.837   1.474   6.403
 8129SOL    HW225287   3.850   1.347   6.301
 8130SOL     OW25288   0.323   3.966   0.033
 8130SOL    HW125289   0.338   3.892   0.099
 8130SOL    HW225290   0.224   3.980   0.021
 8131SOL     OW25291   2.383   2.288   1.164
 8131SOL    HW125292   2.362   2.277   1.066
 8131SOL    HW225293   2.345   2.375   1.195
 8132SOL     OW25294   5.968   6.715   5.930
 8132SOL    HW125295   5.929   6.686   5.843
 8132SOL    HW225296   5.909   6.685   6.005
 8133SOL     OW25297   3.289   5.678   1.994
 8133SOL    HW125298   3.372   5.733   1.982
 8133SOL    HW225299   3.313   5.581   1.987
 8134SOL     OW25300   6.740   2.669   6.104
 8134SOL    HW125301   6.677   2.596   6.079
 8134SOL    HW225302   6.834   2.634   6.099
 8135SOL     OW25303   3.166   0.006   1.675
 8135SOL    HW125304   3.119   0.078   1.726
 8135SOL    HW225305   3.101   6.982   1.615
 8136SOL     OW25306   4.229   6.228   2.994
 8136SOL    HW125307   4.174   6.155   2.955
 8136SOL    HW225308   4.188   6.317   2.972
 8137SOL     OW25309   3.415   1.476   5.466
 8137SOL    HW125310   3.511   1.497   5.446
 8137SOL    HW225311   3.359   1.558   5.451
 8138SOL     OW25312   4.966   0.927   0.706
 8138SOL    HW125313   4.968   0.970   0.616
 8138SOL    HW225314   4.908   0.980   0.768
 8139SOL     OW25315   0.548   0.507   1.851
 8139SOL    HW125316   0.526   0.411   1.838
 8139SOL    HW225317   0.642   0.516   1.883
 8140SOL     OW25318   5.704   0.493   6.839
 8140SOL    HW125319   5.616   0.493   6.885
 8140SOL    HW225320   5.692   0.465   6.743
 8141SOL     OW25321   4.719   5.944   4.348
 8141SOL    HW125322   4.652   6.016   4.367
 8141SOL    HW225323   4.676   5.854   4.363
 8142SOL     OW25324   7.017   5.672   0.203
 8142SOL    HW125325   0.094   5.675   0.213
 8142SOL    HW225326   6.979   5.764   0.212
 8143SOL     OW25327   5.984   4.192   1.125
 8143SOL    HW125328   5.902   4.154   1.166
 8143SOL    HW225329   6.010   4.136   1.046
 8144SOL     OW25330   6.292   6.145   6.531
 8144SOL    HW125331   6.329   6.155   6.623
 8144SOL    HW225332   6.363   6.167   6.464
 8145SOL     OW25333   5.785   5.769   1.829
 8145SOL    HW125334   5.690   5.738   1.824
 8145SOL    HW225335   5.806   5.799   1.922
 8146SOL     OW25336   3.905   1.161   4.410
 8146SOL    HW125337   3.866   1.202   4.329
 8146SOL    HW225338   3.937   1.232   4.473
 8147SOL     OW25339   6.019   1.877   1.782
 8147SOL    HW125340   6.038   1.785   1.814
 8147SOL    HW225341   6.018   1.878   1.682
 8148SOL     OW25342   4.723   4.728   0.698
 8148SOL    HW125343   4.674   4.795   0.755
 8148SOL    HW225344   4.742   4.647   0.753
 8149SOL     OW25345   2.675   6.340   1.807
 8149SOL    HW125346   2.775   6.340   1.813
 8149SOL    HW225347   2.646   6.389   1.725
 8150SOL     OW25348   1.291   4.323   0.658
 8150SOL    HW125349   1.350   4.402   0.672
 8150SOL    HW225350   1.346   4.240   0.657
 8151SOL     OW25351   6.397   2.427   1.183
 8151SOL    HW125352   6.362   2.375   1.105
 8151SOL    HW225353   6.492   2.454   1.165
 8152SOL     OW25354   0.647   1.268   2.454
 8152SOL    HW125355   0.700   1.326   2.516
 8152SOL    HW225356   0.630   1.318   2.369
 8153SOL     OW25357   3.165   0.146   3.450
 8153SOL    HW125358   3.071   0.114   3.454
 8153SOL    HW225359   3.180   0.195   3.364
 8154SOL     OW25360   2.612   5.554   3.395
 8154SOL    HW125361   2.535   5.519   3.341
 8154SOL    HW225362   2.658   5.625   3.343
 8155SOL     OW25363   1.733   3.632   1.901
 8155SOL    HW125364   1.727   3.703   1.830
 8155SOL    HW225365   1.751   3.674   1.989
 8156SOL     OW25366   5.264   6.876   0.295
 8156SOL    HW125367   5.232   6.968   0.318
 8156SOL    HW225368   5.348   6.856   0.345
 8157SOL     OW25369   6.935   5.170   6.631
 8157SOL    HW125370   6.981   5.088   6.598
 8157SOL    HW225371   6.964   5.249   6.577
 8158SOL     OW25372   5.575   5.370   1.283
 8158SOL    HW125373   5.554   5.275   1.307
 8158SOL    HW225374   5.618   5.373   1.193
 8159SOL     OW25375   2.920   6.430   2.407
 8159SOL    HW125376   2.849   6.497   2.431
 8159SOL    HW225377   2.937   6.371   2.485
 8160SOL     OW25378   4.726   1.253   2.748
 8160SOL    HW125379   4.647   1.312   2.765
 8160SOL    HW225380   4.752   1.209   2.834
 8161SOL     OW25381   5.237   1.278   6.800
 8161SOL    HW125382   5.216   1.248   6.893
 8161SOL    HW225383   5.161   1.255   6.740
 8162SOL     OW25384   5.813   6.532   6.106
 8162SOL    HW125385   5.839   6.511   6.012
 8162SOL    HW225386   5.805   6.447   6.158
 8163SOL     OW25387   2.700   3.885   5.464
 8163SOL    HW125388   2.664   3.942   5.390
 8163SOL    HW225389   2.624   3.835   5.507
 8164SOL     OW25390   5.759   3.256   0.443
 8164SOL    HW125391   5.698   3.301   0.377
 8164SOL    HW225392   5.835   3.214   0.394
 8165SOL     OW25393   0.748   5.186   6.956
 8165SOL    HW125394   0.802   5.113   6.998
 8165SOL    HW225395   0.663   5.149   6.919
 8166SOL     OW25396   2.118   0.118   2.234
 8166SOL    HW125397   2.038   0.071   2.271
 8166SOL    HW225398   2.193   0.113   2.300
 8167SOL     OW25399   6.203   7.001   4.802
 8167SOL    HW125400   6.147   0.042   4.855
 8167SOL    HW225401   6.296   0.015   4.793
 8168SOL     OW25402   2.688   1.647   3.397
 8168SOL    HW125403   2.767   1.588   3.383
 8168SOL    HW225404   2.618   1.627   3.328
 8169SOL     OW25405   5.048   2.607   1.501
 8169SOL    HW125406   5.013   2.667   1.573
 8169SOL    HW225407   5.042   2.512   1.530
 8170SOL     OW25408   1.876   5.431   2.732
 8170SOL    HW125409   1.798   5.422   2.794
 8170SOL    HW225410   1.948   5.484   2.776
 8171SOL     OW25411   1.365   1.625   0.114
 8171SOL    HW125412   1.389   1.628   0.211
 8171SOL    HW225413   1.334   1.532   0.091
 8172SOL     OW25414   1.036   1.306   2.283
 8172SOL    HW125415   1.125   1.324   2.243
 8172SOL    HW225416   0.979   1.388   2.279
 8173SOL     OW25417   3.995   1.563   1.293
 8173SOL    HW125418   3.994   1.517   1.382
 8173SOL    HW225419   4.056   1.642   1.297
 8174SOL     OW25420   5.679   2.426   1.204
 8174SOL    HW125421   5.617   2.359   1.163
 8174SOL    HW225422   5.768   2.420   1.159
 8175SOL     OW25423   0.053   3.469   6.322
 8175SOL    HW125424   6.983   3.432   6.330
 8175SOL    HW225425   0.077   3.518   6.406
 8176SOL     OW25426   2.580   5.216   2.259
 8176SOL    HW125427   2.511   5.163   2.210
 8176SOL    HW225428   2.669   5.205   2.213
 8177SOL     OW25429   2.511   5.957   4.153
 8177SOL    HW125430   2.545   5.870   4.118
 8177SOL    HW225431   2.458   5.942   4.236
 8178SOL     OW25432   2.798   6.184   6.291
 8178SOL    HW125433   2.813   6.104   6.349
 8178SOL    HW225434   2.710   6.226   6.314
 8179SOL     OW25435   3.790   2.406   6.259
 8179SOL    HW125436   3.854   2.412   6.336
 8179SOL    HW225437   3.720   2.338   6.279
 8180SOL     OW25438   6.929   0.140   4.800
 8180SOL    HW125439   6.965   0.233   4.799
 8180SOL    HW225440   6.948   0.096   4.712
 8181SOL     OW25441   2.352   2.093   1.757
 8181SOL    HW125442   2.392   2.084   1.666
 8181SOL    HW225443   2.318   2.186   1.770
 8182SOL     OW25444   3.321   1.855   6.846
 8182SOL    HW125445   3.235   1.821   6.885
 8182SOL    HW225446   3.346   1.940   6.891
 8183SOL     OW25447   0.652   2.264   4.505
 8183SOL    HW125448   0.700   2.345   4.472
 8183SOL    HW225449   0.679   2.247   4.600
 8184SOL     OW25450   4.840   1.601   5.792
 8184SOL    HW125451   4.783   1.558   5.722
 8184SOL    HW225452   4.789   1.675   5.836
 8185SOL     OW25453   2.762   6.621   0.513
 8185SOL    HW125454   2.801   6.712   0.501
 8185SOL    HW225455   2.689   6.624   0.581
 8186SOL     OW25456   3.484   5.277   6.475
 8186SOL    HW125457   3.508   5.280   6.573
 8186SOL    HW225458   3.385   5.269   6.466
 8187SOL     OW25459   1.954   2.388   5.760
 8187SOL    HW125460   1.939   2.346   5.850
 8187SOL    HW225461   1.868   2.428   5.727
 8188SOL     OW25462   5.431   2.181   2.100
 8188SOL    HW125463   5.368   2.241   2.050
 8188SOL    HW225464   5.494   2.236   2.154
 8189SOL     OW25465   4.874   4.960   2.078
 8189SOL    HW125466   4.783   4.928   2.052
 8189SOL    HW225467   4.897   5.041   2.024
 8190SOL     OW25468   5.102   5.553   4.305
 8190SOL    HW125469   5.179   5.494   4.280
 8190SOL    HW225470   5.120   5.647   4.275
 8191SOL     OW25471   3.153   5.549   3.337
 8191SOL    HW125472   3.252   5.567   3.340
 8191SOL    HW225473   3.137   5.451   3.335
 8192SOL     OW25474   3.693   5.355   0.199
 8192SOL    HW125475   3.702   5.389   0.105
 8192SOL    HW225476   3.651   5.425   0.256
 8193SOL     OW25477   6.764   0.070   4.089
 8193SOL    HW125478   6.762   0.034   4.182
 8193SOL    HW225479   6.675   0.109   4.066
 8194SOL     OW25480   5.972   2.238   0.955
 8194SOL    HW125481   5.874   2.233   0.932
 8194SOL    HW225482   6.026   2.222   0.873
 8195SOL     OW25483   0.618   7.018   0.342
 8195SOL    HW125484   0.584   6.978   0.257
 8195SOL    HW225485   0.545   0.046   0.387
 8196SOL     OW25486   3.478   0.246   5.670
 8196SOL    HW125487   3.426   0.180   5.725
 8196SOL    HW225488   3.494   0.328   5.724
 8197SOL     OW25489   4.507   1.258   5.765
 8197SOL    HW125490   4.486   1.300   5.677
 8197SOL    HW225491   4.444   1.293   5.834
 8198SOL     OW25492   2.703   6.331   3.243
 8198SOL    HW125493   2.740   6.411   3.195
 8198SOL    HW225494   2.618   6.302   3.199
 8199SOL     OW25495   7.008   3.327   0.073
 8199SOL    HW125496   6.960   3.267   0.138
 8199SOL    HW225497   6.967   3.318   7.005
 8200SOL     OW25498   4.941   4.072   1.093
 8200SOL    HW125499   4.882   4.058   1.013
 8200SOL    HW225500   5.031   4.034   1.074
 8201SOL     OW25501   4.873   0.878   4.424
 8201SOL    HW125502   4.842   0.972   4.431
 8201SOL    HW225503   4.836   0.836   4.341
 8202SOL     OW25504   0.786   5.598   4.117
 8202SOL    HW125505   0.773   5.680   4.061
 8202SOL    HW225506   0.697   5.561   4.143
 8203SOL     OW25507   4.607   2.982   6.850
 8203SOL    HW125508   4.647   2.894   6.824
 8203SOL    HW225509   4.531   2.967   6.913
 8204SOL     OW25510   3.304   5.378   0.717
 8204SOL    HW125511   3.263   5.448   0.775
 8204SOL    HW225512   3.360   5.422   0.647
 8205SOL     OW25513   6.479   4.368   1.634
 8205SOL    HW125514   6.524   4.292   1.681
 8205SOL    HW225515   6.538   4.449   1.639
 8206SOL     OW25516   3.448   2.570   5.606
 8206SOL    HW125517   3.496   2.624   5.537
 8206SOL    HW225518   3.378   2.514   5.561
 8207SOL     OW25519   3.710   4.524   5.403
 8207SOL    HW125520   3.712   4.424   5.403
 8207SOL    HW225521   3.634   4.556   5.346
 8208SOL     OW25522   2.481   6.792   1.100
 8208SOL    HW125523   2.416   6.808   1.027
 8208SOL    HW225524   2.507   6.879   1.142
 8209SOL     OW25525   0.580   1.950   5.194
 8209SOL    HW125526   0.566   1.965   5.292
 8209SOL    HW225527   0.627   2.029   5.154
 8210SOL     OW25528   3.068   0.851   0.947
 8210SOL    HW125529   3.012   0.776   0.912
 8210SOL    HW225530   3.036   0.937   0.906
 8211SOL     OW25531   3.546   4.137   3.811
 8211SOL    HW125532   3.450   4.164   3.816
 8211SOL    HW225533   3.597   4.179   3.886
 8212SOL     OW25534   3.041   1.155   0.909
 8212SOL    HW125535   2.959   1.151   0.966
 8212SOL    HW225536   3.101   1.227   0.944
 8213SOL     OW25537   4.979   4.684   2.685
 8213SOL    HW125538   5.027   4.772   2.681
 8213SOL    HW225539   5.047   4.610   2.688
 8214SOL     OW25540   2.400   6.050   3.895
 8214SOL    HW125541   2.439   6.010   3.978
 8214SOL    HW225542   2.383   5.979   3.827
 8215SOL     OW25543   4.113   5.197   0.281
 8215SOL    HW125544   4.057   5.251   0.218
 8215SOL    HW225545   4.065   5.185   0.367
 8216SOL     OW25546   4.957   0.210   3.105
 8216SOL    HW125547   4.930   0.120   3.141
 8216SOL    HW225548   4.898   0.234   3.027
 8217SOL     OW25549   2.264   4.145   2.122
 8217SOL    HW125550   2.308   4.227   2.160
 8217SOL    HW225551   2.293   4.132   2.027
 8218SOL     OW25552   1.630   0.281   3.917
 8218SOL    HW125553   1.603   0.377   3.914
 8218SOL    HW225554   1.710   0.267   3.859
 8219SOL     OW25555   3.453   3.865   1.301
 8219SOL    HW125556   3.445   3.815   1.387
 8219SOL    HW225557   3.425   3.806   1.225
 8220SOL     OW25558   3.355   4.341   5.255
 8220SOL    HW125559   3.399   4.426   5.284
 8220SOL    HW225560   3.256   4.355   5.249
 8221SOL     OW25561   6.084   4.282   3.077
 8221SOL    HW125562   6.161   4.331   3.037
 8221SOL    HW225563   6.084   4.188   3.045
 8222SOL     OW25564   5.488   1.938   0.838
 8222SOL    HW125565   5.492   1.980   0.929
 8222SOL    HW225566   5.460   2.007   0.771
 8223SOL     OW25567   0.361   5.042   5.816
 8223SOL    HW125568   0.292   5.113   5.829
 8223SOL    HW225569   0.435   5.078   5.759
 8224SOL     OW25570   5.103   1.629   1.564
 8224SOL    HW125571   5.092   1.620   1.663
 8224SOL    HW225572   5.094   1.725   1.538
 8225SOL     OW25573   3.689   0.791   1.211
 8225SOL    HW125574   3.686   0.888   1.231
 8225SOL    HW225575   3.681   0.777   1.112
 8226SOL     OW25576   2.838   0.475   0.667
 8226SOL    HW125577   2.896   0.532   0.725
 8226SOL    HW225578   2.893   0.400   0.629
 8227SOL     OW25579   0.297   1.236   2.230
 8227SOL    HW125580   0.231   1.247   2.305
 8227SOL    HW225581   0.345   1.322   2.215
 8228SOL     OW25582   0.346   1.578   5.947
 8228SOL    HW125583   0.315   1.660   5.995
 8228SOL    HW225584   0.442   1.561   5.970
 8229SOL     OW25585   4.408   4.370   1.124
 8229SOL    HW125586   4.386   4.316   1.205
 8229SOL    HW225587   4.501   4.347   1.093
 8230SOL     OW25588   3.968   6.590   5.839
 8230SOL    HW125589   3.958   6.603   5.938
 8230SOL    HW225590   3.949   6.677   5.792
 8231SOL     OW25591   3.291   2.105   2.661
 8231SOL    HW125592   3.302   2.008   2.678
 8231SOL    HW225593   3.299   2.123   2.563
 8232SOL     OW25594   5.390   1.992   2.385
 8232SOL    HW125595   5.335   1.962   2.307
 8232SOL    HW225596   5.364   1.940   2.466
 8233SOL     OW25597   1.163   0.093   5.827
 8233SOL    HW125598   1.238   0.093   5.761
 8233SOL    HW225599   1.186   0.156   5.902
 8234SOL     OW25600   3.111   3.393   0.193
 8234SOL    HW125601   3.103   3.376   0.095
 8234SOL    HW225602   3.169   3.322   0.235
 8235SOL     OW25603   0.696   3.943   0.248
 8235SOL    HW125604   0.652   3.951   0.159
 8235SOL    HW225605   0.667   3.858   0.292
 8236SOL     OW25606   0.337   5.304   6.074
 8236SOL    HW125607   0.359   5.391   6.118
 8236SOL    HW225608   0.264   5.317   6.008
 8237SOL     OW25609   4.448   6.262   5.998
 8237SOL    HW125610   4.448   6.222   6.090
 8237SOL    HW225611   4.392   6.206   5.937
 8238SOL     OW25612   0.555   5.548   6.698
 8238SOL    HW125613   0.644   5.505   6.719
 8238SOL    HW225614   0.557   5.584   6.605
 8239SOL     OW25615   0.331   1.168   4.964
 8239SOL    HW125616   0.342   1.125   4.875
 8239SOL    HW225617   0.297   1.101   5.030
 8240SOL     OW25618   2.929   3.293   2.968
 8240SOL    HW125619   2.939   3.382   2.923
 8240SOL    HW225620   3.016   3.244   2.963
 8241SOL     OW25621   1.909   3.879   6.463
 8241SOL    HW125622   1.861   3.847   6.382
 8241SOL    HW225623   1.844   3.920   6.526
 8242SOL     OW25624   1.153   3.519   4.943
 8242SOL    HW125625   1.165   3.526   5.042
 8242SOL    HW225626   1.214   3.583   4.897
 8243SOL     OW25627   0.562   4.387   0.155
 8243SOL    HW125628   0.660   4.366   0.158
 8243SOL    HW225629   0.519   4.339   0.079
 8244SOL     OW25630   0.518   0.155   3.598
 8244SOL    HW125631   0.565   0.068   3.609
 8244SOL    HW225632   0.455   0.169   3.675
 8245SOL     OW25633   4.124   1.664   3.494
 8245SOL    HW125634   4.140   1.621   3.405
 8245SOL    HW225635   4.201   1.724   3.516
 8246SOL     OW25636   0.675   4.476   6.343
 8246SOL    HW125637   0.679   4.488   6.243
 8246SOL    HW225638   0.651   4.563   6.386
 8247SOL     OW25639   2.300   5.810   3.711
 8247SOL    HW125640   2.318   5.713   3.724
 8247SOL    HW225641   2.354   5.844   3.633
 8248SOL     OW25642   0.658   5.763   4.864
 8248SOL    HW125643   0.750   5.803   4.856
 8248SOL    HW225644   0.628   5.768   4.959
 8249SOL     OW25645   2.763   1.437   5.250
 8249SOL    HW125646   2.804   1.527   5.231
 8249SOL    HW225647   2.821   1.365   5.212
 8250SOL     OW25648   3.191   2.129   0.900
 8250SOL    HW125649   3.257   2.081   0.842
 8250SOL    HW225650   3.162   2.068   0.974
 8251SOL     OW25651   5.929   1.259   4.017
 8251SOL    HW125652   5.913   1.310   4.101
 8251SOL    HW225653   5.842   1.246   3.968
 8252SOL     OW25654   3.275   2.038   0.196
 8252SOL    HW125655   3.280   1.938   0.199
 8252SOL    HW225656   3.256   2.073   0.288
 8253SOL     OW25657   4.179   5.851   6.717
 8253SOL    HW125658   4.227   5.832   6.803
 8253SOL    HW225659   4.111   5.779   6.701
 8254SOL     OW25660   5.355   5.126   6.073
 8254SOL    HW125661   5.307   5.212   6.059
 8254SOL    HW225662   5.382   5.117   6.169
 8255SOL     OW25663   1.108   0.095   6.178
 8255SOL    HW125664   1.061   0.166   6.230
 8255SOL    HW225665   1.045   0.020   6.160
 8256SOL     OW25666   6.711   0.382   3.322
 8256SOL    HW125667   6.810   0.373   3.310
 8256SOL    HW225668   6.669   0.404   3.234
 8257SOL     OW25669   5.685   4.726   4.342
 8257SOL    HW125670   5.715   4.810   4.386
 8257SOL    HW225671   5.586   4.715   4.353
 8258SOL     OW25672   5.629   2.680   1.859
 8258SOL    HW125673   5.539   2.647   1.887
 8258SOL    HW225674   5.641   2.664   1.761
 8259SOL     OW25675   4.093   1.883   5.115
 8259SOL    HW125676   4.131   1.845   5.199
 8259SOL    HW225677   4.089   1.811   5.044
 8260SOL     OW25678   1.992   6.349   1.080
 8260SOL    HW125679   1.906   6.305   1.109
 8260SOL    HW225680   2.068   6.313   1.134
 8261SOL     OW25681   5.260   6.474   3.314
 8261SOL    HW125682   5.295   6.381   3.302
 8261SOL    HW225683   5.161   6.474   3.300
 8262SOL     OW25684   0.998   4.664   0.603
 8262SOL    HW125685   1.059   4.643   0.680
 8262SOL    HW225686   0.968   4.578   0.561
 8263SOL     OW25687   6.659   2.757   6.884
 8263SOL    HW125688   6.735   2.805   6.926
 8263SOL    HW225689   6.603   2.716   6.956
 8264SOL     OW25690   1.389   6.646   1.204
 8264SOL    HW125691   1.447   6.586   1.149
 8264SOL    HW225692   1.336   6.705   1.144
 8265SOL     OW25693   4.227   0.382   1.583
 8265SOL    HW125694   4.189   0.306   1.531
 8265SOL    HW225695   4.192   0.469   1.547
 8266SOL     OW25696   2.840   0.639   5.013
 8266SOL    HW125697   2.799   0.549   5.027
 8266SOL    HW225698   2.891   0.666   5.095
 8267SOL     OW25699   1.450   5.078   1.726
 8267SOL    HW125700   1.509   5.021   1.670
 8267SOL    HW225701   1.453   5.172   1.693
 8268SOL     OW25702   2.804   4.665   5.820
 8268SOL    HW125703   2.861   4.735   5.862
 8268SOL    HW225704   2.811   4.580   5.871
 8269SOL     OW25705   4.508   2.511   3.158
 8269SOL    HW125706   4.524   2.554   3.247
 8269SOL    HW225707   4.538   2.573   3.085
 8270SOL     OW25708   2.809   5.794   5.929
 8270SOL    HW125709   2.734   5.739   5.892
 8270SOL    HW225710   2.866   5.827   5.853
 8271SOL     OW25711   6.535   6.761   3.497
 8271SOL    HW125712   6.477   6.838   3.522
 8271SOL    HW225713   6.631   6.788   3.506
 8272SOL     OW25714   0.211   0.664   2.773
 8272SOL    HW125715   0.244   0.572   2.796
 8272SOL    HW225716   0.230   0.683   2.677
 8273SOL     OW25717   3.222   0.537   0.133
 8273SOL    HW125718   3.262   0.460   0.184
 8273SOL    HW225719   3.295   0.583   0.082
 8274SOL     OW25720   4.047   4.530   6.671
 8274SOL    HW125721   4.103   4.492   6.598
 8274SOL    HW225722   4.085   4.504   6.760
 8275SOL     OW25723   5.502   0.285   4.543
 8275SOL    HW125724   5.407   0.254   4.557
 8275SOL    HW225725   5.506   0.384   4.550
 8276SOL     OW25726   6.354   2.465   5.671
 8276SOL    HW125727   6.358   2.367   5.693
 8276SOL    HW225728   6.343   2.518   5.755
 8277SOL     OW25729   2.887   5.888   4.749
 8277SOL    HW125730   2.818   5.856   4.815
 8277SOL    HW225731   2.841   5.918   4.665
 8278SOL     OW25732   2.837   1.722   6.676
 8278SOL    HW125733   2.841   1.820   6.658
 8278SOL    HW225734   2.928   1.688   6.697
 8279SOL     OW25735   5.884   5.397   6.552
 8279SOL    HW125736   5.871   5.493   6.577
 8279SOL    HW225737   5.930   5.349   6.626
 8280SOL     OW25738   4.610   2.561   0.198
 8280SOL    HW125739   4.564   2.535   0.283
 8280SOL    HW225740   4.655   2.481   0.158
 8281SOL     OW25741   1.926   4.800   0.894
 8281SOL    HW125742   1.905   4.837   0.804
 8281SOL    HW225743   1.931   4.701   0.890
 8282SOL     OW25744   2.697   2.527   0.426
 8282SOL    HW125745   2.713   2.477   0.341
 8282SOL    HW225746   2.643   2.609   0.407
 8283SOL     OW25747   0.373   5.087   3.532
 8283SOL    HW125748   0.413   5.092   3.440
 8283SOL    HW225749   0.280   5.123   3.530
 8284SOL     OW25750   1.653   3.305   2.572
 8284SOL    HW125751   1.705   3.304   2.487
 8284SOL    HW225752   1.565   3.351   2.558
 8285SOL     OW25753   3.205   3.377   5.970
 8285SOL    HW125754   3.115   3.339   5.995
 8285SOL    HW225755   3.192   3.453   5.906
 8286SOL     OW25756   5.684   1.526   5.072
 8286SOL    HW125757   5.665   1.428   5.082
 8286SOL    HW225758   5.605   1.572   5.033
 8287SOL     OW25759   1.512   6.588   3.541
 8287SOL    HW125760   1.557   6.638   3.467
 8287SOL    HW225761   1.569   6.589   3.623
 8288SOL     OW25762   1.639   2.425   3.138
 8288SOL    HW125763   1.660   2.466   3.049
 8288SOL    HW225764   1.554   2.373   3.132
 8289SOL     OW25765   6.313   0.323   6.114
 8289SOL    HW125766   6.391   0.383   6.092
 8289SOL    HW225767   6.230   0.361   6.074
 8290SOL     OW25768   4.293   2.835   1.672
 8290SOL    HW125769   4.385   2.810   1.702
 8290SOL    HW225770   4.298   2.915   1.612
 8291SOL     OW25771   5.989   5.949   6.818
 8291SOL    HW125772   6.028   5.979   6.905
 8291SOL    HW225773   6.029   5.861   6.792
 8292SOL     OW25774   2.582   5.692   5.449
 8292SOL    HW125775   2.630   5.768   5.404
 8292SOL    HW225776   2.642   5.613   5.455
 8293SOL     OW25777   1.772   4.523   1.654
 8293SOL    HW125778   1.813   4.446   1.702
 8293SOL    HW225779   1.758   4.499   1.558
 8294SOL     OW25780   6.147   3.356   5.195
 8294SOL    HW125781   6.088   3.294   5.246
 8294SOL    HW225782   6.152   3.326   5.100
 8295SOL     OW25783   5.136   3.821   2.482
 8295SOL    HW125784   5.115   3.773   2.567
 8295SOL    HW225785   5.117   3.761   2.405
 8296SOL     OW25786   4.041   5.071   6.681
 8296SOL    HW125787   4.048   4.971   6.676
 8296SOL    HW225788   3.993   5.105   6.601
 8297SOL     OW25789   6.558   3.784   2.413
 8297SOL    HW125790   6.501   3.716   2.457
 8297SOL    HW225791   6.501   3.852   2.367
 8298SOL     OW25792   0.045   0.386   6.290
 8298SOL    HW125793   0.142   0.400   6.271
 8298SOL    HW225794   7.021   0.353   6.208
 8299SOL     OW25795   0.604   3.514   1.011
 8299SOL    HW125796   0.588   3.504   1.110
 8299SOL    HW225797   0.633   3.426   0.974
 8300SOL     OW25798   6.082   6.551   4.749
 8300SOL    HW125799   6.103   6.645   4.723
 8300SOL    HW225800   6.005   6.550   4.813
 8301SOL     OW25801   4.746   6.868   6.548
 8301SOL    HW125802   4.722   6.785   6.599
 8301SOL    HW225803   4.712   6.948   6.597
 8302SOL     OW25804   3.604   6.809   5.526
 8302SOL    HW125805   3.566   6.758   5.603
 8302SOL    HW225806   3.671   6.751   5.478
 8303SOL     OW25807   0.113   0.280   3.091
 8303SOL    HW125808   0.105   0.283   2.992
 8303SOL    HW225809   0.209   0.268   3.117
 8304SOL     OW25810   5.502   4.494   2.161
 8304SOL    HW125811   5.413   4.530   2.188
 8304SOL    HW225812   5.504   4.395   2.173
 8305SOL     OW25813   4.491   4.954   3.323
 8305SOL    HW125814   4.495   5.049   3.354
 8305SOL    HW225815   4.571   4.905   3.357
 8306SOL     OW25816   6.903   1.854   2.419
 8306SOL    HW125817   6.903   1.807   2.507
 8306SOL    HW225818   6.921   1.788   2.346
 8307SOL     OW25819   2.643   5.322   1.559
 8307SOL    HW125820   2.634   5.223   1.566
 8307SOL    HW225821   2.554   5.363   1.538
 8308SOL     OW25822   1.693   4.768   0.267
 8308SOL    HW125823   1.619   4.834   0.256
 8308SOL    HW225824   1.779   4.817   0.285
 8309SOL     OW25825   6.391   5.012   4.126
 8309SOL    HW125826   6.309   5.068   4.111
 8309SOL    HW225827   6.450   5.058   4.193
 8310SOL     OW25828   1.086   5.900   0.191
 8310SOL    HW125829   1.043   5.978   0.238
 8310SOL    HW225830   1.029   5.819   0.203
 8311SOL     OW25831   4.984   0.125   4.510
 8311SOL    HW125832   4.899   0.167   4.542
 8311SOL    HW225833   4.982   0.118   4.410
 8312SOL     OW25834   5.461   0.804   0.690
 8312SOL    HW125835   5.479   0.858   0.607
 8312SOL    HW225836   5.540   0.810   0.751
 8313SOL     OW25837   4.296   0.154   5.362
 8313SOL    HW125838   4.250   0.232   5.405
 8313SOL    HW225839   4.333   0.093   5.432
 8314SOL     OW25840   5.950   6.707   6.546
 8314SOL    HW125841   6.017   6.692   6.618
 8314SOL    HW225842   5.997   6.731   6.461
 8315SOL     OW25843   3.505   3.771   3.458
 8315SOL    HW125844   3.572   3.698   3.443
 8315SOL    HW225845   3.455   3.753   3.543
 8316SOL     OW25846   1.927   3.435   6.947
 8316SOL    HW125847   1.855   3.502   6.964
 8316SOL    HW225848   1.886   3.348   6.920
 8317SOL     OW25849   2.668   2.107   4.463
 8317SOL    HW125850   2.673   2.010   4.488
 8317SOL    HW225851   2.637   2.160   4.542
 8318SOL     OW25852   4.553   1.304   6.228
 8318SOL    HW125853   4.557   1.404   6.228
 8318SOL    HW225854   4.599   1.269   6.146
 8319SOL     OW25855   1.697   0.037   6.132
 8319SOL    HW125856   1.787   0.076   6.114
 8319SOL    HW225857   1.704   6.990   6.205
 8320SOL     OW25858   3.832   3.724   3.717
 8320SOL    HW125859   3.878   3.804   3.678
 8320SOL    HW225860   3.736   3.745   3.734
 8321SOL     OW25861   0.106   0.097   5.951
 8321SOL    HW125862   0.182   0.137   5.900
 8321SOL    HW225863   0.065   0.024   5.896
 8322SOL     OW25864   0.098   0.891   0.204
 8322SOL    HW125865   0.179   0.900   0.262
 8322SOL    HW225866   0.086   0.975   0.152
 8323SOL     OW25867   3.972   4.542   1.299
 8323SOL    HW125868   4.036   4.472   1.265
 8323SOL    HW225869   3.981   4.550   1.398
 8324SOL     OW25870   5.884   0.180   0.180
 8324SOL    HW125871   5.814   0.251   0.175
 8324SOL    HW225872   5.970   0.214   0.142
 8325SOL     OW25873   1.089   3.941   4.946
 8325SOL    HW125874   1.188   3.957   4.953
 8325SOL    HW225875   1.042   4.029   4.939
 8326SOL     OW25876   4.200   3.818   6.926
 8326SOL    HW125877   4.191   3.898   6.867
 8326SOL    HW225878   4.134   3.824   7.001
 8327SOL     OW25879   0.789   0.403   5.460
 8327SOL    HW125880   0.833   0.437   5.544
 8327SOL    HW225881   0.852   0.342   5.412
 8328SOL     OW25882   1.778   6.492   5.586
 8328SOL    HW125883   1.693   6.440   5.576
 8328SOL    HW225884   1.767   6.582   5.543
 8329SOL     OW25885   0.411   2.755   4.927
 8329SOL    HW125886   0.322   2.774   4.885
 8329SOL    HW225887   0.462   2.840   4.940
 8330SOL     OW25888   3.550   1.280   6.675
 8330SOL    HW125889   3.453   1.293   6.698
 8330SOL    HW225890   3.606   1.322   6.747
 8331SOL     OW25891   3.083   1.557   0.480
 8331SOL    HW125892   3.169   1.607   0.489
 8331SOL    HW225893   3.068   1.534   0.384
 8332SOL     OW25894   5.573   5.807   2.315
 8332SOL    HW125895   5.475   5.786   2.319
 8332SOL    HW225896   5.625   5.721   2.308
 8333SOL     OW25897   2.403   5.177   0.197
 8333SOL    HW125898   2.359   5.104   0.250
 8333SOL    HW225899   2.397   5.155   0.099
 8334SOL     OW25900   2.638   2.242   6.536
 8334SOL    HW125901   2.673   2.311   6.473
 8334SOL    HW225902   2.707   2.170   6.550
 8335SOL     OW25903   4.667   2.622   6.677
 8335SOL    HW125904   4.748   2.667   6.712
 8335SOL    HW225905   4.670   2.620   6.577
 8336SOL     OW25906   1.270   3.545   3.359
 8336SOL    HW125907   1.290   3.611   3.287
 8336SOL    HW225908   1.227   3.591   3.436
 8337SOL     OW25909   1.152   6.872   4.758
 8337SOL    HW125910   1.055   6.849   4.745
 8337SOL    HW225911   1.208   6.816   4.697
 8338SOL     OW25912   3.649   5.563   2.317
 8338SOL    HW125913   3.717   5.494   2.340
 8338SOL    HW225914   3.694   5.652   2.308
 8339SOL     OW25915   0.012   0.726   1.311
 8339SOL    HW125916   0.030   0.674   1.227
 8339SOL    HW225917   6.938   0.752   1.313
 8340SOL     OW25918   4.884   3.991   0.601
 8340SOL    HW125919   4.894   3.902   0.557
 8340SOL    HW225920   4.809   3.988   0.667
 8341SOL     OW25921   3.268   0.456   6.772
 8341SOL    HW125922   3.174   0.471   6.741
 8341SOL    HW225923   3.327   0.440   6.692
 8342SOL     OW25924   3.750   6.859   7.022
 8342SOL    HW125925   3.768   6.872   0.097
 8342SOL    HW225926   3.734   6.761   7.004
 8343SOL     OW25927   5.943   5.789   4.115
 8343SOL    HW125928   5.962   5.880   4.151
 8343SOL    HW225929   5.854   5.757   4.149
 8344SOL     OW25930   0.411   5.121   4.688
 8344SOL    HW125931   0.446   5.170   4.607
 8344SOL    HW225932   0.391   5.187   4.760
 8345SOL     OW25933   5.255   2.038   3.248
 8345SOL    HW125934   5.326   2.044   3.319
 8345SOL    HW225935   5.170   2.078   3.282
 8346SOL     OW25936   3.596   3.045   6.119
 8346SOL    HW125937   3.585   2.975   6.048
 8346SOL    HW225938   3.520   3.110   6.114
 8347SOL     OW25939   3.637   6.107   6.140
 8347SOL    HW125940   3.643   6.040   6.214
 8347SOL    HW225941   3.543   6.113   6.107
 8348SOL     OW25942   2.622   6.871   1.396
 8348SOL    HW125943   2.589   6.945   1.338
 8348SOL    HW225944   2.612   6.784   1.346
 8349SOL     OW25945   0.641   6.735   1.388
 8349SOL    HW125946   0.632   6.818   1.333
 8349SOL    HW225947   0.555   6.716   1.435
 8350SOL     OW25948   3.155   6.803   6.269
 8350SOL    HW125949   3.132   6.728   6.330
 8350SOL    HW225950   3.098   6.798   6.187
 8351SOL     OW25951   5.545   5.356   3.502
 8351SOL    HW125952   5.627   5.372   3.447
 8351SOL    HW225953   5.466   5.341   3.442
 8352SOL     OW25954   1.933   6.849   2.804
 8352SOL    HW125955   1.989   6.895   2.735
 8352SOL    HW225956   1.982   6.769   2.839
 8353SOL     OW25957   1.284   3.973   1.571
 8353SOL    HW125958   1.238   3.927   1.495
 8353SOL    HW225959   1.215   4.009   1.634
 8354SOL     OW25960   3.726   6.465   3.985
 8354SOL    HW125961   3.729   6.385   3.925
 8354SOL    HW225962   3.813   6.474   4.034
 8355SOL     OW25963   1.934   1.243   5.971
 8355SOL    HW125964   1.978   1.176   6.031
 8355SOL    HW225965   1.849   1.275   6.014
 8356SOL     OW25966   0.677   5.403   1.439
 8356SOL    HW125967   0.680   5.415   1.539
 8356SOL    HW225968   0.767   5.376   1.406
 8357SOL     OW25969   3.997   5.339   5.550
 8357SOL    HW125970   4.088   5.299   5.540
 8357SOL    HW225971   3.965   5.325   5.644
 8358SOL     OW25972   0.915   3.037   5.035
 8358SOL    HW125973   0.912   3.137   5.040
 8358SOL    HW225974   0.966   3.009   4.954
 8359SOL     OW25975   2.615   1.157   4.734
 8359SOL    HW125976   2.553   1.089   4.772
 8359SOL    HW225977   2.621   1.235   4.797
 8360SOL     OW25978   4.385   6.920   1.179
 8360SOL    HW125979   4.340   6.889   1.095
 8360SOL    HW225980   4.416   6.840   1.230
 8361SOL     OW25981   2.626   0.057   6.795
 8361SOL    HW125982   2.676   0.094   6.716
 8361SOL    HW225983   2.539   0.105   6.806
 8362SOL     OW25984   5.484   2.106   1.047
 8362SOL    HW125985   5.388   2.088   1.028
 8362SOL    HW225986   5.513   2.187   0.995
 8363SOL     OW25987   4.841   1.628   0.928
 8363SOL    HW125988   4.939   1.626   0.905
 8363SOL    HW225989   4.830   1.623   1.028
 8364SOL     OW25990   0.642   3.358   3.428
 8364SOL    HW125991   0.660   3.299   3.349
 8364SOL    HW225992   0.599   3.304   3.500
 8365SOL     OW25993   1.611   1.777   2.722
 8365SOL    HW125994   1.563   1.693   2.748
 8365SOL    HW225995   1.647   1.821   2.804
 8366SOL     OW25996   3.587   5.208   1.121
 8366SOL    HW125997   3.520   5.239   1.054
 8366SOL    HW225998   3.679   5.213   1.082
 8367SOL     OW25999   3.219   5.200   4.982
 8367SOL    HW126000   3.132   5.190   4.934
 8367SOL    HW226001   3.224   5.131   5.055
 8368SOL     OW26002   1.335   6.085   6.895
 8368SOL    HW126003   1.324   5.986   6.894
 8368SOL    HW226004   1.383   6.115   6.812
 8369SOL     OW26005   0.509   1.526   0.390
 8369SOL    HW126006   0.471   1.561   0.476
 8369SOL    HW226007   0.489   1.428   0.383
 8370SOL     OW26008   2.164   1.049   6.640
 8370SOL    HW126009   2.138   1.144   6.654
 8370SOL    HW226010   2.264   1.043   6.633
 8371SOL     OW26011   1.921   3.300   6.301
 8371SOL    HW126012   2.017   3.279   6.323
 8371SOL    HW226013   1.915   3.392   6.265
 8372SOL     OW26014   1.507   5.652   1.951
 8372SOL    HW126015   1.599   5.618   1.968
 8372SOL    HW226016   1.507   5.752   1.959
 8373SOL     OW26017   1.549   1.069   4.798
 8373SOL    HW126018   1.481   1.080   4.871
 8373SOL    HW226019   1.622   1.136   4.810
 8374SOL     OW26020   0.645   0.515   4.452
 8374SOL    HW126021   0.665   0.541   4.546
 8374SOL    HW226022   0.549   0.534   4.432
 8375SOL     OW26023   3.709   0.215   6.042
 8375SOL    HW126024   3.627   0.224   5.986
 8375SOL    HW226025   3.786   0.189   5.984
 8376SOL     OW26026   1.867   1.193   3.947
 8376SOL    HW126027   1.813   1.277   3.953
 8376SOL    HW226028   1.808   1.117   3.923
 8377SOL     OW26029   6.304   5.722   0.369
 8377SOL    HW126030   6.289   5.669   0.452
 8377SOL    HW226031   6.289   5.819   0.387
 8378SOL     OW26032   4.736   4.930   3.514
 8378SOL    HW126033   4.809   4.947   3.447
 8378SOL    HW226034   4.759   4.849   3.569
 8379SOL     OW26035   4.622   2.237   2.089
 8379SOL    HW126036   4.602   2.257   2.185
 8379SOL    HW226037   4.595   2.316   2.033
 8380SOL     OW26038   0.439   6.331   6.717
 8380SOL    HW126039   0.386   6.251   6.688
 8380SOL    HW226040   0.536   6.311   6.709
 8381SOL     OW26041   6.874   2.588   3.487
 8381SOL    HW126042   6.852   2.599   3.390
 8381SOL    HW226043   6.973   2.586   3.498
 8382SOL     OW26044   2.219   6.985   0.662
 8382SOL    HW126045   2.196   6.939   0.576
 8382SOL    HW226046   2.315   7.014   0.659
 8383SOL     OW26047   2.122   0.539   5.450
 8383SOL    HW126048   2.111   0.579   5.541
 8383SOL    HW226049   2.060   0.461   5.439
 8384SOL     OW26050   0.033   1.159   0.460
 8384SOL    HW126051   6.960   1.180   0.480
 8384SOL    HW226052   0.048   1.163   0.361
 8385SOL     OW26053   4.611   2.173   0.625
 8385SOL    HW126054   4.602   2.170   0.724
 8385SOL    HW226055   4.577   2.088   0.586
 8386SOL     OW26056   1.974   5.788   1.221
 8386SOL    HW126057   1.878   5.816   1.217
 8386SOL    HW226058   1.988   5.706   1.165
 8387SOL     OW26059   1.811   1.722   1.395
 8387SOL    HW126060   1.733   1.736   1.456
 8387SOL    HW226061   1.821   1.625   1.375
 8388SOL     OW26062   1.046   0.225   0.643
 8388SOL    HW126063   1.037   0.158   0.717
 8388SOL    HW226064   0.996   0.194   0.563
 8389SOL     OW26065   0.550   3.285   4.041
 8389SOL    HW126066   0.477   3.354   4.038
 8389SOL    HW226067   0.510   3.195   4.025
 8390SOL     OW26068   4.281   7.007   6.472
 8390SOL    HW126069   4.223   0.015   6.547
 8390SOL    HW226070   4.347   0.057   6.449
 8391SOL     OW26071   5.119   5.260   1.040
 8391SOL    HW126072   5.137   5.244   0.943
 8391SOL    HW226073   5.030   5.221   1.064
 8392SOL     OW26074   6.980   5.541   5.787
 8392SOL    HW126075   6.938   5.625   5.753
 8392SOL    HW226076   6.909   5.482   5.826
 8393SOL     OW26077   0.002   0.015   4.013
 8393SOL    HW126078   0.068   0.067   4.068
 8393SOL    HW226079   6.932   0.044   4.036
 8394SOL     OW26080   0.034   2.447   1.271
 8394SOL    HW126081   0.021   2.529   1.216
 8394SOL    HW226082   6.999   2.451   1.352
 8395SOL     OW26083   1.822   6.819   3.882
 8395SOL    HW126084   1.810   6.912   3.916
 8395SOL    HW226085   1.734   6.773   3.876
 8396SOL     OW26086   4.686   4.357   2.262
 8396SOL    HW126087   4.620   4.391   2.328
 8396SOL    HW226088   4.641   4.341   2.174
 8397SOL     OW26089   2.891   0.405   3.184
 8397SOL    HW126090   2.963   0.413   3.253
 8397SOL    HW226091   2.872   0.309   3.166
 8398SOL     OW26092   3.470   2.047   6.945
 8398SOL    HW126093   3.556   2.031   6.992
 8398SOL    HW226094   3.470   2.138   6.903
 8399SOL     OW26095   6.303   0.018   6.988
 8399SOL    HW126096   6.280   6.971   0.033
 8399SOL    HW226097   6.234   0.091   6.991
 8400SOL     OW26098   1.631   0.342   3.514
 8400SOL    HW126099   1.561   0.383   3.573
 8400SOL    HW226100   1.706   0.407   3.501
 8401SOL     OW26101   3.618   2.591   6.574
 8401SOL    HW126102   3.558   2.516   6.548
 8401SOL    HW226103   3.567   2.677   6.573
 8402SOL     OW26104   3.453   1.966   5.993
 8402SOL    HW126105   3.511   2.045   6.015
 8402SOL    HW226106   3.364   1.998   5.961
 8403SOL     OW26107   0.532   2.369   3.200
 8403SOL    HW126108   0.478   2.349   3.281
 8403SOL    HW226109   0.516   2.464   3.171
 8404SOL     OW26110   5.468   5.767   7.015
 8404SOL    HW126111   5.477   5.716   6.929
 8404SOL    HW226112   5.537   5.736   0.057
 8405SOL     OW26113   1.895   1.500   6.724
 8405SOL    HW126114   1.927   1.576   6.667
 8405SOL    HW226115   1.829   1.445   6.672
 8406SOL     OW26116   3.965   0.469   0.921
 8406SOL    HW126117   3.980   0.510   0.831
 8406SOL    HW226118   4.022   0.516   0.989
 8407SOL     OW26119   5.904   5.993   4.310
 8407SOL    HW126120   5.829   6.053   4.282
 8407SOL    HW226121   5.931   6.015   4.404
 8408SOL     OW26122   5.200   1.724   3.196
 8408SOL    HW126123   5.224   1.786   3.271
 8408SOL    HW226124   5.277   1.714   3.134
 8409SOL     OW26125   6.099   2.818   3.263
 8409SOL    HW126126   6.146   2.736   3.297
 8409SOL    HW226127   6.141   2.899   3.303
 8410SOL     OW26128   4.065   0.586   1.504
 8410SOL    HW126129   4.004   0.608   1.579
 8410SOL    HW226130   4.021   0.608   1.417
 8411SOL     OW26131   1.569   5.814   4.309
 8411SOL    HW126132   1.481   5.859   4.324
 8411SOL    HW226133   1.554   5.715   4.302
 8412SOL     OW26134   4.384   1.809   1.813
 8412SOL    HW126135   4.413   1.894   1.769
 8412SOL    HW226136   4.317   1.830   1.884
 8413SOL     OW26137   5.100   4.369   0.743
 8413SOL    HW126138   5.121   4.433   0.670
 8413SOL    HW226139   5.183   4.323   0.772
 8414SOL     OW26140   4.623   6.619   2.555
 8414SOL    HW126141   4.557   6.556   2.596
 8414SOL    HW226142   4.711   6.572   2.542
 8415SOL     OW26143   6.650   5.350   4.146
 8415SOL    HW126144   6.698   5.263   4.151
 8415SOL    HW226145   6.553   5.334   4.129
 8416SOL     OW26146   5.371   4.378   3.689
 8416SOL    HW126147   5.361   4.371   3.788
 8416SOL    HW226148   5.288   4.418   3.650
 8417SOL     OW26149   1.426   5.162   5.269
 8417SOL    HW126150   1.461   5.167   5.175
 8417SOL    HW226151   1.394   5.069   5.288
 8418SOL     OW26152   5.952   5.507   1.930
 8418SOL    HW126153   6.044   5.469   1.938
 8418SOL    HW226154   5.925   5.547   2.018
 8419SOL     OW26155   4.464   0.976   2.353
 8419SOL    HW126156   4.481   1.071   2.326
 8419SOL    HW226157   4.476   0.967   2.452
 8420SOL     OW26158   3.558   0.543   1.070
 8420SOL    HW126159   3.570   0.630   1.022
 8420SOL    HW226160   3.644   0.518   1.114
 8421SOL     OW26161   2.825   6.552   1.117
 8421SOL    HW126162   2.859   6.563   1.024
 8421SOL    HW226163   2.806   6.455   1.134
 8422SOL     OW26164   4.797   6.722   1.307
 8422SOL    HW126165   4.877   6.686   1.353
 8422SOL    HW226166   4.809   6.714   1.208
 8423SOL     OW26167   4.180   3.691   5.869
 8423SOL    HW126168   4.142   3.774   5.909
 8423SOL    HW226169   4.258   3.660   5.924
 8424SOL     OW26170   2.303   2.759   2.828
 8424SOL    HW126171   2.303   2.718   2.737
 8424SOL    HW226172   2.389   2.737   2.874
 8425SOL     OW26173   5.601   5.754   1.094
 8425SOL    HW126174   5.509   5.794   1.097
 8425SOL    HW226175   5.645   5.765   1.183
 8426SOL     OW26176   3.520   2.944   4.489
 8426SOL    HW126177   3.523   2.845   4.471
 8426SOL    HW226178   3.425   2.972   4.499
 8427SOL     OW26179   2.336   3.505   5.888
 8427SOL    HW126180   2.382   3.426   5.928
 8427SOL    HW226181   2.258   3.475   5.833
 8428SOL     OW26182   6.500   4.010   1.991
 8428SOL    HW126183   6.597   4.024   1.970
 8428SOL    HW226184   6.477   3.913   1.982
 8429SOL     OW26185   2.248   4.951   3.707
 8429SOL    HW126186   2.310   4.932   3.784
 8429SOL    HW226187   2.260   5.046   3.677
 8430SOL     OW26188   4.320   5.628   3.405
 8430SOL    HW126189   4.263   5.547   3.416
 8430SOL    HW226190   4.264   5.710   3.409
 8431SOL     OW26191   2.829   5.113   0.667
 8431SOL    HW126192   2.760   5.062   0.615
 8431SOL    HW226193   2.787   5.193   0.710
 8432SOL     OW26194   4.838   6.431   5.271
 8432SOL    HW126195   4.848   6.518   5.222
 8432SOL    HW226196   4.756   6.435   5.328
 8433SOL     OW26197   6.476   2.599   6.586
 8433SOL    HW126198   6.570   2.577   6.612
 8433SOL    HW226199   6.477   2.662   6.508
 8434SOL     OW26200   2.805   6.955   5.002
 8434SOL    HW126201   2.774   7.016   5.075
 8434SOL    HW226202   2.802   6.860   5.034
 8435SOL     OW26203   5.075   0.638   0.653
 8435SOL    HW126204   5.028   0.629   0.740
 8435SOL    HW226205   5.081   0.735   0.629
 8436SOL     OW26206   3.402   6.833   4.479
 8436SOL    HW126207   3.473   6.762   4.473
 8436SOL    HW226208   3.444   6.923   4.466
 8437SOL     OW26209   2.141   0.195   2.822
 8437SOL    HW126210   2.175   0.285   2.849
 8437SOL    HW226211   2.100   0.150   2.902
 8438SOL     OW26212   3.003   5.149   2.322
 8438SOL    HW126213   3.027   5.053   2.334
 8438SOL    HW226214   2.952   5.160   2.237
 8439SOL     OW26215   6.804   5.451   1.068
 8439SOL    HW126216   6.821   5.377   1.133
 8439SOL    HW226217   6.878   5.455   1.002
 8440SOL     OW26218   0.276   1.190   3.545
 8440SOL    HW126219   0.247   1.269   3.598
 8440SOL    HW226220   0.206   1.168   3.477
 8441SOL     OW26221   6.731   6.752   6.994
 8441SOL    HW126222   6.810   6.779   6.939
 8441SOL    HW226223   6.666   6.828   7.000
 8442SOL     OW26224   3.418   2.383   6.300
 8442SOL    HW126225   3.483   2.413   6.231
 8442SOL    HW226226   3.366   2.461   6.334
 8443SOL     OW26227   1.425   6.819   3.271
 8443SOL    HW126228   1.509   6.766   3.279
 8443SOL    HW226229   1.404   6.835   3.175
 8444SOL     OW26230   3.951   5.608   3.750
 8444SOL    HW126231   3.858   5.594   3.785
 8444SOL    HW226232   3.986   5.696   3.782
 8445SOL     OW26233   3.376   5.433   1.979
 8445SOL    HW126234   3.309   5.367   1.944
 8445SOL    HW226235   3.428   5.390   2.053
 8446SOL     OW26236   4.871   5.125   1.109
 8446SOL    HW126237   4.810   5.052   1.077
 8446SOL    HW226238   4.824   5.182   1.176
 8447SOL     OW26239   5.519   1.587   2.256
 8447SOL    HW126240   5.574   1.640   2.321
 8447SOL    HW226241   5.445   1.644   2.220
 8448SOL     OW26242   5.930   4.690   4.905
 8448SOL    HW126243   6.017   4.693   4.856
 8448SOL    HW226244   5.947   4.682   5.003
 8449SOL     OW26245   6.647   2.799   4.263
 8449SOL    HW126246   6.656   2.891   4.301
 8449SOL    HW226247   6.730   2.776   4.213
 8450SOL     OW26248   1.338   5.821   1.678
 8450SOL    HW126249   1.383   5.859   1.759
 8450SOL    HW226250   1.396   5.750   1.638
 8451SOL     OW26251   4.976   2.891   6.984
 8451SOL    HW126252   4.897   2.904   0.022
 8451SOL    HW226253   4.997   2.976   6.937
 8452SOL     OW26254   0.162   0.491   1.457
 8452SOL    HW126255   0.111   0.569   1.495
 8452SOL    HW226256   0.212   0.445   1.530
 8453SOL     OW26257   6.386   4.201   6.639
 8453SOL    HW126258   6.454   4.246   6.581
 8453SOL    HW226259   6.306   4.260   6.650
 8454SOL     OW26260   1.036   6.286   0.804
 8454SOL    HW126261   1.098   6.293   0.726
 8454SOL    HW226262   0.991   6.196   0.802
 8455SOL     OW26263   5.196   1.430   1.062
 8455SOL    HW126264   5.147   1.488   1.128
 8455SOL    HW226265   5.283   1.401   1.101
 8456SOL     OW26266   4.833   4.221   2.597
 8456SOL    HW126267   4.746   4.257   2.566
 8456SOL    HW226268   4.844   4.127   2.564
 8457SOL     OW26269   0.061   6.729   5.377
 8457SOL    HW126270   0.039   6.736   5.279
 8457SOL    HW226271   0.140   6.670   5.389
 8458SOL     OW26272   2.353   0.990   6.872
 8458SOL    HW126273   2.351   0.890   6.879
 8458SOL    HW226274   2.262   1.023   6.848
 8459SOL     OW26275   3.058   6.766   1.405
 8459SOL    HW126276   3.023   6.795   1.494
 8459SOL    HW226277   3.069   6.845   1.346
 8460SOL     OW26278   4.317   2.382   5.805
 8460SOL    HW126279   4.304   2.319   5.881
 8460SOL    HW226280   4.384   2.452   5.831
 8461SOL     OW26281   0.993   4.028   2.462
 8461SOL    HW126282   0.988   4.124   2.436
 8461SOL    HW226283   1.068   3.984   2.412
 8462SOL     OW26284   3.879   2.304   0.484
 8462SOL    HW126285   3.917   2.393   0.512
 8462SOL    HW226286   3.892   2.293   0.385
 8463SOL     OW26287   6.784   0.700   0.526
 8463SOL    HW126288   6.815   0.769   0.461
 8463SOL    HW226289   6.717   0.740   0.589
 8464SOL     OW26290   6.815   4.236   5.459
 8464SOL    HW126291   6.721   4.229   5.491
 8464SOL    HW226292   6.818   4.226   5.359
 8465SOL     OW26293   3.076   2.389   0.939
 8465SOL    HW126294   3.099   2.293   0.951
 8465SOL    HW226295   2.994   2.411   0.991
 8466SOL     OW26296   6.077   6.390   5.668
 8466SOL    HW126297   6.087   6.484   5.635
 8466SOL    HW226298   5.988   6.354   5.641
 8467SOL     OW26299   3.571   0.891   1.697
 8467SOL    HW126300   3.646   0.850   1.645
 8467SOL    HW226301   3.600   0.904   1.792
 8468SOL     OW26302   4.906   2.664   6.823
 8468SOL    HW126303   4.915   2.754   6.866
 8468SOL    HW226304   4.996   2.627   6.804
 8469SOL     OW26305   2.452   1.486   5.666
 8469SOL    HW126306   2.417   1.579   5.657
 8469SOL    HW226307   2.414   1.429   5.592
 8470SOL     OW26308   0.923   4.983   0.003
 8470SOL    HW126309   0.920   4.909   0.069
 8470SOL    HW226310   1.017   5.015   7.015
 8471SOL     OW26311   4.000   0.040   5.533
 8471SOL    HW126312   3.948   0.018   5.616
 8471SOL    HW226313   4.060   0.117   5.551
 8472SOL     OW26314   6.177   0.426   5.320
 8472SOL    HW126315   6.083   0.431   5.288
 8472SOL    HW226316   6.227   0.508   5.289
 8473SOL     OW26317   6.715   5.717   0.893
 8473SOL    HW126318   6.812   5.697   0.910
 8473SOL    HW226319   6.702   5.816   0.890
 8474SOL     OW26320   3.142   3.557   2.063
 8474SOL    HW126321   3.230   3.605   2.061
 8474SOL    HW226322   3.157   3.460   2.078
 8475SOL     OW26323   7.011   2.808   3.036
 8475SOL    HW126324   6.934   2.870   3.054
 8475SOL    HW226325   0.067   2.834   3.093
 8476SOL     OW26326   6.347   1.590   0.803
 8476SOL    HW126327   6.386   1.499   0.822
 8476SOL    HW226328   6.247   1.583   0.801
 8477SOL     OW26329   4.902   6.619   2.482
 8477SOL    HW126330   4.908   6.655   2.389
 8477SOL    HW226331   4.955   6.676   2.544
 8478SOL     OW26332   1.436   0.705   5.414
 8478SOL    HW126333   1.446   0.640   5.339
 8478SOL    HW226334   1.502   0.779   5.403
 8479SOL     OW26335   1.684   3.771   0.702
 8479SOL    HW126336   1.766   3.728   0.737
 8479SOL    HW226337   1.625   3.703   0.659
 8480SOL     OW26338   4.941   3.233   6.691
 8480SOL    HW126339   4.981   3.305   6.634
 8480SOL    HW226340   4.906   3.160   6.632
 8481SOL     OW26341   4.543   2.558   5.042
 8481SOL    HW126342   4.589   2.469   5.033
 8481SOL    HW226343   4.596   2.627   4.994
 8482SOL     OW26344   5.009   6.957   2.509
 8482SOL    HW126345   4.999   6.978   2.607
 8482SOL    HW226346   5.104   6.972   2.481
 8483SOL     OW26347   3.395   6.069   2.172
 8483SOL    HW126348   3.311   6.101   2.216
 8483SOL    HW226349   3.472   6.127   2.198
 8484SOL     OW26350   6.733   6.413   3.828
 8484SOL    HW126351   6.743   6.479   3.754
 8484SOL    HW226352   6.684   6.455   3.905
 8485SOL     OW26353   4.146   2.491   0.161
 8485SOL    HW126354   4.087   2.571   0.173
 8485SOL    HW226355   4.095   2.408   0.182
 8486SOL     OW26356   2.733   1.250   2.635
 8486SOL    HW126357   2.666   1.217   2.568
 8486SOL    HW226358   2.685   1.291   2.712
 8487SOL     OW26359   5.851   2.364   6.035
 8487SOL    HW126360   5.821   2.454   6.004
 8487SOL    HW226361   5.938   2.373   6.084
 8488SOL     OW26362   5.507   6.305   1.834
 8488SOL    HW126363   5.604   6.307   1.806
 8488SOL    HW226364   5.489   6.381   1.895
 8489SOL     OW26365   6.221   1.700   1.893
 8489SOL    HW126366   6.202   1.791   1.930
 8489SOL    HW226367   6.242   1.638   1.969
 8490SOL     OW26368   3.444   6.732   5.767
 8490SOL    HW126369   3.390   6.793   5.826
 8490SOL    HW226370   3.492   6.665   5.824
 8491SOL     OW26371   2.094   5.953   1.936
 8491SOL    HW126372   2.069   5.947   2.033
 8491SOL    HW226373   2.023   6.004   1.887
 8492SOL     OW26374   5.943   4.624   5.174
 8492SOL    HW126375   5.891   4.541   5.154
 8492SOL    HW226376   5.904   4.671   5.253
 8493SOL     OW26377   2.382   2.681   5.983
 8493SOL    HW126378   2.429   2.617   5.923
 8493SOL    HW226379   2.348   2.633   6.064
 8494SOL     OW26380   4.079   5.400   1.573
 8494SOL    HW126381   4.166   5.450   1.570
 8494SOL    HW226382   4.074   5.347   1.658
 8495SOL     OW26383   0.031   4.730   1.320
 8495SOL    HW126384   6.996   4.699   1.244
 8495SOL    HW226385   0.128   4.719   1.295
 8496SOL     OW26386   0.738   1.626   2.534
 8496SOL    HW126387   0.782   1.561   2.597
 8496SOL    HW226388   0.645   1.593   2.514
 8497SOL     OW26389   0.129   1.442   3.655
 8497SOL    HW126390   0.120   1.513   3.585
 8497SOL    HW226391   0.070   1.465   3.733
 8498SOL     OW26392   6.412   6.214   3.403
 8498SOL    HW126393   6.400   6.158   3.485
 8498SOL    HW226394   6.345   6.288   3.403
 8499SOL     OW26395   1.981   3.989   6.813
 8499SOL    HW126396   2.035   4.026   6.737
 8499SOL    HW226397   1.937   3.905   6.785
 8500SOL     OW26398   1.643   6.279   5.980
 8500SOL    HW126399   1.693   6.359   5.949
 8500SOL    HW226400   1.546   6.290   5.960
 8501SOL     OW26401   6.925   2.997   5.885
 8501SOL    HW126402   6.992   2.964   5.818
 8501SOL    HW226403   6.913   3.096   5.874
 8502SOL     OW26404   0.531   3.016   1.486
 8502SOL    HW126405   0.505   3.112   1.500
 8502SOL    HW226406   0.448   2.961   1.476
 8503SOL     OW26407   0.530   5.561   4.750
 8503SOL    HW126408   0.566   5.533   4.662
 8503SOL    HW226409   0.580   5.641   4.783
 8504SOL     OW26410   1.993   5.213   2.135
 8504SOL    HW126411   2.068   5.275   2.161
 8504SOL    HW226412   2.002   5.127   2.186
 8505SOL     OW26413   6.059   3.792   3.178
 8505SOL    HW126414   5.990   3.784   3.250
 8505SOL    HW226415   6.146   3.757   3.211
 8506SOL     OW26416   1.000   1.715   6.544
 8506SOL    HW126417   1.012   1.616   6.541
 8506SOL    HW226418   0.971   1.742   6.636
 8507SOL     OW26419   3.689   6.423   5.214
 8507SOL    HW126420   3.643   6.505   5.181
 8507SOL    HW226421   3.628   6.371   5.273
 8508SOL     OW26422   5.043   1.691   4.669
 8508SOL    HW126423   5.133   1.702   4.710
 8508SOL    HW226424   4.986   1.771   4.691
 8509SOL     OW26425   5.083   0.336   3.533
 8509SOL    HW126426   5.067   0.354   3.436
 8509SOL    HW226427   5.010   0.278   3.569
 8510SOL     OW26428   5.829   4.356   3.058
 8510SOL    HW126429   5.928   4.346   3.061
 8510SOL    HW226430   5.789   4.277   3.010
 8511SOL     OW26431   6.455   3.715   2.833
 8511SOL    HW126432   6.457   3.633   2.891
 8511SOL    HW226433   6.479   3.689   2.739
 8512SOL     OW26434   3.009   0.763   2.818
 8512SOL    HW126435   2.966   0.693   2.876
 8512SOL    HW226436   3.078   0.812   2.871
 8513SOL     OW26437   6.803   4.753   1.091
 8513SOL    HW126438   6.852   4.838   1.075
 8513SOL    HW226439   6.704   4.769   1.083
 8514SOL     OW26440   2.283   0.882   3.730
 8514SOL    HW126441   2.324   0.917   3.645
 8514SOL    HW226442   2.321   0.931   3.808
 8515SOL     OW26443   4.990   2.371   1.196
 8515SOL    HW126444   5.031   2.424   1.122
 8515SOL    HW226445   5.062   2.319   1.243
 8516SOL     OW26446   0.379   1.486   2.217
 8516SOL    HW126447   0.393   1.545   2.296
 8516SOL    HW226448   0.302   1.520   2.163
 8517SOL     OW26449   0.618   2.940   4.976
 8517SOL    HW126450   0.639   2.977   4.886
 8517SOL    HW226451   0.699   2.947   5.035
 8518SOL     OW26452   4.601   4.137   6.638
 8518SOL    HW126453   4.688   4.094   6.616
 8518SOL    HW226454   4.561   4.093   6.718
 8519SOL     OW26455   1.560   5.163   2.015
 8519SOL    HW126456   1.523   5.227   2.083
 8519SOL    HW226457   1.488   5.136   1.952
 8520SOL     OW26458   3.611   1.255   1.046
 8520SOL    HW126459   3.627   1.304   0.960
 8520SOL    HW226460   3.669   1.295   1.117
 8521SOL     OW26461   2.079   5.546   5.920
 8521SOL    HW126462   2.142   5.599   5.863
 8521SOL    HW226463   2.030   5.480   5.863
 8522SOL     OW26464   0.955   6.030   1.979
 8522SOL    HW126465   0.960   6.054   2.076
 8522SOL    HW226466   1.040   5.986   1.951
 8523SOL     OW26467   2.830   6.458   6.843
 8523SOL    HW126468   2.851   6.476   6.940
 8523SOL    HW226469   2.902   6.497   6.786
 8524SOL     OW26470   1.285   2.593   5.043
 8524SOL    HW126471   1.253   2.509   5.085
 8524SOL    HW226472   1.383   2.585   5.024
 8525SOL     OW26473   6.191   4.428   3.549
 8525SOL    HW126474   6.163   4.375   3.469
 8525SOL    HW226475   6.110   4.471   3.591
 8526SOL     OW26476   2.743   4.041   1.070
 8526SOL    HW126477   2.785   4.087   1.148
 8526SOL    HW226478   2.688   4.107   1.019
 8527SOL     OW26479   3.427   0.332   4.994
 8527SOL    HW126480   3.350   0.387   5.025
 8527SOL    HW226481   3.407   0.295   4.903
 8528SOL     OW26482   4.955   3.091   6.024
 8528SOL    HW126483   4.916   3.158   5.961
 8528SOL    HW226484   5.055   3.103   6.028
 8529SOL     OW26485   0.923   6.838   6.748
 8529SOL    HW126486   1.010   6.853   6.702
 8529SOL    HW226487   0.906   6.912   6.813
 8530SOL     OW26488   0.950   4.305   6.064
 8530SOL    HW126489   1.048   4.304   6.083
 8530SOL    HW226490   0.918   4.399   6.056
 8531SOL     OW26491   5.305   4.489   2.523
 8531SOL    HW126492   5.320   4.583   2.553
 8531SOL    HW226493   5.219   4.455   2.561
 8532SOL     OW26494   3.939   4.977   4.836
 8532SOL    HW126495   3.947   5.075   4.857
 8532SOL    HW226496   3.884   4.966   4.753
 8533SOL     OW26497   1.715   0.513   5.592
 8533SOL    HW126498   1.798   0.505   5.648
 8533SOL    HW226499   1.644   0.453   5.628
 8534SOL     OW26500   6.943   3.480   3.547
 8534SOL    HW126501   6.927   3.577   3.566
 8534SOL    HW226502   6.861   3.440   3.505
 8535SOL     OW26503   0.706   2.165   5.075
 8535SOL    HW126504   0.638   2.227   5.035
 8535SOL    HW226505   0.796   2.186   5.038
 8536SOL     OW26506   6.142   2.351   4.936
 8536SOL    HW126507   6.147   2.444   4.900
 8536SOL    HW226508   6.107   2.289   4.866
 8537SOL     OW26509   5.458   1.757   1.070
 8537SOL    HW126510   5.504   1.813   1.138
 8537SOL    HW226511   5.466   1.799   0.980
 8538SOL     OW26512   0.177   1.043   5.151
 8538SOL    HW126513   0.117   1.025   5.229
 8538SOL    HW226514   0.122   1.050   5.067
 8539SOL     OW26515   5.934   2.032   2.004
 8539SOL    HW126516   6.031   2.052   2.017
 8539SOL    HW226517   5.924   1.965   1.930
 8540SOL     OW26518   3.417   1.424   0.557
 8540SOL    HW126519   3.410   1.347   0.494
 8540SOL    HW226520   3.402   1.509   0.508
 8541SOL     OW26521   2.541   1.754   4.367
 8541SOL    HW126522   2.595   1.742   4.284
 8541SOL    HW226523   2.601   1.777   4.444
 8542SOL     OW26524   2.502   4.625   6.480
 8542SOL    HW126525   2.510   4.723   6.498
 8542SOL    HW226526   2.534   4.606   6.387
 8543SOL     OW26527   2.872   1.653   5.957
 8543SOL    HW126528   2.863   1.734   5.899
 8543SOL    HW226529   2.948   1.664   6.020
 8544SOL     OW26530   5.514   3.324   4.665
 8544SOL    HW126531   5.421   3.328   4.701
 8544SOL    HW226532   5.579   3.324   4.741
 8545SOL     OW26533   3.723   6.739   4.915
 8545SOL    HW126534   3.757   6.820   4.963
 8545SOL    HW226535   3.625   6.729   4.933
 8546SOL     OW26536   6.808   0.019   1.855
 8546SOL    HW126537   6.846   0.064   1.774
 8546SOL    HW226538   6.710   0.008   1.844
 8547SOL     OW26539   0.307   0.334   5.285
 8547SOL    HW126540   0.402   0.324   5.316
 8547SOL    HW226541   0.267   0.244   5.269
 8548SOL     OW26542   0.115   3.314   5.851
 8548SOL    HW126543   0.024   3.290   5.817
 8548SOL    HW226544   0.122   3.413   5.861
 8549SOL     OW26545   0.931   2.828   3.918
 8549SOL    HW126546   0.982   2.751   3.955
 8549SOL    HW226547   0.851   2.795   3.869
 8550SOL     OW26548   1.524   3.908   6.674
 8550SOL    HW126549   1.574   3.847   6.614
 8550SOL    HW226550   1.444   3.944   6.626
 8551SOL     OW26551   3.031   3.002   6.928
 8551SOL    HW126552   3.044   3.101   6.922
 8551SOL    HW226553   3.019   2.976   0.002
 8552SOL     OW26554   2.386   0.418   2.733
 8552SOL    HW126555   2.337   0.368   2.662
 8552SOL    HW226556   2.344   0.507   2.747
 8553SOL     OW26557   4.173   4.426   0.126
 8553SOL    HW126558   4.271   4.408   0.135
 8553SOL    HW226559   4.142   4.401   0.034
 8554SOL     OW26560   0.408   5.892   1.049
 8554SOL    HW126561   0.397   5.864   1.144
 8554SOL    HW226562   0.402   5.812   0.990
 8555SOL     OW26563   4.075   1.796   3.023
 8555SOL    HW126564   3.977   1.786   3.037
 8555SOL    HW226565   4.108   1.878   3.070
 8556SOL     OW26566   2.181   6.223   5.008
 8556SOL    HW126567   2.205   6.188   4.918
 8556SOL    HW226568   2.138   6.151   5.063
 8557SOL     OW26569   7.010   0.381   1.284
 8557SOL    HW126570   0.055   0.421   1.346
 8557SOL    HW226571   6.918   0.409   1.312
 8558SOL     OW26572   2.106   5.394   2.929
 8558SOL    HW126573   2.193   5.347   2.938
 8558SOL    HW226574   2.121   5.493   2.923
 8559SOL     OW26575   1.622   6.218   2.323
 8559SOL    HW126576   1.657   6.312   2.318
 8559SOL    HW226577   1.580   6.193   2.235
 8560SOL     OW26578   1.110   5.477   1.568
 8560SOL    HW126579   1.048   5.449   1.495
 8560SOL    HW226580   1.076   5.443   1.655
 8561SOL     OW26581   3.434   6.830   4.040
 8561SOL    HW126582   3.374   6.751   4.052
 8561SOL    HW226583   3.520   6.801   3.998
 8562SOL     OW26584   3.502   6.975   6.953
 8562SOL    HW126585   3.575   6.918   6.992
 8562SOL    HW226586   3.420   6.965   7.009
 8563SOL     OW26587   0.886   5.085   1.805
 8563SOL    HW126588   0.916   5.093   1.710
 8563SOL    HW226589   0.934   5.008   1.848
 8564SOL     OW26590   3.630   6.221   5.774
 8564SOL    HW126591   3.665   6.278   5.699
 8564SOL    HW226592   3.707   6.180   5.824
 8565SOL     OW26593   3.646   5.521   0.928
 8565SOL    HW126594   3.567   5.473   0.966
 8565SOL    HW226595   3.640   5.618   0.951
 8566SOL     OW26596   1.637   0.366   1.951
 8566SOL    HW126597   1.661   0.330   1.861
 8566SOL    HW226598   1.617   0.290   2.013
 8567SOL     OW26599   0.882   2.244   2.221
 8567SOL    HW126600   0.844   2.211   2.308
 8567SOL    HW226601   0.975   2.277   2.237
 8568SOL     OW26602   5.411   1.617   0.691
 8568SOL    HW126603   5.370   1.661   0.612
 8568SOL    HW226604   5.506   1.591   0.670
 8569SOL     OW26605   5.217   1.887   5.980
 8569SOL    HW126606   5.179   1.807   6.025
 8569SOL    HW226607   5.219   1.872   5.881
 8570SOL     OW26608   1.318   1.758   4.775
 8570SOL    HW126609   1.345   1.820   4.848
 8570SOL    HW226610   1.253   1.691   4.811
 8571SOL     OW26611   0.819   6.672   4.996
 8571SOL    HW126612   0.865   6.747   5.044
 8571SOL    HW226613   0.721   6.690   4.992
 8572SOL     OW26614   1.607   4.195   5.086
 8572SOL    HW126615   1.662   4.111   5.090
 8572SOL    HW226616   1.574   4.217   5.178
 8573SOL     OW26617   2.885   5.929   6.410
 8573SOL    HW126618   2.936   5.916   6.325
 8573SOL    HW226619   2.825   5.851   6.425
 8574SOL     OW26620   6.180   6.634   6.079
 8574SOL    HW126621   6.197   6.543   6.041
 8574SOL    HW226622   6.099   6.674   6.034
 8575SOL     OW26623   3.305   1.575   3.511
 8575SOL    HW126624   3.243   1.601   3.585
 8575SOL    HW226625   3.394   1.552   3.550
 8576SOL     OW26626   1.713   4.809   4.039
 8576SOL    HW126627   1.767   4.828   4.121
 8576SOL    HW226628   1.765   4.750   3.977
 8577SOL     OW26629   1.618   0.549   6.006
 8577SOL    HW126630   1.713   0.520   5.992
 8577SOL    HW226631   1.616   0.642   6.043
 8578SOL     OW26632   6.652   4.673   6.000
 8578SOL    HW126633   6.712   4.619   6.059
 8578SOL    HW226634   6.652   4.635   5.908
 8579SOL     OW26635   1.186   5.881   2.133
 8579SOL    HW126636   1.156   5.961   2.185
 8579SOL    HW226637   1.253   5.909   2.064
 8580SOL     OW26638   2.339   5.945   0.515
 8580SOL    HW126639   2.372   5.992   0.433
 8580SOL    HW226640   2.393   5.863   0.531
 8581SOL     OW26641   3.732   4.755   1.435
 8581SOL    HW126642   3.685   4.666   1.432
 8581SOL    HW226643   3.664   4.828   1.428
 8582SOL     OW26644   4.512   4.725   5.687
 8582SOL    HW126645   4.572   4.708   5.765
 8582SOL    HW226646   4.495   4.639   5.639
 8583SOL     OW26647   2.895   6.671   2.613
 8583SOL    HW126648   2.866   6.607   2.684
 8583SOL    HW226649   2.986   6.706   2.635
 8584SOL     OW26650   0.792   6.541   5.534
 8584SOL    HW126651   0.718   6.508   5.474
 8584SOL    HW226652   0.756   6.608   5.598
 8585SOL     OW26653   6.356   1.423   0.552
 8585SOL    HW126654   6.266   1.430   0.509
 8585SOL    HW226655   6.370   1.500   0.614
 8586SOL     OW26656   3.873   6.798   1.196
 8586SOL    HW126657   3.802   6.727   1.204
 8586SOL    HW226658   3.884   6.823   1.099
 8587SOL     OW26659   0.970   1.107   5.042
 8587SOL    HW126660   1.013   1.074   4.959
 8587SOL    HW226661   0.871   1.115   5.027
 8588SOL     OW26662   4.783   1.146   6.718
 8588SOL    HW126663   4.706   1.140   6.655
 8588SOL    HW226664   4.792   1.060   6.769
 8589SOL     OW26665   6.577   2.674   5.211
 8589SOL    HW126666   6.577   2.713   5.303
 8589SOL    HW226667   6.670   2.671   5.176
 8590SOL     OW26668   0.959   1.202   2.515
 8590SOL    HW126669   1.002   1.242   2.434
 8590SOL    HW226670   0.887   1.139   2.485
 8591SOL     OW26671   0.356   4.090   0.519
 8591SOL    HW126672   0.415   4.112   0.441
 8591SOL    HW226673   0.359   3.992   0.536
 8592SOL     OW26674   6.115   2.284   0.186
 8592SOL    HW126675   6.166   2.198   0.192
 8592SOL    HW226676   6.018   2.266   0.203
 8593SOL     OW26677   2.759   1.171   6.474
 8593SOL    HW126678   2.684   1.153   6.538
 8593SOL    HW226679   2.843   1.188   6.526
 8594SOL     OW26680   5.975   2.119   5.937
 8594SOL    HW126681   5.928   2.207   5.945
 8594SOL    HW226682   6.042   2.123   5.863
 8595SOL     OW26683   5.971   0.885   4.151
 8595SOL    HW126684   5.900   0.936   4.102
 8595SOL    HW226685   6.034   0.844   4.086
 8596SOL     OW26686   1.645   4.708   2.967
 8596SOL    HW126687   1.642   4.645   3.045
 8596SOL    HW226688   1.574   4.778   2.978
 8597SOL     OW26689   5.167   1.940   1.658
 8597SOL    HW126690   5.154   1.880   1.737
 8597SOL    HW226691   5.264   1.942   1.633
 8598SOL     OW26692   5.870   0.041   5.993
 8598SOL    HW126693   5.903   0.011   6.082
 8598SOL    HW226694   5.770   0.043   5.993
 8599SOL     OW26695   1.480   2.693   4.718
 8599SOL    HW126696   1.509   2.689   4.813
 8599SOL    HW226697   1.481   2.788   4.686
 8600SOL     OW26698   5.385   3.481   7.006
 8600SOL    HW126699   5.460   3.497   6.942
 8600SOL    HW226700   5.298   3.506   6.963
 8601SOL     OW26701   0.416   1.702   3.718
 8601SOL    HW126702   0.478   1.762   3.769
 8601SOL    HW226703   0.391   1.624   3.775
 8602SOL     OW26704   2.584   6.766   1.965
 8602SOL    HW126705   2.681   6.774   1.988
 8602SOL    HW226706   2.565   6.675   1.928
 8603SOL     OW26707   5.173   0.097   0.381
 8603SOL    HW126708   5.243   0.138   0.324
 8603SOL    HW226709   5.083   0.132   0.355
 8604SOL     OW26710   1.054   2.246   5.902
 8604SOL    HW126711   1.011   2.335   5.895
 8604SOL    HW226712   1.109   2.241   5.985
 8605SOL     OW26713   1.527   5.349   3.546
 8605SOL    HW126714   1.494   5.353   3.640
 8605SOL    HW226715   1.506   5.434   3.498
 8606SOL     OW26716   2.143   2.567   0.119
 8606SOL    HW126717   2.127   2.652   0.169
 8606SOL    HW226718   2.120   2.579   0.023
 8607SOL     OW26719   2.414   4.966   5.979
 8607SOL    HW126720   2.450   4.874   5.967
 8607SOL    HW226721   2.314   4.962   5.984
 8608SOL     OW26722   1.987   4.459   2.327
 8608SOL    HW126723   1.930   4.512   2.390
 8608SOL    HW226724   2.064   4.515   2.297
 8609SOL     OW26725   4.914   0.412   3.922
 8609SOL    HW126726   4.895   0.384   4.016
 8609SOL    HW226727   5.012   0.400   3.903
 8610SOL     OW26728   0.075   0.672   3.118
 8610SOL    HW126729   0.014   0.749   3.138
 8610SOL    HW226730   0.111   0.635   3.203
 8611SOL     OW26731   3.076   1.702   4.074
 8611SOL    HW126732   3.026   1.774   4.122
 8611SOL    HW226733   3.028   1.615   4.083
 8612SOL     OW26734   2.410   3.443   1.343
 8612SOL    HW126735   2.375   3.357   1.380
 8612SOL    HW226736   2.333   3.499   1.312
 8613SOL     OW26737   2.925   2.047   1.109
 8613SOL    HW126738   3.014   2.011   1.138
 8613SOL    HW226739   2.903   2.128   1.163
 8614SOL     OW26740   1.002   2.652   2.891
 8614SOL    HW126741   0.920   2.606   2.927
 8614SOL    HW226742   1.021   2.734   2.944
 8615SOL     OW26743   4.662   2.103   5.232
 8615SOL    HW126744   4.745   2.049   5.218
 8615SOL    HW226745   4.670   2.156   5.316
 8616SOL     OW26746   2.961   4.764   1.767
 8616SOL    HW126747   2.892   4.827   1.802
 8616SOL    HW226748   2.974   4.689   1.832
 8617SOL     OW26749   6.144   0.922   4.414
 8617SOL    HW126750   6.186   1.006   4.450
 8617SOL    HW226751   6.119   0.936   4.318
 8618SOL     OW26752   6.230   4.255   1.674
 8618SOL    HW126753   6.293   4.329   1.651
 8618SOL    HW226754   6.262   4.209   1.758
 8619SOL     OW26755   3.920   5.305   2.707
 8619SOL    HW126756   3.983   5.379   2.729
 8619SOL    HW226757   3.972   5.221   2.689
 8620SOL     OW26758   2.102   6.122   4.084
 8620SOL    HW126759   2.074   6.026   4.078
 8620SOL    HW226760   2.191   6.133   4.039
 8621SOL     OW26761   5.033   2.888   2.262
 8621SOL    HW126762   5.003   2.816   2.200
 8621SOL    HW226763   4.955   2.947   2.285
 8622SOL     OW26764   5.065   4.592   1.233
 8622SOL    HW126765   5.163   4.611   1.237
 8622SOL    HW226766   5.018   4.649   1.301
 8623SOL     OW26767   0.522   4.430   5.284
 8623SOL    HW126768   0.609   4.476   5.303
 8623SOL    HW226769   0.539   4.336   5.256
 8624SOL     OW26770   2.509   4.036   5.722
 8624SOL    HW126771   2.479   3.941   5.710
 8624SOL    HW226772   2.429   4.095   5.736
 8625SOL     OW26773   4.883   0.840   5.227
 8625SOL    HW126774   4.858   0.746   5.252
 8625SOL    HW226775   4.978   0.843   5.197
 8626SOL     OW26776   4.268   2.818   6.727
 8626SOL    HW126777   4.205   2.823   6.805
 8626SOL    HW226778   4.341   2.754   6.746
 8627SOL     OW26779   2.150   1.913   2.167
 8627SOL    HW126780   2.071   1.951   2.216
 8627SOL    HW226781   2.212   1.988   2.141
 8628SOL     OW26782   5.916   6.835   0.128
 8628SOL    HW126783   5.888   6.900   0.057
 8628SOL    HW226784   5.836   6.797   0.173
 8629SOL     OW26785   1.895   6.696   5.196
 8629SOL    HW126786   1.916   6.598   5.185
 8629SOL    HW226787   1.859   6.712   5.288
 8630SOL     OW26788   4.872   3.404   3.967
 8630SOL    HW126789   4.878   3.304   3.960
 8630SOL    HW226790   4.958   3.444   3.933
 8631SOL     OW26791   1.377   5.655   6.353
 8631SOL    HW126792   1.458   5.706   6.325
 8631SOL    HW226793   1.359   5.582   6.288
 8632SOL     OW26794   4.054   4.836   5.265
 8632SOL    HW126795   4.138   4.888   5.281
 8632SOL    HW226796   4.047   4.762   5.332
 8633SOL     OW26797   5.535   2.761   5.888
 8633SOL    HW126798   5.540   2.767   5.789
 8633SOL    HW226799   5.520   2.852   5.927
 8634SOL     OW26800   4.849   4.012   6.510
 8634SOL    HW126801   4.897   4.055   6.587
 8634SOL    HW226802   4.839   3.914   6.528
 8635SOL     OW26803   5.789   2.846   6.791
 8635SOL    HW126804   5.841   2.852   6.706
 8635SOL    HW226805   5.834   2.781   6.853
 8636SOL     OW26806   5.232   6.187   1.173
 8636SOL    HW126807   5.192   6.098   1.192
 8636SOL    HW226808   5.299   6.210   1.243
 8637SOL     OW26809   1.956   1.844   6.810
 8637SOL    HW126810   2.003   1.759   6.835
 8637SOL    HW226811   2.011   1.894   6.744
 8638SOL     OW26812   3.758   2.127   5.378
 8638SOL    HW126813   3.793   2.038   5.407
 8638SOL    HW226814   3.773   2.139   5.279
 8639SOL     OW26815   4.691   3.207   6.499
 8639SOL    HW126816   4.624   3.191   6.426
 8639SOL    HW226817   4.647   3.254   6.575
 8640SOL     OW26818   3.949   3.721   0.307
 8640SOL    HW126819   3.954   3.631   0.349
 8640SOL    HW226820   4.024   3.778   0.341
 8641SOL     OW26821   4.251   4.680   4.148
 8641SOL    HW126822   4.271   4.711   4.056
 8641SOL    HW226823   4.233   4.581   4.147
 8642SOL     OW26824   1.239   6.390   3.828
 8642SOL    HW126825   1.283   6.304   3.801
 8642SOL    HW226826   1.214   6.442   3.746
 8643SOL     OW26827   1.596   0.374   0.004
 8643SOL    HW126828   1.499   0.390   0.024
 8643SOL    HW226829   1.604   0.310   6.950
 8644SOL     OW26830   5.295   2.650   5.835
 8644SOL    HW126831   5.254   2.738   5.815
 8644SOL    HW226832   5.394   2.659   5.843
 8645SOL     OW26833   4.532   5.070   1.837
 8645SOL    HW126834   4.574   5.060   1.747
 8645SOL    HW226835   4.566   4.998   1.898
 8646SOL     OW26836   0.254   1.532   0.016
 8646SOL    HW126837   0.252   1.625   7.003
 8646SOL    HW226838   0.240   1.467   6.964
 8647SOL     OW26839   2.673   4.980   0.021
 8647SOL    HW126840   2.616   4.984   0.103
 8647SOL    HW226841   2.763   4.945   0.045
 8648SOL     OW26842   6.542   0.236   1.886
 8648SOL    HW126843   6.485   0.163   1.849
 8648SOL    HW226844   6.507   0.264   1.975
 8649SOL     OW26845   5.748   5.690   0.427
 8649SOL    HW126846   5.779   5.783   0.450
 8649SOL    HW226847   5.691   5.655   0.501
 8650SOL     OW26848   1.811   6.757   4.951
 8650SOL    HW126849   1.826   6.745   5.049
 8650SOL    HW226850   1.718   6.727   4.929
 8651SOL     OW26851   3.846   1.586   1.050
 8651SOL    HW126852   3.787   1.519   1.094
 8651SOL    HW226853   3.934   1.589   1.096
 8652SOL     OW26854   0.933   4.963   3.154
 8652SOL    HW126855   0.980   4.877   3.176
 8652SOL    HW226856   0.840   4.943   3.123
 8653SOL     OW26857   6.384   1.239   6.072
 8653SOL    HW126858   6.437   1.286   6.001
 8653SOL    HW226859   6.330   1.166   6.029
 8654SOL     OW26860   0.288   4.897   1.583
 8654SOL    HW126861   0.288   4.980   1.639
 8654SOL    HW226862   0.363   4.902   1.517
 8655SOL     OW26863   5.830   0.030   4.592
 8655SOL    HW126864   5.907   0.073   4.544
 8655SOL    HW226865   5.849   6.955   4.604
 8656SOL     OW26866   6.454   1.352   2.243
 8656SOL    HW126867   6.452   1.443   2.203
 8656SOL    HW226868   6.529   1.346   2.309
 8657SOL     OW26869   5.772   5.955   0.463
 8657SOL    HW126870   5.695   5.977   0.523
 8657SOL    HW226871   5.780   6.024   0.392
 8658SOL     OW26872   6.529   5.635   0.232
 8658SOL    HW126873   6.576   5.599   0.312
 8658SOL    HW226874   6.459   5.700   0.261
 8659SOL     OW26875   5.319   2.226   2.603
 8659SOL    HW126876   5.235   2.270   2.636
 8659SOL    HW226877   5.319   2.226   2.503
 8660SOL     OW26878   6.508   3.519   2.267
 8660SOL    HW126879   6.584   3.583   2.259
 8660SOL    HW226880   6.425   3.560   2.229
 8661SOL     OW26881   6.103   3.699   1.875
 8661SOL    HW126882   6.114   3.602   1.855
 8661SOL    HW226883   6.090   3.750   1.790
 8662SOL     OW26884   3.891   5.995   1.958
 8662SOL    HW126885   3.984   6.031   1.968
 8662SOL    HW226886   3.868   5.989   1.861
 8663SOL     OW26887   2.368   5.602   2.426
 8663SOL    HW126888   2.351   5.510   2.461
 8663SOL    HW226889   2.417   5.596   2.339
 8664SOL     OW26890   2.317   4.836   1.795
 8664SOL    HW126891   2.250   4.762   1.798
 8664SOL    HW226892   2.271   4.924   1.808
 8665SOL     OW26893   6.175   5.316   4.636
 8665SOL    HW126894   6.247   5.361   4.689
 8665SOL    HW226895   6.215   5.239   4.585
 8666SOL     OW26896   5.572   0.505   4.051
 8666SOL    HW126897   5.537   0.508   3.957
 8666SOL    HW226898   5.505   0.544   4.113
 8667SOL     OW26899   5.115   1.715   3.757
 8667SOL    HW126900   5.036   1.772   3.779
 8667SOL    HW226901   5.199   1.763   3.780
 8668SOL     OW26902   5.110   3.824   4.501
 8668SOL    HW126903   5.089   3.811   4.404
 8668SOL    HW226904   5.048   3.770   4.557
 8669SOL     OW26905   0.238   6.114   6.636
 8669SOL    HW126906   0.190   6.196   6.604
 8669SOL    HW226907   0.261   6.056   6.558
 8670SOL     OW26908   4.502   5.397   6.383
 8670SOL    HW126909   4.488   5.308   6.341
 8670SOL    HW226910   4.488   5.469   6.315
 8671SOL     OW26911   0.721   1.878   2.882
 8671SOL    HW126912   0.812   1.890   2.842
 8671SOL    HW226913   0.729   1.868   2.981
 8672SOL     OW26914   0.416   6.568   3.591
 8672SOL    HW126915   0.447   6.480   3.557
 8672SOL    HW226916   0.322   6.584   3.562
 8673SOL     OW26917   6.193   1.997   0.744
 8673SOL    HW126918   6.115   1.964   0.797
 8673SOL    HW226919   6.202   1.944   0.660
 8674SOL     OW26920   5.823   5.222   2.853
 8674SOL    HW126921   5.888   5.146   2.855
 8674SOL    HW226922   5.732   5.188   2.874
 8675SOL     OW26923   4.502   1.639   4.985
 8675SOL    HW126924   4.504   1.650   5.084
 8675SOL    HW226925   4.559   1.561   4.958
 8676SOL     OW26926   5.085   6.962   2.912
 8676SOL    HW126927   4.993   6.949   2.877
 8676SOL    HW226928   5.085   0.015   2.978
 8677SOL     OW26929   2.175   5.699   5.472
 8677SOL    HW126930   2.150   5.619   5.527
 8677SOL    HW226931   2.257   5.740   5.509
 8678SOL     OW26932   0.874   0.154   0.368
 8678SOL    HW126933   0.789   0.102   0.359
 8678SOL    HW226934   0.871   0.233   0.307
 8679SOL     OW26935   1.457   1.611   3.390
 8679SOL    HW126936   1.503   1.587   3.475
 8679SOL    HW226937   1.448   1.529   3.333
 8680SOL     OW26938   6.083   3.590   0.224
 8680SOL    HW126939   6.042   3.675   0.256
 8680SOL    HW226940   6.119   3.539   0.301
 8681SOL     OW26941   4.909   5.634   1.428
 8681SOL    HW126942   4.823   5.682   1.444
 8681SOL    HW226943   4.927   5.572   1.505
 8682SOL     OW26944   6.603   0.638   2.148
 8682SOL    HW126945   6.560   0.555   2.111
 8682SOL    HW226946   6.597   0.711   2.080
 8683SOL     OW26947   1.512   2.506   6.035
 8683SOL    HW126948   1.589   2.442   6.033
 8683SOL    HW226949   1.467   2.501   6.124
 8684SOL     OW26950   6.110   3.029   4.723
 8684SOL    HW126951   6.144   3.090   4.652
 8684SOL    HW226952   6.010   3.036   4.729
 8685SOL     OW26953   5.643   2.877   6.488
 8685SOL    HW126954   5.665   2.883   6.586
 8685SOL    HW226955   5.632   2.782   6.462
 8686SOL     OW26956   6.598   0.737   1.691
 8686SOL    HW126957   6.692   0.767   1.673
 8686SOL    HW226958   6.601   0.655   1.748
 8687SOL     OW26959   5.120   5.005   2.849
 8687SOL    HW126960   5.198   4.948   2.874
 8687SOL    HW226961   5.088   4.980   2.758
 8688SOL     OW26962   1.324   4.893   6.934
 8688SOL    HW126963   1.298   4.840   6.853
 8688SOL    HW226964   1.415   4.863   6.966
 8689SOL     OW26965   4.324   2.511   0.386
 8689SOL    HW126966   4.261   2.543   0.315
 8689SOL    HW226967   4.353   2.418   0.365
 8690SOL     OW26968   0.992   3.508   3.524
 8690SOL    HW126969   1.029   3.417   3.538
 8690SOL    HW226970   0.985   3.527   3.426
 8691SOL     OW26971   3.370   1.677   5.848
 8691SOL    HW126972   3.451   1.634   5.808
 8691SOL    HW226973   3.397   1.763   5.892
 8692SOL     OW26974   3.605   1.026   4.606
 8692SOL    HW126975   3.571   1.035   4.512
 8692SOL    HW226976   3.662   1.105   4.629
 8693SOL     OW26977   5.885   0.307   6.851
 8693SOL    HW126978   5.815   0.378   6.854
 8693SOL    HW226979   5.917   0.296   6.757
 8694SOL     OW26980   5.989   1.532   5.061
 8694SOL    HW126981   5.894   1.501   5.069
 8694SOL    HW226982   5.991   1.625   5.025
 8695SOL     OW26983   3.526   2.739   6.208
 8695SOL    HW126984   3.531   2.781   6.117
 8695SOL    HW226985   3.539   2.640   6.200
 8696SOL     OW26986   2.996   5.789   5.452
 8696SOL    HW126987   2.978   5.698   5.415
 8696SOL    HW226988   3.051   5.841   5.387
 8697SOL     OW26989   0.382   4.327   6.523
 8697SOL    HW126990   0.416   4.394   6.457
 8697SOL    HW226991   0.315   4.267   6.478
 8698SOL     OW26992   5.132   6.259   5.001
 8698SOL    HW126993   5.098   6.217   5.085
 8698SOL    HW226994   5.055   6.280   4.941
 8699SOL     OW26995   1.956   3.573   5.261
 8699SOL    HW126996   1.939   3.476   5.273
 8699SOL    HW226997   1.875   3.617   5.220
 8700SOL     OW26998   0.599   0.531   4.760
 8700SOL    HW126999   0.531   0.461   4.782
 8700SOL    HW227000   0.603   0.599   4.833
 8701SOL     OW27001   1.609   1.234   0.935
 8701SOL    HW127002   1.588   1.303   0.865
 8701SOL    HW227003   1.693   1.260   0.983
 8702SOL     OW27004   5.159   5.236   1.755
 8702SOL    HW127005   5.242   5.291   1.741
 8702SOL    HW227006   5.110   5.227   1.668
 8703SOL     OW27007   3.065   4.493   0.152
 8703SOL    HW127008   3.125   4.485   0.232
 8703SOL    HW227009   2.987   4.430   0.163
 8704SOL     OW27010   6.678   4.161   3.146
 8704SOL    HW127011   6.766   4.207   3.157
 8704SOL    HW227012   6.605   4.229   3.143
 8705SOL     OW27013   4.612   1.847   6.465
 8705SOL    HW127014   4.675   1.771   6.479
 8705SOL    HW227015   4.548   1.853   6.542
 8706SOL     OW27016   4.941   2.015   0.621
 8706SOL    HW127017   4.919   2.013   0.718
 8706SOL    HW227018   4.923   1.925   0.581
 8707SOL     OW27019   1.278   2.448   4.177
 8707SOL    HW127020   1.269   2.435   4.079
 8707SOL    HW227021   1.224   2.527   4.206
 8708SOL     OW27022   4.309   1.307   3.510
 8708SOL    HW127023   4.264   1.317   3.421
 8708SOL    HW227024   4.242   1.274   3.577
 8709SOL     OW27025   6.581   6.930   6.605
 8709SOL    HW127026   6.565   0.003   6.577
 8709SOL    HW227027   6.559   6.919   6.702
 8710SOL     OW27028   2.486   2.617   3.537
 8710SOL    HW127029   2.429   2.557   3.594
 8710SOL    HW227030   2.433   2.697   3.508
 8711SOL     OW27031   1.990   6.578   2.932
 8711SOL    HW127032   1.951   6.485   2.931
 8711SOL    HW227033   2.081   6.576   2.891
 8712SOL     OW27034   3.598   1.665   4.593
 8712SOL    HW127035   3.637   1.749   4.557
 8712SOL    HW227036   3.631   1.587   4.540
 8713SOL     OW27037   6.763   3.743   2.231
 8713SOL    HW127038   6.669   3.758   2.261
 8713SOL    HW227039   6.806   3.672   2.288
 8714SOL     OW27040   1.547   0.329   6.174
 8714SOL    HW127041   1.451   0.306   6.156
 8714SOL    HW227042   1.561   0.427   6.158
 8715SOL     OW27043   3.794   1.644   0.778
 8715SOL    HW127044   3.877   1.611   0.733
 8715SOL    HW227045   3.795   1.615   0.874
 8716SOL     OW27046   0.310   6.402   0.358
 8716SOL    HW127047   0.362   6.487   0.359
 8716SOL    HW227048   0.270   6.388   0.268
 8717SOL     OW27049   2.409   3.452   5.355
 8717SOL    HW127050   2.375   3.535   5.312
 8717SOL    HW227051   2.360   3.373   5.319
 8718SOL     OW27052   1.529   2.235   5.844
 8718SOL    HW127053   1.551   2.138   5.856
 8718SOL    HW227054   1.576   2.289   5.913
 8719SOL     OW27055   3.443   0.775   0.343
 8719SOL    HW127056   3.493   0.839   0.285
 8719SOL    HW227057   3.445   0.684   0.302
 8720SOL     OW27058   0.607   6.354   6.095
 8720SOL    HW127059   0.533   6.298   6.058
 8720SOL    HW227060   0.678   6.295   6.132
 8721SOL     OW27061   6.383   1.060   0.429
 8721SOL    HW127062   6.382   0.960   0.435
 8721SOL    HW227063   6.430   1.098   0.509
 8722SOL     OW27064   2.952   1.113   0.654
 8722SOL    HW127065   2.925   1.202   0.617
 8722SOL    HW227066   2.955   1.119   0.754
 8723SOL     OW27067   5.422   0.036   2.054
 8723SOL    HW127068   5.427   6.959   2.053
 8723SOL    HW227069   5.462   0.073   1.970
 8724SOL     OW27070   6.008   6.930   4.326
 8724SOL    HW127071   5.973   7.020   4.348
 8724SOL    HW227072   6.091   6.938   4.271
 8725SOL     OW27073   1.243   5.552   5.316
 8725SOL    HW127074   1.332   5.597   5.302
 8725SOL    HW227075   1.171   5.621   5.316
 8726SOL     OW27076   6.725   0.659   1.359
 8726SOL    HW127077   6.628   0.642   1.375
 8726SOL    HW227078   6.741   0.757   1.352
 8727SOL     OW27079   5.976   0.051   0.813
 8727SOL    HW127080   5.927   0.131   0.848
 8727SOL    HW227081   5.946   0.032   0.719
 8728SOL     OW27082   5.381   1.375   2.353
 8728SOL    HW127083   5.436   1.446   2.309
 8728SOL    HW227084   5.353   1.406   2.443
 8729SOL     OW27085   3.545   5.053   4.987
 8729SOL    HW127086   3.553   4.981   4.919
 8729SOL    HW227087   3.539   5.012   5.078
 8730SOL     OW27088   4.938   4.250   3.236
 8730SOL    HW127089   4.907   4.155   3.240
 8730SOL    HW227090   5.022   4.260   3.289
 8731SOL     OW27091   0.953   3.729   2.848
 8731SOL    HW127092   1.031   3.792   2.856
 8731SOL    HW227093   0.929   3.719   2.751
 8732SOL     OW27094   5.215   4.162   2.475
 8732SOL    HW127095   5.158   4.234   2.514
 8732SOL    HW227096   5.180   4.136   2.385
 8733SOL     OW27097   1.248   5.868   0.403
 8733SOL    HW127098   1.249   5.786   0.460
 8733SOL    HW227099   1.196   5.849   0.320
 8734SOL     OW27100   0.371   3.595   3.001
 8734SOL    HW127101   0.436   3.650   3.053
 8734SOL    HW227102   0.335   3.523   3.060
 8735SOL     OW27103   0.979   2.522   5.267
 8735SOL    HW127104   0.997   2.602   5.210
 8735SOL    HW227105   0.997   2.545   5.363
 8736SOL     OW27106   6.787   5.263   2.092
 8736SOL    HW127107   6.746   5.204   2.023
 8736SOL    HW227108   6.749   5.241   2.182
 8737SOL     OW27109   2.473   6.690   6.917
 8737SOL    HW127110   2.384   6.654   6.944
 8737SOL    HW227111   2.497   6.655   6.826
 8738SOL     OW27112   2.455   5.975   3.534
 8738SOL    HW127113   2.383   6.025   3.486
 8738SOL    HW227114   2.539   5.976   3.478
 8739SOL     OW27115   5.362   5.592   5.730
 8739SOL    HW127116   5.316   5.580   5.642
 8739SOL    HW227117   5.386   5.503   5.768
 8740SOL     OW27118   4.612   2.246   3.228
 8740SOL    HW127119   4.657   2.248   3.317
 8740SOL    HW227120   4.585   2.339   3.201
 8741SOL     OW27121   2.395   0.740   2.586
 8741SOL    HW127122   2.326   0.693   2.641
 8741SOL    HW227123   2.417   0.828   2.630
 8742SOL     OW27124   4.153   0.469   1.902
 8742SOL    HW127125   4.208   0.442   1.823
 8742SOL    HW227126   4.063   0.501   1.871
 8743SOL     OW27127   1.693   0.894   1.099
 8743SOL    HW127128   1.687   0.797   1.122
 8743SOL    HW227129   1.683   0.949   1.182
 8744SOL     OW27130   4.526   2.945   0.687
 8744SOL    HW127131   4.491   2.864   0.734
 8744SOL    HW227132   4.450   3.007   0.668
 8745SOL     OW27133   6.623   2.406   6.174
 8745SOL    HW127134   6.542   2.367   6.218
 8745SOL    HW227135   6.697   2.413   6.240
 8746SOL     OW27136   4.666   5.937   3.916
 8746SOL    HW127137   4.737   5.867   3.913
 8746SOL    HW227138   4.577   5.894   3.929
 8747SOL     OW27139   0.528   1.041   2.329
 8747SOL    HW127140   0.479   1.073   2.248
 8747SOL    HW227141   0.580   1.117   2.368
 8748SOL     OW27142   1.109   2.116   4.519
 8748SOL    HW127143   1.170   2.060   4.574
 8748SOL    HW227144   1.155   2.201   4.493
 8749SOL     OW27145   1.639   0.862   5.408
 8749SOL    HW127146   1.696   0.859   5.490
 8749SOL    HW227147   1.690   0.825   5.330
 8750SOL     OW27148   3.639   3.078   5.642
 8750SOL    HW127149   3.605   3.130   5.564
 8750SOL    HW227150   3.688   3.138   5.705
 8751SOL     OW27151   6.811   1.350   2.154
 8751SOL    HW127152   6.720   1.349   2.111
 8751SOL    HW227153   6.862   1.269   2.126
 8752SOL     OW27154   4.590   3.250   6.811
 8752SOL    HW127155   4.492   3.248   6.826
 8752SOL    HW227156   4.626   3.157   6.811
 8753SOL     OW27157   2.729   2.455   6.406
 8753SOL    HW127158   2.827   2.469   6.398
 8753SOL    HW227159   2.680   2.525   6.354
 8754SOL     OW27160   2.296   4.270   5.772
 8754SOL    HW127161   2.319   4.363   5.800
 8754SOL    HW227162   2.221   4.274   5.706
 8755SOL     OW27163   1.941   0.353   1.358
 8755SOL    HW127164   2.038   0.376   1.356
 8755SOL    HW227165   1.922   0.295   1.438
 8756SOL     OW27166   1.384   3.265   3.152
 8756SOL    HW127167   1.476   3.261   3.191
 8756SOL    HW227168   1.333   3.341   3.191
 8757SOL     OW27169   4.674   6.083   6.966
 8757SOL    HW127170   4.734   6.084   0.023
 8757SOL    HW227171   4.722   6.123   6.888
 8758SOL     OW27172   4.458   6.413   2.618
 8758SOL    HW127173   4.366   6.423   2.657
 8758SOL    HW227174   4.520   6.380   2.690
 8759SOL     OW27175   6.196   3.229   0.125
 8759SOL    HW127176   6.268   3.298   0.116
 8759SOL    HW227177   6.108   3.275   0.139
 8760SOL     OW27178   3.070   0.761   4.885
 8760SOL    HW127179   3.145   0.742   4.949
 8760SOL    HW227180   2.997   0.694   4.898
 8761SOL     OW27181   5.966   1.899   0.859
 8761SOL    HW127182   5.919   1.972   0.809
 8761SOL    HW227183   6.000   1.935   0.946
 8762SOL     OW27184   0.967   6.036   4.323
 8762SOL    HW127185   1.007   6.081   4.244
 8762SOL    HW227186   0.956   5.938   4.304
 8763SOL     OW27187   5.916   0.030   5.258
 8763SOL    HW127188   5.882   6.984   5.194
 8763SOL    HW227189   5.957   7.008   5.337
 8764SOL     OW27190   4.337   6.742   5.869
 8764SOL    HW127191   4.430   6.754   5.833
 8764SOL    HW227192   4.341   6.725   5.967
 8765SOL     OW27193   4.901   1.498   4.356
 8765SOL    HW127194   4.854   1.433   4.416
 8765SOL    HW227195   4.906   1.461   4.263
 8766SOL     OW27196   4.048   4.239   5.300
 8766SOL    HW127197   4.105   4.314   5.267
 8766SOL    HW227198   3.960   4.239   5.253
 8767SOL     OW27199   4.847   6.324   2.960
 8767SOL    HW127200   4.919   6.380   2.922
 8767SOL    HW227201   4.882   6.272   3.038
 8768SOL     OW27202   1.134   2.638   0.917
 8768SOL    HW127203   1.035   2.627   0.914
 8768SOL    HW227204   1.178   2.549   0.920
 8769SOL     OW27205   6.951   1.095   1.695
 8769SOL    HW127206   6.955   1.009   1.644
 8769SOL    HW227207   0.019   1.138   1.695
 8770SOL     OW27208   4.721   4.639   2.639
 8770SOL    HW127209   4.698   4.544   2.663
 8770SOL    HW227210   4.811   4.662   2.678
 8771SOL     OW27211   0.390   2.555   6.227
 8771SOL    HW127212   0.403   2.654   6.222
 8771SOL    HW227213   0.478   2.510   6.222
 8772SOL     OW27214   4.952   0.683   6.140
 8772SOL    HW127215   4.937   0.729   6.052
 8772SOL    HW227216   4.970   0.586   6.124
 8773SOL     OW27217   5.354   2.680   3.094
 8773SOL    HW127218   5.360   2.607   3.026
 8773SOL    HW227219   5.432   2.742   3.083
 8774SOL     OW27220   0.599   0.329   0.155
 8774SOL    HW127221   0.546   0.245   0.163
 8774SOL    HW227222   0.587   0.368   0.064
 8775SOL     OW27223   5.226   1.227   5.690
 8775SOL    HW127224   5.195   1.321   5.701
 8775SOL    HW227225   5.262   1.214   5.598
 8776SOL     OW27226   4.915   3.396   1.489
 8776SOL    HW127227   4.953   3.307   1.514
 8776SOL    HW227228   4.973   3.469   1.527
 8777SOL     OW27229   6.489   4.158   3.713
 8777SOL    HW127230   6.395   4.176   3.687
 8777SOL    HW227231   6.541   4.129   3.632
 8778SOL     OW27232   5.383   3.319   5.282
 8778SOL    HW127233   5.455   3.254   5.308
 8778SOL    HW227234   5.293   3.278   5.301
 8779SOL     OW27235   1.988   5.762   2.146
 8779SOL    HW127236   1.936   5.756   2.231
 8779SOL    HW227237   1.985   5.674   2.098
 8780SOL     OW27238   7.017   6.793   2.901
 8780SOL    HW127239   6.996   6.752   2.812
 8780SOL    HW227240   0.062   6.865   2.890
 8781SOL     OW27241   4.732   0.081   3.977
 8781SOL    HW127242   4.817   0.100   3.927
 8781SOL    HW227243   4.705   7.008   3.961
 8782SOL     OW27244   6.270   1.063   1.726
 8782SOL    HW127245   6.204   1.000   1.766
 8782SOL    HW227246   6.224   1.123   1.661
 8783SOL     OW27247   6.503   4.153   3.990
 8783SOL    HW127248   6.502   4.157   3.890
 8783SOL    HW227249   6.473   4.063   4.021
 8784SOL     OW27250   6.558   6.533   6.226
 8784SOL    HW127251   6.490   6.601   6.252
 8784SOL    HW227252   6.543   6.505   6.131
 8785SOL     OW27253   6.929   5.428   6.453
 8785SOL    HW127254   6.836   5.458   6.473
 8785SOL    HW227255   6.934   5.398   6.358
 8786SOL     OW27256   2.880   1.022   1.536
 8786SOL    HW127257   2.966   1.053   1.578
 8786SOL    HW227258   2.899   0.987   1.444
 8787SOL     OW27259   3.610   0.549   2.454
 8787SOL    HW127260   3.611   0.554   2.354
 8787SOL    HW227261   3.649   0.462   2.483
 8788SOL     OW27262   6.750   1.461   5.271
 8788SOL    HW127263   6.702   1.498   5.191
 8788SOL    HW227264   6.820   1.396   5.240
 8789SOL     OW27265   6.392   4.514   5.343
 8789SOL    HW127266   6.343   4.427   5.346
 8789SOL    HW227267   6.385   4.559   5.432
 8790SOL     OW27268   6.185   0.778   6.303
 8790SOL    HW127269   6.104   0.804   6.250
 8790SOL    HW227270   6.255   0.742   6.242
 8791SOL     OW27271   5.193   6.765   4.680
 8791SOL    HW127272   5.287   6.758   4.711
 8791SOL    HW227273   5.184   6.720   4.591
 8792SOL     OW27274   2.891   5.251   2.570
 8792SOL    HW127275   2.811   5.308   2.550
 8792SOL    HW227276   2.931   5.218   2.485
 8793SOL     OW27277   1.055   4.732   3.424
 8793SOL    HW127278   1.053   4.727   3.324
 8793SOL    HW227279   1.018   4.648   3.462
 8794SOL     OW27280   5.604   1.071   3.138
 8794SOL    HW127281   5.513   1.053   3.176
 8794SOL    HW227282   5.648   1.144   3.189
 8795SOL     OW27283   1.361   4.677   4.900
 8795SOL    HW127284   1.307   4.756   4.872
 8795SOL    HW227285   1.349   4.603   4.833
 8796SOL     OW27286   5.927   2.833   3.049
 8796SOL    HW127287   5.950   2.923   3.011
 8796SOL    HW227288   5.996   2.807   3.116
 8797SOL     OW27289   6.944   6.830   5.148
 8797SOL    HW127290   6.996   6.804   5.066
 8797SOL    HW227291   6.870   6.764   5.162
 8798SOL     OW27292   4.492   6.150   6.238
 8798SOL    HW127293   4.561   6.079   6.224
 8798SOL    HW227294   4.518   6.207   6.316
 8799SOL     OW27295   2.516   5.224   2.712
 8799SOL    HW127296   2.610   5.255   2.727
 8799SOL    HW227297   2.511   5.125   2.726
 8800SOL     OW27298   5.536   5.687   6.123
 8800SOL    HW127299   5.607   5.660   6.058
 8800SOL    HW227300   5.480   5.760   6.083
 8801SOL     OW27301   6.084   1.441   4.524
 8801SOL    HW127302   6.164   1.493   4.494
 8801SOL    HW227303   6.044   1.484   4.605
 8802SOL     OW27304   1.920   5.799   5.861
 8802SOL    HW127305   1.952   5.706   5.878
 8802SOL    HW227306   1.962   5.862   5.926
 8803SOL     OW27307   6.851   6.889   6.596
 8803SOL    HW127308   6.751   6.884   6.605
 8803SOL    HW227309   6.877   6.983   6.573
 8804SOL     OW27310   2.315   6.038   1.365
 8804SOL    HW127311   2.361   5.983   1.295
 8804SOL    HW227312   2.246   5.982   1.410
 8805SOL     OW27313   3.629   5.432   3.264
 8805SOL    HW127314   3.678   5.421   3.177
 8805SOL    HW227315   3.652   5.355   3.324
 8806SOL     OW27316   2.155   4.780   1.087
 8806SOL    HW127317   2.177   4.684   1.104
 8806SOL    HW227318   2.067   4.786   1.040
 8807SOL     OW27319   4.429   1.529   0.475
 8807SOL    HW127320   4.518   1.540   0.429
 8807SOL    HW227321   4.356   1.554   0.411
 8808SOL     OW27322   6.782   2.413   5.899
 8808SOL    HW127323   6.836   2.331   5.877
 8808SOL    HW227324   6.741   2.402   5.990
 8809SOL     OW27325   2.382   4.591   3.724
 8809SOL    HW127326   2.351   4.671   3.775
 8809SOL    HW227327   2.306   4.554   3.671
 8810SOL     OW27328   5.622   1.247   5.079
 8810SOL    HW127329   5.564   1.225   5.001
 8810SOL    HW227330   5.583   1.207   5.162
 8811SOL     OW27331   2.895   0.476   2.434
 8811SOL    HW127332   2.798   0.493   2.453
 8811SOL    HW227333   2.906   0.384   2.397
 8812SOL     OW27334   2.793   0.230   0.871
 8812SOL    HW127335   2.855   0.281   0.811
 8812SOL    HW227336   2.749   0.157   0.819
 8813SOL     OW27337   1.837   5.021   3.139
 8813SOL    HW127338   1.865   5.035   3.044
 8813SOL    HW227339   1.738   5.007   3.142
 8814SOL     OW27340   6.279   6.939   0.647
 8814SOL    HW127341   6.260   6.854   0.599
 8814SOL    HW227342   6.274   6.924   0.745
 8815SOL     OW27343   5.704   6.818   0.873
 8815SOL    HW127344   5.694   6.912   0.839
 8815SOL    HW227345   5.626   6.764   0.842
 8816SOL     OW27346   0.723   0.096   6.390
 8816SOL    HW127347   0.815   0.136   6.383
 8816SOL    HW227348   0.680   0.096   6.299
 8817SOL     OW27349   0.191   3.867   4.053
 8817SOL    HW127350   0.183   3.948   4.112
 8817SOL    HW227351   0.284   3.859   4.020
 8818SOL     OW27352   0.994   6.116   3.606
 8818SOL    HW127353   0.978   6.210   3.576
 8818SOL    HW227354   0.987   6.055   3.527
 8819SOL     OW27355   6.431   4.673   6.147
 8819SOL    HW127356   6.522   4.670   6.106
 8819SOL    HW227357   6.372   4.606   6.102
 8820SOL     OW27358   2.893   1.494   4.975
 8820SOL    HW127359   2.980   1.542   4.962
 8820SOL    HW227360   2.912   1.400   5.004
 8821SOL     OW27361   1.105   5.621   0.560
 8821SOL    HW127362   1.082   5.598   0.466
 8821SOL    HW227363   1.032   5.591   0.621
 8822SOL     OW27364   0.571   0.426   3.567
 8822SOL    HW127365   0.560   0.327   3.573
 8822SOL    HW227366   0.572   0.454   3.470
 8823SOL     OW27367   2.387   1.345   2.726
 8823SOL    HW127368   2.295   1.346   2.766
 8823SOL    HW227369   2.385   1.387   2.635
 8824SOL     OW27370   1.508   1.154   0.514
 8824SOL    HW127371   1.598   1.177   0.551
 8824SOL    HW227372   1.516   1.131   0.417
 8825SOL     OW27373   0.858   1.208   1.593
 8825SOL    HW127374   0.759   1.213   1.606
 8825SOL    HW227375   0.879   1.142   1.521
 8826SOL     OW27376   1.242   3.351   0.844
 8826SOL    HW127377   1.211   3.262   0.878
 8826SOL    HW227378   1.274   3.407   0.921
 8827SOL     OW27379   3.812   6.955   3.452
 8827SOL    HW127380   3.876   7.016   3.407
 8827SOL    HW227381   3.830   6.861   3.425
 8828SOL     OW27382   4.343   4.911   6.739
 8828SOL    HW127383   4.388   4.998   6.760
 8828SOL    HW227384   4.284   4.922   6.659
 8829SOL     OW27385   5.779   1.443   1.507
 8829SOL    HW127386   5.823   1.375   1.566
 8829SOL    HW227387   5.709   1.492   1.558
 8830SOL     OW27388   2.358   1.521   2.486
 8830SOL    HW127389   2.341   1.602   2.543
 8830SOL    HW227390   2.351   1.547   2.390
 8831SOL     OW27391   6.087   2.662   2.840
 8831SOL    HW127392   6.085   2.562   2.843
 8831SOL    HW227393   6.030   2.699   2.913
 8832SOL     OW27394   6.924   6.239   4.444
 8832SOL    HW127395   7.007   6.252   4.498
 8832SOL    HW227396   6.880   6.153   4.471
 8833SOL     OW27397   3.771   3.984   6.498
 8833SOL    HW127398   3.826   4.060   6.464
 8833SOL    HW227399   3.693   3.969   6.437
 8834SOL     OW27400   5.620   4.416   4.748
 8834SOL    HW127401   5.588   4.334   4.795
 8834SOL    HW227402   5.616   4.401   4.649
 8835SOL     OW27403   5.708   0.854   6.252
 8835SOL    HW127404   5.632   0.812   6.201
 8835SOL    HW227405   5.726   0.800   6.334
 8836SOL     OW27406   4.755   2.143   1.146
 8836SOL    HW127407   4.686   2.125   1.217
 8836SOL    HW227408   4.842   2.166   1.189
 8837SOL     OW27409   0.307   0.381   2.128
 8837SOL    HW127410   0.335   0.340   2.041
 8837SOL    HW227411   0.388   0.414   2.177
 8838SOL     OW27412   1.646   4.254   2.608
 8838SOL    HW127413   1.572   4.295   2.554
 8838SOL    HW227414   1.694   4.326   2.658
 8839SOL     OW27415   3.675   6.453   1.974
 8839SOL    HW127416   3.680   6.450   1.874
 8839SOL    HW227417   3.670   6.359   2.009
 8840SOL     OW27418   6.730   0.404   2.679
 8840SOL    HW127419   6.701   0.426   2.772
 8840SOL    HW227420   6.649   0.388   2.622
 8841SOL     OW27421   6.039   1.541   3.336
 8841SOL    HW127422   6.004   1.613   3.396
 8841SOL    HW227423   6.139   1.546   3.334
 8842SOL     OW27424   3.185   3.620   3.333
 8842SOL    HW127425   3.133   3.700   3.363
 8842SOL    HW227426   3.252   3.648   3.263
 8843SOL     OW27427   1.484   3.892   4.665
 8843SOL    HW127428   1.570   3.865   4.709
 8843SOL    HW227429   1.479   3.850   4.575
 8844SOL     OW27430   6.775   1.329   4.713
 8844SOL    HW127431   6.739   1.272   4.639
 8844SOL    HW227432   6.700   1.384   4.751
 8845SOL     OW27433   2.473   4.320   0.684
 8845SOL    HW127434   2.400   4.332   0.752
 8845SOL    HW227435   2.434   4.283   0.600
 8846SOL     OW27436   4.444   4.923   3.700
 8846SOL    HW127437   4.469   4.884   3.611
 8846SOL    HW227438   4.508   4.996   3.724
 8847SOL     OW27439   2.339   1.701   3.715
 8847SOL    HW127440   2.253   1.711   3.664
 8847SOL    HW227441   2.394   1.630   3.672
 8848SOL     OW27442   2.692   1.578   2.845
 8848SOL    HW127443   2.781   1.622   2.859
 8848SOL    HW227444   2.629   1.643   2.803
 8849SOL     OW27445   3.397   4.874   3.234
 8849SOL    HW127446   3.307   4.854   3.197
 8849SOL    HW227447   3.400   4.969   3.266
 8850SOL     OW27448   2.775   1.703   0.619
 8850SOL    HW127449   2.782   1.662   0.528
 8850SOL    HW227450   2.765   1.802   0.610
 8851SOL     OW27451   0.983   4.919   2.326
 8851SOL    HW127452   1.052   4.869   2.379
 8851SOL    HW227453   1.026   4.993   2.276
 8852SOL     OW27454   4.482   3.309   6.033
 8852SOL    HW127455   4.527   3.222   6.012
 8852SOL    HW227456   4.550   3.376   6.062
 8853SOL     OW27457   3.059   0.354   5.290
 8853SOL    HW127458   2.983   0.292   5.311
 8853SOL    HW227459   3.140   0.328   5.343
 8854SOL     OW27460   2.402   0.726   6.359
 8854SOL    HW127461   2.353   0.639   6.367
 8854SOL    HW227462   2.499   0.712   6.377
 8855SOL     OW27463   6.828   6.204   0.256
 8855SOL    HW127464   6.883   6.286   0.236
 8855SOL    HW227465   6.789   6.212   0.347
 8856SOL     OW27466   5.657   0.455   6.120
 8856SOL    HW127467   5.622   0.400   6.196
 8856SOL    HW227468   5.609   0.543   6.118
 8857SOL     OW27469   6.385   1.838   3.944
 8857SOL    HW127470   6.303   1.796   3.981
 8857SOL    HW227471   6.369   1.864   3.848
 8858SOL     OW27472   1.279   2.734   6.065
 8858SOL    HW127473   1.307   2.760   5.972
 8858SOL    HW227474   1.355   2.686   6.110
 8859SOL     OW27475   0.332   0.482   4.581
 8859SOL    HW127476   0.399   0.411   4.606
 8859SOL    HW227477   0.335   0.495   4.482
 8860SOL     OW27478   1.845   4.088   2.976
 8860SOL    HW127479   1.919   4.144   3.013
 8860SOL    HW227480   1.875   3.993   2.972
 8861SOL     OW27481   3.642   2.136   6.273
 8861SOL    HW127482   3.683   2.050   6.303
 8861SOL    HW227483   3.648   2.144   6.174
 8862SOL     OW27484   6.253   1.059   3.814
 8862SOL    HW127485   6.335   1.102   3.775
 8862SOL    HW227486   6.272   1.029   3.907
 8863SOL     OW27487   1.971   6.235   4.483
 8863SOL    HW127488   2.034   6.279   4.418
 8863SOL    HW227489   1.899   6.188   4.432
 8864SOL     OW27490   2.101   3.083   6.329
 8864SOL    HW127491   2.158   3.007   6.361
 8864SOL    HW227492   2.005   3.057   6.334
 8865SOL     OW27493   3.169   1.744   5.671
 8865SOL    HW127494   3.236   1.726   5.744
 8865SOL    HW227495   3.130   1.658   5.639
 8866SOL     OW27496   5.566   6.876   4.357
 8866SOL    HW127497   5.552   6.843   4.450
 8866SOL    HW227498   5.559   6.800   4.293
 8867SOL     OW27499   5.160   3.565   3.486
 8867SOL    HW127500   5.061   3.575   3.475
 8867SOL    HW227501   5.179   3.485   3.543
 8868SOL     OW27502   6.294   3.189   0.760
 8868SOL    HW127503   6.242   3.108   0.787
 8868SOL    HW227504   6.252   3.231   0.680
 8869SOL     OW27505   4.579   5.646   3.509
 8869SOL    HW127506   4.480   5.644   3.494
 8869SOL    HW227507   4.603   5.582   3.583
 8870SOL     OW27508   3.925   0.098   0.280
 8870SOL    HW127509   3.848   0.037   0.264
 8870SOL    HW227510   3.892   0.192   0.287
 8871SOL     OW27511   2.201   1.014   4.098
 8871SOL    HW127512   2.278   0.975   4.047
 8871SOL    HW227513   2.193   1.111   4.078
 8872SOL     OW27514   1.586   4.301   4.844
 8872SOL    HW127515   1.580   4.397   4.869
 8872SOL    HW227516   1.597   4.245   4.927
 8873SOL     OW27517   6.986   5.232   1.796
 8873SOL    HW127518   6.983   5.139   1.759
 8873SOL    HW227519   6.961   5.230   1.893
 8874SOL     OW27520   2.666   6.283   1.293
 8874SOL    HW127521   2.714   6.289   1.380
 8874SOL    HW227522   2.568   6.296   1.307
 8875SOL     OW27523   6.952   3.113   4.823
 8875SOL    HW127524   7.002   3.056   4.757
 8875SOL    HW227525   7.013   3.139   4.897
 8876SOL     OW27526   1.917   0.196   4.429
 8876SOL    HW127527   1.883   0.231   4.342
 8876SOL    HW227528   1.966   0.110   4.414
 8877SOL     OW27529   2.319   1.762   4.204
 8877SOL    HW127530   2.322   1.684   4.141
 8877SOL    HW227531   2.392   1.753   4.272
 8878SOL     OW27532   0.391   5.667   0.858
 8878SOL    HW127533   0.399   5.595   0.926
 8878SOL    HW227534   0.387   5.626   0.767
 8879SOL     OW27535   5.368   5.342   1.052
 8879SOL    HW127536   5.270   5.330   1.068
 8879SOL    HW227537   5.418   5.316   1.135
 8880SOL     OW27538   6.475   6.072   4.426
 8880SOL    HW127539   6.498   6.101   4.519
 8880SOL    HW227540   6.381   6.040   4.424
 8881SOL     OW27541   6.123   6.801   4.627
 8881SOL    HW127542   6.130   6.894   4.661
 8881SOL    HW227543   6.197   6.784   4.561
 8882SOL     OW27544   5.129   1.052   0.438
 8882SOL    HW127545   5.218   1.051   0.484
 8882SOL    HW227546   5.086   1.141   0.451
 8883SOL     OW27547   1.518   0.527   5.185
 8883SOL    HW127548   1.580   0.475   5.244
 8883SOL    HW227549   1.515   0.485   5.094
 8884SOL     OW27550   6.257   4.881   6.272
 8884SOL    HW127551   6.313   4.806   6.235
 8884SOL    HW227552   6.317   4.950   6.311
 8885SOL     OW27553   0.370   3.600   0.746
 8885SOL    HW127554   0.438   3.611   0.673
 8885SOL    HW227555   0.417   3.587   0.833
 8886SOL     OW27556   3.537   6.500   5.559
 8886SOL    HW127557   3.531   6.411   5.515
 8886SOL    HW227558   3.627   6.511   5.601
 8887SOL     OW27559   2.809   0.785   1.677
 8887SOL    HW127560   2.719   0.804   1.716
 8887SOL    HW227561   2.843   0.866   1.629
 8888SOL     OW27562   1.611   1.851   1.197
 8888SOL    HW127563   1.673   1.772   1.199
 8888SOL    HW227564   1.654   1.927   1.245
 8889SOL     OW27565   5.645   0.044   5.348
 8889SOL    HW127566   5.610   6.981   5.309
 8889SOL    HW227567   5.738   0.060   5.313
 8890SOL     OW27568   5.775   5.372   4.416
 8890SOL    HW127569   5.767   5.304   4.343
 8890SOL    HW227570   5.872   5.394   4.429
 8891SOL     OW27571   5.060   3.410   5.663
 8891SOL    HW127572   5.135   3.475   5.672
 8891SOL    HW227573   4.973   3.459   5.660
 8892SOL     OW27574   3.605   5.894   2.582
 8892SOL    HW127575   3.622   5.978   2.635
 8892SOL    HW227576   3.688   5.839   2.579
 8893SOL     OW27577   0.923   0.229   2.448
 8893SOL    HW127578   0.880   0.145   2.480
 8893SOL    HW227579   1.023   0.219   2.451
 8894SOL     OW27580   4.138   2.321   5.604
 8894SOL    HW127581   4.190   2.330   5.519
 8894SOL    HW227582   4.199   2.330   5.682
 8895SOL     OW27583   6.296   1.870   1.424
 8895SOL    HW127584   6.277   1.816   1.342
 8895SOL    HW227585   6.313   1.965   1.397
 8896SOL     OW27586   1.690   3.224   5.442
 8896SOL    HW127587   1.718   3.130   5.460
 8896SOL    HW227588   1.718   3.283   5.518
 8897SOL     OW27589   1.906   2.538   3.252
 8897SOL    HW127590   1.833   2.603   3.272
 8897SOL    HW227591   1.994   2.578   3.276
 8898SOL     OW27592   5.917   3.788   4.430
 8898SOL    HW127593   5.825   3.821   4.452
 8898SOL    HW227594   5.985   3.853   4.465
 8899SOL     OW27595   1.914   4.868   0.008
 8899SOL    HW127596   1.875   4.948   6.985
 8899SOL    HW227597   1.922   4.885   0.106
 8900SOL     OW27598   5.732   2.570   2.831
 8900SOL    HW127599   5.708   2.486   2.781
 8900SOL    HW227600   5.735   2.647   2.768
 8901SOL     OW27601   2.239   1.332   4.355
 8901SOL    HW127602   2.249   1.312   4.258
 8901SOL    HW227603   2.185   1.415   4.366
 8902SOL     OW27604   3.367   6.585   6.903
 8902SOL    HW127605   3.339   6.534   6.985
 8902SOL    HW227606   3.446   6.539   6.861
 8903SOL     OW27607   0.622   1.188   4.705
 8903SOL    HW127608   0.707   1.232   4.736
 8903SOL    HW227609   0.636   1.089   4.699
 8904SOL     OW27610   6.174   5.589   3.855
 8904SOL    HW127611   6.205   5.646   3.931
 8904SOL    HW227612   6.223   5.616   3.772
 8905SOL     OW27613   2.115   3.700   4.527
 8905SOL    HW127614   2.126   3.714   4.626
 8905SOL    HW227615   2.156   3.777   4.478
 8906SOL     OW27616   0.116   6.495   6.685
 8906SOL    HW127617   0.216   6.494   6.689
 8906SOL    HW227618   0.081   6.403   6.704
 8907SOL     OW27619   3.324   1.926   4.883
 8907SOL    HW127620   3.411   1.955   4.922
 8907SOL    HW227621   3.310   1.971   4.795
 8908SOL     OW27622   1.197   3.172   6.454
 8908SOL    HW127623   1.277   3.220   6.491
 8908SOL    HW227624   1.226   3.108   6.383
 8909SOL     OW27625   1.571   1.033   5.116
 8909SOL    HW127626   1.567   1.073   5.208
 8909SOL    HW227627   1.490   1.063   5.064
 8910SOL     OW27628   1.208   2.988   6.257
 8910SOL    HW127629   1.117   3.005   6.219
 8910SOL    HW227630   1.253   2.916   6.205
 8911SOL     OW27631   4.378   2.424   4.830
 8911SOL    HW127632   4.466   2.456   4.867
 8911SOL    HW227633   4.307   2.435   4.900
 8912SOL     OW27634   4.597   1.725   0.992
 8912SOL    HW127635   4.661   1.692   0.923
 8912SOL    HW227636   4.552   1.648   1.036
 8913SOL     OW27637   4.707   5.054   0.221
 8913SOL    HW127638   4.647   5.107   0.281
 8913SOL    HW227639   4.652   4.993   0.164
 8914SOL     OW27640   4.160   0.734   5.038
 8914SOL    HW127641   4.218   0.764   5.114
 8914SOL    HW227642   4.172   0.797   4.961
 8915SOL     OW27643   0.762   2.145   3.553
 8915SOL    HW127644   0.673   2.098   3.548
 8915SOL    HW227645   0.751   2.240   3.524
 8916SOL     OW27646   0.397   3.708   1.055
 8916SOL    HW127647   0.478   3.649   1.055
 8916SOL    HW227648   0.315   3.652   1.054
 8917SOL     OW27649   5.989   4.291   5.983
 8917SOL    HW127650   6.077   4.269   5.942
 8917SOL    HW227651   5.992   4.271   6.081
 8918SOL     OW27652   0.386   4.338   1.605
 8918SOL    HW127653   0.374   4.282   1.523
 8918SOL    HW227654   0.352   4.430   1.589
 8919SOL     OW27655   4.371   3.993   0.979
 8919SOL    HW127656   4.429   3.998   1.060
 8919SOL    HW227657   4.277   3.973   1.007
 8920SOL     OW27658   0.657   6.374   6.470
 8920SOL    HW127659   0.756   6.367   6.456
 8920SOL    HW227660   0.627   6.468   6.453
 8921SOL     OW27661   2.357   2.131   2.898
 8921SOL    HW127662   2.326   2.112   2.991
 8921SOL    HW227663   2.438   2.076   2.878
 8922SOL     OW27664   3.316   5.239   1.766
 8922SOL    HW127665   3.231   5.211   1.811
 8922SOL    HW227666   3.314   5.212   1.670
 8923SOL     OW27667   1.355   3.748   6.020
 8923SOL    HW127668   1.376   3.805   6.099
 8923SOL    HW227669   1.271   3.696   6.036
 8924SOL     OW27670   3.432   5.882   5.490
 8924SOL    HW127671   3.529   5.899   5.472
 8924SOL    HW227672   3.410   5.788   5.467
 8925SOL     OW27673   0.736   0.530   2.756
 8925SOL    HW127674   0.661   0.474   2.720
 8925SOL    HW227675   0.700   0.619   2.786
 8926SOL     OW27676   5.795   3.713   6.451
 8926SOL    HW127677   5.863   3.777   6.487
 8926SOL    HW227678   5.703   3.749   6.469
 8927SOL     OW27679   1.010   1.696   4.474
 8927SOL    HW127680   0.999   1.716   4.376
 8927SOL    HW227681   0.979   1.775   4.527
 8928SOL     OW27682   6.697   0.926   5.300
 8928SOL    HW127683   6.776   0.898   5.246
 8928SOL    HW227684   6.673   1.021   5.278
 8929SOL     OW27685   6.795   3.356   3.838
 8929SOL    HW127686   6.697   3.339   3.827
 8929SOL    HW227687   6.846   3.272   3.821
 8930SOL     OW27688   2.162   4.198   4.145
 8930SOL    HW127689   2.170   4.180   4.046
 8930SOL    HW227690   2.191   4.117   4.195
 8931SOL     OW27691   3.131   3.077   1.278
 8931SOL    HW127692   3.138   3.097   1.376
 8931SOL    HW227693   3.122   2.978   1.265
 8932SOL     OW27694   5.526   0.763   0.087
 8932SOL    HW127695   5.535   0.862   0.098
 8932SOL    HW227696   5.473   0.743   0.005
 8933SOL     OW27697   0.832   2.115   5.912
 8933SOL    HW127698   0.922   2.155   5.928
 8933SOL    HW227699   0.796   2.147   5.824
 8934SOL     OW27700   3.239   5.632   3.714
 8934SOL    HW127701   3.273   5.719   3.678
 8934SOL    HW227702   3.303   5.559   3.688
 8935SOL     OW27703   5.334   3.909   1.612
 8935SOL    HW127704   5.430   3.883   1.625
 8935SOL    HW227705   5.329   3.991   1.555
 8936SOL     OW27706   1.023   3.373   1.193
 8936SOL    HW127707   1.082   3.449   1.166
 8936SOL    HW227708   1.015   3.309   1.116
 8937SOL     OW27709   0.706   0.647   4.131
 8937SOL    HW127710   0.783   0.583   4.140
 8937SOL    HW227711   0.702   0.704   4.213
 8938SOL     OW27712   6.693   0.866   0.066
 8938SOL    HW127713   6.745   0.952   0.063
 8938SOL    HW227714   6.636   0.865   0.148
 8939SOL     OW27715   6.396   3.350   4.492
 8939SOL    HW127716   6.349   3.262   4.489
 8939SOL    HW227717   6.329   3.424   4.479
 8940SOL     OW27718   6.014   1.988   1.111
 8940SOL    HW127719   5.981   2.048   1.184
 8940SOL    HW227720   6.114   1.988   1.111
 8941SOL     OW27721   6.411   3.061   2.230
 8941SOL    HW127722   6.347   3.069   2.154
 8941SOL    HW227723   6.496   3.019   2.198
 8942SOL     OW27724   0.960   5.773   4.286
 8942SOL    HW127725   1.014   5.696   4.320
 8942SOL    HW227726   0.917   5.748   4.199
 8943SOL     OW27727   3.924   5.473   0.361
 8943SOL    HW127728   3.974   5.557   0.342
 8943SOL    HW227729   3.903   5.426   0.275
 8944SOL     OW27730   4.846   5.503   4.262
 8944SOL    HW127731   4.818   5.444   4.186
 8944SOL    HW227732   4.945   5.518   4.257
 8945SOL     OW27733   6.846   2.328   4.237
 8945SOL    HW127734   6.824   2.263   4.309
 8945SOL    HW227735   6.892   2.408   4.276
 8946SOL     OW27736   3.768   0.946   4.051
 8946SOL    HW127737   3.807   1.024   4.101
 8946SOL    HW227738   3.745   0.874   4.116
 8947SOL     OW27739   2.062   3.328   5.945
 8947SOL    HW127740   2.111   3.242   5.937
 8947SOL    HW227741   1.973   3.312   5.988
 8948SOL     OW27742   5.768   6.161   3.043
 8948SOL    HW127743   5.747   6.070   3.009
 8948SOL    HW227744   5.866   6.170   3.061
 8949SOL     OW27745   4.045   5.669   0.684
 8949SOL    HW127746   4.118   5.727   0.646
 8949SOL    HW227747   4.058   5.575   0.652
 8950SOL     OW27748   4.625   2.809   1.111
 8950SOL    HW127749   4.571   2.819   1.194
 8950SOL    HW227750   4.704   2.870   1.114
 8951SOL     OW27751   1.983   1.188   4.755
 8951SOL    HW127752   1.908   1.205   4.691
 8951SOL    HW227753   1.945   1.170   4.846
 8952SOL     OW27754   0.565   5.220   3.299
 8952SOL    HW127755   0.515   5.141   3.262
 8952SOL    HW227756   0.622   5.259   3.227
 8953SOL     OW27757   1.430   4.439   1.106
 8953SOL    HW127758   1.338   4.400   1.111
 8953SOL    HW227759   1.464   4.431   1.012
 8954SOL     OW27760   0.325   6.631   4.250
 8954SOL    HW127761   0.379   6.696   4.304
 8954SOL    HW227762   0.385   6.563   4.208
 8955SOL     OW27763   0.463   3.637   2.745
 8955SOL    HW127764   0.536   3.704   2.755
 8955SOL    HW227765   0.431   3.610   2.836
 8956SOL     OW27766   1.388   0.646   5.671
 8956SOL    HW127767   1.417   0.552   5.689
 8956SOL    HW227768   1.421   0.673   5.581
 8957SOL     OW27769   2.450   4.456   1.084
 8957SOL    HW127770   2.403   4.409   1.158
 8957SOL    HW227771   2.520   4.517   1.122
 8958SOL     OW27772   0.806   2.459   5.654
 8958SOL    HW127773   0.853   2.370   5.657
 8958SOL    HW227774   0.788   2.484   5.559
 8959SOL     OW27775   1.714   3.726   2.751
 8959SOL    HW127776   1.766   3.674   2.684
 8959SOL    HW227777   1.616   3.716   2.732
 8960SOL     OW27778   6.007   5.390   4.122
 8960SOL    HW127779   6.038   5.446   4.046
 8960SOL    HW227780   5.909   5.371   4.112
 8961SOL     OW27781   4.466   1.439   3.695
 8961SOL    HW127782   4.393   1.452   3.762
 8961SOL    HW227783   4.434   1.381   3.621
 8962SOL     OW27784   6.697   5.729   1.514
 8962SOL    HW127785   6.637   5.711   1.436
 8962SOL    HW227786   6.784   5.764   1.482
 8963SOL     OW27787   3.550   6.654   5.179
 8963SOL    HW127788   3.450   6.645   5.171
 8963SOL    HW227789   3.573   6.750   5.193
 8964SOL     OW27790   5.640   3.258   3.034
 8964SOL    HW127791   5.584   3.340   3.043
 8964SOL    HW227792   5.719   3.277   2.976
 8965SOL     OW27793   3.556   4.535   0.682
 8965SOL    HW127794   3.572   4.603   0.755
 8965SOL    HW227795   3.525   4.450   0.723
 8966SOL     OW27796   6.839   4.447   0.213
 8966SOL    HW127797   6.741   4.448   0.194
 8966SOL    HW227798   6.858   4.378   0.283
 8967SOL     OW27799   4.194   1.617   2.842
 8967SOL    HW127800   4.294   1.620   2.846
 8967SOL    HW227801   4.156   1.666   2.920
 8968SOL     OW27802   2.857   5.627   2.386
 8968SOL    HW127803   2.946   5.592   2.356
 8968SOL    HW227804   2.863   5.653   2.482
 8969SOL     OW27805   0.125   0.271   3.757
 8969SOL    HW127806   0.201   0.225   3.804
 8969SOL    HW227807   0.144   0.368   3.748
 8970SOL     OW27808   1.136   2.184   0.000
 8970SOL    HW127809   1.210   2.190   0.067
 8970SOL    HW227810   1.079   2.104   0.020
 8971SOL     OW27811   5.498   6.592   1.723
 8971SOL    HW127812   5.516   6.595   1.821
 8971SOL    HW227813   5.456   6.678   1.694
 8972SOL     OW27814   5.335   3.814   0.695
 8972SOL    HW127815   5.414   3.876   0.694
 8972SOL    HW227816   5.365   3.723   0.725
 8973SOL     OW27817   0.357   3.258   2.155
 8973SOL    HW127818   0.275   3.244   2.099
 8973SOL    HW227819   0.330   3.295   2.244
 8974SOL     OW27820   1.838   3.410   4.226
 8974SOL    HW127821   1.868   3.460   4.308
 8974SOL    HW227822   1.821   3.315   4.250
 8975SOL     OW27823   0.753   5.837   6.543
 8975SOL    HW127824   0.786   5.748   6.574
 8975SOL    HW227825   0.653   5.836   6.537
 8976SOL     OW27826   6.908   5.798   0.564
 8976SOL    HW127827   6.905   5.870   0.633
 8976SOL    HW227828   6.815   5.771   0.540
 8977SOL     OW27829   6.696   4.229   6.833
 8977SOL    HW127830   6.600   4.230   6.859
 8977SOL    HW227831   6.730   4.135   6.834
 8978SOL     OW27832   5.352   0.110   4.875
 8978SOL    HW127833   5.414   0.108   4.797
 8978SOL    HW227834   5.258   0.093   4.843
 8979SOL     OW27835   1.605   5.337   5.738
 8979SOL    HW127836   1.542   5.336   5.661
 8979SOL    HW227837   1.679   5.272   5.723
 8980SOL     OW27838   5.396   2.354   5.630
 8980SOL    HW127839   5.330   2.283   5.655
 8980SOL    HW227840   5.477   2.347   5.689
 8981SOL     OW27841   4.941   1.558   5.285
 8981SOL    HW127842   5.025   1.603   5.316
 8981SOL    HW227843   4.930   1.471   5.333
 8982SOL     OW27844   0.218   1.972   1.494
 8982SOL    HW127845   0.295   1.922   1.455
 8982SOL    HW227846   0.246   2.065   1.517
 8983SOL     OW27847   0.764   5.577   1.234
 8983SOL    HW127848   0.796   5.671   1.219
 8983SOL    HW227849   0.665   5.577   1.246
 8984SOL     OW27850   6.477   6.960   4.638
 8984SOL    HW127851   6.434   6.904   4.567
 8984SOL    HW227852   6.509   0.024   4.598
 8985SOL     OW27853   2.971   2.198   1.464
 8985SOL    HW127854   2.907   2.125   1.438
 8985SOL    HW227855   3.049   2.198   1.400
 8986SOL     OW27856   4.768   5.040   2.648
 8986SOL    HW127857   4.753   5.115   2.583
 8986SOL    HW227858   4.680   5.010   2.684
 8987SOL     OW27859   2.889   0.220   1.275
 8987SOL    HW127860   2.942   0.292   1.231
 8987SOL    HW227861   2.818   0.261   1.333
 8988SOL     OW27862   1.949   5.287   0.096
 8988SOL    HW127863   1.886   5.353   0.055
 8988SOL    HW227864   2.006   5.333   0.164
 8989SOL     OW27865   4.876   3.226   2.703
 8989SOL    HW127866   4.972   3.200   2.692
 8989SOL    HW227867   4.820   3.177   2.637
 8990SOL     OW27868   2.234   5.757   1.652
 8990SOL    HW127869   2.185   5.817   1.589
 8990SOL    HW227870   2.326   5.739   1.617
 8991SOL     OW27871   2.460   1.642   1.550
 8991SOL    HW127872   2.488   1.625   1.455
 8991SOL    HW227873   2.487   1.735   1.576
 8992SOL     OW27874   0.094   2.800   0.246
 8992SOL    HW127875   0.090   2.831   0.341
 8992SOL    HW227876   0.103   2.879   0.185
 8993SOL     OW27877   4.866   2.606   3.205
 8993SOL    HW127878   4.947   2.659   3.232
 8993SOL    HW227879   4.786   2.644   3.251
 8994SOL     OW27880   1.646   5.847   3.542
 8994SOL    HW127881   1.735   5.811   3.514
 8994SOL    HW227882   1.598   5.777   3.596
 8995SOL     OW27883   1.212   2.498   5.703
 8995SOL    HW127884   1.177   2.444   5.780
 8995SOL    HW227885   1.262   2.578   5.738
 8996SOL     OW27886   0.645   4.425   2.245
 8996SOL    HW127887   0.608   4.498   2.187
 8996SOL    HW227888   0.620   4.336   2.206
 8997SOL     OW27889   4.717   1.001   6.368
 8997SOL    HW127890   4.674   1.085   6.402
 8997SOL    HW227891   4.808   1.023   6.333
 8998SOL     OW27892   0.318   1.581   4.599
 8998SOL    HW127893   0.360   1.527   4.672
 8998SOL    HW227894   0.369   1.666   4.587
 8999SOL     OW27895   4.352   0.724   0.098
 8999SOL    HW127896   4.325   0.781   0.020
 8999SOL    HW227897   4.336   0.628   0.077
 9000SOL     OW27898   2.447   3.876   6.118
 9000SOL    HW127899   2.462   3.922   6.031
 9000SOL    HW227900   2.491   3.787   6.117
 9001SOL     OW27901   1.654   5.124   2.943
 9001SOL    HW127902   1.598   5.077   3.011
 9001SOL    HW227903   1.630   5.089   2.852
 9002SOL     OW27904   0.742   5.417   5.401
 9002SOL    HW127905   0.817   5.359   5.369
 9002SOL    HW227906   0.762   5.512   5.380
 9003SOL     OW27907   5.806   3.021   1.439
 9003SOL    HW127908   5.778   3.112   1.410
 9003SOL    HW227909   5.727   2.973   1.478
 9004SOL     OW27910   4.447   6.424   1.416
 9004SOL    HW127911   4.423   6.403   1.321
 9004SOL    HW227912   4.434   6.343   1.473
 9005SOL     OW27913   6.052   1.545   3.821
 9005SOL    HW127914   6.107   1.569   3.741
 9005SOL    HW227915   6.025   1.449   3.815
 9006SOL     OW27916   1.432   6.113   0.776
 9006SOL    HW127917   1.374   6.194   0.768
 9006SOL    HW227918   1.378   6.032   0.755
 9007SOL     OW27919   3.874   5.539   3.484
 9007SOL    HW127920   3.853   5.488   3.568
 9007SOL    HW227921   3.890   5.635   3.507
 9008SOL     OW27922   6.383   5.250   3.162
 9008SOL    HW127923   6.288   5.255   3.194
 9008SOL    HW227924   6.438   5.317   3.211
 9009SOL     OW27925   3.478   6.519   0.216
 9009SOL    HW127926   3.438   6.428   0.208
 9009SOL    HW227927   3.406   6.588   0.211
 9010SOL     OW27928   1.170   6.797   5.041
 9010SOL    HW127929   1.217   6.856   4.975
 9010SOL    HW227930   1.074   6.824   5.048
 9011SOL     OW27931   3.858   2.142   1.352
 9011SOL    HW127932   3.890   2.181   1.438
 9011SOL    HW227933   3.901   2.190   1.275
 9012SOL     OW27934   3.041   5.336   1.280
 9012SOL    HW127935   3.089   5.379   1.203
 9012SOL    HW227936   3.027   5.239   1.261
 9013SOL     OW27937   6.165   5.752   4.941
 9013SOL    HW127938   6.183   5.840   4.898
 9013SOL    HW227939   6.245   5.724   4.994
 9014SOL     OW27940   1.212   1.344   0.605
 9014SOL    HW127941   1.240   1.270   0.544
 9014SOL    HW227942   1.153   1.407   0.555
 9015SOL     OW27943   6.100   0.318   0.536
 9015SOL    HW127944   6.041   0.377   0.482
 9015SOL    HW227945   6.066   0.312   0.630
 9016SOL     OW27946   6.530   6.429   5.921
 9016SOL    HW127947   6.565   6.453   5.831
 9016SOL    HW227948   6.461   6.358   5.913
 9017SOL     OW27949   5.191   2.342   3.414
 9017SOL    HW127950   5.113   2.320   3.355
 9017SOL    HW227951   5.276   2.318   3.367
 9018SOL     OW27952   4.245   1.558   5.566
 9018SOL    HW127953   4.172   1.491   5.581
 9018SOL    HW227954   4.262   1.608   5.651
 9019SOL     OW27955   1.444   6.676   0.471
 9019SOL    HW127956   1.434   6.690   0.569
 9019SOL    HW227957   1.358   6.700   0.425
 9020SOL     OW27958   1.643   3.320   2.091
 9020SOL    HW127959   1.614   3.227   2.068
 9020SOL    HW227960   1.602   3.385   2.027
 9021SOL     OW27961   6.445   0.165   3.869
 9021SOL    HW127962   6.403   0.250   3.838
 9021SOL    HW227963   6.388   0.087   3.843
 9022SOL     OW27964   2.596   0.555   0.796
 9022SOL    HW127965   2.606   0.478   0.859
 9022SOL    HW227966   2.648   0.537   0.713
 9023SOL     OW27967   4.003   3.344   3.087
 9023SOL    HW127968   4.042   3.369   2.999
 9023SOL    HW227969   4.012   3.420   3.151
 9024SOL     OW27970   1.683   5.670   6.066
 9024SOL    HW127971   1.694   5.643   5.970
 9024SOL    HW227972   1.755   5.733   6.092
 9025SOL     OW27973   6.426   5.889   0.821
 9025SOL    HW127974   6.427   5.964   0.755
 9025SOL    HW227975   6.508   5.893   0.877
 9026SOL     OW27976   4.093   3.197   3.582
 9026SOL    HW127977   4.085   3.164   3.675
 9026SOL    HW227978   4.085   3.120   3.518
 9027SOL     OW27979   3.235   2.088   3.775
 9027SOL    HW127980   3.150   2.066   3.727
 9027SOL    HW227981   3.214   2.113   3.870
 9028SOL     OW27982   2.342   4.402   6.479
 9028SOL    HW127983   2.400   4.327   6.447
 9028SOL    HW227984   2.400   4.479   6.508
 9029SOL     OW27985   3.767   5.586   4.728
 9029SOL    HW127986   3.709   5.549   4.656
 9029SOL    HW227987   3.800   5.512   4.786
 9030SOL     OW27988   2.016   1.127   2.699
 9030SOL    HW127989   2.071   1.064   2.754
 9030SOL    HW227990   1.936   1.079   2.664
 9031SOL     OW27991   4.188   5.485   5.413
 9031SOL    HW127992   4.109   5.457   5.467
 9031SOL    HW227993   4.185   5.441   5.323
 9032SOL     OW27994   3.978   2.563   0.488
 9032SOL    HW127995   4.046   2.611   0.543
 9032SOL    HW227996   3.887   2.593   0.515
 9033SOL     OW27997   1.205   3.737   4.018
 9033SOL    HW127998   1.128   3.795   4.046
 9033SOL    HW227999   1.264   3.788   3.956
 9034SOL     OW28000   2.621   6.327   4.476
 9034SOL    HW128001   2.637   6.363   4.568
 9034SOL    HW228002   2.708   6.302   4.434
 9035SOL     OW28003   0.614   6.400   5.107
 9035SOL    HW128004   0.547   6.449   5.051
 9035SOL    HW228005   0.663   6.334   5.050
 9036SOL     OW28006   1.795   1.978   4.562
 9036SOL    HW128007   1.804   1.985   4.462
 9036SOL    HW228008   1.779   2.069   4.600
 9037SOL     OW28009   1.467   3.766   6.341
 9037SOL    HW128010   1.426   3.675   6.338
 9037SOL    HW228011   1.408   3.830   6.291
 9038SOL     OW28012   5.358   0.234   5.933
 9038SOL    HW128013   5.321   0.211   6.023
 9038SOL    HW228014   5.379   0.331   5.929
 9039SOL     OW28015   1.633   4.495   4.544
 9039SOL    HW128016   1.676   4.579   4.511
 9039SOL    HW228017   1.692   4.417   4.525
 9040SOL     OW28018   2.742   1.833   3.140
 9040SOL    HW128019   2.820   1.837   3.203
 9040SOL    HW228020   2.717   1.926   3.112
 9041SOL     OW28021   0.881   1.714   2.132
 9041SOL    HW128022   0.825   1.770   2.071
 9041SOL    HW228023   0.937   1.773   2.191
 9042SOL     OW28024   3.041   5.956   3.607
 9042SOL    HW128025   3.127   6.003   3.626
 9042SOL    HW228026   3.049   5.860   3.633
 9043SOL     OW28027   2.473   1.479   5.338
 9043SOL    HW128028   2.513   1.568   5.358
 9043SOL    HW228029   2.537   1.424   5.285
 9044SOL     OW28030   6.500   1.341   1.489
 9044SOL    HW128031   6.463   1.432   1.470
 9044SOL    HW228032   6.487   1.319   1.586
 9045SOL     OW28033   2.937   1.845   2.100
 9045SOL    HW128034   2.903   1.838   2.006
 9045SOL    HW228035   2.870   1.806   2.163
 9046SOL     OW28036   3.260   3.921   4.354
 9046SOL    HW128037   3.301   3.853   4.415
 9046SOL    HW228038   3.166   3.895   4.333
 9047SOL     OW28039   1.307   3.710   5.584
 9047SOL    HW128040   1.211   3.680   5.579
 9047SOL    HW228041   1.314   3.786   5.648
 9048SOL     OW28042   6.594   3.082   6.456
 9048SOL    HW128043   6.628   2.994   6.489
 9048SOL    HW228044   6.670   3.147   6.451
 9049SOL     OW28045   4.306   6.391   6.741
 9049SOL    HW128046   4.337   6.484   6.760
 9049SOL    HW228047   4.370   6.325   6.782
 9050SOL     OW28048   1.590   5.239   6.250
 9050SOL    HW128049   1.584   5.140   6.237
 9050SOL    HW228050   1.564   5.262   6.344
 9051SOL     OW28051   4.303   6.353   0.892
 9051SOL    HW128052   4.327   6.365   0.988
 9051SOL    HW228053   4.375   6.391   0.834
 9052SOL     OW28054   2.262   3.986   4.258
 9052SOL    HW128055   2.245   3.999   4.356
 9052SOL    HW228056   2.224   3.898   4.229
 9053SOL     OW28057   2.253   2.053   3.125
 9053SOL    HW128058   2.172   2.058   3.183
 9053SOL    HW228059   2.335   2.055   3.181
 9054SOL     OW28060   1.915   0.254   2.117
 9054SOL    HW128061   1.940   0.318   2.045
 9054SOL    HW228062   1.998   0.221   2.163
 9055SOL     OW28063   0.359   3.922   3.404
 9055SOL    HW128064   0.391   3.827   3.403
 9055SOL    HW228065   0.398   3.970   3.483
 9056SOL     OW28066   5.322   0.172   2.270
 9056SOL    HW128067   5.269   0.253   2.244
 9056SOL    HW228068   5.352   0.124   2.187
 9057SOL     OW28069   6.458   5.356   6.566
 9057SOL    HW128070   6.418   5.266   6.548
 9057SOL    HW228071   6.542   5.345   6.619
 9058SOL     OW28072   2.352   1.590   3.986
 9058SOL    HW128073   2.299   1.591   3.901
 9058SOL    HW228074   2.328   1.509   4.040
 9059SOL     OW28075   0.156   0.948   3.929
 9059SOL    HW128076   0.070   1.000   3.921
 9059SOL    HW228077   0.143   0.856   3.892
 9060SOL     OW28078   0.123   3.864   2.189
 9060SOL    HW128079   0.217   3.896   2.196
 9060SOL    HW228080   0.063   3.927   2.238
 9061SOL     OW28081   3.852   5.625   2.562
 9061SOL    HW128082   3.948   5.609   2.539
 9061SOL    HW228083   3.842   5.624   2.662
 9062SOL     OW28084   1.590   4.784   2.538
 9062SOL    HW128085   1.555   4.698   2.576
 9062SOL    HW228086   1.657   4.764   2.467
 9063SOL     OW28087   2.592   0.510   2.485
 9063SOL    HW128088   2.516   0.545   2.539
 9063SOL    HW228089   2.597   0.559   2.399
 9064SOL     OW28090   6.405   4.211   4.434
 9064SOL    HW128091   6.393   4.145   4.508
 9064SOL    HW228092   6.469   4.174   4.366
 9065SOL     OW28093   3.063   5.383   6.653
 9065SOL    HW128094   3.134   5.341   6.709
 9065SOL    HW228095   3.079   5.360   6.557
 9066SOL     OW28096   5.426   0.264   6.724
 9066SOL    HW128097   5.416   0.165   6.736
 9066SOL    HW228098   5.416   0.310   6.812
 9067SOL     OW28099   5.754   6.056   5.440
 9067SOL    HW128100   5.852   6.071   5.426
 9067SOL    HW228101   5.734   5.959   5.438
 9068SOL     OW28102   3.251   0.758   5.128
 9068SOL    HW128103   3.343   0.793   5.115
 9068SOL    HW228104   3.212   0.795   5.212
 9069SOL     OW28105   3.479   2.096   2.138
 9069SOL    HW128106   3.527   2.150   2.069
 9069SOL    HW228107   3.493   1.999   2.120
 9070SOL     OW28108   0.514   3.061   5.598
 9070SOL    HW128109   0.561   2.980   5.634
 9070SOL    HW228110   0.429   3.075   5.649
 9071SOL     OW28111   5.125   6.795   0.773
 9071SOL    HW128112   5.108   6.722   0.707
 9071SOL    HW228113   5.196   6.856   0.738
 9072SOL     OW28114   5.001   0.207   1.806
 9072SOL    HW128115   4.920   0.157   1.775
 9072SOL    HW228116   4.993   0.225   1.903
 9073SOL     OW28117   3.517   6.886   0.957
 9073SOL    HW128118   3.424   6.862   0.928
 9073SOL    HW228119   3.528   6.865   1.054
 9074SOL     OW28120   1.674   0.645   1.221
 9074SOL    HW128121   1.690   0.629   1.319
 9074SOL    HW228122   1.742   0.594   1.168
 9075SOL     OW28123   0.238   0.009   1.351
 9075SOL    HW128124   0.296   6.951   1.365
 9075SOL    HW228125   0.296   0.090   1.345
 9076SOL     OW28126   5.458   1.653   4.989
 9076SOL    HW128127   5.410   1.741   4.995
 9076SOL    HW228128   5.394   1.579   5.011
 9077SOL     OW28129   5.127   0.950   6.859
 9077SOL    HW128130   5.031   0.966   6.839
 9077SOL    HW228131   5.145   0.971   6.955
 9078SOL     OW28132   5.082   3.453   0.350
 9078SOL    HW128133   5.005   3.464   0.413
 9078SOL    HW228134   5.066   3.505   0.267
 9079SOL     OW28135   1.802   6.607   4.209
 9079SOL    HW128136   1.898   6.616   4.183
 9079SOL    HW228137   1.785   6.514   4.241
 9080SOL     OW28138   5.922   2.666   6.962
 9080SOL    HW128139   6.021   2.668   6.945
 9080SOL    HW228140   5.900   2.728   0.015
 9081SOL     OW28141   3.040   0.270   2.314
 9081SOL    HW128142   3.110   0.319   2.366
 9081SOL    HW228143   3.083   0.204   2.252
 9082SOL     OW28144   2.504   6.288   5.489
 9082SOL    HW128145   2.468   6.292   5.582
 9082SOL    HW228146   2.429   6.272   5.424
 9083SOL     OW28147   3.696   4.518   5.690
 9083SOL    HW128148   3.718   4.518   5.593
 9083SOL    HW228149   3.760   4.459   5.739
 9084SOL     OW28150   1.531   2.653   6.312
 9084SOL    HW128151   1.479   2.569   6.329
 9084SOL    HW228152   1.499   2.725   6.373
 9085SOL     OW28153   1.700   5.510   0.996
 9085SOL    HW128154   1.786   5.509   1.046
 9085SOL    HW228155   1.644   5.432   1.025
 9086SOL     OW28156   6.897   3.977   1.525
 9086SOL    HW128157   6.926   4.024   1.609
 9086SOL    HW228158   6.798   3.985   1.515
 9087SOL     OW28159   4.867   3.337   1.980
 9087SOL    HW128160   4.824   3.247   1.968
 9087SOL    HW228161   4.827   3.401   1.915
 9088SOL     OW28162   6.784   6.257   0.540
 9088SOL    HW128163   6.685   6.260   0.552
 9088SOL    HW228164   6.825   6.334   0.589
 9089SOL     OW28165   4.138   6.016   6.073
 9089SOL    HW128166   4.123   6.059   6.162
 9089SOL    HW228167   4.050   5.986   6.036
 9090SOL     OW28168   6.047   0.147   3.629
 9090SOL    HW128169   6.101   0.178   3.551
 9090SOL    HW228170   5.961   0.197   3.633
 9091SOL     OW28171   2.521   3.597   0.644
 9091SOL    HW128172   2.527   3.510   0.694
 9091SOL    HW228173   2.610   3.641   0.644
 9092SOL     OW28174   0.025   1.426   0.156
 9092SOL    HW128175   0.000   1.403   0.062
 9092SOL    HW228176   0.119   1.459   0.159
 9093SOL     OW28177   1.749   6.037   6.317
 9093SOL    HW128178   1.814   5.971   6.279
 9093SOL    HW228179   1.760   6.125   6.270
 9094SOL     OW28180   0.146   5.126   2.953
 9094SOL    HW128181   0.153   5.063   3.030
 9094SOL    HW228182   0.099   5.081   2.877
 9095SOL     OW28183   3.763   3.873   6.058
 9095SOL    HW128184   3.796   3.801   6.119
 9095SOL    HW228185   3.837   3.899   5.995
 9096SOL     OW28186   5.579   4.201   1.955
 9096SOL    HW128187   5.561   4.205   2.053
 9096SOL    HW228188   5.504   4.153   1.909
 9097SOL     OW28189   0.426   2.847   6.578
 9097SOL    HW128190   0.518   2.816   6.555
 9097SOL    HW228191   0.429   2.903   6.661
 9098SOL     OW28192   4.361   2.360   6.897
 9098SOL    HW128193   4.288   2.292   6.890
 9098SOL    HW228194   4.400   2.357   6.989
 9099SOL     OW28195   3.562   3.711   0.166
 9099SOL    HW128196   3.589   3.781   0.233
 9099SOL    HW228197   3.487   3.657   0.203
 9100SOL     OW28198   1.084   3.293   3.296
 9100SOL    HW128199   1.120   3.313   3.388
 9100SOL    HW228200   1.069   3.378   3.247
 9101SOL     OW28201   2.294   2.708   3.276
 9101SOL    HW128202   2.232   2.707   3.198
 9101SOL    HW228203   2.382   2.667   3.250
 9102SOL     OW28204   2.510   0.182   1.937
 9102SOL    HW128205   2.557   0.217   2.018
 9102SOL    HW228206   2.411   0.179   1.954
 9103SOL     OW28207   6.338   3.831   0.401
 9103SOL    HW128208   6.288   3.784   0.475
 9103SOL    HW228209   6.398   3.765   0.355
 9104SOL     OW28210   5.523   6.699   2.930
 9104SOL    HW128211   5.611   6.718   2.973
 9104SOL    HW228212   5.479   6.785   2.904
 9105SOL     OW28213   1.424   0.968   0.696
 9105SOL    HW128214   1.497   0.950   0.762
 9105SOL    HW228215   1.445   1.052   0.646
 9106SOL     OW28216   6.299   4.312   0.549
 9106SOL    HW128217   6.367   4.377   0.513
 9106SOL    HW228218   6.216   4.319   0.495
 9107SOL     OW28219   3.079   0.542   6.139
 9107SOL    HW128220   2.999   0.481   6.133
 9107SOL    HW228221   3.085   0.581   6.231
 9108SOL     OW28222   5.150   4.176   5.791
 9108SOL    HW128223   5.209   4.114   5.843
 9108SOL    HW228224   5.096   4.123   5.725
 9109SOL     OW28225   0.556   2.557   2.767
 9109SOL    HW128226   0.582   2.604   2.682
 9109SOL    HW228227   0.457   2.565   2.780
 9110SOL     OW28228   1.933   4.023   3.660
 9110SOL    HW128229   2.002   3.951   3.668
 9110SOL    HW228230   1.842   3.985   3.680
 9111SOL     OW28231   4.176   2.144   0.504
 9111SOL    HW128232   4.119   2.219   0.471
 9111SOL    HW228233   4.157   2.126   0.600
 9112SOL     OW28234   1.045   4.821   5.101
 9112SOL    HW128235   1.077   4.806   5.007
 9112SOL    HW228236   1.024   4.918   5.114
 9113SOL     OW28237   4.502   0.464   1.600
 9113SOL    HW128238   4.506   0.544   1.540
 9113SOL    HW228239   4.408   0.451   1.631
 9114SOL     OW28240   1.205   4.456   1.863
 9114SOL    HW128241   1.194   4.434   1.766
 9114SOL    HW228242   1.138   4.404   1.917
 9115SOL     OW28243   0.730   5.030   5.179
 9115SOL    HW128244   0.686   5.118   5.159
 9115SOL    HW228245   0.830   5.040   5.170
 9116SOL     OW28246   6.492   1.171   0.647
 9116SOL    HW128247   6.490   1.144   0.744
 9116SOL    HW228248   6.436   1.253   0.635
 9117SOL     OW28249   6.154   2.252   0.734
 9117SOL    HW128250   6.219   2.288   0.667
 9117SOL    HW228251   6.165   2.153   0.741
 9118SOL     OW28252   6.417   4.665   0.388
 9118SOL    HW128253   6.325   4.631   0.367
 9118SOL    HW228254   6.473   4.589   0.422
 9119SOL     OW28255   4.440   0.724   1.463
 9119SOL    HW128256   4.365   0.727   1.397
 9119SOL    HW228257   4.440   0.808   1.517
 9120SOL     OW28258   5.974   1.674   6.185
 9120SOL    HW128259   6.032   1.611   6.237
 9120SOL    HW228260   5.954   1.633   6.096
 9121SOL     OW28261   2.559   2.218   5.311
 9121SOL    HW128262   2.506   2.294   5.350
 9121SOL    HW228263   2.575   2.235   5.214
 9122SOL     OW28264   1.922   4.228   2.484
 9122SOL    HW128265   1.824   4.238   2.503
 9122SOL    HW228266   1.944   4.271   2.397
 9123SOL     OW28267   2.498   0.114   4.169
 9123SOL    HW128268   2.406   0.149   4.187
 9123SOL    HW228269   2.493   0.022   4.130
 9124SOL     OW28270   5.660   6.344   6.843
 9124SOL    HW128271   5.719   6.296   6.778
 9124SOL    HW228272   5.588   6.282   6.874
 9125SOL     OW28273   4.876   4.392   1.264
 9125SOL    HW128274   4.922   4.304   1.276
 9125SOL    HW228275   4.943   4.462   1.240
 9126SOL     OW28276   5.446   3.089   1.808
 9126SOL    HW128277   5.513   3.112   1.737
 9126SOL    HW228278   5.359   3.064   1.765
 9127SOL     OW28279   6.181   1.222   5.825
 9127SOL    HW128280   6.087   1.194   5.804
 9127SOL    HW228281   6.236   1.141   5.848
 9128SOL     OW28282   5.667   1.571   5.631
 9128SOL    HW128283   5.738   1.609   5.571
 9128SOL    HW228284   5.613   1.646   5.669
 9129SOL     OW28285   0.404   2.467   0.442
 9129SOL    HW128286   0.325   2.440   0.497
 9129SOL    HW228287   0.400   2.423   0.353
 9130SOL     OW28288   0.143   3.439   0.301
 9130SOL    HW128289   0.227   3.416   0.350
 9130SOL    HW228290   0.159   3.431   0.203
 9131SOL     OW28291   5.948   2.754   5.284
 9131SOL    HW128292   5.900   2.809   5.216
 9131SOL    HW228293   6.040   2.791   5.299
 9132SOL     OW28294   0.954   5.444   4.230
 9132SOL    HW128295   0.918   5.410   4.317
 9132SOL    HW228296   0.890   5.511   4.192
 9133SOL     OW28297   4.179   5.809   1.857
 9133SOL    HW128298   4.153   5.901   1.886
 9133SOL    HW228299   4.098   5.751   1.853
 9134SOL     OW28300   5.115   5.430   0.633
 9134SOL    HW128301   5.153   5.347   0.673
 9134SOL    HW228302   5.165   5.453   0.549
 9135SOL     OW28303   6.550   6.895   1.814
 9135SOL    HW128304   6.625   6.850   1.765
 9135SOL    HW228305   6.521   6.837   1.891
 9136SOL     OW28306   5.603   5.335   6.806
 9136SOL    HW128307   5.621   5.308   6.712
 9136SOL    HW228308   5.671   5.294   6.867
 9137SOL     OW28309   5.417   1.090   1.043
 9137SOL    HW128310   5.357   1.090   0.963
 9137SOL    HW228311   5.429   0.996   1.076
 9138SOL     OW28312   0.533   5.755   6.034
 9138SOL    HW128313   0.520   5.746   5.935
 9138SOL    HW228314   0.608   5.695   6.063
 9139SOL     OW28315   2.886   1.752   3.745
 9139SOL    HW128316   2.928   1.834   3.786
 9139SOL    HW228317   2.787   1.764   3.741
 9140SOL     OW28318   6.441   3.955   2.973
 9140SOL    HW128319   6.431   3.871   2.919
 9140SOL    HW228320   6.353   3.978   3.015
 9141SOL     OW28321   5.380   0.312   0.531
 9141SOL    HW128322   5.301   0.263   0.496
 9141SOL    HW228323   5.359   0.410   0.538
 9142SOL     OW28324   0.711   2.531   1.095
 9142SOL    HW128325   0.738   2.568   1.184
 9142SOL    HW228326   0.668   2.603   1.041
 9143SOL     OW28327   6.335   3.495   6.616
 9143SOL    HW128328   6.361   3.451   6.702
 9143SOL    HW228329   6.246   3.460   6.587
 9144SOL     OW28330   2.293   5.140   5.017
 9144SOL    HW128331   2.246   5.214   5.065
 9144SOL    HW228332   2.387   5.132   5.051
 9145SOL     OW28333   6.934   5.949   0.205
 9145SOL    HW128334   0.005   5.984   0.211
 9145SOL    HW228335   6.874   6.004   0.264
 9146SOL     OW28336   5.266   2.797   3.324
 9146SOL    HW128337   5.354   2.841   3.343
 9146SOL    HW228338   5.271   2.748   3.237
 9147SOL     OW28339   5.653   0.563   5.017
 9147SOL    HW128340   5.720   0.593   4.949
 9147SOL    HW228341   5.656   0.464   5.025
 9148SOL     OW28342   5.113   5.960   1.243
 9148SOL    HW128343   5.089   5.949   1.340
 9148SOL    HW228344   5.035   5.998   1.193
 9149SOL     OW28345   5.982   3.676   3.615
 9149SOL    HW128346   6.072   3.716   3.599
 9149SOL    HW228347   5.993   3.585   3.656
 9150SOL     OW28348   3.093   5.706   1.409
 9150SOL    HW128349   3.057   5.783   1.462
 9150SOL    HW228350   3.109   5.629   1.470
 9151SOL     OW28351   1.750   4.433   3.406
 9151SOL    HW128352   1.801   4.424   3.320
 9151SOL    HW228353   1.730   4.530   3.422
 9152SOL     OW28354   2.186   4.022   4.507
 9152SOL    HW128355   2.092   3.996   4.489
 9152SOL    HW228356   2.211   3.999   4.601
 9153SOL     OW28357   1.427   3.272   6.552
 9153SOL    HW128358   1.476   3.275   6.639
 9153SOL    HW228359   1.480   3.318   6.481
 9154SOL     OW28360   4.335   5.009   7.022
 9154SOL    HW128361   4.257   5.001   6.959
 9154SOL    HW228362   4.417   5.030   6.970
 9155SOL     OW28363   1.546   3.727   2.396
 9155SOL    HW128364   1.494   3.742   2.312
 9155SOL    HW228365   1.627   3.786   2.396
 9156SOL     OW28366   0.753   2.321   6.959
 9156SOL    HW128367   0.718   2.229   6.975
 9156SOL    HW228368   0.841   2.315   6.911
 9157SOL     OW28369   0.570   3.987   6.162
 9157SOL    HW128370   0.667   4.004   6.149
 9157SOL    HW228371   0.518   4.034   6.091
 9158SOL     OW28372   5.780   3.220   4.448
 9158SOL    HW128373   5.714   3.277   4.400
 9158SOL    HW228374   5.779   3.128   4.410
 9159SOL     OW28375   1.785   0.673   2.308
 9159SOL    HW128376   1.790   0.574   2.317
 9159SOL    HW228377   1.867   0.715   2.345
 9160SOL     OW28378   5.911   6.633   5.462
 9160SOL    HW128379   5.846   6.584   5.519
 9160SOL    HW228380   5.986   6.667   5.518
 9161SOL     OW28381   5.022   4.261   4.204
 9161SOL    HW128382   5.043   4.352   4.237
 9161SOL    HW228383   5.104   4.221   4.162
 9162SOL     OW28384   4.510   1.093   3.912
 9162SOL    HW128385   4.534   1.159   3.983
 9162SOL    HW228386   4.410   1.085   3.907
 9163SOL     OW28387   1.428   2.251   4.842
 9163SOL    HW128388   1.440   2.253   4.941
 9163SOL    HW228389   1.466   2.167   4.805
 9164SOL     OW28390   2.432   6.690   6.279
 9164SOL    HW128391   2.372   6.609   6.279
 9164SOL    HW228392   2.512   6.672   6.336
 9165SOL     OW28393   6.280   1.234   5.504
 9165SOL    HW128394   6.271   1.327   5.469
 9165SOL    HW228395   6.278   1.236   5.604
 9166SOL     OW28396   3.594   6.118   1.663
 9166SOL    HW128397   3.561   6.115   1.569
 9166SOL    HW228398   3.540   6.054   1.719
 9167SOL     OW28399   2.079   2.480   6.094
 9167SOL    HW128400   2.020   2.523   6.163
 9167SOL    HW228401   2.175   2.490   6.122
 9168SOL     OW28402   0.042   6.538   6.365
 9168SOL    HW128403   6.970   6.542   6.398
 9168SOL    HW228404   0.078   6.631   6.356
 9169SOL     OW28405   6.506   6.866   5.689
 9169SOL    HW128406   6.531   6.794   5.754
 9169SOL    HW228407   6.407   6.863   5.672
 9170SOL     OW28408   1.441   6.613   6.693
 9170SOL    HW128409   1.354   6.607   6.744
 9170SOL    HW228410   1.510   6.558   6.739
 9171SOL     OW28411   4.429   5.091   1.006
 9171SOL    HW128412   4.380   5.049   1.082
 9171SOL    HW228413   4.417   5.190   1.009
 9172SOL     OW28414   4.391   1.134   2.620
 9172SOL    HW128415   4.420   1.205   2.684
 9172SOL    HW228416   4.321   1.171   2.559
 9173SOL     OW28417   6.287   3.749   5.925
 9173SOL    HW128418   6.379   3.752   5.964
 9173SOL    HW228419   6.225   3.803   5.982
 9174SOL     OW28420   5.996   4.303   1.518
 9174SOL    HW128421   5.942   4.244   1.459
 9174SOL    HW228422   6.038   4.248   1.590
 9175SOL     OW28423   0.869   0.112   5.803
 9175SOL    HW128424   0.833   0.046   5.870
 9175SOL    HW228425   0.967   0.123   5.816
 9176SOL     OW28426   2.467   0.997   3.462
 9176SOL    HW128427   2.547   0.972   3.516
 9176SOL    HW228428   2.474   0.958   3.370
 9177SOL     OW28429   0.793   4.787   4.159
 9177SOL    HW128430   0.854   4.860   4.129
 9177SOL    HW228431   0.718   4.777   4.093
 9178SOL     OW28432   2.099   5.822   0.586
 9178SOL    HW128433   2.195   5.847   0.599
 9178SOL    HW228434   2.073   5.755   0.656
 9179SOL     OW28435   1.756   4.777   3.521
 9179SOL    HW128436   1.849   4.806   3.497
 9179SOL    HW228437   1.757   4.732   3.610
 9180SOL     OW28438   6.377   2.592   3.511
 9180SOL    HW128439   6.463   2.642   3.501
 9180SOL    HW228440   6.378   2.543   3.598
 9181SOL     OW28441   5.895   2.573   4.739
 9181SOL    HW128442   5.983   2.560   4.784
 9181SOL    HW228443   5.859   2.664   4.760
 9182SOL     OW28444   2.505   6.771   2.449
 9182SOL    HW128445   2.459   6.748   2.363
 9182SOL    HW228446   2.436   6.789   2.520
 9183SOL     OW28447   4.372   4.790   0.610
 9183SOL    HW128448   4.426   4.765   0.530
 9183SOL    HW228449   4.433   4.814   0.685
 9184SOL     OW28450   4.914   2.324   0.686
 9184SOL    HW128451   4.833   2.359   0.731
 9184SOL    HW228452   4.913   2.224   0.687
 9185SOL     OW28453   5.176   6.695   4.990
 9185SOL    HW128454   5.237   6.726   4.918
 9185SOL    HW228455   5.092   6.749   4.990
 9186SOL     OW28456   6.059   6.054   5.116
 9186SOL    HW128457   6.121   6.021   5.045
 9186SOL    HW228458   6.110   6.070   5.201
 9187SOL     OW28459   3.070   1.871   0.475
 9187SOL    HW128460   2.998   1.849   0.410
 9187SOL    HW228461   3.089   1.969   0.473
 9188SOL     OW28462   1.755   7.020   1.064
 9188SOL    HW128463   1.676   6.959   1.061
 9188SOL    HW228464   1.838   6.968   1.082
 9189SOL     OW28465   2.668   6.226   2.052
 9189SOL    HW128466   2.656   6.283   1.970
 9189SOL    HW228467   2.692   6.133   2.025
 9190SOL     OW28468   1.901   4.256   5.226
 9190SOL    HW128469   1.973   4.319   5.196
 9190SOL    HW228470   1.941   4.167   5.245
 9191SOL     OW28471   5.867   1.129   7.012
 9191SOL    HW128472   5.938   1.059   7.009
 9191SOL    HW228473   5.863   1.176   6.924
 9192SOL     OW28474   0.203   2.031   5.966
 9192SOL    HW128475   0.189   2.002   5.871
 9192SOL    HW228476   0.117   2.066   6.003
 9193SOL     OW28477   3.755   3.943   5.258
 9193SOL    HW128478   3.658   3.950   5.285
 9193SOL    HW228479   3.763   3.954   5.159
 9194SOL     OW28480   3.513   1.407   2.990
 9194SOL    HW128481   3.531   1.386   2.894
 9194SOL    HW228482   3.600   1.426   3.036
 9195SOL     OW28483   0.369   2.723   2.441
 9195SOL    HW128484   0.290   2.742   2.500
 9195SOL    HW228485   0.452   2.719   2.497
 9196SOL     OW28486   5.730   0.333   3.259
 9196SOL    HW128487   5.768   0.354   3.169
 9196SOL    HW228488   5.684   0.413   3.296
 9197SOL     OW28489   2.630   4.968   1.215
 9197SOL    HW128490   2.704   5.030   1.187
 9197SOL    HW228491   2.575   4.944   1.135
 9198SOL     OW28492   6.136   4.558   6.790
 9198SOL    HW128493   6.181   4.576   6.703
 9198SOL    HW228494   6.046   4.602   6.791
 9199SOL     OW28495   0.406   3.502   5.270
 9199SOL    HW128496   0.322   3.450   5.255
 9199SOL    HW228497   0.385   3.585   5.321
 9200SOL     OW28498   3.301   6.227   6.721
 9200SOL    HW128499   3.251   6.301   6.765
 9200SOL    HW228500   3.358   6.181   6.788
 9201SOL     OW28501   0.537   3.676   0.235
 9201SOL    HW128502   0.547   3.608   0.308
 9201SOL    HW228503   0.442   3.705   0.229
 9202SOL     OW28504   0.667   6.537   2.709
 9202SOL    HW128505   0.671   6.440   2.687
 9202SOL    HW228506   0.745   6.562   2.766
 9203SOL     OW28507   6.862   3.153   6.220
 9203SOL    HW128508   6.960   3.163   6.230
 9203SOL    HW228509   6.825   3.229   6.167
 9204SOL     OW28510   4.650   3.397   5.380
 9204SOL    HW128511   4.689   3.422   5.468
 9204SOL    HW228512   4.661   3.473   5.316
 9205SOL     OW28513   5.315   6.222   3.300
 9205SOL    HW128514   5.413   6.205   3.289
 9205SOL    HW228515   5.280   6.170   3.378
 9206SOL     OW28516   3.286   4.966   3.568
 9206SOL    HW128517   3.211   5.012   3.520
 9206SOL    HW228518   3.373   4.995   3.529
 9207SOL     OW28519   5.183   4.672   6.636
 9207SOL    HW128520   5.201   4.616   6.717
 9207SOL    HW228521   5.133   4.617   6.568
 9208SOL     OW28522   5.948   4.516   3.686
 9208SOL    HW128523   5.912   4.593   3.738
 9208SOL    HW228524   5.907   4.515   3.595
 9209SOL     OW28525   4.199   0.727   0.508
 9209SOL    HW128526   4.250   0.784   0.443
 9209SOL    HW228527   4.179   0.779   0.591
 9210SOL     OW28528   1.147   1.962   1.838
 9210SOL    HW128529   1.137   1.865   1.818
 9210SOL    HW228530   1.182   2.009   1.757
 9211SOL     OW28531   6.883   3.258   5.833
 9211SOL    HW128532   6.864   3.319   5.910
 9211SOL    HW228533   6.801   3.251   5.776
 9212SOL     OW28534   4.049   5.581   4.429
 9212SOL    HW128535   4.089   5.609   4.516
 9212SOL    HW228536   4.029   5.662   4.373
 9213SOL     OW28537   5.487   4.317   5.413
 9213SOL    HW128538   5.436   4.321   5.327
 9213SOL    HW228539   5.520   4.408   5.437
 9214SOL     OW28540   0.201   3.693   5.604
 9214SOL    HW128541   0.113   3.667   5.565
 9214SOL    HW228542   0.267   3.708   5.530
 9215SOL     OW28543   2.093   3.287   2.140
 9215SOL    HW128544   2.128   3.290   2.234
 9215SOL    HW228545   2.141   3.356   2.085
 9216SOL     OW28546   2.874   6.951   2.807
 9216SOL    HW128547   2.925   6.998   2.880
 9216SOL    HW228548   2.801   6.896   2.848
 9217SOL     OW28549   6.755   3.382   6.703
 9217SOL    HW128550   6.776   3.368   6.606
 9217SOL    HW228551   6.692   3.311   6.734
 9218SOL     OW28552   2.367   0.728   6.875
 9218SOL    HW128553   2.449   0.725   6.932
 9218SOL    HW228554   2.293   0.679   6.921
 9219SOL     OW28555   5.832   3.883   6.890
 9219SOL    HW128556   5.778   3.838   6.960
 9219SOL    HW228557   5.794   3.973   6.870
 9220SOL     OW28558   0.912   5.893   1.438
 9220SOL    HW128559   0.903   5.992   1.424
 9220SOL    HW228560   0.836   5.861   1.494
 9221SOL     OW28561   1.974   0.912   3.134
 9221SOL    HW128562   1.918   0.950   3.208
 9221SOL    HW228563   1.920   0.909   3.049
 9222SOL     OW28564   2.571   5.683   5.772
 9222SOL    HW128565   2.525   5.598   5.795
 9222SOL    HW228566   2.590   5.685   5.674
 9223SOL     OW28567   0.940   2.029   3.721
 9223SOL    HW128568   1.033   2.062   3.705
 9223SOL    HW228569   0.875   2.092   3.677
 9224SOL     OW28570   1.176   5.462   4.113
 9224SOL    HW128571   1.096   5.453   4.174
 9224SOL    HW228572   1.158   5.532   4.045
 9225SOL     OW28573   3.226   5.994   6.319
 9225SOL    HW128574   3.169   5.934   6.262
 9225SOL    HW228575   3.223   6.087   6.282
 9226SOL     OW28576   6.567   6.550   0.955
 9226SOL    HW128577   6.468   6.557   0.964
 9226SOL    HW228578   6.609   6.637   0.982
 9227SOL     OW28579   1.921   6.075   1.411
 9227SOL    HW128580   1.947   6.093   1.316
 9227SOL    HW228581   1.952   6.151   1.468
 9228SOL     OW28582   2.632   1.520   6.051
 9228SOL    HW128583   2.635   1.473   6.139
 9228SOL    HW228584   2.716   1.573   6.038
 9229SOL     OW28585   1.664   5.517   4.923
 9229SOL    HW128586   1.660   5.576   5.004
 9229SOL    HW228587   1.723   5.559   4.854
 9230SOL     OW28588   5.467   3.100   3.544
 9230SOL    HW128589   5.566   3.114   3.543
 9230SOL    HW228590   5.446   3.007   3.514
 9231SOL     OW28591   1.013   2.900   4.472
 9231SOL    HW128592   1.003   2.980   4.530
 9231SOL    HW228593   0.927   2.882   4.425
 9232SOL     OW28594   3.635   5.919   0.042
 9232SOL    HW128595   3.539   5.934   0.020
 9232SOL    HW228596   3.642   5.867   0.128
 9233SOL     OW28597   5.864   5.736   2.117
 9233SOL    HW128598   5.940   5.793   2.087
 9233SOL    HW228599   5.847   5.750   2.214
 9234SOL     OW28600   3.777   5.390   6.699
 9234SOL    HW128601   3.842   5.466   6.692
 9234SOL    HW228602   3.802   5.331   6.775
 9235SOL     OW28603   1.328   3.236   3.783
 9235SOL    HW128604   1.427   3.239   3.800
 9235SOL    HW228605   1.280   3.271   3.863
 9236SOL     OW28606   1.750   4.173   6.171
 9236SOL    HW128607   1.793   4.123   6.096
 9236SOL    HW228608   1.789   4.142   6.258
 9237SOL     OW28609   0.583   6.320   4.167
 9237SOL    HW128610   0.498   6.321   4.114
 9237SOL    HW228611   0.611   6.414   4.187
 9238SOL     OW28612   2.099   2.139   7.008
 9238SOL    HW128613   2.184   2.179   0.020
 9238SOL    HW228614   2.079   2.054   0.035
 9239SOL     OW28615   6.645   3.902   0.058
 9239SOL    HW128616   6.706   3.859   7.012
 9239SOL    HW228617   6.553   3.909   0.020
 9240SOL     OW28618   5.019   2.300   1.867
 9240SOL    HW128619   5.015   2.273   1.771
 9240SOL    HW228620   4.934   2.347   1.892
 9241SOL     OW28621   1.403   5.349   5.504
 9241SOL    HW128622   1.323   5.408   5.512
 9241SOL    HW228623   1.393   5.289   5.424
 9242SOL     OW28624   1.294   4.930   0.308
 9242SOL    HW128625   1.311   4.994   0.383
 9242SOL    HW228626   1.343   4.844   0.326
 9243SOL     OW28627   0.001   6.830   1.537
 9243SOL    HW128628   0.012   6.731   1.544
 9243SOL    HW228629   0.073   6.876   1.589
 9244SOL     OW28630   3.759   5.308   6.393
 9244SOL    HW128631   3.668   5.314   6.435
 9244SOL    HW228632   3.752   5.329   6.296
 9245SOL     OW28633   1.545   5.142   3.366
 9245SOL    HW128634   1.539   5.068   3.432
 9245SOL    HW228635   1.538   5.230   3.413
 9246SOL     OW28636   6.288   5.576   2.437
 9246SOL    HW128637   6.212   5.517   2.412
 9246SOL    HW228638   6.285   5.596   2.535
 9247SOL     OW28639   1.892   6.528   3.595
 9247SOL    HW128640   1.828   6.549   3.669
 9247SOL    HW228641   1.898   6.428   3.584
 9248SOL     OW28642   2.392   2.531   4.784
 9248SOL    HW128643   2.422   2.470   4.858
 9248SOL    HW228644   2.293   2.520   4.771
 9249SOL     OW28645   3.587   3.582   0.698
 9249SOL    HW128646   3.506   3.634   0.722
 9249SOL    HW228647   3.566   3.484   0.698
 9250SOL     OW28648   5.963   2.886   4.162
 9250SOL    HW128649   5.973   2.787   4.171
 9250SOL    HW228650   6.052   2.930   4.172
 9251SOL     OW28651   3.753   1.844   2.799
 9251SOL    HW128652   3.776   1.940   2.784
 9251SOL    HW228653   3.662   1.825   2.763
 9252SOL     OW28654   5.019   0.112   3.821
 9252SOL    HW128655   5.115   0.134   3.837
 9252SOL    HW228656   5.006   0.085   3.726
 9253SOL     OW28657   5.756   6.097   5.822
 9253SOL    HW128658   5.779   6.163   5.893
 9253SOL    HW228659   5.783   6.005   5.852
 9254SOL     OW28660   5.648   4.846   2.698
 9254SOL    HW128661   5.597   4.917   2.649
 9254SOL    HW228662   5.741   4.841   2.661
 9255SOL     OW28663   4.596   4.140   0.208
 9255SOL    HW128664   4.552   4.052   0.223
 9255SOL    HW228665   4.672   4.150   0.272
 9256SOL     OW28666   2.963   0.539   2.968
 9256SOL    HW128667   3.059   0.517   2.950
 9256SOL    HW228668   2.933   0.494   3.052
 9257SOL     OW28669   0.352   4.146   3.239
 9257SOL    HW128670   0.319   4.060   3.276
 9257SOL    HW228671   0.307   4.222   3.286
 9258SOL     OW28672   3.141   3.036   2.467
 9258SOL    HW128673   3.232   3.044   2.507
 9258SOL    HW228674   3.073   3.076   2.528
 9259SOL     OW28675   0.891   2.218   0.225
 9259SOL    HW128676   0.965   2.282   0.245
 9259SOL    HW228677   0.866   2.168   0.308
 9260SOL     OW28678   6.128   1.394   4.888
 9260SOL    HW128679   6.092   1.310   4.848
 9260SOL    HW228680   6.063   1.430   4.954
 9261SOL     OW28681   2.580   1.457   0.522
 9261SOL    HW128682   2.524   1.467   0.440
 9261SOL    HW228683   2.541   1.511   0.596
 9262SOL     OW28684   6.883   5.084   5.287
 9262SOL    HW128685   6.869   5.094   5.188
 9262SOL    HW228686   6.936   5.001   5.304
 9263SOL     OW28687   4.928   6.757   0.997
 9263SOL    HW128688   4.981   6.698   1.058
 9263SOL    HW228689   4.981   6.774   0.913
 9264SOL     OW28690   4.492   4.777   0.367
 9264SOL    HW128691   4.541   4.787   0.281
 9264SOL    HW228692   4.427   4.852   0.378
 9265SOL     OW28693   3.186   1.846   0.734
 9265SOL    HW128694   3.108   1.877   0.788
 9265SOL    HW228695   3.154   1.808   0.647
 9266SOL     OW28696   2.033   0.049   1.281
 9266SOL    HW128697   1.994   0.001   1.202
 9266SOL    HW228698   2.059   0.142   1.254
 9267SOL     OW28699   0.015   2.898   4.327
 9267SOL    HW128700   6.967   2.966   4.345
 9267SOL    HW228701   0.103   2.931   4.362
 9268SOL     OW28702   0.834   5.379   2.622
 9268SOL    HW128703   0.816   5.281   2.629
 9268SOL    HW228704   0.848   5.403   2.526
 9269SOL     OW28705   3.418   1.589   6.635
 9269SOL    HW128706   3.372   1.535   6.705
 9269SOL    HW228707   3.353   1.655   6.596
 9270SOL     OW28708   4.610   6.836   6.108
 9270SOL    HW128709   4.645   6.929   6.115
 9270SOL    HW228710   4.519   6.832   6.150
 9271SOL     OW28711   5.843   6.995   0.577
 9271SOL    HW128712   5.920   7.021   0.520
 9271SOL    HW228713   5.856   6.902   0.612
 9272SOL     OW28714   1.243   5.901   4.775
 9272SOL    HW128715   1.195   5.887   4.688
 9272SOL    HW228716   1.326   5.954   4.759
 9273SOL     OW28717   5.866   6.772   2.777
 9273SOL    HW128718   5.895   6.866   2.798
 9273SOL    HW228719   5.768   6.772   2.756
 9274SOL     OW28720   6.239   1.891   6.788
 9274SOL    HW128721   6.163   1.839   6.827
 9274SOL    HW228722   6.209   1.934   6.702
 9275SOL     OW28723   6.399   0.795   0.455
 9275SOL    HW128724   6.366   0.758   0.542
 9275SOL    HW228725   6.496   0.771   0.444
 9276SOL     OW28726   1.594   3.424   1.813
 9276SOL    HW128727   1.637   3.335   1.826
 9276SOL    HW228728   1.660   3.496   1.833
 9277SOL     OW28729   4.778   3.672   0.257
 9277SOL    HW128730   4.729   3.662   0.344
 9277SOL    HW228731   4.714   3.703   0.187
 9278SOL     OW28732   2.153   0.704   5.686
 9278SOL    HW128733   2.188   0.713   5.779
 9278SOL    HW228734   2.174   0.788   5.634
 9279SOL     OW28735   4.341   1.324   2.250
 9279SOL    HW128736   4.425   1.285   2.288
 9279SOL    HW228737   4.356   1.420   2.228
 9280SOL     OW28738   2.016   2.050   3.317
 9280SOL    HW128739   1.969   2.108   3.251
 9280SOL    HW228740   1.992   2.079   3.410
 9281SOL     OW28741   2.668   3.761   6.934
 9281SOL    HW128742   2.580   3.802   6.911
 9281SOL    HW228743   2.679   3.759   0.011
 9282SOL     OW28744   5.243   1.066   3.693
 9282SOL    HW128745   5.230   1.147   3.750
 9282SOL    HW228746   5.174   0.997   3.716
 9283SOL     OW28747   5.839   0.468   4.057
 9283SOL    HW128748   5.855   0.395   4.124
 9283SOL    HW228749   5.742   0.493   4.059
 9284SOL     OW28750   3.381   3.300   5.263
 9284SOL    HW128751   3.335   3.385   5.288
 9284SOL    HW228752   3.462   3.289   5.321
 9285SOL     OW28753   5.079   2.678   0.776
 9285SOL    HW128754   5.024   2.745   0.826
 9285SOL    HW228755   5.042   2.666   0.684
 9286SOL     OW28756   5.336   5.831   0.673
 9286SOL    HW128757   5.356   5.928   0.690
 9286SOL    HW228758   5.259   5.824   0.610
 9287SOL     OW28759   3.159   4.713   0.041
 9287SOL    HW128760   3.142   4.621   0.076
 9287SOL    HW228761   3.202   4.707   6.973
 9288SOL     OW28762   4.857   1.259   3.294
 9288SOL    HW128763   4.811   1.245   3.206
 9288SOL    HW228764   4.882   1.355   3.303
 9289SOL     OW28765   3.967   1.409   2.123
 9289SOL    HW128766   4.024   1.328   2.105
 9289SOL    HW228767   3.907   1.391   2.200
 9290SOL     OW28768   5.664   1.301   3.234
 9290SOL    HW128769   5.708   1.344   3.313
 9290SOL    HW228770   5.686   1.354   3.152
 9291SOL     OW28771   1.467   6.313   4.185
 9291SOL    HW128772   1.553   6.263   4.175
 9291SOL    HW228773   1.394   6.250   4.211
 9292SOL     OW28774   2.055   2.735   6.618
 9292SOL    HW128775   2.130   2.763   6.678
 9292SOL    HW228776   2.008   2.656   6.658
 9293SOL     OW28777   5.209   3.163   6.575
 9293SOL    HW128778   5.129   3.213   6.608
 9293SOL    HW228779   5.262   3.129   6.653
 9294SOL     OW28780   4.405   0.972   5.634
 9294SOL    HW128781   4.343   0.905   5.593
 9294SOL    HW228782   4.392   1.061   5.589
 9295SOL     OW28783   5.388   1.874   4.809
 9295SOL    HW128784   5.297   1.913   4.826
 9295SOL    HW228785   5.382   1.804   4.737
 9296SOL     OW28786   1.530   5.778   6.766
 9296SOL    HW128787   1.609   5.779   6.704
 9296SOL    HW228788   1.451   5.815   6.718
 9297SOL     OW28789   6.757   0.311   1.726
 9297SOL    HW128790   6.687   0.315   1.797
 9297SOL    HW228791   6.726   0.252   1.652
 9298SOL     OW28792   1.165   6.838   5.923
 9298SOL    HW128793   1.180   6.924   5.874
 9298SOL    HW228794   1.162   6.762   5.858
 9299SOL     OW28795   0.617   2.525   5.344
 9299SOL    HW128796   0.689   2.566   5.289
 9299SOL    HW228797   0.611   2.427   5.324
 9300SOL     OW28798   0.298   4.637   5.774
 9300SOL    HW128799   0.316   4.698   5.852
 9300SOL    HW228800   0.293   4.691   5.690
 9301SOL     OW28801   5.032   5.361   3.920
 9301SOL    HW128802   5.083   5.446   3.930
 9301SOL    HW228803   5.024   5.316   4.009
 9302SOL     OW28804   2.225   2.643   4.298
 9302SOL    HW128805   2.225   2.709   4.223
 9302SOL    HW228806   2.316   2.605   4.310
 9303SOL     OW28807   2.623   4.235   0.903
 9303SOL    HW128808   2.600   4.314   0.960
 9303SOL    HW228809   2.577   4.243   0.815
 9304SOL     OW28810   4.045   5.225   1.796
 9304SOL    HW128811   4.130   5.177   1.818
 9304SOL    HW228812   3.968   5.164   1.809
 9305SOL     OW28813   3.207   1.377   0.944
 9305SOL    HW128814   3.247   1.453   0.894
 9305SOL    HW228815   3.267   1.354   1.022
 9306SOL     OW28816   0.355   5.352   4.826
 9306SOL    HW128817   0.299   5.384   4.903
 9306SOL    HW228818   0.417   5.425   4.798
 9307SOL     OW28819   1.776   3.241   1.747
 9307SOL    HW128820   1.813   3.193   1.668
 9307SOL    HW228821   1.850   3.269   1.808
 9308SOL     OW28822   2.401   3.329   0.455
 9308SOL    HW128823   2.399   3.403   0.389
 9308SOL    HW228824   2.447   3.360   0.538
 9309SOL     OW28825   3.656   4.702   5.900
 9309SOL    HW128826   3.634   4.631   5.832
 9309SOL    HW228827   3.606   4.683   5.985
 9310SOL     OW28828   4.700   5.214   6.678
 9310SOL    HW128829   4.761   5.207   6.599
 9310SOL    HW228830   4.734   5.286   6.739
 9311SOL     OW28831   4.627   4.832   1.983
 9311SOL    HW128832   4.651   4.773   1.906
 9311SOL    HW228833   4.569   4.781   2.047
 9312SOL     OW28834   1.226   3.534   1.079
 9312SOL    HW128835   1.230   3.591   0.997
 9312SOL    HW228836   1.299   3.561   1.142
 9313SOL     OW28837   0.675   0.740   1.087
 9313SOL    HW128838   0.599   0.780   1.036
 9313SOL    HW228839   0.645   0.655   1.130
 9314SOL     OW28840   5.516   4.915   6.901
 9314SOL    HW128841   5.540   4.818   6.887
 9314SOL    HW228842   5.429   4.921   6.950
 9315SOL     OW28843   6.130   0.150   5.069
 9315SOL    HW128844   6.185   0.112   5.144
 9315SOL    HW228845   6.042   0.181   5.106
 9316SOL     OW28846   5.123   6.492   5.748
 9316SOL    HW128847   5.106   6.466   5.652
 9316SOL    HW228848   5.216   6.526   5.757
 9317SOL     OW28849   5.410   5.158   3.671
 9317SOL    HW128850   5.325   5.208   3.660
 9317SOL    HW228851   5.483   5.205   3.622
 9318SOL     OW28852   5.794   0.321   5.897
 9318SOL    HW128853   5.740   0.364   5.969
 9318SOL    HW228854   5.768   0.225   5.889
 9319SOL     OW28855   2.255   2.972   6.984
 9319SOL    HW128856   2.169   3.020   6.966
 9319SOL    HW228857   2.330   3.037   6.984
 9320SOL     OW28858   3.640   0.837   5.266
 9320SOL    HW128859   3.723   0.856   5.319
 9320SOL    HW228860   3.658   0.854   5.169
 9321SOL     OW28861   0.532   0.401   4.091
 9321SOL    HW128862   0.615   0.448   4.122
 9321SOL    HW228863   0.488   0.456   4.019
 9322SOL     OW28864   0.092   3.387   6.625
 9322SOL    HW128865   0.045   3.341   6.549
 9322SOL    HW228866   0.069   3.341   6.711
 9323SOL     OW28867   1.428   0.897   5.735
 9323SOL    HW128868   1.343   0.939   5.766
 9323SOL    HW228869   1.413   0.799   5.719
 9324SOL     OW28870   1.069   4.221   1.326
 9324SOL    HW128871   1.006   4.246   1.399
 9324SOL    HW228872   1.074   4.121   1.318
 9325SOL     OW28873   5.809   0.703   0.100
 9325SOL    HW128874   5.852   0.726   0.012
 9325SOL    HW228875   5.717   0.740   0.102
 9326SOL     OW28876   2.306   5.185   0.647
 9326SOL    HW128877   2.326   5.241   0.566
 9326SOL    HW228878   2.208   5.166   0.651
 9327SOL     OW28879   5.130   0.401   2.961
 9327SOL    HW128880   5.072   0.354   3.027
 9327SOL    HW228881   5.082   0.481   2.926
 9328SOL     OW28882   2.598   1.222   5.102
 9328SOL    HW128883   2.650   1.255   5.181
 9328SOL    HW228884   2.613   1.283   5.024
 9329SOL     OW28885   6.185   3.818   1.186
 9329SOL    HW128886   6.162   3.764   1.106
 9329SOL    HW228887   6.102   3.863   1.221
 9330SOL     OW28888   6.613   0.058   5.591
 9330SOL    HW128889   6.579   6.999   5.638
 9330SOL    HW228890   6.536   0.105   5.546
 9331SOL     OW28891   1.760   0.987   0.080
 9331SOL    HW128892   1.704   0.905   0.084
 9331SOL    HW228893   1.810   0.989   7.016
 9332SOL     OW28894   4.086   4.331   1.140
 9332SOL    HW128895   4.159   4.271   1.108
 9332SOL    HW228896   4.026   4.355   1.064
 9333SOL     OW28897   3.977   4.100   0.022
 9333SOL    HW128898   3.996   4.004   0.041
 9333SOL    HW228899   3.880   4.119   0.036
 9334SOL     OW28900   5.730   6.133   3.484
 9334SOL    HW128901   5.813   6.088   3.452
 9334SOL    HW228902   5.695   6.085   3.565
 9335SOL     OW28903   0.831   1.076   6.868
 9335SOL    HW128904   0.851   0.983   6.839
 9335SOL    HW228905   0.876   1.141   6.807
 9336SOL     OW28906   3.400   5.551   6.093
 9336SOL    HW128907   3.390   5.476   6.026
 9336SOL    HW228908   3.311   5.595   6.106
 9337SOL     OW28909   3.924   1.465   4.626
 9337SOL    HW128910   3.903   1.483   4.530
 9337SOL    HW228911   4.004   1.519   4.654
 9338SOL     OW28912   5.526   6.614   1.407
 9338SOL    HW128913   5.533   6.573   1.498
 9338SOL    HW228914   5.559   6.709   1.411
 9339SOL     OW28915   6.007   6.464   1.102
 9339SOL    HW128916   5.907   6.465   1.090
 9339SOL    HW228917   6.029   6.461   1.199
 9340SOL     OW28918   4.526   4.616   3.751
 9340SOL    HW128919   4.463   4.652   3.819
 9340SOL    HW228920   4.478   4.604   3.664
 9341SOL     OW28921   0.097   5.490   1.066
 9341SOL    HW128922   0.069   5.576   1.024
 9341SOL    HW228923   0.175   5.452   1.016
 9342SOL     OW28924   3.336   6.299   3.800
 9342SOL    HW128925   3.343   6.355   3.882
 9342SOL    HW228926   3.283   6.347   3.731
 9343SOL     OW28927   5.536   4.427   1.762
 9343SOL    HW128928   5.584   4.490   1.701
 9343SOL    HW228929   5.597   4.399   1.836
 9344SOL     OW28930   4.847   6.910   2.775
 9344SOL    HW128931   4.905   6.844   2.727
 9344SOL    HW228932   4.774   6.941   2.714
 9345SOL     OW28933   6.705   5.801   1.900
 9345SOL    HW128934   6.764   5.831   1.824
 9345SOL    HW228935   6.641   5.874   1.923
 9346SOL     OW28936   5.406   1.107   1.397
 9346SOL    HW128937   5.362   1.181   1.448
 9346SOL    HW228938   5.434   1.140   1.307
 9347SOL     OW28939   3.212   3.785   0.254
 9347SOL    HW128940   3.135   3.736   0.213
 9347SOL    HW228941   3.246   3.853   0.189
 9348SOL     OW28942   2.705   6.857   2.588
 9348SOL    HW128943   2.633   6.823   2.527
 9348SOL    HW228944   2.778   6.788   2.595
 9349SOL     OW28945   6.224   4.925   2.993
 9349SOL    HW128946   6.184   4.868   2.922
 9349SOL    HW228947   6.221   5.021   2.965
 9350SOL     OW28948   6.920   2.670   4.834
 9350SOL    HW128949   6.889   2.733   4.763
 9350SOL    HW228950   6.982   2.602   4.794
 9351SOL     OW28951   2.925   6.615   6.622
 9351SOL    HW128952   3.001   6.605   6.558
 9351SOL    HW228953   2.842   6.578   6.580
 9352SOL     OW28954   3.706   1.809   6.065
 9352SOL    HW128955   3.649   1.860   6.001
 9352SOL    HW228956   3.667   1.815   6.157
 9353SOL     OW28957   0.655   4.236   1.087
 9353SOL    HW128958   0.652   4.200   1.180
 9353SOL    HW228959   0.649   4.161   1.022
 9354SOL     OW28960   0.106   1.608   6.238
 9354SOL    HW128961   0.053   1.693   6.231
 9354SOL    HW228962   0.078   1.545   6.166
 9355SOL     OW28963   0.217   2.102   4.213
 9355SOL    HW128964   0.312   2.083   4.239
 9355SOL    HW228965   0.214   2.135   4.119
 9356SOL     OW28966   4.547   6.735   2.310
 9356SOL    HW128967   4.580   6.697   2.396
 9356SOL    HW228968   4.490   6.667   2.264
 9357SOL     OW28969   1.411   3.501   6.284
 9357SOL    HW128970   1.329   3.454   6.251
 9357SOL    HW228971   1.492   3.445   6.266
 9358SOL     OW28972   0.214   2.819   1.879
 9358SOL    HW128973   0.313   2.819   1.864
 9358SOL    HW228974   0.169   2.850   1.795
 9359SOL     OW28975   1.860   3.871   5.335
 9359SOL    HW128976   1.865   3.942   5.406
 9359SOL    HW228977   1.949   3.827   5.327
 9360SOL     OW28978   0.768   4.901   6.813
 9360SOL    HW128979   0.835   4.930   6.881
 9360SOL    HW228980   0.702   4.975   6.799
 9361SOL     OW28981   1.369   5.260   2.858
 9361SOL    HW128982   1.314   5.180   2.836
 9361SOL    HW228983   1.391   5.260   2.955
 9362SOL     OW28984   2.042   2.827   2.747
 9362SOL    HW128985   1.993   2.786   2.824
 9362SOL    HW228986   2.140   2.811   2.756
 9363SOL     OW28987   3.258   6.393   1.387
 9363SOL    HW128988   3.181   6.438   1.341
 9363SOL    HW228989   3.315   6.346   1.320
 9364SOL     OW28990   3.013   3.213   6.400
 9364SOL    HW128991   3.072   3.290   6.425
 9364SOL    HW228992   3.041   3.132   6.450
 9365SOL     OW28993   2.554   2.081   3.867
 9365SOL    HW128994   2.612   2.025   3.925
 9365SOL    HW228995   2.468   2.034   3.849
 9366SOL     OW28996   3.814   5.451   6.025
 9366SOL    HW128997   3.833   5.548   6.039
 9366SOL    HW228998   3.729   5.426   6.071
 9367SOL     OW28999   6.965   6.211   2.705
 9367SOL    HW129000   6.937   6.290   2.760
 9367SOL    HW229001   0.043   6.209   2.699
 9368SOL     OW29002   3.424   0.405   2.996
 9368SOL    HW129003   3.410   0.479   2.931
 9368SOL    HW229004   3.462   0.442   3.081
 9369SOL     OW29005   0.059   6.637   4.139
 9369SOL    HW129006   0.152   6.623   4.173
 9369SOL    HW229007   0.062   6.662   4.042
 9370SOL     OW29008   5.281   0.589   4.071
 9370SOL    HW129009   5.264   0.667   4.010
 9370SOL    HW229010   5.202   0.578   4.132
 9371SOL     OW29011   2.505   4.912   0.294
 9371SOL    HW129012   2.514   4.817   0.324
 9371SOL    HW229013   2.423   4.952   0.336
 9372SOL     OW29014   4.517   0.324   1.362
 9372SOL    HW129015   4.602   0.299   1.315
 9372SOL    HW229016   4.539   0.371   1.447
 9373SOL     OW29017   4.702   2.195   1.764
 9373SOL    HW129018   4.625   2.132   1.760
 9373SOL    HW229019   4.781   2.155   1.718
 9374SOL     OW29020   0.502   2.948   0.398
 9374SOL    HW129021   0.517   2.853   0.371
 9374SOL    HW229022   0.586   2.986   0.435
 9375SOL     OW29023   0.487   1.598   1.268
 9375SOL    HW129024   0.553   1.534   1.307
 9375SOL    HW229025   0.518   1.627   1.178
 9376SOL     OW29026   2.235   4.055   1.259
 9376SOL    HW129027   2.201   3.963   1.242
 9376SOL    HW229028   2.230   4.075   1.357
 9377SOL     OW29029   1.936   5.212   3.399
 9377SOL    HW129030   1.992   5.133   3.375
 9377SOL    HW229031   1.885   5.243   3.319
 9378SOL     OW29032   2.415   1.261   3.600
 9378SOL    HW129033   2.426   1.176   3.548
 9378SOL    HW229034   2.381   1.239   3.692
 9379SOL     OW29035   4.795   0.246   5.371
 9379SOL    HW129036   4.876   0.303   5.386
 9379SOL    HW229037   4.819   0.150   5.386
 9380SOL     OW29038   3.959   5.634   5.673
 9380SOL    HW129039   3.891   5.563   5.655
 9380SOL    HW229040   3.916   5.710   5.722
 9381SOL     OW29041   4.858   2.945   5.816
 9381SOL    HW129042   4.889   2.981   5.904
 9381SOL    HW229043   4.781   3.000   5.783
 9382SOL     OW29044   4.066   0.692   4.165
 9382SOL    HW129045   4.005   0.752   4.218
 9382SOL    HW229046   4.014   0.647   4.092
 9383SOL     OW29047   5.564   5.150   4.523
 9383SOL    HW129048   5.537   5.245   4.536
 9383SOL    HW229049   5.602   5.114   4.608
 9384SOL     OW29050   4.280   0.224   1.965
 9384SOL    HW129051   4.252   0.313   1.929
 9384SOL    HW229052   4.241   0.151   1.908
 9385SOL     OW29053   4.705   1.376   3.830
 9385SOL    HW129054   4.616   1.376   3.784
 9385SOL    HW229055   4.722   1.466   3.870
 9386SOL     OW29056   3.430   6.046   5.242
 9386SOL    HW129057   3.513   6.023   5.192
 9386SOL    HW229058   3.417   5.979   5.316
 9387SOL     OW29059   2.476   2.096   0.286
 9387SOL    HW129060   2.505   2.187   0.314
 9387SOL    HW229061   2.520   2.028   0.344
 9388SOL     OW29062   2.649   5.949   3.318
 9388SOL    HW129063   2.743   5.983   3.313
 9388SOL    HW229064   2.645   5.858   3.276
 9389SOL     OW29065   2.387   6.978   3.342
 9389SOL    HW129066   2.419   6.925   3.421
 9389SOL    HW229067   2.292   7.005   3.356
 9390SOL     OW29068   5.333   4.450   6.745
 9390SOL    HW129069   5.431   4.471   6.744
 9390SOL    HW229070   5.320   4.353   6.724
 9391SOL     OW29071   1.153   1.017   5.821
 9391SOL    HW129072   1.150   0.999   5.723
 9391SOL    HW229073   1.060   1.036   5.854
 9392SOL     OW29074   5.115   5.467   5.561
 9392SOL    HW129075   5.146   5.372   5.555
 9392SOL    HW229076   5.084   5.486   5.655
 9393SOL     OW29077   2.409   0.271   6.301
 9393SOL    HW129078   2.493   0.233   6.264
 9393SOL    HW229079   2.375   0.212   6.375
 9394SOL     OW29080   6.525   1.047   1.643
 9394SOL    HW129081   6.527   1.047   1.543
 9394SOL    HW229082   6.430   1.039   1.674
 9395SOL     OW29083   2.432   0.723   0.924
 9395SOL    HW129084   2.489   0.648   0.891
 9395SOL    HW229085   2.386   0.695   1.009
 9396SOL     OW29086   2.334   4.304   4.568
 9396SOL    HW129087   2.298   4.214   4.544
 9396SOL    HW229088   2.295   4.334   4.654
 9397SOL     OW29089   3.597   5.892   6.300
 9397SOL    HW129090   3.637   5.805   6.331
 9397SOL    HW229091   3.500   5.879   6.282
 9398SOL     OW29092   6.243   0.976   5.385
 9398SOL    HW129093   6.156   0.940   5.419
 9398SOL    HW229094   6.261   1.065   5.427
 9399SOL     OW29095   1.154   2.831   5.291
 9399SOL    HW129096   1.151   2.829   5.191
 9399SOL    HW229097   1.108   2.914   5.324
 9400SOL     OW29098   5.190   0.920   1.271
 9400SOL    HW129099   5.261   0.961   1.328
 9400SOL    HW229100   5.156   0.989   1.207
 9401SOL     OW29101   6.593   1.721   2.613
 9401SOL    HW129102   6.524   1.661   2.655
 9401SOL    HW229103   6.680   1.672   2.607
 9402SOL     OW29104   1.565   4.513   3.161
 9402SOL    HW129105   1.558   4.551   3.253
 9402SOL    HW229106   1.612   4.424   3.165
 9403SOL     OW29107   6.065   1.539   2.086
 9403SOL    HW129108   6.123   1.460   2.110
 9403SOL    HW229109   6.030   1.582   2.169
 9404SOL     OW29110   0.672   1.918   0.918
 9404SOL    HW129111   0.598   1.940   0.853
 9404SOL    HW229112   0.749   1.879   0.868
 9405SOL     OW29113   2.135   4.558   3.581
 9405SOL    HW129114   2.067   4.488   3.605
 9405SOL    HW229115   2.117   4.592   3.489
 9406SOL     OW29116   0.701   2.512   6.530
 9406SOL    HW129117   0.645   2.429   6.532
 9406SOL    HW229118   0.752   2.515   6.444
 9407SOL     OW29119   2.283   5.196   3.648
 9407SOL    HW129120   2.296   5.209   3.549
 9407SOL    HW229121   2.357   5.243   3.697
 9408SOL     OW29122   6.771   3.640   5.961
 9408SOL    HW129123   6.832   3.657   6.039
 9408SOL    HW229124   6.781   3.714   5.894
 9409SOL     OW29125   6.524   5.730   1.311
 9409SOL    HW129126   6.521   5.651   1.249
 9409SOL    HW229127   6.437   5.738   1.359
 9410SOL     OW29128   2.418   0.897   2.285
 9410SOL    HW129129   2.365   0.868   2.364
 9410SOL    HW229130   2.516   0.887   2.305
 9411SOL     OW29131   3.846   3.315   3.369
 9411SOL    HW129132   3.932   3.365   3.366
 9411SOL    HW229133   3.846   3.244   3.299
 9412SOL     OW29134   1.770   1.178   2.005
 9412SOL    HW129135   1.830   1.214   1.934
 9412SOL    HW229136   1.824   1.149   2.083
 9413SOL     OW29137   4.705   4.653   3.082
 9413SOL    HW129138   4.621   4.600   3.097
 9413SOL    HW229139   4.781   4.609   3.129
 9414SOL     OW29140   2.577   1.391   3.892
 9414SOL    HW129141   2.581   1.491   3.893
 9414SOL    HW229142   2.592   1.356   3.985
 9415SOL     OW29143   2.298   0.013   2.407
 9415SOL    HW129144   2.368   0.056   2.465
 9415SOL    HW229145   2.342   6.974   2.342
 9416SOL     OW29146   0.285   0.851   5.858
 9416SOL    HW129147   0.338   0.919   5.807
 9416SOL    HW229148   0.214   0.897   5.912
 9417SOL     OW29149   3.123   0.856   1.237
 9417SOL    HW129150   3.098   0.868   1.141
 9417SOL    HW229151   3.211   0.808   1.242
 9418SOL     OW29152   2.076   1.265   1.171
 9418SOL    HW129153   2.148   1.276   1.239
 9418SOL    HW229154   2.117   1.242   1.083
 9419SOL     OW29155   2.015   3.499   6.639
 9419SOL    HW129156   2.056   3.575   6.690
 9419SOL    HW229157   2.082   3.425   6.632
 9420SOL     OW29158   5.951   4.411   0.706
 9420SOL    HW129159   5.976   4.489   0.648
 9420SOL    HW229160   6.034   4.364   0.736
 9421SOL     OW29161   3.298   6.070   5.001
 9421SOL    HW129162   3.330   6.018   4.922
 9421SOL    HW229163   3.368   6.068   5.073
 9422SOL     OW29164   3.064   5.631   3.085
 9422SOL    HW129165   3.111   5.602   3.002
 9422SOL    HW229166   3.107   5.588   3.165
 9423SOL     OW29167   4.248   6.282   3.448
 9423SOL    HW129168   4.190   6.270   3.367
 9423SOL    HW229169   4.250   6.379   3.473
 9424SOL     OW29170   5.121   1.984   4.749
 9424SOL    HW129171   5.027   2.011   4.724
 9424SOL    HW229172   5.183   2.006   4.674
 9425SOL     OW29173   5.260   4.152   1.491
 9425SOL    HW129174   5.248   4.191   1.582
 9425SOL    HW229175   5.175   4.163   1.439
 9426SOL     OW29176   3.273   1.428   6.365
 9426SOL    HW129177   3.244   1.503   6.305
 9426SOL    HW229178   3.223   1.433   6.451
 9427SOL     OW29179   3.007   5.240   2.957
 9427SOL    HW129180   3.033   5.278   2.868
 9427SOL    HW229181   2.917   5.198   2.951
 9428SOL     OW29182   0.451   0.367   1.037
 9428SOL    HW129183   0.507   0.290   1.006
 9428SOL    HW229184   0.357   0.354   1.008
 9429SOL     OW29185   2.147   3.451   4.097
 9429SOL    HW129186   2.178   3.470   4.003
 9429SOL    HW229187   2.112   3.358   4.103
 9430SOL     OW29188   0.508   2.279   4.937
 9430SOL    HW129189   0.456   2.242   4.860
 9430SOL    HW229190   0.541   2.371   4.914
 9431SOL     OW29191   6.683   4.556   1.530
 9431SOL    HW129192   6.674   4.651   1.500
 9431SOL    HW229193   6.735   4.504   1.462
 9432SOL     OW29194   6.702   0.578   4.068
 9432SOL    HW129195   6.617   0.541   4.031
 9432SOL    HW229196   6.773   0.507   4.066
 9433SOL     OW29197   3.129   6.706   2.870
 9433SOL    HW129198   3.048   6.756   2.838
 9433SOL    HW229199   3.203   6.771   2.890
 9434SOL     OW29200   5.600   6.032   2.149
 9434SOL    HW129201   5.569   5.950   2.197
 9434SOL    HW229202   5.695   6.050   2.174
 9435SOL     OW29203   6.841   1.999   3.066
 9435SOL    HW129204   6.759   1.988   3.122
 9435SOL    HW229205   6.922   2.000   3.125
 9436SOL     OW29206   1.402   1.788   2.377
 9436SOL    HW129207   1.424   1.761   2.471
 9436SOL    HW229208   1.345   1.716   2.335
 9437SOL     OW29209   0.351   6.230   3.277
 9437SOL    HW129210   0.274   6.282   3.241
 9437SOL    HW229211   0.372   6.262   3.369
 9438SOL     OW29212   0.927   0.195   1.970
 9438SOL    HW129213   1.003   0.250   2.006
 9438SOL    HW229214   0.951   0.162   1.878
 9439SOL     OW29215   1.038   3.010   0.752
 9439SOL    HW129216   1.134   2.984   0.749
 9439SOL    HW229217   0.981   2.930   0.732
 9440SOL     OW29218   3.679   4.917   3.135
 9440SOL    HW129219   3.695   4.993   3.071
 9440SOL    HW229220   3.581   4.900   3.143
 9441SOL     OW29221   6.593   5.036   6.188
 9441SOL    HW129222   6.607   5.008   6.093
 9441SOL    HW229223   6.682   5.042   6.234
 9442SOL     OW29224   5.039   3.582   1.912
 9442SOL    HW129225   4.984   3.511   1.868
 9442SOL    HW229226   5.118   3.540   1.957
 9443SOL     OW29227   2.432   5.344   0.416
 9443SOL    HW129228   2.527   5.323   0.438
 9443SOL    HW229229   2.403   5.290   0.336
 9444SOL     OW29230   1.680   4.034   0.775
 9444SOL    HW129231   1.763   4.078   0.741
 9444SOL    HW229232   1.684   3.936   0.755
 9445SOL     OW29233   6.718   3.420   3.354
 9445SOL    HW129234   6.653   3.493   3.336
 9445SOL    HW229235   6.670   3.332   3.360
 9446SOL     OW29236   6.538   5.691   4.879
 9446SOL    HW129237   6.576   5.645   4.799
 9446SOL    HW229238   6.576   5.783   4.885
 9447SOL     OW29239   5.789   4.708   3.796
 9447SOL    HW129240   5.812   4.718   3.893
 9447SOL    HW229241   5.700   4.748   3.778
 9448SOL     OW29242   6.623   0.202   5.984
 9448SOL    HW129243   6.561   0.157   6.047
 9448SOL    HW229244   6.691   0.137   5.951
 9449SOL     OW29245   5.397   6.447   0.193
 9449SOL    HW129246   5.356   6.454   0.284
 9449SOL    HW229247   5.325   6.449   0.123
 9450SOL     OW29248   2.402   5.830   3.240
 9450SOL    HW129249   2.368   5.862   3.152
 9450SOL    HW229250   2.461   5.900   3.280
 9451SOL     OW29251   3.944   5.619   5.169
 9451SOL    HW129252   3.995   5.533   5.176
 9451SOL    HW229253   3.859   5.604   5.120
 9452SOL     OW29254   1.599   4.303   0.096
 9452SOL    HW129255   1.538   4.226   0.116
 9452SOL    HW229256   1.686   4.268   0.062
 9453SOL     OW29257   2.955   5.635   2.656
 9453SOL    HW129258   2.968   5.720   2.707
 9453SOL    HW229259   2.997   5.560   2.705
 9454SOL     OW29260   3.792   3.671   6.564
 9454SOL    HW129261   3.782   3.770   6.559
 9454SOL    HW229262   3.862   3.641   6.499
 9455SOL     OW29263   2.659   2.100   3.118
 9455SOL    HW129264   2.720   2.168   3.159
 9455SOL    HW229265   2.589   2.075   3.184
 9456SOL     OW29266   6.825   3.686   0.879
 9456SOL    HW129267   6.846   3.784   0.889
 9456SOL    HW229268   6.809   3.646   0.969
 9457SOL     OW29269   0.798   4.750   4.451
 9457SOL    HW129270   0.831   4.716   4.362
 9457SOL    HW229271   0.712   4.706   4.473
 9458SOL     OW29272   0.617   3.965   7.020
 9458SOL    HW129273   0.686   3.936   6.954
 9458SOL    HW229274   0.526   3.946   6.983
 9459SOL     OW29275   5.413   4.720   4.397
 9459SOL    HW129276   5.351   4.783   4.444
 9459SOL    HW229277   5.381   4.626   4.409
 9460SOL     OW29278   2.115   3.685   4.835
 9460SOL    HW129279   2.016   3.694   4.827
 9460SOL    HW229280   2.141   3.589   4.821
 9461SOL     OW29281   0.482   2.035   1.711
 9461SOL    HW129282   0.482   1.941   1.678
 9461SOL    HW229283   0.455   2.096   1.637
 9462SOL     OW29284   1.286   2.910   3.685
 9462SOL    HW129285   1.375   2.865   3.684
 9462SOL    HW229286   1.218   2.850   3.729
 9463SOL     OW29287   5.715   0.184   1.493
 9463SOL    HW129288   5.749   0.274   1.465
 9463SOL    HW229289   5.715   0.177   1.593
 9464SOL     OW29290   5.888   0.298   0.843
 9464SOL    HW129291   5.839   0.371   0.794
 9464SOL    HW229292   5.870   0.306   0.941
 9465SOL     OW29293   0.423   3.460   1.907
 9465SOL    HW129294   0.386   3.510   1.985
 9465SOL    HW229295   0.450   3.369   1.936
 9466SOL     OW29296   3.465   4.594   5.296
 9466SOL    HW129297   3.500   4.657   5.227
 9466SOL    HW229298   3.371   4.620   5.320
 9467SOL     OW29299   0.986   3.173   1.007
 9467SOL    HW129300   0.936   3.112   1.068
 9467SOL    HW229301   1.003   3.127   0.920
 9468SOL     OW29302   5.517   3.823   6.473
 9468SOL    HW129303   5.545   3.899   6.532
 9468SOL    HW229304   5.471   3.753   6.528
 9469SOL     OW29305   0.708   5.857   1.222
 9469SOL    HW129306   0.626   5.885   1.273
 9469SOL    HW229307   0.790   5.887   1.270
 9470SOL     OW29308   4.997   3.568   0.136
 9470SOL    HW129309   4.913   3.621   0.149
 9470SOL    HW229310   5.010   3.550   0.038
 9471SOL     OW29311   6.481   2.189   4.468
 9471SOL    HW129312   6.440   2.265   4.417
 9471SOL    HW229313   6.472   2.207   4.566
 9472SOL     OW29314   0.135   3.434   5.286
 9472SOL    HW129315   0.089   3.520   5.309
 9472SOL    HW229316   0.165   3.389   5.370
 9473SOL     OW29317   3.446   4.637   0.457
 9473SOL    HW129318   3.510   4.604   0.527
 9473SOL    HW229319   3.493   4.700   0.396
 9474SOL     OW29320   6.554   3.592   1.468
 9474SOL    HW129321   6.587   3.625   1.557
 9474SOL    HW229322   6.611   3.516   1.438
 9475SOL     OW29323   3.948   3.120   1.006
 9475SOL    HW129324   3.880   3.183   1.043
 9475SOL    HW229325   4.024   3.172   0.967
 9476SOL     OW29326   3.909   3.962   4.829
 9476SOL    HW129327   3.981   3.896   4.851
 9476SOL    HW229328   3.905   3.975   4.730
 9477SOL     OW29329   0.341   2.838   1.095
 9477SOL    HW129330   0.309   2.929   1.069
 9477SOL    HW229331   0.441   2.836   1.095
 9478SOL     OW29332   5.586   3.325   0.919
 9478SOL    HW129333   5.592   3.292   0.824
 9478SOL    HW229334   5.497   3.302   0.956
 9479SOL     OW29335   4.170   6.550   0.713
 9479SOL    HW129336   4.268   6.557   0.695
 9479SOL    HW229337   4.128   6.485   0.651
 9480SOL     OW29338   6.603   5.148   0.708
 9480SOL    HW129339   6.598   5.143   0.608
 9480SOL    HW229340   6.529   5.206   0.742
 9481SOL     OW29341   5.118   2.595   2.555
 9481SOL    HW129342   5.044   2.657   2.580
 9481SOL    HW229343   5.174   2.636   2.483
 9482SOL     OW29344   0.355   0.892   3.276
 9482SOL    HW129345   0.310   0.914   3.189
 9482SOL    HW229346   0.438   0.948   3.285
 9483SOL     OW29347   1.316   0.431   0.464
 9483SOL    HW129348   1.363   0.507   0.509
 9483SOL    HW229349   1.233   0.464   0.419
 9484SOL     OW29350   3.580   0.621   4.868
 9484SOL    HW129351   3.487   0.624   4.831
 9484SOL    HW229352   3.614   0.528   4.864
 9485SOL     OW29353   0.397   1.269   1.373
 9485SOL    HW129354   0.428   1.245   1.281
 9485SOL    HW229355   0.333   1.200   1.407
 9486SOL     OW29356   3.998   6.041   0.847
 9486SOL    HW129357   3.993   5.972   0.919
 9486SOL    HW229358   3.999   6.132   0.888
 9487SOL     OW29359   3.278   4.156   3.800
 9487SOL    HW129360   3.214   4.227   3.828
 9487SOL    HW229361   3.249   4.067   3.837
 9488SOL     OW29362   3.034   0.017   0.954
 9488SOL    HW129363   2.945   6.998   0.935
 9488SOL    HW229364   3.048   0.023   1.053
 9489SOL     OW29365   5.185   4.256   1.175
 9489SOL    HW129366   5.201   4.334   1.114
 9489SOL    HW229367   5.109   4.201   1.140
 9490SOL     OW29368   6.453   5.566   3.555
 9490SOL    HW129369   6.508   5.588   3.474
 9490SOL    HW229370   6.413   5.650   3.591
 9491SOL     OW29371   5.156   5.274   3.668
 9491SOL    HW129372   5.117   5.310   3.753
 9491SOL    HW229373   5.082   5.244   3.608
 9492SOL     OW29374   3.696   3.672   4.605
 9492SOL    HW129375   3.723   3.592   4.660
 9492SOL    HW229376   3.777   3.727   4.584
 9493SOL     OW29377   3.216   5.627   4.146
 9493SOL    HW129378   3.299   5.619   4.092
 9493SOL    HW229379   3.142   5.661   4.089
 9494SOL     OW29380   5.536   2.971   2.994
 9494SOL    HW129381   5.464   2.949   2.929
 9494SOL    HW229382   5.577   3.059   2.971
 9495SOL     OW29383   6.680   1.958   2.731
 9495SOL    HW129384   6.775   1.958   2.764
 9495SOL    HW229385   6.663   1.875   2.678
 9496SOL     OW29386   5.769   3.729   1.317
 9496SOL    HW129387   5.684   3.684   1.342
 9496SOL    HW229388   5.844   3.692   1.373
 9497SOL     OW29389   4.939   5.811   4.795
 9497SOL    HW129390   5.019   5.811   4.736
 9497SOL    HW229391   4.916   5.905   4.820
 9498SOL     OW29392   5.690   5.346   4.720
 9498SOL    HW129393   5.774   5.292   4.709
 9498SOL    HW229394   5.676   5.403   4.639
 9499SOL     OW29395   1.465   5.709   5.401
 9499SOL    HW129396   1.478   5.808   5.407
 9499SOL    HW229397   1.545   5.663   5.438
 9500SOL     OW29398   4.189   6.719   0.259
 9500SOL    HW129399   4.173   6.706   0.357
 9500SOL    HW229400   4.109   6.691   0.207
 9501SOL     OW29401   2.645   1.395   4.903
 9501SOL    HW129402   2.719   1.462   4.904
 9501SOL    HW229403   2.564   1.434   4.861
 9502SOL     OW29404   5.695   3.201   4.847
 9502SOL    HW129405   5.621   3.145   4.885
 9502SOL    HW229406   5.732   3.157   4.766
 9503SOL     OW29407   6.993   2.141   0.786
 9503SOL    HW129408   6.990   2.193   0.700
 9503SOL    HW229409   0.030   2.062   0.776
 9504SOL     OW29410   6.974   3.657   1.186
 9504SOL    HW129411   6.876   3.644   1.168
 9504SOL    HW229412   6.994   3.755   1.190
 9505SOL     OW29413   5.069   4.488   5.346
 9505SOL    HW129414   5.015   4.410   5.380
 9505SOL    HW229415   5.062   4.564   5.410
 9506SOL     OW29416   1.469   2.418   0.368
 9506SOL    HW129417   1.561   2.413   0.329
 9506SOL    HW229418   1.428   2.507   0.345
 9507SOL     OW29419   0.602   0.916   2.007
 9507SOL    HW129420   0.540   0.841   1.986
 9507SOL    HW229421   0.611   0.926   2.107
 9508SOL     OW29422   5.923   1.895   2.438
 9508SOL    HW129423   5.859   1.971   2.450
 9508SOL    HW229424   6.006   1.928   2.393
 9509SOL     OW29425   0.436   0.924   3.891
 9509SOL    HW129426   0.443   0.827   3.916
 9509SOL    HW229427   0.349   0.961   3.925
 9510SOL     OW29428   1.432   3.936   3.764
 9510SOL    HW129429   1.459   4.029   3.741
 9510SOL    HW229430   1.351   3.939   3.824
 9511SOL     OW29431   1.907   6.857   0.523
 9511SOL    HW129432   1.863   6.879   0.610
 9511SOL    HW229433   1.885   6.927   0.456
 9512SOL     OW29434   6.713   1.503   0.734
 9512SOL    HW129435   6.694   1.405   0.747
 9512SOL    HW229436   6.781   1.532   0.801
 9513SOL     OW29437   2.483   4.316   6.172
 9513SOL    HW129438   2.548   4.302   6.097
 9513SOL    HW229439   2.392   4.287   6.142
 9514SOL     OW29440   2.465   4.909   6.418
 9514SOL    HW129441   2.379   4.897   6.369
 9514SOL    HW229442   2.529   4.962   6.362
 9515SOL     OW29443   1.909   6.133   1.861
 9515SOL    HW129444   1.893   6.217   1.808
 9515SOL    HW229445   1.843   6.129   1.937
 9516SOL     OW29446   5.731   5.043   6.805
 9516SOL    HW129447   5.690   5.082   6.723
 9516SOL    HW229448   5.660   4.997   6.859
 9517SOL     OW29449   1.748   4.005   1.533
 9517SOL    HW129450   1.740   3.925   1.593
 9517SOL    HW229451   1.751   4.088   1.589
 9518SOL     OW29452   2.014   1.523   0.911
 9518SOL    HW129453   2.112   1.510   0.930
 9518SOL    HW229454   1.998   1.618   0.883
 9519SOL     OW29455   3.264   3.037   5.249
 9519SOL    HW129456   3.345   2.979   5.261
 9519SOL    HW229457   3.291   3.133   5.259
 9520SOL     OW29458   2.630   1.082   2.989
 9520SOL    HW129459   2.724   1.050   3.003
 9520SOL    HW229460   2.631   1.176   2.956
 9521SOL     OW29461   5.053   5.993   2.689
 9521SOL    HW129462   5.031   6.056   2.615
 9521SOL    HW229463   5.152   5.978   2.692
 9522SOL     OW29464   2.922   5.626   1.208
 9522SOL    HW129465   2.949   5.566   1.133
 9522SOL    HW229466   2.981   5.611   1.287
 9523SOL     OW29467   3.822   5.174   4.596
 9523SOL    HW129468   3.807   5.077   4.576
 9523SOL    HW229469   3.792   5.229   4.519
 9524SOL     OW29470   4.042   2.235   1.144
 9524SOL    HW129471   4.057   2.137   1.129
 9524SOL    HW229472   4.121   2.274   1.191
 9525SOL     OW29473   2.947   2.914   5.737
 9525SOL    HW129474   2.921   2.970   5.658
 9525SOL    HW229475   3.029   2.862   5.714
 9526SOL     OW29476   5.129   5.783   1.976
 9526SOL    HW129477   5.109   5.873   1.939
 9526SOL    HW229478   5.048   5.725   1.968
 9527SOL     OW29479   0.465   0.153   2.631
 9527SOL    HW129480   0.548   0.138   2.685
 9527SOL    HW229481   0.384   0.139   2.689
 9528SOL     OW29482   0.013   0.612   0.661
 9528SOL    HW129483   0.037   0.652   0.749
 9528SOL    HW229484   6.962   0.664   0.619
 9529SOL     OW29485   6.378   2.969   5.368
 9529SOL    HW129486   6.420   3.057   5.343
 9529SOL    HW229487   6.317   2.939   5.295
 9530SOL     OW29488   1.936   3.051   3.169
 9530SOL    HW129489   2.010   3.033   3.233
 9530SOL    HW229490   1.947   2.995   3.088
 9531SOL     OW29491   4.160   5.922   2.979
 9531SOL    HW129492   4.145   5.866   3.061
 9531SOL    HW229493   4.254   5.910   2.947
 9532SOL     OW29494   0.775   6.823   1.811
 9532SOL    HW129495   0.744   6.738   1.853
 9532SOL    HW229496   0.738   6.901   1.862
 9533SOL     OW29497   6.811   0.630   4.907
 9533SOL    HW129498   6.746   0.637   4.983
 9533SOL    HW229499   6.775   0.681   4.829
 9534SOL     OW29500   5.782   3.087   5.211
 9534SOL    HW129501   5.760   3.174   5.167
 9534SOL    HW229502   5.878   3.089   5.240
 9535SOL     OW29503   2.562   1.125   5.650
 9535SOL    HW129504   2.608   1.205   5.610
 9535SOL    HW229505   2.465   1.128   5.627
 9536SOL     OW29506   3.246   5.024   5.185
 9536SOL    HW129507   3.211   4.930   5.178
 9536SOL    HW229508   3.330   5.024   5.239
 9537SOL     OW29509   2.405   6.913   2.197
 9537SOL    HW129510   2.376   6.947   2.107
 9537SOL    HW229511   2.498   6.944   2.217
 9538SOL     OW29512   6.476   1.885   4.194
 9538SOL    HW129513   6.567   1.922   4.174
 9538SOL    HW229514   6.433   1.854   4.109
 9539SOL     OW29515   2.099   3.707   5.421
 9539SOL    HW129516   2.034   3.644   5.380
 9539SOL    HW229517   2.171   3.728   5.355
 9540SOL     OW29518   4.761   4.151   4.749
 9540SOL    HW129519   4.776   4.112   4.840
 9540SOL    HW229520   4.702   4.231   4.755
 9541SOL     OW29521   2.374   1.811   5.649
 9541SOL    HW129522   2.412   1.880   5.587
 9541SOL    HW229523   2.354   1.853   5.737
 9542SOL     OW29524   4.816   4.049   5.020
 9542SOL    HW129525   4.815   3.957   5.059
 9542SOL    HW229526   4.798   4.116   5.092
 9543SOL     OW29527   3.444   1.035   4.376
 9543SOL    HW129528   3.414   1.129   4.364
 9543SOL    HW229529   3.444   0.988   4.288
 9544SOL     OW29530   0.086   1.355   2.348
 9544SOL    HW129531   0.038   1.395   2.426
 9544SOL    HW229532   0.024   1.350   2.269
 9545SOL     OW29533   6.546   4.618   3.771
 9545SOL    HW129534   6.615   4.551   3.746
 9545SOL    HW229535   6.586   4.710   3.772
 9546SOL     OW29536   2.718   2.753   5.796
 9546SOL    HW129537   2.735   2.699   5.878
 9546SOL    HW229538   2.804   2.793   5.764
 9547SOL     OW29539   1.541   6.023   3.992
 9547SOL    HW129540   1.617   5.971   3.952
 9547SOL    HW229541   1.574   6.070   4.074
 9548SOL     OW29542   6.366   6.051   5.075
 9548SOL    HW129543   6.334   6.020   4.986
 9548SOL    HW229544   6.445   6.111   5.063
 9549SOL     OW29545   2.715   4.100   1.509
 9549SOL    HW129546   2.659   4.121   1.429
 9549SOL    HW229547   2.692   4.009   1.543
 9550SOL     OW29548   6.978   1.327   6.929
 9550SOL    HW129549   6.953   1.234   6.901
 9550SOL    HW229550   6.928   1.393   6.873
 9551SOL     OW29551   0.118   0.143   4.412
 9551SOL    HW129552   0.124   0.219   4.477
 9551SOL    HW229553   0.039   0.086   4.435
 9552SOL     OW29554   0.617   6.219   2.144
 9552SOL    HW129555   0.647   6.266   2.227
 9552SOL    HW229556   0.566   6.136   2.168
 9553SOL     OW29557   6.164   4.061   6.461
 9553SOL    HW129558   6.190   4.121   6.537
 9553SOL    HW229559   6.197   4.100   6.375
 9554SOL     OW29560   2.607   0.717   1.267
 9554SOL    HW129561   2.595   0.753   1.359
 9554SOL    HW229562   2.544   0.764   1.205
 9555SOL     OW29563   0.149   1.185   0.953
 9555SOL    HW129564   0.070   1.227   0.907
 9555SOL    HW229565   0.201   1.255   1.001
 9556SOL     OW29566   2.387   2.778   1.131
 9556SOL    HW129567   2.436   2.769   1.044
 9556SOL    HW229568   2.353   2.688   1.159
 9557SOL     OW29569   6.342   0.857   2.756
 9557SOL    HW129570   6.343   0.956   2.740
 9557SOL    HW229571   6.250   0.830   2.787
 9558SOL     OW29572   5.477   5.153   4.258
 9558SOL    HW129573   5.444   5.066   4.223
 9558SOL    HW229574   5.494   5.145   4.356
 9559SOL     OW29575   0.101   3.502   1.599
 9559SOL    HW129576   0.179   3.551   1.637
 9559SOL    HW229577   0.029   3.568   1.575
 9560SOL     OW29578   1.032   1.674   2.471
 9560SOL    HW129579   1.099   1.634   2.408
 9560SOL    HW229580   1.063   1.660   2.565
 9561SOL     OW29581   1.956   6.737   0.889
 9561SOL    HW129582   2.031   6.671   0.875
 9561SOL    HW229583   1.874   6.703   0.844
 9562SOL     OW29584   3.307   6.575   5.111
 9562SOL    HW129585   3.265   6.496   5.066
 9562SOL    HW229586   3.284   6.658   5.059
 9563SOL     OW29587   6.556   6.357   6.945
 9563SOL    HW129588   6.581   6.452   6.926
 9563SOL    HW229589   6.591   6.299   6.871
 9564SOL     OW29590   2.513   0.176   6.567
 9564SOL    HW129591   2.499   0.201   6.663
 9564SOL    HW229592   2.547   0.256   6.517
 9565SOL     OW29593   4.562   5.962   5.057
 9565SOL    HW129594   4.471   5.997   5.077
 9565SOL    HW229595   4.618   5.967   5.140
 9566SOL     OW29596   3.215   4.603   0.769
 9566SOL    HW129597   3.221   4.577   0.673
 9566SOL    HW229598   3.178   4.527   0.823
 9567SOL     OW29599   6.494   5.609   6.343
 9567SOL    HW129600   6.405   5.650   6.362
 9567SOL    HW229601   6.490   5.511   6.359
 9568SOL     OW29602   4.485   2.593   5.912
 9568SOL    HW129603   4.459   2.656   5.839
 9568SOL    HW229604   4.576   2.618   5.946
 9569SOL     OW29605   6.792   0.904   1.287
 9569SOL    HW129606   6.835   0.942   1.205
 9569SOL    HW229607   6.745   0.977   1.337
 9570SOL     OW29608   1.225   2.107   1.625
 9570SOL    HW129609   1.258   2.064   1.540
 9570SOL    HW229610   1.277   2.190   1.643
 9571SOL     OW29611   2.893   3.464   6.912
 9571SOL    HW129612   2.901   3.472   6.812
 9571SOL    HW229613   2.946   3.536   6.955
 9572SOL     OW29614   2.113   5.454   0.659
 9572SOL    HW129615   2.025   5.454   0.610
 9572SOL    HW229616   2.182   5.500   0.603
 9573SOL     OW29617   0.473   1.706   6.621
 9573SOL    HW129618   0.422   1.733   6.703
 9573SOL    HW229619   0.409   1.694   6.545
 9574SOL     OW29620   4.069   3.259   4.749
 9574SOL    HW129621   4.041   3.175   4.703
 9574SOL    HW229622   4.045   3.253   4.846
 9575SOL     OW29623   5.402   0.641   0.902
 9575SOL    HW129624   5.421   0.703   0.826
 9575SOL    HW229625   5.306   0.650   0.929
 9576SOL     OW29626   3.262   1.815   2.808
 9576SOL    HW129627   3.350   1.789   2.846
 9576SOL    HW229628   3.212   1.871   2.874
 9577SOL     OW29629   1.444   0.443   2.616
 9577SOL    HW129630   1.494   0.435   2.529
 9577SOL    HW229631   1.363   0.500   2.602
 9578SOL     OW29632   6.567   3.525   3.019
 9578SOL    HW129633   6.609   3.499   2.932
 9578SOL    HW229634   6.615   3.604   3.057
 9579SOL     OW29635   1.269   6.409   2.715
 9579SOL    HW129636   1.234   6.370   2.630
 9579SOL    HW229637   1.195   6.414   2.783
 9580SOL     OW29638   5.377   3.500   0.238
 9580SOL    HW129639   5.299   3.452   0.279
 9580SOL    HW229640   5.373   3.491   0.139
 9581SOL     OW29641   2.125   4.967   6.052
 9581SOL    HW129642   2.034   4.987   6.016
 9581SOL    HW229643   2.154   5.041   6.112
 9582SOL     OW29644   4.275   4.736   4.419
 9582SOL    HW129645   4.194   4.781   4.456
 9582SOL    HW229646   4.253   4.698   4.329
 9583SOL     OW29647   2.110   3.211   1.607
 9583SOL    HW129648   2.090   3.268   1.686
 9583SOL    HW229649   2.071   3.120   1.620
 9584SOL     OW29650   5.649   5.928   6.838
 9584SOL    HW129651   5.641   5.924   6.937
 9584SOL    HW229652   5.745   5.947   6.813
 9585SOL     OW29653   6.536   0.665   2.841
 9585SOL    HW129654   6.492   0.754   2.850
 9585SOL    HW229655   6.514   0.625   2.752
 9586SOL     OW29656   5.568   4.399   2.498
 9586SOL    HW129657   5.585   4.305   2.528
 9586SOL    HW229658   5.471   4.419   2.503
 9587SOL     OW29659   6.546   0.325   2.410
 9587SOL    HW129660   6.535   0.233   2.371
 9587SOL    HW229661   6.643   0.346   2.418
 9588SOL     OW29662   0.558   1.188   1.946
 9588SOL    HW129663   0.557   1.090   1.966
 9588SOL    HW229664   0.594   1.238   2.025
 9589SOL     OW29665   2.693   5.532   6.944
 9589SOL    HW129666   2.680   5.630   6.957
 9589SOL    HW229667   2.619   5.495   6.887
 9590SOL     OW29668   0.337   4.754   2.401
 9590SOL    HW129669   0.278   4.829   2.434
 9590SOL    HW229670   0.420   4.792   2.362
 9591SOL     OW29671   3.116   6.133   0.145
 9591SOL    HW129672   3.111   6.037   0.173
 9591SOL    HW229673   3.050   6.150   0.072
 9592SOL     OW29674   3.861   5.390   2.334
 9592SOL    HW129675   3.893   5.299   2.307
 9592SOL    HW229676   3.928   5.431   2.396
 9593SOL     OW29677   5.231   1.278   4.765
 9593SOL    HW129678   5.272   1.323   4.686
 9593SOL    HW229679   5.188   1.192   4.735
 9594SOL     OW29680   6.912   6.176   3.319
 9594SOL    HW129681   6.935   6.081   3.341
 9594SOL    HW229682   6.868   6.218   3.398
 9595SOL     OW29683   2.199   5.037   4.806
 9595SOL    HW129684   2.247   5.086   4.880
 9595SOL    HW229685   2.101   5.042   4.821
 9596SOL     OW29686   0.418   4.890   6.368
 9596SOL    HW129687   0.336   4.906   6.314
 9596SOL    HW229688   0.460   4.977   6.393
 9597SOL     OW29689   0.236   3.760   1.314
 9597SOL    HW129690   0.260   3.689   1.248
 9597SOL    HW229691   0.157   3.811   1.281
 9598SOL     OW29692   0.706   4.019   5.565
 9598SOL    HW129693   0.611   4.049   5.566
 9598SOL    HW229694   0.744   4.032   5.473
 9599SOL     OW29695   3.452   0.915   5.010
 9599SOL    HW129696   3.547   0.929   4.984
 9599SOL    HW229697   3.393   0.927   4.929
 9600SOL     OW29698   1.790   0.252   5.812
 9600SOL    HW129699   1.699   0.283   5.784
 9600SOL    HW229700   1.795   0.250   5.912
 9601SOL     OW29701   6.257   4.130   6.194
 9601SOL    HW129702   6.357   4.139   6.202
 9601SOL    HW229703   6.230   4.147   6.099
 9602SOL     OW29704   7.009   4.836   6.831
 9602SOL    HW129705   0.043   4.914   6.803
 9602SOL    HW229706   6.912   4.860   6.820
 9603SOL     OW29707   2.142   6.830   4.631
 9603SOL    HW129708   2.104   6.798   4.717
 9603SOL    HW229709   2.225   6.883   4.649
 9604SOL     OW29710   5.303   0.599   6.920
 9604SOL    HW129711   5.244   0.544   6.861
 9604SOL    HW229712   5.335   0.679   6.868
 9605SOL     OW29713   0.852   5.020   5.476
 9605SOL    HW129714   0.780   4.970   5.428
 9605SOL    HW229715   0.852   4.996   5.572
 9606SOL     OW29716   1.224   0.033   4.044
 9606SOL    HW129717   1.212   0.066   4.137
 9606SOL    HW229718   1.197   6.959   4.039
 9607SOL     OW29719   1.124   1.687   1.876
 9607SOL    HW129720   1.147   1.732   1.963
 9607SOL    HW229721   1.066   1.607   1.894
 9608SOL     OW29722   6.912   6.940   2.669
 9608SOL    HW129723   6.871   7.018   2.622
 9608SOL    HW229724   6.976   6.894   2.608
 9609SOL     OW29725   1.147   3.890   4.385
 9609SOL    HW129726   1.168   3.797   4.414
 9609SOL    HW229727   1.067   3.889   4.325
 9610SOL     OW29728   1.023   3.182   5.326
 9610SOL    HW129729   1.020   3.190   5.426
 9610SOL    HW229730   0.932   3.161   5.292
 9611SOL     OW29731   6.997   6.517   1.207
 9611SOL    HW129732   0.012   6.604   1.175
 9611SOL    HW229733   6.897   6.524   1.212
 9612SOL     OW29734   6.365   2.952   0.585
 9612SOL    HW129735   6.338   2.990   0.496
 9612SOL    HW229736   6.433   3.012   0.627
 9613SOL     OW29737   5.647   6.250   4.409
 9613SOL    HW129738   5.625   6.346   4.423
 9613SOL    HW229739   5.613   6.220   4.320
 9614SOL     OW29740   4.195   3.637   1.808
 9614SOL    HW129741   4.205   3.551   1.757
 9614SOL    HW229742   4.281   3.688   1.804
 9615SOL     OW29743   2.152   5.817   3.341
 9615SOL    HW129744   2.245   5.799   3.311
 9615SOL    HW229745   2.089   5.755   3.294
 9616SOL     OW29746   4.119   3.030   1.299
 9616SOL    HW129747   4.187   3.073   1.239
 9616SOL    HW229748   4.121   2.931   1.284
 9617SOL     OW29749   1.303   3.691   3.637
 9617SOL    HW129750   1.363   3.617   3.668
 9617SOL    HW229751   1.358   3.771   3.615
 9618SOL     OW29752   3.256   0.781   6.616
 9618SOL    HW129753   3.261   0.821   6.525
 9618SOL    HW229754   3.342   0.735   6.638
 9619SOL     OW29755   0.820   6.593   1.061
 9619SOL    HW129756   0.841   6.566   0.967
 9619SOL    HW229757   0.767   6.521   1.106
 9620SOL     OW29758   4.160   1.226   6.749
 9620SOL    HW129759   4.100   1.147   6.762
 9620SOL    HW229760   4.218   1.211   6.669
 9621SOL     OW29761   1.470   0.919   1.700
 9621SOL    HW129762   1.386   0.963   1.668
 9621SOL    HW229763   1.525   0.891   1.621
 9622SOL     OW29764   6.575   0.825   6.525
 9622SOL    HW129765   6.529   0.905   6.563
 9622SOL    HW229766   6.651   0.854   6.467
 9623SOL     OW29767   4.520   5.398   6.884
 9623SOL    HW129768   4.483   5.441   6.966
 9623SOL    HW229769   4.618   5.418   6.876
 9624SOL     OW29770   5.005   4.622   5.977
 9624SOL    HW129771   4.984   4.650   5.883
 9624SOL    HW229772   4.991   4.523   5.986
 9625SOL     OW29773   4.734   4.448   6.611
 9625SOL    HW129774   4.726   4.351   6.633
 9625SOL    HW229775   4.721   4.461   6.513
 9626SOL     OW29776   1.864   5.282   4.390
 9626SOL    HW129777   1.864   5.370   4.437
 9626SOL    HW229778   1.950   5.234   4.407
 9627SOL     OW29779   1.013   4.445   4.800
 9627SOL    HW129780   0.929   4.457   4.852
 9627SOL    HW229781   1.080   4.396   4.856
 9628SOL     OW29782   6.057   3.848   0.751
 9628SOL    HW129783   6.133   3.867   0.689
 9628SOL    HW229784   6.055   3.917   0.823
 9629SOL     OW29785   6.695   6.538   3.588
 9629SOL    HW129786   6.754   6.618   3.578
 9629SOL    HW229787   6.610   6.553   3.538
 9630SOL     OW29788   5.955   5.576   5.230
 9630SOL    HW129789   5.898   5.540   5.156
 9630SOL    HW229790   5.939   5.674   5.239
 9631SOL     OW29791   4.625   1.028   1.774
 9631SOL    HW129792   4.638   0.956   1.843
 9631SOL    HW229793   4.698   1.022   1.706
 9632SOL     OW29794   2.136   5.415   1.623
 9632SOL    HW129795   2.119   5.507   1.589
 9632SOL    HW229796   2.112   5.410   1.720
 9633SOL     OW29797   4.319   3.057   1.522
 9633SOL    HW129798   4.411   3.067   1.484
 9633SOL    HW229799   4.252   3.067   1.448
 9634SOL     OW29800   5.959   5.046   3.142
 9634SOL    HW129801   6.009   4.961   3.160
 9634SOL    HW229802   6.020   5.113   3.100
 9635SOL     OW29803   0.087   4.750   5.309
 9635SOL    HW129804   0.006   4.742   5.251
 9635SOL    HW229805   0.099   4.665   5.361
 9636SOL     OW29806   3.755   1.229   6.210
 9636SOL    HW129807   3.671   1.283   6.203
 9636SOL    HW229808   3.731   1.132   6.214
 9637SOL     OW29809   3.343   3.301   1.501
 9637SOL    HW129810   3.272   3.370   1.491
 9637SOL    HW229811   3.341   3.265   1.594
 9638SOL     OW29812   6.857   4.116   6.309
 9638SOL    HW129813   6.940   4.146   6.263
 9638SOL    HW229814   6.862   4.017   6.326
 9639SOL     OW29815   4.585   2.805   1.671
 9639SOL    HW129816   4.593   2.883   1.733
 9639SOL    HW229817   4.641   2.822   1.590
 9640SOL     OW29818   3.906   1.662   2.003
 9640SOL    HW129819   3.896   1.589   2.070
 9640SOL    HW229820   3.985   1.644   1.945
 9641SOL     OW29821   4.716   6.162   2.733
 9641SOL    HW129822   4.766   6.197   2.812
 9641SOL    HW229823   4.741   6.216   2.652
 9642SOL     OW29824   1.205   0.118   4.335
 9642SOL    HW129825   1.270   0.188   4.305
 9642SOL    HW229826   1.231   0.085   4.426
 9643SOL     OW29827   5.145   3.968   3.813
 9643SOL    HW129828   5.172   3.893   3.752
 9643SOL    HW229829   5.070   4.019   3.771
 9644SOL     OW29830   2.208   5.868   4.951
 9644SOL    HW129831   2.293   5.910   4.917
 9644SOL    HW229832   2.160   5.935   5.008
 9645SOL     OW29833   1.006   3.768   5.140
 9645SOL    HW129834   1.036   3.836   5.073
 9645SOL    HW229835   1.086   3.719   5.176
 9646SOL     OW29836   2.854   6.106   3.248
 9646SOL    HW129837   2.795   6.181   3.278
 9646SOL    HW229838   2.942   6.143   3.219
 9647SOL     OW29839   7.006   6.405   2.920
 9647SOL    HW129840   0.013   6.466   2.994
 9647SOL    HW229841   0.014   6.311   2.940
 9648SOL     OW29842   5.354   3.241   1.027
 9648SOL    HW129843   5.299   3.261   1.108
 9648SOL    HW229844   5.350   3.144   1.007
 9649SOL     OW29845   2.492   3.887   6.398
 9649SOL    HW129846   2.466   3.908   6.304
 9649SOL    HW229847   2.592   3.892   6.407
 9650SOL     OW29848   4.963   4.694   3.450
 9650SOL    HW129849   4.902   4.708   3.528
 9650SOL    HW229850   5.051   4.740   3.469
 9651SOL     OW29851   3.929   1.456   1.579
 9651SOL    HW129852   3.890   1.370   1.547
 9651SOL    HW229853   3.895   1.476   1.671
 9652SOL     OW29854   0.550   4.769   1.030
 9652SOL    HW129855   0.599   4.682   1.031
 9652SOL    HW229856   0.615   4.844   1.037
 9653SOL     OW29857   4.396   4.331   6.128
 9653SOL    HW129858   4.478   4.273   6.131
 9653SOL    HW229859   4.414   4.417   6.176
 9654SOL     OW29860   3.186   3.384   2.387
 9654SOL    HW129861   3.275   3.355   2.352
 9654SOL    HW229862   3.122   3.307   2.382
 9655SOL     OW29863   0.087   1.926   0.607
 9655SOL    HW129864   0.096   1.840   0.658
 9655SOL    HW229865   0.027   1.911   0.529
 9656SOL     OW29866   4.852   2.001   0.876
 9656SOL    HW129867   4.842   2.085   0.930
 9656SOL    HW229868   4.766   1.951   0.876
 9657SOL     OW29869   5.391   4.143   3.557
 9657SOL    HW129870   5.386   4.233   3.601
 9657SOL    HW229871   5.485   4.110   3.560
 9658SOL     OW29872   5.708   2.057   2.502
 9658SOL    HW129873   5.655   2.075   2.585
 9658SOL    HW229874   5.707   2.137   2.443
 9659SOL     OW29875   1.352   2.270   0.176
 9659SOL    HW129876   1.405   2.208   0.118
 9659SOL    HW229877   1.411   2.308   0.247
 9660SOL     OW29878   0.502   0.485   1.525
 9660SOL    HW129879   0.440   0.460   1.599
 9660SOL    HW229880   0.584   0.428   1.530
 9661SOL     OW29881   4.555   5.907   1.191
 9661SOL    HW129882   4.554   5.890   1.092
 9661SOL    HW229883   4.603   5.833   1.237
 9662SOL     OW29884   5.085   3.587   0.706
 9662SOL    HW129885   5.162   3.524   0.720
 9662SOL    HW229886   5.120   3.680   0.692
 9663SOL     OW29887   0.272   5.287   2.390
 9663SOL    HW129888   0.261   5.283   2.489
 9663SOL    HW229889   0.254   5.381   2.358
 9664SOL     OW29890   5.470   3.953   5.082
 9664SOL    HW129891   5.404   3.890   5.041
 9664SOL    HW229892   5.432   4.046   5.078
 9665SOL     OW29893   6.404   6.170   5.954
 9665SOL    HW129894   6.375   6.089   5.903
 9665SOL    HW229895   6.499   6.160   5.982
 9666SOL     OW29896   5.906   3.903   2.075
 9666SOL    HW129897   5.966   3.983   2.077
 9666SOL    HW229898   5.920   3.854   1.989
 9667SOL     OW29899   4.479   3.881   1.342
 9667SOL    HW129900   4.510   3.794   1.304
 9667SOL    HW229901   4.388   3.871   1.381
 9668SOL     OW29902   1.742   1.305   6.213
 9668SOL    HW129903   1.668   1.366   6.240
 9668SOL    HW229904   1.704   1.218   6.180
 9669SOL     OW29905   1.917   6.816   1.142
 9669SOL    HW129906   1.946   6.800   1.048
 9669SOL    HW229907   1.911   6.729   1.191
 9670SOL     OW29908   0.425   5.498   5.202
 9670SOL    HW129909   0.365   5.497   5.122
 9670SOL    HW229910   0.472   5.587   5.207
 9671SOL     OW29911   6.774   4.712   0.448
 9671SOL    HW129912   6.702   4.745   0.386
 9671SOL    HW229913   6.863   4.721   0.402
 9672SOL     OW29914   1.564   4.666   3.373
 9672SOL    HW129915   1.632   4.738   3.387
 9672SOL    HW229916   1.486   4.681   3.433
 9673SOL     OW29917   3.834   3.520   0.965
 9673SOL    HW129918   3.835   3.473   1.053
 9673SOL    HW229919   3.832   3.453   0.891
 9674SOL     OW29920   3.905   6.686   2.996
 9674SOL    HW129921   3.809   6.688   3.025
 9674SOL    HW229922   3.960   6.740   3.060
 9675SOL     OW29923   4.887   3.012   6.508
 9675SOL    HW129924   4.880   2.935   6.446
 9675SOL    HW229925   4.813   3.077   6.490
 9676SOL     OW29926   1.702   3.660   5.421
 9676SOL    HW129927   1.753   3.581   5.457
 9676SOL    HW229928   1.766   3.726   5.383
 9677SOL     OW29929   6.840   5.044   6.309
 9677SOL    HW129930   6.867   5.131   6.266
 9677SOL    HW229931   6.901   5.025   6.385
 9678SOL     OW29932   3.002   3.777   4.318
 9678SOL    HW129933   2.957   3.778   4.229
 9678SOL    HW229934   3.049   3.689   4.331
 9679SOL     OW29935   2.770   0.642   4.228
 9679SOL    HW129936   2.812   0.553   4.244
 9679SOL    HW229937   2.834   0.715   4.254
 9680SOL     OW29938   4.563   0.298   5.508
 9680SOL    HW129939   4.530   0.211   5.544
 9680SOL    HW229940   4.651   0.284   5.462
 9681SOL     OW29941   3.421   1.907   0.620
 9681SOL    HW129942   3.448   2.003   0.610
 9681SOL    HW229943   3.336   1.901   0.671
 9682SOL     OW29944   4.836   4.014   3.769
 9682SOL    HW129945   4.878   3.923   3.764
 9682SOL    HW229946   4.818   4.036   3.865
 9683SOL     OW29947   3.463   5.894   0.288
 9683SOL    HW129948   3.427   5.976   0.333
 9683SOL    HW229949   3.433   5.813   0.338
 9684SOL     OW29950   0.982   4.319   5.213
 9684SOL    HW129951   1.064   4.301   5.160
 9684SOL    HW229952   0.939   4.232   5.239
 9685SOL     OW29953   4.873   3.449   0.498
 9685SOL    HW129954   4.801   3.398   0.451
 9685SOL    HW229955   4.832   3.522   0.553
 9686SOL     OW29956   0.486   2.995   6.827
 9686SOL    HW129957   0.496   2.932   6.904
 9686SOL    HW229958   0.552   3.069   6.836
 9687SOL     OW29959   6.401   0.884   2.286
 9687SOL    HW129960   6.384   0.914   2.192
 9687SOL    HW229961   6.497   0.860   2.298
 9688SOL     OW29962   1.157   3.470   0.462
 9688SOL    HW129963   1.089   3.425   0.521
 9688SOL    HW229964   1.129   3.462   0.367
 9689SOL     OW29965   0.421   4.566   6.995
 9689SOL    HW129966   0.481   4.619   6.935
 9689SOL    HW229967   0.477   4.511   0.034
 9690SOL     OW29968   5.062   6.409   5.482
 9690SOL    HW129969   5.148   6.371   5.449
 9690SOL    HW229970   4.997   6.415   5.406
 9691SOL     OW29971   2.919   3.856   1.759
 9691SOL    HW129972   2.980   3.931   1.785
 9691SOL    HW229973   2.918   3.788   1.833
 9692SOL     OW29974   4.563   5.901   0.895
 9692SOL    HW129975   4.473   5.899   0.937
 9692SOL    HW229976   4.576   5.818   0.840
 9693SOL     OW29977   5.875   4.173   3.491
 9693SOL    HW129978   5.809   4.158   3.418
 9693SOL    HW229979   5.831   4.157   3.580
 9694SOL     OW29980   3.601   1.231   2.455
 9694SOL    HW129981   3.641   1.171   2.524
 9694SOL    HW229982   3.526   1.185   2.408
 9695SOL     OW29983   6.590   2.792   3.192
 9695SOL    HW129984   6.546   2.706   3.217
 9695SOL    HW229985   6.638   2.782   3.106
 9696SOL     OW29986   5.925   3.078   1.685
 9696SOL    HW129987   5.870   3.024   1.749
 9696SOL    HW229988   5.880   3.081   1.596
 9697SOL     OW29989   0.901   6.155   0.420
 9697SOL    HW129990   0.998   6.169   0.401
 9697SOL    HW229991   0.859   6.242   0.445
 9698SOL     OW29992   5.135   2.877   5.806
 9698SOL    HW129993   5.205   2.938   5.767
 9698SOL    HW229994   5.044   2.914   5.786
 9699SOL     OW29995   0.259   5.615   0.306
 9699SOL    HW129996   0.240   5.673   0.385
 9699SOL    HW229997   0.358   5.611   0.292
 9700SOL     OW29998   6.507   5.299   4.542
 9700SOL    HW129999   6.450   5.343   4.473
 9700SOL    HW230000   6.548   5.369   4.600
 9701SOL     OW30001   4.358   3.953   5.816
 9701SOL    HW130002   4.438   3.915   5.861
 9701SOL    HW230003   4.358   3.927   5.720
 9702SOL     OW30004   4.165   1.857   0.410
 9702SOL    HW130005   4.225   1.910   0.469
 9702SOL    HW230006   4.070   1.879   0.430
 9703SOL     OW30007   4.929   3.741   3.740
 9703SOL    HW130008   4.929   3.757   3.642
 9703SOL    HW230009   4.934   3.642   3.758
 9704SOL     OW30010   3.518   5.837   2.097
 9704SOL    HW130011   3.476   5.918   2.137
 9704SOL    HW230012   3.613   5.831   2.126
 9705SOL     OW30013   5.611   4.366   6.136
 9705SOL    HW130014   5.535   4.384   6.197
 9705SOL    HW230015   5.616   4.268   6.116
 9706SOL     OW30016   2.787   2.000   1.387
 9706SOL    HW130017   2.700   2.050   1.379
 9706SOL    HW230018   2.823   1.981   1.295
 9707SOL     OW30019   5.151   5.219   2.582
 9707SOL    HW130020   5.149   5.124   2.614
 9707SOL    HW230021   5.202   5.275   2.648
 9708SOL     OW30022   0.923   1.372   3.557
 9708SOL    HW130023   0.910   1.299   3.489
 9708SOL    HW230024   0.893   1.338   3.646
 9709SOL     OW30025   5.162   4.928   2.149
 9709SOL    HW130026   5.202   4.879   2.226
 9709SOL    HW230027   5.069   4.895   2.133
 9710SOL     OW30028   6.349   1.160   1.278
 9710SOL    HW130029   6.339   1.204   1.367
 9710SOL    HW230030   6.442   1.174   1.244
 9711SOL     OW30031   4.227   5.252   6.338
 9711SOL    HW130032   4.287   5.197   6.397
 9711SOL    HW230033   4.162   5.302   6.394
 9712SOL     OW30034   5.774   3.369   6.966
 9712SOL    HW130035   5.853   3.410   6.920
 9712SOL    HW230036   5.769   3.272   6.942
 9713SOL     OW30037   2.522   5.099   3.246
 9713SOL    HW130038   2.509   5.038   3.168
 9713SOL    HW230039   2.443   5.093   3.307
 9714SOL     OW30040   4.191   6.647   6.259
 9714SOL    HW130041   4.102   6.613   6.229
 9714SOL    HW230042   4.260   6.577   6.242
 9715SOL     OW30043   5.775   4.035   0.212
 9715SOL    HW130044   5.698   3.983   0.174
 9715SOL    HW230045   5.742   4.122   0.249
 9716SOL     OW30046   3.834   4.448   7.003
 9716SOL    HW130047   3.922   4.463   6.957
 9716SOL    HW230048   3.804   4.354   6.988
 9717SOL     OW30049   4.902   6.268   6.074
 9717SOL    HW130050   4.932   6.302   6.163
 9717SOL    HW230051   4.815   6.309   6.050
 9718SOL     OW30052   4.997   3.124   1.493
 9718SOL    HW130053   4.912   3.105   1.445
 9718SOL    HW230054   4.989   3.095   1.589
 9719SOL     OW30055   5.599   0.094   5.917
 9719SOL    HW130056   5.616   0.104   5.819
 9719SOL    HW230057   5.517   0.146   5.942
 9720SOL     OW30058   0.805   3.581   2.150
 9720SOL    HW130059   0.883   3.525   2.126
 9720SOL    HW230060   0.794   3.582   2.249
 9721SOL     OW30061   6.891   1.015   6.930
 9721SOL    HW130062   6.799   1.022   6.891
 9721SOL    HW230063   6.944   0.947   6.878
 9722SOL     OW30064   3.529   1.094   5.254
 9722SOL    HW130065   3.563   1.000   5.266
 9722SOL    HW230066   3.482   1.102   5.167
 9723SOL     OW30067   4.317   5.770   4.187
 9723SOL    HW130068   4.372   5.784   4.268
 9723SOL    HW230069   4.222   5.796   4.206
 9724SOL     OW30070   1.602   4.623   0.477
 9724SOL    HW130071   1.635   4.685   0.406
 9724SOL    HW230072   1.514   4.657   0.513
 9725SOL     OW30073   4.017   6.472   6.102
 9725SOL    HW130074   3.941   6.409   6.099
 9725SOL    HW230075   4.088   6.443   6.038
 9726SOL     OW30076   4.335   1.491   4.059
 9726SOL    HW130077   4.385   1.410   4.093
 9726SOL    HW230078   4.240   1.486   4.088
 9727SOL     OW30079   1.001   2.110   6.364
 9727SOL    HW130080   0.938   2.080   6.292
 9727SOL    HW230081   0.951   2.163   6.433
 9728SOL     OW30082   0.433   1.591   5.051
 9728SOL    HW130083   0.439   1.502   5.097
 9728SOL    HW230084   0.340   1.604   5.016
 9729SOL     OW30085   1.129   4.412   3.969
 9729SOL    HW130086   1.206   4.441   4.025
 9729SOL    HW230087   1.072   4.492   3.948
 9730SOL     OW30088   0.816   4.200   3.710
 9730SOL    HW130089   0.763   4.134   3.657
 9730SOL    HW230090   0.797   4.187   3.808
 9731SOL     OW30091   5.524   5.684   1.881
 9731SOL    HW130092   5.437   5.682   1.831
 9731SOL    HW230093   5.506   5.669   1.978
 9732SOL     OW30094   1.222   3.961   2.331
 9732SOL    HW130095   1.270   3.906   2.262
 9732SOL    HW230096   1.283   3.979   2.408
 9733SOL     OW30097   5.041   5.594   0.206
 9733SOL    HW130098   5.011   5.507   0.245
 9733SOL    HW230099   4.962   5.653   0.191
 9734SOL     OW30100   6.774   0.390   0.431
 9734SOL    HW130101   6.818   0.359   0.515
 9734SOL    HW230102   6.711   0.319   0.398
 9735SOL     OW30103   1.762   2.995   3.467
 9735SOL    HW130104   1.845   3.031   3.509
 9735SOL    HW230105   1.715   3.069   3.419
 9736SOL     OW30106   5.418   1.880   6.153
 9736SOL    HW130107   5.357   1.858   6.078
 9736SOL    HW230108   5.383   1.961   6.202
 9737SOL     OW30109   5.009   2.191   2.867
 9737SOL    HW130110   5.079   2.164   2.933
 9737SOL    HW230111   5.049   2.251   2.798
 9738SOL     OW30112   1.941   6.267   0.795
 9738SOL    HW130113   2.035   6.250   0.827
 9738SOL    HW230114   1.893   6.323   0.863
 9739SOL     OW30115   5.123   5.767   0.516
 9739SOL    HW130116   5.028   5.784   0.541
 9739SOL    HW230117   5.127   5.730   0.423
 9740SOL     OW30118   0.625   1.348   3.153
 9740SOL    HW130119   0.724   1.342   3.140
 9740SOL    HW230120   0.604   1.355   3.251
 9741SOL     OW30121   2.146   1.459   2.960
 9741SOL    HW130122   2.114   1.398   2.888
 9741SOL    HW230123   2.071   1.480   3.022
 9742SOL     OW30124   4.120   1.073   0.550
 9742SOL    HW130125   4.047   1.114   0.605
 9742SOL    HW230126   4.118   1.111   0.458
 9743SOL     OW30127   6.284   4.383   2.921
 9743SOL    HW130128   6.370   4.403   2.875
 9743SOL    HW230129   6.236   4.310   2.872
 9744SOL     OW30130   1.534   0.139   2.084
 9744SOL    HW130131   1.498   0.129   2.177
 9744SOL    HW230132   1.458   0.154   2.021
 9745SOL     OW30133   4.658   2.929   6.188
 9745SOL    HW130134   4.751   2.906   6.217
 9745SOL    HW230135   4.593   2.897   6.257
 9746SOL     OW30136   5.675   0.078   5.672
 9746SOL    HW130137   5.637   0.115   5.587
 9746SOL    HW230138   5.775   0.088   5.670
 9747SOL     OW30139   2.925   2.135   1.821
 9747SOL    HW130140   3.024   2.123   1.825
 9747SOL    HW230141   2.899   2.214   1.876
 9748SOL     OW30142   6.487   6.756   3.819
 9748SOL    HW130143   6.478   6.675   3.761
 9748SOL    HW230144   6.584   6.775   3.835
 9749SOL     OW30145   0.996   0.776   4.126
 9749SOL    HW130146   0.921   0.809   4.069
 9749SOL    HW230147   0.987   0.677   4.139
 9750SOL     OW30148   5.763   5.079   3.343
 9750SOL    HW130149   5.772   4.995   3.397
 9750SOL    HW230150   5.804   5.066   3.253
 9751SOL     OW30151   2.372   0.170   1.092
 9751SOL    HW130152   2.392   0.255   1.043
 9751SOL    HW230153   2.274   0.150   1.088
 9752SOL     OW30154   4.514   1.760   5.249
 9752SOL    HW130155   4.497   1.834   5.184
 9752SOL    HW230156   4.426   1.723   5.281
 9753SOL     OW30157   0.741   5.601   5.647
 9753SOL    HW130158   0.745   5.533   5.574
 9753SOL    HW230159   0.805   5.576   5.719
 9754SOL     OW30160   2.542   0.790   0.654
 9754SOL    HW130161   2.559   0.886   0.676
 9754SOL    HW230162   2.499   0.745   0.733
 9755SOL     OW30163   3.186   3.535   4.388
 9755SOL    HW130164   3.278   3.513   4.418
 9755SOL    HW230165   3.120   3.478   4.437
 9756SOL     OW30166   6.271   2.559   6.218
 9756SOL    HW130167   6.341   2.490   6.236
 9756SOL    HW230168   6.182   2.526   6.250
 9757SOL     OW30169   5.496   4.807   5.005
 9757SOL    HW130170   5.592   4.834   5.014
 9757SOL    HW230171   5.479   4.775   4.912
 9758SOL     OW30172   1.905   1.395   0.602
 9758SOL    HW130173   1.853   1.439   0.675
 9758SOL    HW230174   1.925   1.301   0.627
 9759SOL     OW30175   1.696   1.318   0.091
 9759SOL    HW130176   1.746   1.299   0.176
 9759SOL    HW230177   1.742   1.390   0.040
 9760SOL     OW30178   4.813   3.156   5.398
 9760SOL    HW130179   4.777   3.248   5.379
 9760SOL    HW230180   4.855   3.155   5.489
 9761SOL     OW30181   0.388   2.482   1.931
 9761SOL    HW130182   0.407   2.539   2.012
 9761SOL    HW230183   0.339   2.399   1.960
 9762SOL     OW30184   3.825   1.744   4.785
 9762SOL    HW130185   3.908   1.701   4.749
 9762SOL    HW230186   3.776   1.789   4.710
 9763SOL     OW30187   5.102   1.440   3.756
 9763SOL    HW130188   5.045   1.397   3.685
 9763SOL    HW230189   5.097   1.539   3.747
 9764SOL     OW30190   6.820   2.428   2.702
 9764SOL    HW130191   6.913   2.411   2.669
 9764SOL    HW230192   6.821   2.431   2.802
 9765SOL     OW30193   6.611   6.393   3.335
 9765SOL    HW130194   6.532   6.333   3.347
 9765SOL    HW230195   6.689   6.356   3.386
 9766SOL     OW30196   2.056   6.453   2.046
 9766SOL    HW130197   2.114   6.513   1.992
 9766SOL    HW230198   1.969   6.499   2.065
 9767SOL     OW30199   2.518   2.268   5.588
 9767SOL    HW130200   2.557   2.205   5.656
 9767SOL    HW230201   2.568   2.354   5.590
 9768SOL     OW30202   4.803   1.362   1.326
 9768SOL    HW130203   4.875   1.299   1.297
 9768SOL    HW230204   4.734   1.311   1.377
 9769SOL     OW30205   3.294   1.599   4.911
 9769SOL    HW130206   3.283   1.557   5.001
 9769SOL    HW230207   3.390   1.598   4.884
 9770SOL     OW30208   3.426   0.962   5.635
 9770SOL    HW130209   3.511   0.923   5.671
 9770SOL    HW230210   3.441   1.058   5.610
 9771SOL     OW30211   2.682   5.341   0.770
 9771SOL    HW130212   2.682   5.441   0.761
 9771SOL    HW230213   2.606   5.313   0.827
 9772SOL     OW30214   1.546   6.076   1.720
 9772SOL    HW130215   1.600   6.159   1.735
 9772SOL    HW230216   1.601   6.010   1.668
 9773SOL     OW30217   4.911   5.424   3.691
 9773SOL    HW130218   4.928   5.402   3.787
 9773SOL    HW230219   4.815   5.450   3.679
 9774SOL     OW30220   0.123   4.729   2.128
 9774SOL    HW130221   0.128   4.817   2.080
 9774SOL    HW230222   0.166   4.738   2.218
 9775SOL     OW30223   3.326   0.030   3.899
 9775SOL    HW130224   3.229   0.039   3.922
 9775SOL    HW230225   3.368   6.984   3.958
 9776SOL     OW30226   0.945   5.224   5.908
 9776SOL    HW130227   0.895   5.154   5.857
 9776SOL    HW230228   0.883   5.266   5.975
 9777SOL     OW30229   6.494   4.778   0.932
 9777SOL    HW130230   6.469   4.689   0.893
 9777SOL    HW230231   6.411   4.834   0.942
 9778SOL     OW30232   0.054   1.568   4.559
 9778SOL    HW130233   0.154   1.565   4.555
 9778SOL    HW230234   0.023   1.659   4.530
 9779SOL     OW30235   0.583   1.411   4.047
 9779SOL    HW130236   0.600   1.508   4.032
 9779SOL    HW230237   0.510   1.380   3.986
 9780SOL     OW30238   2.140   2.320   0.243
 9780SOL    HW130239   2.111   2.405   0.198
 9780SOL    HW230240   2.230   2.294   0.207
 9781SOL     OW30241   1.905   2.562   4.983
 9781SOL    HW130242   1.816   2.601   5.006
 9781SOL    HW230243   1.977   2.611   5.031
 9782SOL     OW30244   0.526   1.974   0.320
 9782SOL    HW130245   0.440   1.930   0.344
 9782SOL    HW230246   0.512   2.072   0.306
 9783SOL     OW30247   4.646   2.675   3.365
 9783SOL    HW130248   4.692   2.760   3.390
 9783SOL    HW230249   4.633   2.619   3.446
 9784SOL     OW30250   3.116   1.056   6.286
 9784SOL    HW130251   3.081   0.963   6.300
 9784SOL    HW230252   3.211   1.052   6.257
 9785SOL     OW30253   0.143   2.275   5.418
 9785SOL    HW130254   0.216   2.335   5.452
 9785SOL    HW230255   0.148   2.187   5.465
 9786SOL     OW30256   2.719   4.195   0.387
 9786SOL    HW130257   2.670   4.161   0.467
 9786SOL    HW230258   2.813   4.161   0.388
 9787SOL     OW30259   3.610   2.885   2.646
 9787SOL    HW130260   3.690   2.935   2.612
 9787SOL    HW230261   3.603   2.798   2.598
 9788SOL     OW30262   0.804   7.011   2.508
 9788SOL    HW130263   0.732   6.967   2.454
 9788SOL    HW230264   0.765   0.025   2.592
 9789SOL     OW30265   1.851   5.570   0.367
 9789SOL    HW130266   1.806   5.617   0.443
 9789SOL    HW230267   1.787   5.505   0.326
 9790SOL     OW30268   6.237   4.641   6.548
 9790SOL    HW130269   6.205   4.565   6.491
 9790SOL    HW230270   6.322   4.678   6.510
 9791SOL     OW30271   0.432   0.162   6.406
 9791SOL    HW130272   0.429   0.062   6.413
 9791SOL    HW230273   0.516   0.196   6.449
 9792SOL     OW30274   2.902   4.167   0.819
 9792SOL    HW130275   2.829   4.203   0.877
 9792SOL    HW230276   2.922   4.233   0.747
 9793SOL     OW30277   3.961   0.256   2.335
 9793SOL    HW130278   3.971   0.333   2.398
 9793SOL    HW230279   3.933   0.175   2.386
 9794SOL     OW30280   6.714   4.323   6.167
 9794SOL    HW130281   6.647   4.330   6.241
 9794SOL    HW230282   6.790   4.265   6.196
 9795SOL     OW30283   1.320   2.003   4.635
 9795SOL    HW130284   1.298   1.923   4.691
 9795SOL    HW230285   1.417   2.024   4.643
 9796SOL     OW30286   4.075   3.694   2.486
 9796SOL    HW130287   3.984   3.710   2.448
 9796SOL    HW230288   4.140   3.758   2.446
 9797SOL     OW30289   2.322   5.570   0.518
 9797SOL    HW130290   2.282   5.637   0.456
 9797SOL    HW230291   2.347   5.488   0.467
 9798SOL     OW30292   3.084   1.069   2.274
 9798SOL    HW130293   3.045   1.006   2.206
 9798SOL    HW230294   3.076   1.029   2.365
 9799SOL     OW30295   2.635   4.268   5.679
 9799SOL    HW130296   2.607   4.176   5.652
 9799SOL    HW230297   2.558   4.331   5.670
 9800SOL     OW30298   4.993   5.505   5.156
 9800SOL    HW130299   4.983   5.529   5.253
 9800SOL    HW230300   5.084   5.532   5.125
 9801SOL     OW30301   4.239   4.075   0.093
 9801SOL    HW130302   4.296   4.156   0.108
 9801SOL    HW230303   4.147   4.104   0.066
 9802SOL     OW30304   6.173   4.592   1.844
 9802SOL    HW130305   6.175   4.574   1.745
 9802SOL    HW230306   6.100   4.537   1.886
 9803SOL     OW30307   1.900   2.561   6.315
 9803SOL    HW130308   1.816   2.508   6.310
 9803SOL    HW230309   1.880   2.651   6.356
 9804SOL     OW30310   0.690   6.589   3.054
 9804SOL    HW130311   0.661   6.617   3.145
 9804SOL    HW230312   0.760   6.653   3.020
 9805SOL     OW30313   0.533   6.808   2.734
 9805SOL    HW130314   0.521   6.819   2.832
 9805SOL    HW230315   0.587   6.725   2.716
 9806SOL     OW30316   1.437   1.821   6.608
 9806SOL    HW130317   1.485   1.785   6.528
 9806SOL    HW230318   1.359   1.762   6.629
 9807SOL     OW30319   3.162   3.520   1.472
 9807SOL    HW130320   3.154   3.587   1.546
 9807SOL    HW230321   3.094   3.541   1.401
 9808SOL     OW30322   4.166   6.295   4.863
 9808SOL    HW130323   4.125   6.348   4.936
 9808SOL    HW230324   4.118   6.313   4.777
 9809SOL     OW30325   1.024   3.625   6.772
 9809SOL    HW130326   1.018   3.677   6.687
 9809SOL    HW230327   1.116   3.588   6.782
 9810SOL     OW30328   3.061   2.138   4.552
 9810SOL    HW130329   3.001   2.160   4.475
 9810SOL    HW230330   3.018   2.167   4.638
 9811SOL     OW30331   5.756   4.804   3.395
 9811SOL    HW130332   5.719   4.760   3.313
 9811SOL    HW230333   5.763   4.737   3.469
 9812SOL     OW30334   3.957   1.335   5.446
 9812SOL    HW130335   3.964   1.298   5.354
 9812SOL    HW230336   3.882   1.291   5.495
 9813SOL     OW30337   4.906   1.725   0.635
 9813SOL    HW130338   4.974   1.701   0.566
 9813SOL    HW230339   4.927   1.677   0.721
 9814SOL     OW30340   6.948   0.141   6.566
 9814SOL    HW130341   6.957   0.240   6.581
 9814SOL    HW230342   0.003   0.109   6.512
 9815SOL     OW30343   4.950   3.666   4.644
 9815SOL    HW130344   4.943   3.566   4.644
 9815SOL    HW230345   4.918   3.702   4.732
 9816SOL     OW30346   0.844   1.015   5.832
 9816SOL    HW130347   0.834   1.051   5.739
 9816SOL    HW230348   0.757   1.025   5.881
 9817SOL     OW30349   2.418   6.328   3.505
 9817SOL    HW130350   2.390   6.275   3.424
 9817SOL    HW230351   2.344   6.391   3.530
 9818SOL     OW30352   6.885   0.836   3.828
 9818SOL    HW130353   6.884   0.936   3.822
 9818SOL    HW230354   6.847   0.808   3.917
 9819SOL     OW30355   5.496   3.637   3.492
 9819SOL    HW130356   5.513   3.645   3.393
 9819SOL    HW230357   5.492   3.541   3.518
 9820SOL     OW30358   3.505   2.844   6.590
 9820SOL    HW130359   3.445   2.855   6.511
 9820SOL    HW230360   3.533   2.935   6.622
 9821SOL     OW30361   5.485   1.195   6.837
 9821SOL    HW130362   5.404   1.240   6.800
 9821SOL    HW230363   5.462   1.151   6.924
 9822SOL     OW30364   2.178   0.054   3.132
 9822SOL    HW130365   2.144   6.989   3.097
 9822SOL    HW230366   2.140   0.070   3.224
 9823SOL     OW30367   2.523   0.461   0.151
 9823SOL    HW130368   2.454   0.428   0.086
 9823SOL    HW230369   2.484   0.465   0.242
 9824SOL     OW30370   2.123   5.182   4.443
 9824SOL    HW130371   2.171   5.247   4.501
 9824SOL    HW230372   2.147   5.089   4.471
 9825SOL     OW30373   4.259   5.226   5.518
 9825SOL    HW130374   4.285   5.214   5.422
 9825SOL    HW230375   4.336   5.267   5.568
 9826SOL     OW30376   5.314   5.474   6.551
 9826SOL    HW130377   5.374   5.412   6.501
 9826SOL    HW230378   5.299   5.557   6.498
 9827SOL     OW30379   2.086   3.753   3.591
 9827SOL    HW130380   1.998   3.717   3.620
 9827SOL    HW230381   2.073   3.811   3.511
 9828SOL     OW30382   2.061   2.923   6.072
 9828SOL    HW130383   2.082   2.918   6.170
 9828SOL    HW230384   2.016   2.839   6.043
 9829SOL     OW30385   3.729   5.092   0.306
 9829SOL    HW130386   3.708   5.177   0.256
 9829SOL    HW230387   3.737   5.112   0.403
 9830SOL     OW30388   6.037   2.859   1.872
 9830SOL    HW130389   6.063   2.857   1.776
 9830SOL    HW230390   6.008   2.768   1.900
 9831SOL     OW30391   2.407   5.143   1.330
 9831SOL    HW130392   2.447   5.054   1.356
 9831SOL    HW230393   2.470   5.190   1.268
 9832SOL     OW30394   4.605   5.583   3.035
 9832SOL    HW130395   4.663   5.541   3.105
 9832SOL    HW230396   4.605   5.682   3.046
 9833SOL     OW30397   3.650   3.650   5.374
 9833SOL    HW130398   3.653   3.682   5.279
 9833SOL    HW230399   3.737   3.669   5.419
 9834SOL     OW30400   3.131   4.777   5.159
 9834SOL    HW130401   3.080   4.709   5.105
 9834SOL    HW230402   3.154   4.738   5.248
 9835SOL     OW30403   3.567   2.832   5.679
 9835SOL    HW130404   3.597   2.924   5.655
 9835SOL    HW230405   3.561   2.776   5.597
 9836SOL     OW30406   6.303   4.941   3.847
 9836SOL    HW130407   6.265   4.878   3.779
 9836SOL    HW230408   6.372   4.894   3.902
 9837SOL     OW30409   3.216   0.291   3.227
 9837SOL    HW130410   3.154   0.289   3.149
 9837SOL    HW230411   3.297   0.345   3.205
 9838SOL     OW30412   1.609   0.027   6.414
 9838SOL    HW130413   1.646   0.088   6.344
 9838SOL    HW230414   1.618   0.069   6.504
 9839SOL     OW30415   5.848   0.878   3.626
 9839SOL    HW130416   5.946   0.884   3.607
 9839SOL    HW230417   5.797   0.879   3.539
 9840SOL     OW30418   6.853   1.515   1.071
 9840SOL    HW130419   6.781   1.527   1.140
 9840SOL    HW230420   6.920   1.589   1.080
 9841SOL     OW30421   1.761   3.975   5.070
 9841SOL    HW130422   1.795   3.939   5.157
 9841SOL    HW230423   1.752   3.900   5.004
 9842SOL     OW30424   3.989   3.454   2.420
 9842SOL    HW130425   4.050   3.413   2.352
 9842SOL    HW230426   4.017   3.549   2.436
 9843SOL     OW30427   5.994   0.696   1.011
 9843SOL    HW130428   5.949   0.661   1.093
 9843SOL    HW230429   5.990   0.796   1.011
 9844SOL     OW30430   6.391   0.917   2.034
 9844SOL    HW130431   6.352   0.828   2.011
 9844SOL    HW230432   6.474   0.932   1.981
 9845SOL     OW30433   2.984   2.233   3.948
 9845SOL    HW130434   2.893   2.269   3.971
 9845SOL    HW230435   3.006   2.260   3.854
 9846SOL     OW30436   3.875   3.487   1.621
 9846SOL    HW130437   3.966   3.444   1.628
 9846SOL    HW230438   3.815   3.447   1.690
 9847SOL     OW30439   3.359   2.883   4.122
 9847SOL    HW130440   3.279   2.866   4.181
 9847SOL    HW230441   3.329   2.927   4.037
 9848SOL     OW30442   3.222   3.827   5.267
 9848SOL    HW130443   3.147   3.881   5.229
 9848SOL    HW230444   3.196   3.791   5.357
 9849SOL     OW30445   0.417   6.586   6.616
 9849SOL    HW130446   0.426   6.491   6.645
 9849SOL    HW230447   0.404   6.590   6.517
 9850SOL     OW30448   6.071   0.187   3.966
 9850SOL    HW130449   5.982   0.147   3.991
 9850SOL    HW230450   6.070   0.211   3.869
 9851SOL     OW30451   5.038   0.592   4.775
 9851SOL    HW130452   4.981   0.652   4.718
 9851SOL    HW230453   5.121   0.641   4.802
 9852SOL     OW30454   3.976   2.066   3.582
 9852SOL    HW130455   4.055   2.101   3.531
 9852SOL    HW230456   3.977   2.104   3.675
 9853SOL     OW30457   5.077   4.086   4.901
 9853SOL    HW130458   5.137   4.008   4.881
 9853SOL    HW230459   4.983   4.064   4.875
 9854SOL     OW30460   0.227   5.832   4.591
 9854SOL    HW130461   0.324   5.839   4.566
 9854SOL    HW230462   0.172   5.883   4.526
 9855SOL     OW30463   2.473   3.006   0.514
 9855SOL    HW130464   2.537   2.930   0.510
 9855SOL    HW230465   2.443   3.028   0.421
 9856SOL     OW30466   5.072   4.821   5.476
 9856SOL    HW130467   5.021   4.904   5.457
 9856SOL    HW230468   5.129   4.798   5.397
 9857SOL     OW30469   4.283   2.148   3.708
 9857SOL    HW130470   4.262   2.125   3.613
 9857SOL    HW230471   4.311   2.066   3.757
 9858SOL     OW30472   6.718   0.960   0.998
 9858SOL    HW130473   6.682   0.870   1.021
 9858SOL    HW230474   6.815   0.952   0.976
 9859SOL     OW30475   6.459   0.051   2.356
 9859SOL    HW130476   6.428   0.017   2.267
 9859SOL    HW230477   6.423   7.014   2.428
 9860SOL     OW30478   1.245   1.519   3.794
 9860SOL    HW130479   1.188   1.439   3.811
 9860SOL    HW230480   1.199   1.601   3.829
 9861SOL     OW30481   3.291   6.920   3.415
 9861SOL    HW130482   3.382   6.932   3.376
 9861SOL    HW230483   3.250   7.009   3.434
 9862SOL     OW30484   3.965   3.842   0.051
 9862SOL    HW130485   3.982   3.786   0.132
 9862SOL    HW230486   3.906   3.792   7.010
 9863SOL     OW30487   3.090   6.907   2.637
 9863SOL    HW130488   3.153   6.980   2.663
 9863SOL    HW230489   3.000   6.925   2.678
 9864SOL     OW30490   3.790   6.710   4.181
 9864SOL    HW130491   3.749   6.730   4.092
 9864SOL    HW230492   3.850   6.631   4.172
 9865SOL     OW30493   1.398   1.248   4.630
 9865SOL    HW130494   1.476   1.198   4.669
 9865SOL    HW230495   1.429   1.337   4.596
 9866SOL     OW30496   5.053   5.098   6.243
 9866SOL    HW130497   4.956   5.073   6.238
 9866SOL    HW230498   5.079   5.144   6.158
 9867SOL     OW30499   6.617   0.838   0.692
 9867SOL    HW130500   6.520   0.830   0.717
 9867SOL    HW230501   6.669   0.874   0.770
 9868SOL     OW30502   0.432   3.728   6.522
 9868SOL    HW130503   0.372   3.648   6.516
 9868SOL    HW230504   0.459   3.742   6.617
 9869SOL     OW30505   1.792   3.277   2.312
 9869SOL    HW130506   1.864   3.347   2.311
 9869SOL    HW230507   1.725   3.297   2.240
 9870SOL     OW30508   3.464   5.358   2.232
 9870SOL    HW130509   3.401   5.307   2.291
 9870SOL    HW230510   3.499   5.437   2.281
 9871SOL     OW30511   0.521   5.654   5.770
 9871SOL    HW130512   0.474   5.567   5.783
 9871SOL    HW230513   0.606   5.640   5.720
 9872SOL     OW30514   2.031   5.159   3.798
 9872SOL    HW130515   1.957   5.113   3.749
 9872SOL    HW230516   2.119   5.129   3.760
 9873SOL     OW30517   2.699   2.563   0.070
 9873SOL    HW130518   2.631   2.637   0.072
 9873SOL    HW230519   2.783   2.597   0.029
 9874SOL     OW30520   6.626   3.029   4.863
 9874SOL    HW130521   6.725   3.013   4.858
 9874SOL    HW230522   6.606   3.124   4.841
 9875SOL     OW30523   6.012   5.956   1.997
 9875SOL    HW130524   6.014   6.014   1.915
 9875SOL    HW230525   6.100   5.960   2.044
 9876SOL     OW30526   6.448   0.457   3.078
 9876SOL    HW130527   6.421   0.503   3.162
 9876SOL    HW230528   6.429   0.359   3.085
 9877SOL     OW30529   6.976   6.150   4.185
 9877SOL    HW130530   6.903   6.106   4.134
 9877SOL    HW230531   6.938   6.195   4.266
 9878SOL     OW30532   2.596   4.738   5.011
 9878SOL    HW130533   2.686   4.703   5.035
 9878SOL    HW230534   2.605   4.807   4.939
 9879SOL     OW30535   5.683   5.257   5.136
 9879SOL    HW130536   5.619   5.278   5.062
 9879SOL    HW230537   5.762   5.320   5.130
 9880SOL     OW30538   3.320   0.978   6.040
 9880SOL    HW130539   3.401   0.926   6.014
 9880SOL    HW230540   3.288   1.032   5.962
 9881SOL     OW30541   0.934   0.603   4.743
 9881SOL    HW130542   0.870   0.528   4.759
 9881SOL    HW230543   0.902   0.685   4.791
 9882SOL     OW30544   1.231   3.459   3.939
 9882SOL    HW130545   1.131   3.452   3.931
 9882SOL    HW230546   1.256   3.553   3.961
 9883SOL     OW30547   1.407   6.864   0.091
 9883SOL    HW130548   1.349   6.832   0.166
 9883SOL    HW230549   1.456   6.946   0.119
 9884SOL     OW30550   5.302   2.321   1.907
 9884SOL    HW130551   5.202   2.330   1.907
 9884SOL    HW230552   5.343   2.412   1.910
 9885SOL     OW30553   6.588   2.133   4.889
 9885SOL    HW130554   6.535   2.102   4.968
 9885SOL    HW230555   6.665   2.071   4.875
 9886SOL     OW30556   0.993   4.689   2.801
 9886SOL    HW130557   0.979   4.656   2.708
 9886SOL    HW230558   0.911   4.671   2.856
 9887SOL     OW30559   4.195   0.384   6.577
 9887SOL    HW130560   4.161   0.477   6.579
 9887SOL    HW230561   4.190   0.348   6.483
 9888SOL     OW30562   5.532   4.583   2.721
 9888SOL    HW130563   5.570   4.527   2.648
 9888SOL    HW230564   5.596   4.656   2.744
 9889SOL     OW30565   6.729   4.944   1.707
 9889SOL    HW130566   6.641   4.902   1.685
 9889SOL    HW230567   6.803   4.880   1.685
 9890SOL     OW30568   1.325   2.582   0.685
 9890SOL    HW130569   1.259   2.615   0.753
 9890SOL    HW230570   1.368   2.499   0.718
 9891SOL     OW30571   5.486   3.320   2.200
 9891SOL    HW130572   5.536   3.397   2.160
 9891SOL    HW230573   5.403   3.302   2.146
 9892SOL     OW30574   0.246   4.658   1.165
 9892SOL    HW130575   0.326   4.683   1.220
 9892SOL    HW230576   0.248   4.709   1.079
 9893SOL     OW30577   0.798   0.880   1.296
 9893SOL    HW130578   0.744   0.850   1.217
 9893SOL    HW230579   0.884   0.920   1.264
 9894SOL     OW30580   3.698   2.709   0.496
 9894SOL    HW130581   3.649   2.753   0.421
 9894SOL    HW230582   3.642   2.634   0.533
 9895SOL     OW30583   5.684   4.997   5.011
 9895SOL    HW130584   5.643   5.082   5.042
 9895SOL    HW230585   5.736   5.014   4.927
 9896SOL     OW30586   6.125   0.999   0.179
 9896SOL    HW130587   6.101   1.061   0.254
 9896SOL    HW230588   6.145   0.908   0.216
 9897SOL     OW30589   5.785   6.598   2.306
 9897SOL    HW130590   5.808   6.548   2.389
 9897SOL    HW230591   5.692   6.574   2.277
 9898SOL     OW30592   1.509   5.193   5.003
 9898SOL    HW130593   1.457   5.277   5.017
 9898SOL    HW230594   1.489   5.156   4.912
 9899SOL     OW30595   1.903   6.008   0.616
 9899SOL    HW130596   1.854   6.004   0.529
 9899SOL    HW230597   1.991   5.960   0.607
 9900SOL     OW30598   1.451   2.920   3.366
 9900SOL    HW130599   1.526   2.964   3.316
 9900SOL    HW230600   1.415   2.984   3.434
 9901SOL     OW30601   2.873   0.667   6.850
 9901SOL    HW130602   2.805   0.657   6.923
 9901SOL    HW230603   2.960   0.696   6.889
 9902SOL     OW30604   2.937   4.762   1.463
 9902SOL    HW130605   2.915   4.665   1.451
 9902SOL    HW230606   2.942   4.783   1.561
 9903SOL     OW30607   5.747   2.214   2.026
 9903SOL    HW130608   5.827   2.154   2.022
 9903SOL    HW230609   5.664   2.159   2.016
 9904SOL     OW30610   0.932   4.088   0.222
 9904SOL    HW130611   0.984   4.045   0.149
 9904SOL    HW230612   0.854   4.031   0.246
 9905SOL     OW30613   2.057   0.749   5.986
 9905SOL    HW130614   2.133   0.773   6.047
 9905SOL    HW230615   2.027   0.830   5.936
 9906SOL     OW30616   1.766   3.096   0.700
 9906SOL    HW130617   1.698   3.031   0.666
 9906SOL    HW230618   1.847   3.093   0.640
 9907SOL     OW30619   0.645   0.233   0.679
 9907SOL    HW130620   0.557   0.223   0.632
 9907SOL    HW230621   0.689   0.318   0.649
 9908SOL     OW30622   6.507   1.429   5.622
 9908SOL    HW130623   6.592   1.482   5.628
 9908SOL    HW230624   6.508   1.373   5.539
 9909SOL     OW30625   4.453   1.368   2.783
 9909SOL    HW130626   4.487   1.459   2.807
 9909SOL    HW230627   4.437   1.315   2.866
 9910SOL     OW30628   1.208   5.089   1.862
 9910SOL    HW130629   1.299   5.066   1.829
 9910SOL    HW230630   1.157   5.005   1.882
 9911SOL     OW30631   3.060   6.224   2.244
 9911SOL    HW130632   3.038   6.230   2.147
 9911SOL    HW230633   3.035   6.309   2.290
 9912SOL     OW30634   3.485   0.963   1.114
 9912SOL    HW130635   3.539   1.032   1.065
 9912SOL    HW230636   3.459   0.890   1.050
 9913SOL     OW30637   6.713   4.109   0.665
 9913SOL    HW130638   6.629   4.060   0.687
 9913SOL    HW230639   6.696   4.176   0.593
 9914SOL     OW30640   6.062   0.907   5.059
 9914SOL    HW130641   6.050   0.993   5.109
 9914SOL    HW230642   6.154   0.903   5.022
 9915SOL     OW30643   6.107   0.941   3.610
 9915SOL    HW130644   6.154   1.000   3.675
 9915SOL    HW230645   6.060   0.998   3.542
 9916SOL     OW30646   2.256   2.400   3.231
 9916SOL    HW130647   2.321   2.475   3.231
 9916SOL    HW230648   2.199   2.405   3.150
 9917SOL     OW30649   4.017   3.780   6.355
 9917SOL    HW130650   3.982   3.870   6.328
 9917SOL    HW230651   4.110   3.768   6.319
 9918SOL     OW30652   1.874   2.136   2.874
 9918SOL    HW130653   1.882   2.204   2.802
 9918SOL    HW230654   1.913   2.172   2.959
 9919SOL     OW30655   0.940   5.406   1.377
 9919SOL    HW130656   0.898   5.486   1.333
 9919SOL    HW230657   0.941   5.330   1.311
 9920SOL     OW30658   4.905   0.433   2.546
 9920SOL    HW130659   4.860   0.350   2.578
 9920SOL    HW230660   4.902   0.436   2.446
 9921SOL     OW30661   4.433   6.364   4.411
 9921SOL    HW130662   4.407   6.396   4.503
 9921SOL    HW230663   4.479   6.438   4.363
 9922SOL     OW30664   3.406   3.833   0.938
 9922SOL    HW130665   3.336   3.851   1.007
 9922SOL    HW230666   3.492   3.808   0.983
 9923SOL     OW30667   5.806   4.494   0.023
 9923SOL    HW130668   5.828   4.512   6.949
 9923SOL    HW230669   5.712   4.462   0.030
 9924SOL     OW30670   6.320   1.907   3.448
 9924SOL    HW130671   6.228   1.942   3.430
 9924SOL    HW230672   6.363   1.880   3.361
 9925SOL     OW30673   0.249   5.026   3.829
 9925SOL    HW130674   0.227   5.119   3.858
 9925SOL    HW230675   0.212   4.960   3.894
 9926SOL     OW30676   4.487   2.827   1.354
 9926SOL    HW130677   4.389   2.812   1.336
 9926SOL    HW230678   4.525   2.746   1.399
 9927SOL     OW30679   1.787   6.644   0.683
 9927SOL    HW130680   1.697   6.688   0.689
 9927SOL    HW230681   1.806   6.619   0.588
 9928SOL     OW30682   4.894   5.248   2.858
 9928SOL    HW130683   4.835   5.229   2.936
 9928SOL    HW230684   4.911   5.164   2.807
 9929SOL     OW30685   3.250   4.014   4.647
 9929SOL    HW130686   3.166   4.004   4.592
 9929SOL    HW230687   3.290   3.925   4.663
 9930SOL     OW30688   0.027   6.484   5.665
 9930SOL    HW130689   0.100   6.526   5.613
 9930SOL    HW230690   0.039   6.384   5.666
 9931SOL     OW30691   0.131   5.404   4.450
 9931SOL    HW130692   0.227   5.417   4.423
 9931SOL    HW230693   0.078   5.370   4.372
 9932SOL     OW30694   2.634   2.988   6.290
 9932SOL    HW130695   2.562   3.048   6.324
 9932SOL    HW230696   2.616   2.964   6.194
 9933SOL     OW30697   1.283   6.990   3.600
 9933SOL    HW130698   1.246   0.061   3.597
 9933SOL    HW230699   1.337   6.980   3.684
 9934SOL     OW30700   6.609   2.128   5.550
 9934SOL    HW130701   6.559   2.130   5.464
 9934SOL    HW230702   6.674   2.204   5.553
 9935SOL     OW30703   3.178   6.712   1.099
 9935SOL    HW130704   3.147   6.624   1.136
 9935SOL    HW230705   3.100   6.774   1.090
 9936SOL     OW30706   6.573   4.374   0.958
 9936SOL    HW130707   6.576   4.406   1.053
 9936SOL    HW230708   6.636   4.429   0.903
 9937SOL     OW30709   0.556   2.252   1.504
 9937SOL    HW130710   0.612   2.246   1.421
 9937SOL    HW230711   0.610   2.294   1.578
 9938SOL     OW30712   5.985   4.905   4.235
 9938SOL    HW130713   5.999   4.930   4.139
 9938SOL    HW230714   5.886   4.903   4.254
 9939SOL     OW30715   4.853   3.068   1.282
 9939SOL    HW130716   4.859   3.137   1.210
 9939SOL    HW230717   4.872   2.977   1.243
 9940SOL     OW30718   0.922   1.065   1.869
 9940SOL    HW130719   0.869   1.059   1.785
 9940SOL    HW230720   0.992   1.136   1.859
 9941SOL     OW30721   3.586   2.892   4.984
 9941SOL    HW130722   3.559   2.983   4.955
 9941SOL    HW230723   3.677   2.896   5.026
 9942SOL     OW30724   2.613   5.574   2.722
 9942SOL    HW130725   2.679   5.647   2.701
 9942SOL    HW230726   2.630   5.496   2.661
 9943SOL     OW30727   0.502   4.190   6.722
 9943SOL    HW130728   0.455   4.248   6.655
 9943SOL    HW230729   0.551   4.117   6.675
 9944SOL     OW30730   0.816   4.741   6.608
 9944SOL    HW130731   0.723   4.727   6.574
 9944SOL    HW230732   0.813   4.800   6.689
 9945SOL     OW30733   4.549   6.041   0.245
 9945SOL    HW130734   4.470   6.081   0.199
 9945SOL    HW230735   4.632   6.062   0.193
 9946SOL     OW30736   6.041   0.551   3.304
 9946SOL    HW130737   6.077   0.640   3.276
 9946SOL    HW230738   6.046   0.486   3.228
 9947SOL     OW30739   2.971   2.188   4.821
 9947SOL    HW130740   2.874   2.202   4.839
 9947SOL    HW230741   3.025   2.225   4.896
 9948SOL     OW30742   6.701   4.763   6.328
 9948SOL    HW130743   6.661   4.842   6.281
 9948SOL    HW230744   6.743   4.701   6.261
 9949SOL     OW30745   6.517   4.796   4.141
 9949SOL    HW130746   6.473   4.886   4.133
 9949SOL    HW230747   6.452   4.724   4.119
 9950SOL     OW30748   5.512   6.171   5.747
 9950SOL    HW130749   5.428   6.129   5.780
 9950SOL    HW230750   5.590   6.126   5.791
 9951SOL     OW30751   1.272   2.186   3.747
 9951SOL    HW130752   1.340   2.225   3.684
 9951SOL    HW230753   1.269   2.087   3.736
 9952SOL     OW30754   1.498   4.802   0.711
 9952SOL    HW130755   1.404   4.836   0.705
 9952SOL    HW230756   1.560   4.872   0.676
 9953SOL     OW30757   6.175   2.608   4.860
 9953SOL    HW130758   6.200   2.640   4.769
 9953SOL    HW230759   6.245   2.636   4.926
 9954SOL     OW30760   0.741   0.754   5.774
 9954SOL    HW130761   0.792   0.827   5.820
 9954SOL    HW230762   0.681   0.794   5.704
 9955SOL     OW30763   5.661   4.090   6.063
 9955SOL    HW130764   5.633   4.014   6.120
 9955SOL    HW230765   5.761   4.098   6.065
 9956SOL     OW30766   0.394   5.858   2.964
 9956SOL    HW130767   0.469   5.850   3.030
 9956SOL    HW230768   0.315   5.899   3.009
 9957SOL     OW30769   5.891   6.941   2.024
 9957SOL    HW130770   5.969   6.994   1.991
 9957SOL    HW230771   5.909   6.909   2.117
 9958SOL     OW30772   1.986   5.508   6.564
 9958SOL    HW130773   1.962   5.441   6.494
 9958SOL    HW230774   2.023   5.460   6.644
 9959SOL     OW30775   4.106   3.709   4.372
 9959SOL    HW130776   4.094   3.688   4.275
 9959SOL    HW230777   4.157   3.635   4.416
 9960SOL     OW30778   6.823   0.342   2.333
 9960SOL    HW130779   6.874   0.424   2.307
 9960SOL    HW230780   6.843   0.269   2.267
 9961SOL     OW30781   1.594   5.532   4.340
 9961SOL    HW130782   1.655   5.514   4.416
 9961SOL    HW230783   1.520   5.464   4.339
 9962SOL     OW30784   4.904   6.950   1.649
 9962SOL    HW130785   4.852   6.947   1.563
 9962SOL    HW230786   4.966   6.872   1.653
 9963SOL     OW30787   2.637   2.602   6.194
 9963SOL    HW130788   2.665   2.546   6.116
 9963SOL    HW230789   2.592   2.685   6.160
 9964SOL     OW30790   4.625   3.745   5.714
 9964SOL    HW130791   4.533   3.707   5.723
 9964SOL    HW230792   4.644   3.768   5.619
 9965SOL     OW30793   3.685   4.963   6.552
 9965SOL    HW130794   3.743   5.014   6.489
 9965SOL    HW230795   3.706   4.865   6.544
 9966SOL     OW30796   2.269   5.647   2.022
 9966SOL    HW130797   2.338   5.713   1.993
 9966SOL    HW230798   2.181   5.694   2.035
 9967SOL     OW30799   6.225   6.646   2.268
 9967SOL    HW130800   6.225   6.722   2.333
 9967SOL    HW230801   6.147   6.655   2.206
 9968SOL     OW30802   3.483   3.830   6.670
 9968SOL    HW130803   3.445   3.815   6.761
 9968SOL    HW230804   3.560   3.894   6.676
 9969SOL     OW30805   1.970   2.616   4.162
 9969SOL    HW130806   2.061   2.658   4.170
 9969SOL    HW230807   1.979   2.517   4.164
 9970SOL     OW30808   5.456   4.254   3.009
 9970SOL    HW130809   5.391   4.186   3.043
 9970SOL    HW230810   5.461   4.330   3.073
 9971SOL     OW30811   2.553   3.977   0.499
 9971SOL    HW130812   2.589   3.897   0.452
 9971SOL    HW230813   2.565   3.966   0.598
 9972SOL     OW30814   3.913   4.456   0.904
 9972SOL    HW130815   3.833   4.451   0.844
 9972SOL    HW230816   3.986   4.398   0.867
 9973SOL     OW30817   4.273   1.729   4.205
 9973SOL    HW130818   4.243   1.634   4.198
 9973SOL    HW230819   4.348   1.736   4.270
 9974SOL     OW30820   6.309   3.972   3.468
 9974SOL    HW130821   6.405   3.990   3.451
 9974SOL    HW230822   6.266   4.053   3.508
 9975SOL     OW30823   6.679   4.483   0.589
 9975SOL    HW130824   6.718   4.553   0.529
 9975SOL    HW230825   6.746   4.455   0.657
 9976SOL     OW30826   0.252   5.934   5.386
 9976SOL    HW130827   0.307   5.893   5.459
 9976SOL    HW230828   0.206   6.015   5.421
 9977SOL     OW30829   0.184   5.291   5.792
 9977SOL    HW130830   0.146   5.383   5.793
 9977SOL    HW230831   0.148   5.241   5.714
 9978SOL     OW30832   6.177   3.153   3.251
 9978SOL    HW130833   6.234   3.073   3.230
 9978SOL    HW230834   6.183   3.172   3.349
 9979SOL     OW30835   6.381   4.900   5.816
 9979SOL    HW130836   6.303   4.903   5.878
 9979SOL    HW230837   6.352   4.922   5.723
 9980SOL     OW30838   1.447   1.745   6.019
 9980SOL    HW130839   1.371   1.775   6.076
 9980SOL    HW230840   1.525   1.722   6.076
 9981SOL     OW30841   2.674   2.109   1.671
 9981SOL    HW130842   2.773   2.105   1.666
 9981SOL    HW230843   2.646   2.120   1.767
 9982SOL     OW30844   0.597   1.037   3.293
 9982SOL    HW130845   0.565   1.129   3.269
 9982SOL    HW230846   0.626   1.037   3.389
 9983SOL     OW30847   1.151   2.790   3.408
 9983SOL    HW130848   1.229   2.777   3.470
 9983SOL    HW230849   1.148   2.885   3.379
 9984SOL     OW30850   1.491   1.142   0.237
 9984SOL    HW130851   1.422   1.120   0.168
 9984SOL    HW230852   1.569   1.186   0.193
 9985SOL     OW30853   2.103   0.983   1.973
 9985SOL    HW130854   2.200   1.007   1.973
 9985SOL    HW230855   2.052   1.047   2.031
 9986SOL     OW30856   4.439   3.851   6.536
 9986SOL    HW130857   4.445   3.811   6.628
 9986SOL    HW230858   4.371   3.923   6.535
 9987SOL     OW30859   6.060   1.992   3.247
 9987SOL    HW130860   5.989   2.061   3.228
 9987SOL    HW230861   6.085   1.947   3.162
 9988SOL     OW30862   0.442   5.876   4.445
 9988SOL    HW130863   0.434   5.938   4.367
 9988SOL    HW230864   0.539   5.866   4.469
 9989SOL     OW30865   6.233   4.181   3.647
 9989SOL    HW130866   6.223   4.187   3.746
 9989SOL    HW230867   6.213   4.270   3.606
 9990SOL     OW30868   2.866   6.725   2.053
 9990SOL    HW130869   2.845   6.632   2.081
 9990SOL    HW230870   2.965   6.735   2.042
 9991SOL     OW30871   1.898   3.360   3.956
 9991SOL    HW130872   1.807   3.371   3.917
 9991SOL    HW230873   1.891   3.358   4.056
 9992SOL     OW30874   4.929   4.318   0.253
 9992SOL    HW130875   4.909   4.279   0.163
 9992SOL    HW230876   4.876   4.269   0.323
 9993SOL     OW30877   3.717   0.277   1.922
 9993SOL    HW130878   3.727   0.292   2.020
 9993SOL    HW230879   3.644   0.335   1.887
 9994SOL     OW30880   6.931   4.682   3.843
 9994SOL    HW130881   6.867   4.754   3.870
 9994SOL    HW230882   6.886   4.619   3.781
 9995SOL     OW30883   3.484   1.002   2.864
 9995SOL    HW130884   3.452   1.078   2.920
 9995SOL    HW230885   3.536   0.938   2.921
 9996SOL     OW30886   2.572   3.356   1.647
 9996SOL    HW130887   2.540   3.441   1.689
 9996SOL    HW230888   2.659   3.374   1.600
 9997SOL     OW30889   3.571   1.641   1.296
 9997SOL    HW130890   3.626   1.569   1.254
 9997SOL    HW230891   3.563   1.718   1.233
 9998SOL     OW30892   6.094   4.666   1.219
 9998SOL    HW130893   6.124   4.622   1.135
 9998SOL    HW230894   5.998   4.644   1.236
 9999SOL     OW30895   6.460   2.887   5.079
 9999SOL    HW130896   6.494   2.812   5.134
 9999SOL    HW230897   6.524   2.906   5.004
10000SOL     OW30898   6.895   3.519   0.273
10000SOL    HW130899   6.980   3.467   0.270
10000SOL    HW230900   6.906   3.597   0.335
10001SOL     OW30901   4.794   0.625   1.842
10001SOL    HW130902   4.781   0.675   1.927
10001SOL    HW230903   4.747   0.537   1.847
10002SOL     OW30904   1.830   0.590   1.881
10002SOL    HW130905   1.797   0.505   1.924
10002SOL    HW230906   1.758   0.659   1.883
10003SOL     OW30907   3.498   1.464   3.912
10003SOL    HW130908   3.469   1.384   3.858
10003SOL    HW230909   3.584   1.499   3.876
10004SOL     OW30910   4.692   2.340   4.089
10004SOL    HW130911   4.705   2.391   4.004
10004SOL    HW230912   4.705   2.243   4.072
10005SOL     OW30913   3.986   0.328   3.988
10005SOL    HW130914   3.957   0.240   4.025
10005SOL    HW230915   4.056   0.368   4.047
10006SOL     OW30916   5.182   0.368   3.842
10006SOL    HW130917   5.138   0.372   3.752
10006SOL    HW230918   5.248   0.443   3.851
10007SOL     OW30919   0.769   5.483   4.970
10007SOL    HW130920   0.822   5.540   5.033
10007SOL    HW230921   0.702   5.541   4.922
10008SOL     OW30922   4.304   1.312   4.737
10008SOL    HW130923   4.239   1.368   4.789
10008SOL    HW230924   4.397   1.341   4.758
10009SOL     OW30925   1.778   3.744   1.634
10009SOL    HW130926   1.734   3.730   1.545
10009SOL    HW230927   1.865   3.695   1.637
10010SOL     OW30928   1.682   6.978   5.826
10010SOL    HW130929   1.718   0.049   5.818
10010SOL    HW230930   1.636   6.952   5.741
10011SOL     OW30931   5.850   1.618   4.781
10011SOL    HW130932   5.825   1.522   4.797
10011SOL    HW230933   5.774   1.677   4.806
10012SOL     OW30934   4.813   0.993   3.384
10012SOL    HW130935   4.874   0.986   3.462
10012SOL    HW230936   4.827   1.082   3.339
10013SOL     OW30937   1.247   1.784   3.416
10013SOL    HW130938   1.168   1.751   3.365
10013SOL    HW230939   1.320   1.716   3.414
10014SOL     OW30940   6.914   3.969   0.455
10014SOL    HW130941   6.854   3.969   0.535
10014SOL    HW230942   6.919   3.877   0.416
10015SOL     OW30943   1.925   3.897   0.467
10015SOL    HW130944   1.862   3.824   0.440
10015SOL    HW230945   1.982   3.866   0.543
10016SOL     OW30946   1.790   0.931   5.993
10016SOL    HW130947   1.709   0.891   5.950
10016SOL    HW230948   1.864   0.935   5.926
10017SOL     OW30949   3.109   2.207   3.100
10017SOL    HW130950   3.029   2.240   3.149
10017SOL    HW230951   3.182   2.275   3.105
10018SOL     OW30952   4.859   6.982   5.315
10018SOL    HW130953   4.943   6.930   5.332
10018SOL    HW230954   4.829   6.966   5.221
10019SOL     OW30955   0.052   1.756   2.747
10019SOL    HW130956   0.105   1.703   2.813
10019SOL    HW230957   0.043   1.850   2.779
10020SOL     OW30958   1.398   2.313   1.710
10020SOL    HW130959   1.464   2.372   1.758
10020SOL    HW230960   1.335   2.369   1.657
10021SOL     OW30961   0.290   2.282   0.938
10021SOL    HW130962   0.298   2.299   1.037
10021SOL    HW230963   0.284   2.370   0.890
10022SOL     OW30964   2.766   6.838   6.501
10022SOL    HW130965   2.830   6.912   6.481
10022SOL    HW230966   2.815   6.764   6.548
10023SOL     OW30967   1.543   5.239   6.503
10023SOL    HW130968   1.611   5.245   6.577
10023SOL    HW230969   1.504   5.148   6.501
10024SOL     OW30970   1.519   6.427   2.043
10024SOL    HW130971   1.590   6.498   2.048
10024SOL    HW230972   1.430   6.470   2.056
10025SOL     OW30973   1.852   1.469   1.332
10025SOL    HW130974   1.941   1.457   1.375
10025SOL    HW230975   1.827   1.386   1.283
10026SOL     OW30976   5.472   6.467   3.611
10026SOL    HW130977   5.508   6.513   3.530
10026SOL    HW230978   5.384   6.424   3.589
10027SOL     OW30979   6.773   3.924   5.238
10027SOL    HW130980   6.828   3.865   5.179
10027SOL    HW230981   6.769   4.016   5.199
10028SOL     OW30982   1.879   1.262   1.737
10028SOL    HW130983   1.918   1.209   1.662
10028SOL    HW230984   1.824   1.336   1.700
10029SOL     OW30985   4.297   2.233   4.691
10029SOL    HW130986   4.358   2.177   4.748
10029SOL    HW230987   4.300   2.328   4.724
10030SOL     OW30988   2.669   6.502   3.792
10030SOL    HW130989   2.647   6.423   3.735
10030SOL    HW230990   2.661   6.585   3.738
10031SOL     OW30991   6.484   4.831   4.713
10031SOL    HW130992   6.446   4.776   4.788
10031SOL    HW230993   6.486   4.928   4.741
10032SOL     OW30994   2.293   1.966   5.259
10032SOL    HW130995   2.219   1.900   5.273
10032SOL    HW230996   2.353   1.966   5.338
10033SOL     OW30997   5.862   2.210   3.966
10033SOL    HW130998   5.843   2.115   3.990
10033SOL    HW230999   5.809   2.271   4.025
10034SOL     OW31000   2.753   0.283   4.097
10034SOL    HW131001   2.793   0.251   4.183
10034SOL    HW231002   2.679   0.221   4.069
10035SOL     OW31003   6.309   4.233   1.943
10035SOL    HW131004   6.353   4.179   2.015
10035SOL    HW231005   6.314   4.330   1.966
10036SOL     OW31006   6.397   2.131   1.347
10036SOL    HW131007   6.395   2.201   1.419
10036SOL    HW231008   6.472   2.150   1.284
10037SOL     OW31009   6.758   1.176   0.735
10037SOL    HW131010   6.808   1.096   0.702
10037SOL    HW231011   6.667   1.178   0.694
10038SOL     OW31012   5.048   0.492   6.814
10038SOL    HW131013   5.004   0.407   6.785
10038SOL    HW231014   5.025   0.565   6.750
10039SOL     OW31015   3.031   0.455   3.433
10039SOL    HW131016   3.052   0.505   3.517
10039SOL    HW231017   2.995   0.365   3.455
10040SOL     OW31018   5.043   5.487   6.653
10040SOL    HW131019   4.982   5.413   6.623
10040SOL    HW231020   5.136   5.466   6.625
10041SOL     OW31021   4.017   6.105   6.781
10041SOL    HW131022   4.068   6.019   6.781
10041SOL    HW231023   4.009   6.139   6.688
10042SOL     OW31024   0.782   2.419   3.498
10042SOL    HW131025   0.780   2.463   3.408
10042SOL    HW231026   0.876   2.394   3.520
10043SOL     OW31027   6.532   1.081   4.891
10043SOL    HW131028   6.586   1.126   4.962
10043SOL    HW231029   6.494   1.150   4.829
10044SOL     OW31030   1.821   1.935   4.259
10044SOL    HW131031   1.900   1.877   4.279
10044SOL    HW231032   1.741   1.878   4.242
10045SOL     OW31033   4.143   0.107   2.186
10045SOL    HW131034   4.073   0.160   2.234
10045SOL    HW231035   4.183   0.162   2.113
10046SOL     OW31036   2.116   3.565   0.454
10046SOL    HW131037   2.085   3.539   0.362
10046SOL    HW231038   2.092   3.494   0.519
10047SOL     OW31039   1.038   3.091   4.762
10047SOL    HW131040   1.128   3.089   4.806
10047SOL    HW231041   1.022   3.181   4.723
10048SOL     OW31042   0.117   0.103   2.204
10048SOL    HW131043   0.167   0.187   2.221
10048SOL    HW231044   0.161   0.051   2.130
10049SOL     OW31045   1.523   1.679   5.630
10049SOL    HW131046   1.570   1.764   5.608
10049SOL    HW231047   1.504   1.675   5.728
10050SOL     OW31048   5.965   4.044   5.199
10050SOL    HW131049   5.866   4.033   5.199
10050SOL    HW231050   5.991   4.121   5.141
10051SOL     OW31051   0.614   4.031   4.731
10051SOL    HW131052   0.688   4.012   4.795
10051SOL    HW231053   0.543   4.085   4.777
10052SOL     OW31054   2.074   1.176   3.466
10052SOL    HW131055   1.986   1.144   3.431
10052SOL    HW231056   2.146   1.154   3.401
10053SOL     OW31057   4.501   6.107   4.384
10053SOL    HW131058   4.418   6.055   4.401
10053SOL    HW231059   4.480   6.205   4.386
10054SOL     OW31060   5.995   5.485   5.760
10054SOL    HW131061   5.991   5.517   5.665
10054SOL    HW231062   6.023   5.561   5.819
10055SOL     OW31063   6.174   1.805   5.180
10055SOL    HW131064   6.226   1.762   5.253
10055SOL    HW231065   6.086   1.838   5.216
10056SOL     OW31066   5.141   4.504   3.609
10056SOL    HW131067   5.066   4.439   3.622
10056SOL    HW231068   5.143   4.533   3.513
10057SOL     OW31069   5.135   3.934   5.432
10057SOL    HW131070   5.226   3.896   5.416
10057SOL    HW231071   5.110   3.994   5.355
10058SOL     OW31072   6.303   3.880   5.110
10058SOL    HW131073   6.269   3.953   5.051
10058SOL    HW231074   6.225   3.831   5.149
10059SOL     OW31075   0.023   1.434   0.606
10059SOL    HW131076   7.000   1.399   0.688
10059SOL    HW231077   0.093   1.370   0.576
10060SOL     OW31078   2.034   2.533   2.765
10060SOL    HW131079   1.951   2.552   2.712
10060SOL    HW231080   2.114   2.550   2.707
10061SOL     OW31081   4.678   0.990   3.738
10061SOL    HW131082   4.663   0.895   3.764
10061SOL    HW231083   4.606   1.048   3.776
10062SOL     OW31084   6.891   0.046   4.510
10062SOL    HW131085   6.801   0.080   4.482
10062SOL    HW231086   6.880   6.998   4.580
10063SOL     OW31087   3.173   1.250   4.603
10063SOL    HW131088   3.194   1.196   4.684
10063SOL    HW231089   3.107   1.200   4.546
10064SOL     OW31090   5.000   6.646   6.511
10064SOL    HW131091   5.024   6.687   6.424
10064SOL    HW231092   4.906   6.671   6.536
10065SOL     OW31093   2.103   1.368   1.455
10065SOL    HW131094   2.093   1.397   1.550
10065SOL    HW231095   2.199   1.351   1.435
10066SOL     OW31096   0.104   2.143   4.964
10066SOL    HW131097   0.047   2.191   4.898
10066SOL    HW231098   0.195   2.129   4.925
10067SOL     OW31099   0.098   3.000   6.467
10067SOL    HW131100   0.039   3.034   6.541
10067SOL    HW231101   0.042   2.947   6.402
10068SOL     OW31102   1.008   3.893   3.163
10068SOL    HW131103   0.961   3.981   3.153
10068SOL    HW231104   0.978   3.849   3.248
10069SOL     OW31105   3.160   4.910   1.507
10069SOL    HW131106   3.146   5.008   1.498
10069SOL    HW231107   3.097   4.862   1.446
10070SOL     OW31108   0.617   5.310   5.139
10070SOL    HW131109   0.571   5.368   5.207
10070SOL    HW231110   0.676   5.367   5.082
10071SOL     OW31111   0.816   0.030   3.895
10071SOL    HW131112   0.905   0.008   3.855
10071SOL    HW231113   0.818   0.013   3.993
10072SOL     OW31114   0.494   1.107   3.688
10072SOL    HW131115   0.482   1.022   3.740
10072SOL    HW231116   0.408   1.130   3.643
10073SOL     OW31117   6.895   3.752   3.561
10073SOL    HW131118   6.980   3.804   3.552
10073SOL    HW231119   6.827   3.806   3.610
10074SOL     OW31120   1.803   6.331   6.897
10074SOL    HW131121   1.872   6.293   6.835
10074SOL    HW231122   1.734   6.379   6.843
10075SOL     OW31123   1.507   0.794   2.707
10075SOL    HW131124   1.583   0.849   2.674
10075SOL    HW231125   1.422   0.824   2.663
10076SOL     OW31126   4.962   5.704   2.899
10076SOL    HW131127   4.926   5.776   2.958
10076SOL    HW231128   4.901   5.693   2.820
10077SOL     OW31129   4.985   2.714   1.253
10077SOL    HW131130   5.001   2.690   1.349
10077SOL    HW231131   5.071   2.709   1.203
10078SOL     OW31132   0.241   6.102   4.750
10078SOL    HW131133   0.217   6.026   4.689
10078SOL    HW231134   0.248   6.068   4.844
10079SOL     OW31135   5.904   2.792   2.651
10079SOL    HW131136   5.883   2.874   2.703
10079SOL    HW231137   5.976   2.740   2.697
10080SOL     OW31138   4.971   0.999   6.217
10080SOL    HW131139   4.975   1.031   6.122
10080SOL    HW231140   5.040   0.929   6.231
10081SOL     OW31141   0.478   1.337   6.999
10081SOL    HW131142   0.490   1.431   0.008
10081SOL    HW231143   0.398   1.333   6.938
10082SOL     OW31144   0.976   5.441   2.999
10082SOL    HW131145   1.035   5.365   3.026
10082SOL    HW231146   0.989   5.461   2.902
10083SOL     OW31147   3.082   0.097   4.005
10083SOL    HW131148   2.987   0.078   4.032
10083SOL    HW231149   3.082   0.161   3.928
10084SOL     OW31150   0.277   6.738   5.092
10084SOL    HW131151   0.196   6.727   5.035
10084SOL    HW231152   0.320   6.827   5.073
10085SOL     OW31153   3.908   0.344   0.399
10085SOL    HW131154   3.853   0.425   0.419
10085SOL    HW231155   3.931   0.297   0.485
10086SOL     OW31156   5.848   6.761   3.342
10086SOL    HW131157   5.791   6.841   3.326
10086SOL    HW231158   5.924   6.787   3.402
10087SOL     OW31159   6.701   6.386   4.482
10087SOL    HW131160   6.709   6.486   4.486
10087SOL    HW231161   6.792   6.346   4.471
10088SOL     OW31162   6.743   0.441   1.176
10088SOL    HW131163   6.769   0.456   1.081
10088SOL    HW231164   6.766   0.522   1.231
10089SOL     OW31165   3.050   1.853   3.249
10089SOL    HW131166   3.069   1.918   3.175
10089SOL    HW231167   3.057   1.759   3.214
10090SOL     OW31168   0.606   4.986   2.044
10090SOL    HW131169   0.516   4.964   2.007
10090SOL    HW231170   0.625   5.083   2.030
10091SOL     OW31171   6.314   6.304   0.020
10091SOL    HW131172   6.310   6.312   0.120
10091SOL    HW231173   6.404   6.334   7.010
10092SOL     OW31174   1.260   2.954   5.591
10092SOL    HW131175   1.169   2.950   5.550
10092SOL    HW231176   1.293   3.049   5.591
10093SOL     OW31177   4.976   3.763   4.898
10093SOL    HW131178   5.050   3.758   4.965
10093SOL    HW231179   4.889   3.743   4.942
10094SOL     OW31180   2.434   6.627   0.530
10094SOL    HW131181   2.339   6.599   0.546
10094SOL    HW231182   2.459   6.696   0.597
10095SOL     OW31183   5.531   1.485   4.520
10095SOL    HW131184   5.546   1.496   4.422
10095SOL    HW231185   5.578   1.402   4.551
10096SOL     OW31186   4.686   0.567   2.816
10096SOL    HW131187   4.658   0.587   2.722
10096SOL    HW231188   4.778   0.529   2.816
10097SOL     OW31189   2.147   2.136   6.395
10097SOL    HW131190   2.106   2.091   6.316
10097SOL    HW231191   2.199   2.070   6.449
10098SOL     OW31192   2.789   6.627   4.865
10098SOL    HW131193   2.711   6.658   4.811
10098SOL    HW231194   2.767   6.635   4.963
10099SOL     OW31195   6.518   4.413   2.268
10099SOL    HW131196   6.443   4.448   2.213
10099SOL    HW231197   6.482   4.353   2.340
10100SOL     OW31198   5.613   5.676   5.794
10100SOL    HW131199   5.517   5.662   5.769
10100SOL    HW231200   5.665   5.701   5.714
10101SOL     OW31201   6.958   2.740   1.594
10101SOL    HW131202   6.860   2.753   1.610
10101SOL    HW231203   7.009   2.817   1.631
10102SOL     OW31204   6.367   0.472   1.134
10102SOL    HW131205   6.395   0.476   1.038
10102SOL    HW231206   6.268   0.460   1.140
10103SOL     OW31207   1.507   0.485   4.909
10103SOL    HW131208   1.524   0.554   4.838
10103SOL    HW231209   1.512   0.393   4.868
10104SOL     OW31210   2.145   1.389   5.897
10104SOL    HW131211   2.069   1.327   5.918
10104SOL    HW231212   2.109   1.475   5.861
10105SOL     OW31213   2.283   1.200   6.130
10105SOL    HW131214   2.297   1.268   6.059
10105SOL    HW231215   2.195   1.155   6.116
10106SOL     OW31216   3.641   6.394   1.034
10106SOL    HW131217   3.627   6.409   0.936
10106SOL    HW231218   3.704   6.318   1.047
10107SOL     OW31219   5.336   2.120   6.265
10107SOL    HW131220   5.346   2.167   6.353
10107SOL    HW231221   5.293   2.182   6.199
10108SOL     OW31222   0.937   2.765   0.701
10108SOL    HW131223   0.992   2.742   0.620
10108SOL    HW231224   0.903   2.681   0.743
10109SOL     OW31225   0.383   1.030   0.295
10109SOL    HW131226   0.374   1.122   0.333
10109SOL    HW231227   0.444   1.032   0.216
10110SOL     OW31228   4.722   5.173   3.048
10110SOL    HW131229   4.704   5.192   3.145
10110SOL    HW231230   4.725   5.074   3.033
10111SOL     OW31231   0.721   3.185   2.527
10111SOL    HW131232   0.813   3.174   2.565
10111SOL    HW231233   0.681   3.270   2.559
10112SOL     OW31234   6.276   3.642   3.265
10112SOL    HW131235   6.370   3.663   3.239
10112SOL    HW231236   6.276   3.583   3.346
10113SOL     OW31237   4.280   0.903   6.953
10113SOL    HW131238   4.356   0.957   6.916
10113SOL    HW231239   4.200   0.912   6.893
10114SOL     OW31240   3.814   2.156   3.340
10114SOL    HW131241   3.835   2.105   3.424
10114SOL    HW231242   3.731   2.209   3.353
10115SOL     OW31243   3.632   1.497   4.367
10115SOL    HW131244   3.602   1.583   4.327
10115SOL    HW231245   3.607   1.421   4.306
10116SOL     OW31246   6.959   0.319   5.712
10116SOL    HW131247   0.006   0.339   5.781
10116SOL    HW231248   6.987   0.356   5.624
10117SOL     OW31249   6.973   5.866   5.434
10117SOL    HW131250   0.015   5.811   5.381
10117SOL    HW231251   7.005   5.876   5.528
10118SOL     OW31252   2.806   4.781   4.381
10118SOL    HW131253   2.755   4.714   4.326
10118SOL    HW231254   2.743   4.850   4.416
10119SOL     OW31255   6.803   5.728   4.028
10119SOL    HW131256   6.878   5.699   3.968
10119SOL    HW231257   6.720   5.679   4.004
10120SOL     OW31258   1.420   3.151   3.515
10120SOL    HW131259   1.495   3.209   3.482
10120SOL    HW231260   1.396   3.178   3.608
10121SOL     OW31261   6.173   4.333   1.271
10121SOL    HW131262   6.116   4.281   1.208
10121SOL    HW231263   6.127   4.341   1.359
10122SOL     OW31264   6.411   2.352   3.691
10122SOL    HW131265   6.365   2.295   3.759
10122SOL    HW231266   6.449   2.293   3.619
10123SOL     OW31267   5.907   6.543   0.380
10123SOL    HW131268   5.887   6.457   0.426
10123SOL    HW231269   5.917   6.526   0.281
10124SOL     OW31270   1.786   5.288   1.967
10124SOL    HW131271   1.848   5.266   2.042
10124SOL    HW231272   1.700   5.238   1.978
10125SOL     OW31273   2.394   1.082   1.462
10125SOL    HW131274   2.319   1.022   1.432
10125SOL    HW231275   2.368   1.125   1.549
10126SOL     OW31276   6.440   0.085   6.145
10126SOL    HW131277   6.384   0.168   6.137
10126SOL    HW231278   6.380   0.005   6.152
10127SOL     OW31279   1.394   4.354   5.942
10127SOL    HW131280   1.343   4.344   6.027
10127SOL    HW231281   1.484   4.393   5.961
10128SOL     OW31282   2.685   0.415   6.753
10128SOL    HW131283   2.761   0.451   6.699
10128SOL    HW231284   2.708   0.420   6.850
10129SOL     OW31285   0.325   1.377   1.902
10129SOL    HW131286   0.399   1.320   1.938
10129SOL    HW231287   0.278   1.421   1.979
10130SOL     OW31288   1.150   2.788   1.369
10130SOL    HW131289   1.133   2.805   1.272
10130SOL    HW231290   1.229   2.728   1.379
10131SOL     OW31291   1.645   0.638   4.158
10131SOL    HW131292   1.718   0.682   4.106
10131SOL    HW231293   1.620   0.695   4.236
10132SOL     OW31294   0.959   0.764   2.263
10132SOL    HW131295   0.967   0.854   2.220
10132SOL    HW231296   0.920   0.775   2.355
10133SOL     OW31297   3.856   6.224   1.075
10133SOL    HW131298   3.918   6.240   0.998
10133SOL    HW231299   3.872   6.133   1.113
10134SOL     OW31300   6.881   1.315   2.976
10134SOL    HW131301   6.823   1.322   3.057
10134SOL    HW231302   6.977   1.327   3.002
10135SOL     OW31303   5.766   1.132   3.785
10135SOL    HW131304   5.772   1.085   3.697
10135SOL    HW231305   5.684   1.189   3.786
10136SOL     OW31306   4.696   2.694   2.531
10136SOL    HW131307   4.781   2.740   2.556
10136SOL    HW231308   4.689   2.608   2.581
10137SOL     OW31309   0.788   4.967   5.803
10137SOL    HW131310   0.751   4.938   5.891
10137SOL    HW231311   0.851   4.897   5.769
10138SOL     OW31312   5.251   1.789   0.161
10138SOL    HW131313   5.241   1.690   0.166
10138SOL    HW231314   5.344   1.815   0.189
10139SOL     OW31315   3.959   3.035   4.692
10139SOL    HW131316   4.014   2.960   4.728
10139SOL    HW231317   3.862   3.018   4.712
10140SOL     OW31318   6.808   6.624   6.367
10140SOL    HW131319   6.779   6.691   6.435
10140SOL    HW231320   6.732   6.603   6.305
10141SOL     OW31321   4.291   0.581   3.208
10141SOL    HW131322   4.378   0.547   3.172
10141SOL    HW231323   4.229   0.504   3.224
10142SOL     OW31324   5.865   6.515   4.941
10142SOL    HW131325   5.866   6.473   5.032
10142SOL    HW231326   5.853   6.443   4.872
10143SOL     OW31327   6.081   2.964   0.100
10143SOL    HW131328   5.985   2.970   0.075
10143SOL    HW231329   6.119   3.056   0.109
10144SOL     OW31330   3.857   6.733   5.411
10144SOL    HW131331   3.897   6.810   5.361
10144SOL    HW231332   3.885   6.647   5.369
10145SOL     OW31333   4.051   6.392   2.513
10145SOL    HW131334   4.116   6.417   2.585
10145SOL    HW231335   4.060   6.455   2.436
10146SOL     OW31336   6.940   3.905   4.549
10146SOL    HW131337   6.879   3.960   4.492
10146SOL    HW231338   7.011   3.964   4.587
10147SOL     OW31339   4.580   4.818   0.059
10147SOL    HW131340   4.519   4.750   0.021
10147SOL    HW231341   4.665   4.820   0.006
10148SOL     OW31342   6.561   4.086   1.257
10148SOL    HW131343   6.524   4.170   1.296
10148SOL    HW231344   6.576   4.019   1.330
10149SOL     OW31345   4.744   4.594   1.355
10149SOL    HW131346   4.808   4.651   1.407
10149SOL    HW231347   4.791   4.509   1.328
10150SOL     OW31348   5.333   3.521   1.861
10150SOL    HW131349   5.327   3.422   1.860
10150SOL    HW231350   5.309   3.557   1.770
10151SOL     OW31351   0.350   6.850   5.555
10151SOL    HW131352   0.252   6.865   5.548
10151SOL    HW231353   0.378   6.782   5.488
10152SOL     OW31354   6.072   5.726   3.494
10152SOL    HW131355   6.015   5.645   3.505
10152SOL    HW231356   6.125   5.718   3.410
10153SOL     OW31357   4.502   6.128   3.495
10153SOL    HW131358   4.510   6.135   3.594
10153SOL    HW231359   4.415   6.168   3.466
10154SOL     OW31360   4.268   5.303   5.886
10154SOL    HW131361   4.206   5.377   5.913
10154SOL    HW231362   4.322   5.332   5.808
10155SOL     OW31363   4.969   1.792   6.279
10155SOL    HW131364   5.022   1.734   6.218
10155SOL    HW231365   4.892   1.741   6.316
10156SOL     OW31366   4.283   0.338   1.234
10156SOL    HW131367   4.379   0.332   1.262
10156SOL    HW231368   4.225   0.298   1.305
10157SOL     OW31369   0.267   1.913   0.359
10157SOL    HW131370   0.216   1.993   0.328
10157SOL    HW231371   0.211   1.860   0.422
10158SOL     OW31372   6.191   6.261   2.405
10158SOL    HW131373   6.252   6.186   2.430
10158SOL    HW231374   6.098   6.240   2.436
10159SOL     OW31375   3.392   3.056   2.542
10159SOL    HW131376   3.458   3.030   2.613
10159SOL    HW231377   3.441   3.096   2.465
10160SOL     OW31378   2.391   4.418   2.936
10160SOL    HW131379   2.368   4.391   3.029
10160SOL    HW231380   2.325   4.486   2.903
10161SOL     OW31381   3.782   4.595   6.537
10161SOL    HW131382   3.853   4.536   6.575
10161SOL    HW231383   3.729   4.635   6.612
10162SOL     OW31384   1.965   4.322   1.503
10162SOL    HW131385   1.971   4.327   1.603
10162SOL    HW231386   1.869   4.310   1.477
10163SOL     OW31387   1.081   5.919   5.753
10163SOL    HW131388   1.059   5.861   5.831
10163SOL    HW231389   1.144   5.871   5.691
10164SOL     OW31390   6.461   3.355   3.681
10164SOL    HW131391   6.522   3.287   3.640
10164SOL    HW231392   6.402   3.311   3.748
10165SOL     OW31393   5.985   2.463   3.646
10165SOL    HW131394   6.042   2.492   3.723
10165SOL    HW231395   5.911   2.405   3.679
10166SOL     OW31396   1.561   2.596   0.970
10166SOL    HW131397   1.532   2.689   0.951
10166SOL    HW231398   1.512   2.533   0.911
10167SOL     OW31399   0.290   5.017   6.997
10167SOL    HW131400   0.263   5.114   6.995
10167SOL    HW231401   0.227   4.966   0.033
10168SOL     OW31402   5.867   1.099   5.676
10168SOL    HW131403   5.792   1.163   5.689
10168SOL    HW231404   5.870   1.036   5.754
10169SOL     OW31405   0.201   3.973   3.018
10169SOL    HW131406   0.151   3.995   2.934
10169SOL    HW231407   0.185   4.045   3.086
10170SOL     OW31408   6.705   5.309   6.731
10170SOL    HW131409   6.765   5.389   6.732
10170SOL    HW231410   6.759   5.227   6.711
10171SOL     OW31411   0.908   2.702   5.751
10171SOL    HW131412   0.883   2.610   5.721
10171SOL    HW231413   0.961   2.747   5.679
10172SOL     OW31414   0.526   0.118   4.163
10172SOL    HW131415   0.573   0.191   4.112
10172SOL    HW231416   0.540   0.031   4.117
10173SOL     OW31417   3.261   3.970   0.019
10173SOL    HW131418   3.290   4.046   0.077
10173SOL    HW231419   3.168   3.987   7.008
10174SOL     OW31420   5.304   5.573   3.382
10174SOL    HW131421   5.400   5.588   3.357
10174SOL    HW231422   5.293   5.480   3.417
10175SOL     OW31423   6.649   1.623   3.392
10175SOL    HW131424   6.587   1.562   3.344
10175SOL    HW231425   6.736   1.629   3.343
10176SOL     OW31426   6.772   3.903   5.513
10176SOL    HW131427   6.775   3.887   5.414
10176SOL    HW231428   6.845   3.966   5.539
10177SOL     OW31429   2.091   0.181   1.028
10177SOL    HW131430   2.067   0.268   0.985
10177SOL    HW231431   2.061   0.106   0.968
10178SOL     OW31432   1.660   0.707   0.806
10178SOL    HW131433   1.729   0.670   0.868
10178SOL    HW231434   1.675   0.806   0.795
10179SOL     OW31435   0.094   4.253   0.210
10179SOL    HW131436   0.056   4.283   0.123
10179SOL    HW231437   0.162   4.319   0.241
10180SOL     OW31438   4.876   0.142   0.313
10180SOL    HW131439   4.817   0.096   0.247
10180SOL    HW231440   4.856   0.108   0.405
10181SOL     OW31441   6.750   3.324   1.133
10181SOL    HW131442   6.827   3.305   1.072
10181SOL    HW231443   6.721   3.238   1.176
10182SOL     OW31444   5.141   0.698   0.102
10182SOL    HW131445   5.183   0.669   0.016
10182SOL    HW231446   5.107   0.619   0.152
10183SOL     OW31447   5.839   3.025   5.805
10183SOL    HW131448   5.866   2.937   5.767
10183SOL    HW231449   5.905   3.095   5.777
10184SOL     OW31450   5.330   3.064   5.770
10184SOL    HW131451   5.397   3.107   5.709
10184SOL    HW231452   5.367   3.060   5.862
10185SOL     OW31453   4.449   6.130   2.693
10185SOL    HW131454   4.423   6.202   2.628
10185SOL    HW231455   4.547   6.138   2.712
10186SOL     OW31456   4.916   3.806   5.183
10186SOL    HW131457   4.883   3.713   5.167
10186SOL    HW231458   4.895   3.833   5.276
10187SOL     OW31459   2.183   4.078   5.370
10187SOL    HW131460   2.219   4.139   5.299
10187SOL    HW231461   2.242   3.998   5.378
10188SOL     OW31462   3.289   5.819   6.536
10188SOL    HW131463   3.265   5.873   6.455
10188SOL    HW231464   3.205   5.789   6.581
10189SOL     OW31465   1.303   0.773   0.048
10189SOL    HW131466   1.233   0.841   0.030
10189SOL    HW231467   1.261   0.689   0.083
10190SOL     OW31468   3.352   3.574   1.286
10190SOL    HW131469   3.441   3.566   1.330
10190SOL    HW231470   3.280   3.571   1.355
10191SOL     OW31471   5.751   5.843   1.415
10191SOL    HW131472   5.765   5.752   1.376
10191SOL    HW231473   5.815   5.857   1.490
10192SOL     OW31474   2.058   2.215   4.720
10192SOL    HW131475   2.033   2.255   4.808
10192SOL    HW231476   2.140   2.261   4.686
10193SOL     OW31477   3.362   3.859   2.375
10193SOL    HW131478   3.437   3.850   2.441
10193SOL    HW231479   3.275   3.868   2.423
10194SOL     OW31480   3.378   0.126   5.230
10194SOL    HW131481   3.421   0.209   5.265
10194SOL    HW231482   3.346   0.141   5.137
10195SOL     OW31483   6.717   0.135   1.526
10195SOL    HW131484   6.756   0.048   1.555
10195SOL    HW231485   6.699   0.132   1.427
10196SOL     OW31486   5.943   2.005   3.572
10196SOL    HW131487   5.974   2.085   3.624
10196SOL    HW231488   5.868   2.031   3.511
10197SOL     OW31489   5.859   0.661   4.301
10197SOL    HW131490   5.900   0.741   4.256
10197SOL    HW231491   5.828   0.596   4.231
10198SOL     OW31492   3.643   6.611   0.423
10198SOL    HW131493   3.577   6.566   0.363
10198SOL    HW231494   3.595   6.674   0.484
10199SOL     OW31495   0.569   1.133   6.674
10199SOL    HW131496   0.548   1.230   6.686
10199SOL    HW231497   0.569   1.087   6.762
10200SOL     OW31498   5.103   3.010   5.500
10200SOL    HW131499   5.060   3.083   5.552
10200SOL    HW231500   5.187   3.044   5.458
10201SOL     OW31501   0.595   6.073   1.396
10201SOL    HW131502   0.572   6.102   1.489
10201SOL    HW231503   0.516   6.026   1.355
10202SOL     OW31504   1.514   3.619   0.552
10202SOL    HW131505   1.504   3.543   0.616
10202SOL    HW231506   1.437   3.621   0.489
10203SOL     OW31507   1.520   2.711   2.060
10203SOL    HW131508   1.547   2.749   2.149
10203SOL    HW231509   1.545   2.615   2.055
10204SOL     OW31510   3.911   4.745   6.127
10204SOL    HW131511   3.946   4.698   6.046
10204SOL    HW231512   3.812   4.736   6.130
10205SOL     OW31513   3.859   1.127   2.904
10205SOL    HW131514   3.847   1.041   2.954
10205SOL    HW231515   3.814   1.120   2.815
10206SOL     OW31516   5.185   6.126   6.212
10206SOL    HW131517   5.158   6.172   6.127
10206SOL    HW231518   5.280   6.148   6.233
10207SOL     OW31519   1.455   0.418   1.052
10207SOL    HW131520   1.534   0.429   0.991
10207SOL    HW231521   1.467   0.477   1.132
10208SOL     OW31522   6.705   5.036   4.705
10208SOL    HW131523   6.764   5.075   4.635
10208SOL    HW231524   6.629   5.099   4.723
10209SOL     OW31525   0.452   1.058   5.447
10209SOL    HW131526   0.396   0.975   5.451
10209SOL    HW231527   0.394   1.138   5.461
10210SOL     OW31528   5.008   0.154   1.428
10210SOL    HW131529   5.033   0.079   1.489
10210SOL    HW231530   4.908   0.164   1.428
10211SOL     OW31531   4.244   6.555   5.676
10211SOL    HW131532   4.245   6.631   5.611
10211SOL    HW231533   4.201   6.584   5.762
10212SOL     OW31534   0.224   1.282   4.404
10212SOL    HW131535   0.259   1.227   4.328
10212SOL    HW231536   0.264   1.374   4.399
10213SOL     OW31537   6.192   1.781   2.804
10213SOL    HW131538   6.227   1.850   2.740
10213SOL    HW231539   6.133   1.717   2.754
10214SOL     OW31540   0.773   0.995   2.505
10214SOL    HW131541   0.710   1.008   2.428
10214SOL    HW231542   0.815   0.905   2.500
10215SOL     OW31543   3.443   2.836   5.228
10215SOL    HW131544   3.493   2.862   5.146
10215SOL    HW231545   3.384   2.757   5.209
10216SOL     OW31546   7.017   6.981   0.737
10216SOL    HW131547   0.051   6.999   0.817
10216SOL    HW231548   6.927   6.950   0.766
10217SOL     OW31549   2.455   1.161   3.856
10217SOL    HW131550   2.527   1.096   3.877
10217SOL    HW231551   2.493   1.254   3.852
10218SOL     OW31552   0.738   1.053   1.011
10218SOL    HW131553   0.814   0.989   0.998
10218SOL    HW231554   0.737   1.120   0.936
10219SOL     OW31555   0.489   2.885   1.915
10219SOL    HW131556   0.498   2.862   2.012
10219SOL    HW231557   0.542   2.821   1.860
10220SOL     OW31558   4.310   1.587   2.196
10220SOL    HW131559   4.360   1.673   2.192
10220SOL    HW231560   4.228   1.599   2.252
10221SOL     OW31561   1.478   1.895   3.806
10221SOL    HW131562   1.443   1.853   3.890
10221SOL    HW231563   1.404   1.900   3.738
10222SOL     OW31564   0.587   3.580   5.688
10222SOL    HW131565   0.622   3.632   5.610
10222SOL    HW231566   0.525   3.508   5.654
10223SOL     OW31567   2.218   5.877   6.328
10223SOL    HW131568   2.209   5.817   6.408
10223SOL    HW231569   2.242   5.822   6.248
10224SOL     OW31570   0.542   0.815   4.496
10224SOL    HW131571   0.478   0.841   4.423
10224SOL    HW231572   0.636   0.826   4.463
10225SOL     OW31573   1.573   6.338   5.604
10225SOL    HW131574   1.489   6.382   5.573
10225SOL    HW231575   1.558   6.239   5.610
10226SOL     OW31576   2.689   0.214   0.478
10226SOL    HW131577   2.612   0.188   0.419
10226SOL    HW231578   2.681   0.311   0.502
10227SOL     OW31579   4.663   4.970   1.088
10227SOL    HW131580   4.579   5.019   1.066
10227SOL    HW231581   4.645   4.872   1.092
10228SOL     OW31582   0.803   5.679   2.335
10228SOL    HW131583   0.789   5.744   2.261
10228SOL    HW231584   0.838   5.593   2.298
10229SOL     OW31585   1.137   1.292   4.271
10229SOL    HW131586   1.038   1.286   4.281
10229SOL    HW231587   1.180   1.214   4.317
10230SOL     OW31588   6.739   0.521   3.610
10230SOL    HW131589   6.775   0.481   3.694
10230SOL    HW231590   6.766   0.464   3.532
10231SOL     OW31591   0.230   6.073   5.814
10231SOL    HW131592   0.173   6.017   5.875
10231SOL    HW231593   0.172   6.133   5.759
10232SOL     OW31594   3.394   0.794   4.279
10232SOL    HW131595   3.365   0.707   4.318
10232SOL    HW231596   3.405   0.862   4.352
10233SOL     OW31597   5.120   3.164   5.011
10233SOL    HW131598   5.209   3.123   4.990
10233SOL    HW231599   5.103   3.159   5.109
10234SOL     OW31600   5.459   0.371   0.815
10234SOL    HW131601   5.378   0.356   0.759
10234SOL    HW231602   5.444   0.450   0.875
10235SOL     OW31603   4.621   1.703   0.660
10235SOL    HW131604   4.618   1.607   0.631
10235SOL    HW231605   4.715   1.727   0.685
10236SOL     OW31606   1.338   6.203   2.189
10236SOL    HW131607   1.343   6.265   2.111
10236SOL    HW231608   1.315   6.255   2.271
10237SOL     OW31609   6.141   4.029   0.940
10237SOL    HW131610   6.175   3.956   1.000
10237SOL    HW231611   6.218   4.085   0.908
10238SOL     OW31612   3.470   4.181   4.340
10238SOL    HW131613   3.382   4.140   4.365
10238SOL    HW231614   3.521   4.204   4.423
10239SOL     OW31615   1.263   4.036   5.243
10239SOL    HW131616   1.340   4.049   5.305
10239SOL    HW231617   1.185   3.998   5.293
10240SOL     OW31618   1.823   4.718   2.772
10240SOL    HW131619   1.887   4.793   2.791
10240SOL    HW231620   1.747   4.722   2.836
10241SOL     OW31621   0.405   0.687   1.992
10241SOL    HW131622   0.449   0.631   1.922
10241SOL    HW231623   0.431   0.653   2.083
10242SOL     OW31624   6.595   1.921   6.815
10242SOL    HW131625   6.607   1.841   6.874
10242SOL    HW231626   6.504   1.919   6.774
10243SOL     OW31627   0.183   5.339   1.277
10243SOL    HW131628   0.282   5.326   1.270
10243SOL    HW231629   0.148   5.379   1.192
10244SOL     OW31630   1.959   4.559   0.020
10244SOL    HW131631   1.980   4.548   6.945
10244SOL    HW231632   1.916   4.648   0.035
10245SOL     OW31633   2.959   4.063   0.431
10245SOL    HW131634   2.946   3.995   0.503
10245SOL    HW231635   3.037   4.038   0.374
10246SOL     OW31636   2.932   3.786   3.978
10246SOL    HW131637   3.003   3.716   3.979
10246SOL    HW231638   2.842   3.744   3.985
10247SOL     OW31639   0.568   5.498   4.489
10247SOL    HW131640   0.484   5.459   4.450
10247SOL    HW231641   0.584   5.588   4.450
10248SOL     OW31642   2.841   0.278   1.867
10248SOL    HW131643   2.790   0.194   1.849
10248SOL    HW231644   2.831   0.303   1.963
10249SOL     OW31645   2.940   0.908   5.864
10249SOL    HW131646   2.943   1.008   5.868
10249SOL    HW231647   2.915   0.871   5.953
10250SOL     OW31648   0.016   2.182   1.254
10250SOL    HW131649   0.027   2.278   1.277
10250SOL    HW231650   0.104   2.144   1.226
10251SOL     OW31651   2.088   2.670   5.171
10251SOL    HW131652   2.137   2.650   5.086
10251SOL    HW231653   2.120   2.758   5.207
10252SOL     OW31654   0.136   6.075   0.380
10252SOL    HW131655   0.158   5.986   0.420
10252SOL    HW231656   0.090   6.132   0.449
10253SOL     OW31657   5.327   6.354   0.746
10253SOL    HW131658   5.414   6.356   0.697
10253SOL    HW231659   5.343   6.350   0.844
10254SOL     OW31660   4.276   2.176   5.079
10254SOL    HW131661   4.207   2.104   5.082
10254SOL    HW231662   4.231   2.265   5.072
10255SOL     OW31663   2.701   5.220   1.841
10255SOL    HW131664   2.797   5.242   1.824
10255SOL    HW231665   2.662   5.288   1.902
10256SOL     OW31666   5.548   0.139   1.813
10256SOL    HW131667   5.505   0.194   1.741
10256SOL    HW231668   5.612   0.195   1.864
10257SOL     OW31669   2.146   5.270   4.189
10257SOL    HW131670   2.069   5.218   4.152
10257SOL    HW231671   2.149   5.261   4.288
10258SOL     OW31672   4.536   0.284   3.953
10258SOL    HW131673   4.607   0.217   3.973
10258SOL    HW231674   4.501   0.270   3.861
10259SOL     OW31675   0.815   5.320   3.222
10259SOL    HW131676   0.882   5.355   3.157
10259SOL    HW231677   0.858   5.309   3.312
10260SOL     OW31678   0.143   0.619   3.376
10260SOL    HW131679   0.242   0.631   3.388
10260SOL    HW231680   0.096   0.645   3.460
10261SOL     OW31681   6.935   6.449   2.374
10261SOL    HW131682   6.876   6.394   2.433
10261SOL    HW231683   6.891   6.537   2.355
10262SOL     OW31684   3.111   6.077   4.676
10262SOL    HW131685   3.203   6.036   4.673
10262SOL    HW231686   3.043   6.004   4.679
10263SOL     OW31687   4.581   1.235   6.482
10263SOL    HW131688   4.573   1.307   6.551
10263SOL    HW231689   4.578   1.276   6.391
10264SOL     OW31690   5.613   1.929   6.911
10264SOL    HW131691   5.529   1.877   6.895
10264SOL    HW231692   5.657   1.948   6.823
10265SOL     OW31693   3.752   2.120   2.843
10265SOL    HW131694   3.827   2.139   2.780
10265SOL    HW231695   3.665   2.130   2.795
10266SOL     OW31696   3.590   2.711   5.435
10266SOL    HW131697   3.553   2.764   5.359
10266SOL    HW231698   3.674   2.665   5.406
10267SOL     OW31699   6.390   2.034   6.188
10267SOL    HW131700   6.309   1.990   6.146
10267SOL    HW231701   6.465   2.035   6.122
10268SOL     OW31702   3.872   6.128   1.700
10268SOL    HW131703   3.774   6.111   1.691
10268SOL    HW231704   3.887   6.207   1.759
10269SOL     OW31705   1.776   2.165   5.471
10269SOL    HW131706   1.844   2.115   5.523
10269SOL    HW231707   1.704   2.198   5.532
10270SOL     OW31708   2.313   5.352   2.563
10270SOL    HW131709   2.386   5.322   2.624
10270SOL    HW231710   2.249   5.276   2.548
10271SOL     OW31711   4.200   3.222   0.146
10271SOL    HW131712   4.232   3.127   0.143
10271SOL    HW231713   4.121   3.232   0.085
10272SOL     OW31714   1.278   0.063   4.633
10272SOL    HW131715   1.290   0.134   4.702
10272SOL    HW231716   1.231   7.007   4.673
10273SOL     OW31717   4.649   5.424   3.683
10273SOL    HW131718   4.617   5.445   3.776
10273SOL    HW231719   4.623   5.330   3.659
10274SOL     OW31720   1.209   4.238   5.078
10274SOL    HW131721   1.209   4.215   4.981
10274SOL    HW231722   1.243   4.160   5.131
10275SOL     OW31723   1.060   0.027   2.129
10275SOL    HW131724   1.006   0.078   2.062
10275SOL    HW231725   1.095   0.089   2.199
10276SOL     OW31726   6.458   5.658   6.084
10276SOL    HW131727   6.481   5.643   6.180
10276SOL    HW231728   6.466   5.755   6.062
10277SOL     OW31729   2.723   6.128   4.123
10277SOL    HW131730   2.762   6.130   4.031
10277SOL    HW231731   2.638   6.076   4.122
10278SOL     OW31732   5.749   0.899   4.800
10278SOL    HW131733   5.799   0.917   4.715
10278SOL    HW231734   5.794   0.827   4.852
10279SOL     OW31735   2.606   6.722   4.351
10279SOL    HW131736   2.619   6.813   4.391
10279SOL    HW231737   2.689   6.695   4.304
10280SOL     OW31738   2.067   3.529   1.062
10280SOL    HW131739   2.125   3.609   1.048
10280SOL    HW231740   2.039   3.524   1.158
10281SOL     OW31741   6.265   2.260   2.715
10281SOL    HW131742   6.235   2.264   2.619
10281SOL    HW231743   6.364   2.250   2.719
10282SOL     OW31744   6.216   3.793   4.261
10282SOL    HW131745   6.183   3.850   4.336
10282SOL    HW231746   6.242   3.850   4.184
10283SOL     OW31747   1.165   3.165   0.338
10283SOL    HW131748   1.216   3.184   0.423
10283SOL    HW231749   1.153   3.249   0.287
10284SOL     OW31750   5.004   4.339   5.961
10284SOL    HW131751   4.911   4.333   5.923
10284SOL    HW231752   5.061   4.268   5.920
10285SOL     OW31753   4.715   0.577   1.057
10285SOL    HW131754   4.716   0.479   1.075
10285SOL    HW231755   4.702   0.627   1.143
10286SOL     OW31756   3.494   1.945   4.076
10286SOL    HW131757   3.403   1.967   4.041
10286SOL    HW231758   3.526   1.859   4.035
10287SOL     OW31759   1.368   6.499   1.686
10287SOL    HW131760   1.458   6.527   1.653
10287SOL    HW231761   1.329   6.430   1.624
10288SOL     OW31762   5.181   6.609   2.392
10288SOL    HW131763   5.214   6.530   2.340
10288SOL    HW231764   5.177   6.689   2.332
10289SOL     OW31765   3.465   0.848   2.307
10289SOL    HW131766   3.423   0.910   2.241
10289SOL    HW231767   3.414   0.762   2.308
10290SOL     OW31768   3.744   4.011   2.684
10290SOL    HW131769   3.772   4.041   2.592
10290SOL    HW231770   3.695   4.086   2.729
10291SOL     OW31771   3.936   0.885   4.386
10291SOL    HW131772   3.915   0.980   4.410
10291SOL    HW231773   3.855   0.828   4.400
10292SOL     OW31774   0.676   1.556   4.689
10292SOL    HW131775   0.589   1.539   4.736
10292SOL    HW231776   0.658   1.590   4.597
10293SOL     OW31777   2.016   6.296   3.147
10293SOL    HW131778   2.004   6.308   3.049
10293SOL    HW231779   1.971   6.211   3.176
10294SOL     OW31780   4.888   3.521   3.161
10294SOL    HW131781   4.988   3.518   3.169
10294SOL    HW231782   4.851   3.589   3.224
10295SOL     OW31783   6.209   5.240   6.050
10295SOL    HW131784   6.169   5.218   5.961
10295SOL    HW231785   6.307   5.218   6.048
10296SOL     OW31786   5.073   3.422   6.564
10296SOL    HW131787   5.101   3.517   6.580
10296SOL    HW231788   5.055   3.408   6.467
10297SOL     OW31789   2.330   6.489   4.962
10297SOL    HW131790   2.321   6.529   5.053
10297SOL    HW231791   2.295   6.395   4.963
10298SOL     OW31792   4.007   5.007   2.666
10298SOL    HW131793   3.962   4.944   2.729
10298SOL    HW231794   4.017   4.963   2.577
10299SOL     OW31795   4.491   4.594   2.435
10299SOL    HW131796   4.556   4.635   2.499
10299SOL    HW231797   4.398   4.618   2.462
10300SOL     OW31798   1.958   4.788   2.453
10300SOL    HW131799   1.889   4.736   2.503
10300SOL    HW231800   1.942   4.886   2.465
10301SOL     OW31801   5.828   1.944   2.888
10301SOL    HW131802   5.851   1.885   2.811
10301SOL    HW231803   5.783   1.889   2.959
10302SOL     OW31804   1.105   6.089   4.111
10302SOL    HW131805   1.185   6.110   4.167
10302SOL    HW231806   1.134   6.071   4.017
10303SOL     OW31807   3.439   4.942   1.192
10303SOL    HW131808   3.471   4.850   1.171
10303SOL    HW231809   3.494   5.008   1.141
10304SOL     OW31810   5.628   0.899   2.548
10304SOL    HW131811   5.531   0.919   2.565
10304SOL    HW231812   5.683   0.946   2.617
10305SOL     OW31813   0.250   5.232   6.587
10305SOL    HW131814   0.196   5.199   6.664
10305SOL    HW231815   0.237   5.331   6.577
10306SOL     OW31816   4.549   6.504   6.436
10306SOL    HW131817   4.520   6.590   6.477
10306SOL    HW231818   4.482   6.475   6.367
10307SOL     OW31819   2.255   2.212   4.486
10307SOL    HW131820   2.258   2.133   4.424
10307SOL    HW231821   2.227   2.293   4.436
10308SOL     OW31822   2.695   4.837   3.968
10308SOL    HW131823   2.699   4.775   4.047
10308SOL    HW231824   2.646   4.920   3.993
10309SOL     OW31825   6.347   0.524   4.048
10309SOL    HW131826   6.335   0.474   4.133
10309SOL    HW231827   6.344   0.460   3.971
10310SOL     OW31828   4.081   2.656   1.708
10310SOL    HW131829   4.084   2.620   1.615
10310SOL    HW231830   4.150   2.727   1.718
10311SOL     OW31831   0.580   5.819   0.592
10311SOL    HW131832   0.607   5.793   0.685
10311SOL    HW231833   0.557   5.917   0.590
10312SOL     OW31834   3.433   5.383   0.977
10312SOL    HW131835   3.351   5.389   1.034
10312SOL    HW231836   3.407   5.365   0.882
10313SOL     OW31837   3.753   6.808   2.355
10313SOL    HW131838   3.655   6.792   2.357
10313SOL    HW231839   3.773   6.890   2.300
10314SOL     OW31840   5.746   0.865   1.541
10314SOL    HW131841   5.648   0.882   1.541
10314SOL    HW231842   5.786   0.898   1.455
10315SOL     OW31843   6.430   6.141   4.725
10315SOL    HW131844   6.350   6.199   4.710
10315SOL    HW231845   6.510   6.200   4.741
10316SOL     OW31846   6.485   3.853   4.868
10316SOL    HW131847   6.445   3.850   4.960
10316SOL    HW231848   6.476   3.763   4.825
10317SOL     OW31849   3.550   4.852   6.212
10317SOL    HW131850   3.626   4.917   6.217
10317SOL    HW231851   3.482   4.875   6.282
10318SOL     OW31852   6.579   5.264   1.534
10318SOL    HW131853   6.515   5.327   1.490
10318SOL    HW231854   6.531   5.178   1.555
10319SOL     OW31855   1.216   3.581   5.196
10319SOL    HW131856   1.291   3.584   5.262
10319SOL    HW231857   1.140   3.527   5.234
10320SOL     OW31858   0.613   0.790   0.436
10320SOL    HW131859   0.619   0.692   0.454
10320SOL    HW231860   0.583   0.805   0.342
10321SOL     OW31861   4.199   0.215   4.883
10321SOL    HW131862   4.117   0.188   4.933
10321SOL    HW231863   4.176   0.291   4.821
10322SOL     OW31864   6.280   5.882   0.125
10322SOL    HW131865   6.187   5.891   0.088
10322SOL    HW231866   6.276   5.830   0.211
10323SOL     OW31867   6.533   3.796   6.028
10323SOL    HW131868   6.549   3.822   6.123
10323SOL    HW231869   6.613   3.745   5.994
10324SOL     OW31870   3.427   2.990   3.715
10324SOL    HW131871   3.341   2.953   3.680
10324SOL    HW231872   3.502   2.963   3.655
10325SOL     OW31873   6.358   4.601   3.966
10325SOL    HW131874   6.276   4.560   3.928
10325SOL    HW231875   6.432   4.598   3.899
10326SOL     OW31876   4.898   2.541   0.066
10326SOL    HW131877   4.908   2.557   6.990
10326SOL    HW231878   4.815   2.585   0.099
10327SOL     OW31879   2.767   1.718   2.322
10327SOL    HW131880   2.758   1.707   2.421
10327SOL    HW231881   2.733   1.637   2.276
10328SOL     OW31882   6.172   3.484   1.411
10328SOL    HW131883   6.183   3.573   1.456
10328SOL    HW231884   6.147   3.415   1.479
10329SOL     OW31885   2.758   0.396   5.041
10329SOL    HW131886   2.826   0.332   5.006
10329SOL    HW231887   2.674   0.348   5.062
10330SOL     OW31888   3.088   5.329   2.727
10330SOL    HW131889   3.011   5.296   2.673
10330SOL    HW231890   3.163   5.354   2.666
10331SOL     OW31891   6.209   0.598   2.999
10331SOL    HW131892   6.306   0.594   3.022
10331SOL    HW231893   6.169   0.682   3.036
10332SOL     OW31894   6.648   1.540   0.368
10332SOL    HW131895   6.748   1.545   0.375
10332SOL    HW231896   6.608   1.622   0.407
10333SOL     OW31897   5.882   4.510   4.320
10333SOL    HW131898   5.841   4.592   4.359
10333SOL    HW231899   5.981   4.510   4.337
10334SOL     OW31900   1.881   5.729   3.498
10334SOL    HW131901   1.848   5.651   3.551
10334SOL    HW231902   1.976   5.747   3.521
10335SOL     OW31903   1.444   4.275   6.668
10335SOL    HW131904   1.370   4.207   6.672
10335SOL    HW231905   1.417   4.349   6.607
10336SOL     OW31906   5.062   6.738   2.691
10336SOL    HW131907   5.101   6.707   2.778
10336SOL    HW231908   5.131   6.732   2.619
10337SOL     OW31909   0.023   5.556   5.360
10337SOL    HW131910   6.963   5.501   5.370
10337SOL    HW231911   0.101   5.507   5.400
10338SOL     OW31912   3.402   6.281   1.165
10338SOL    HW131913   3.479   6.335   1.132
10338SOL    HW231914   3.366   6.225   1.090
10339SOL     OW31915   3.525   4.678   1.139
10339SOL    HW131916   3.465   4.643   1.210
10339SOL    HW231917   3.613   4.630   1.142
10340SOL     OW31918   1.649   5.963   6.580
10340SOL    HW131919   1.714   6.013   6.523
10340SOL    HW231920   1.567   5.942   6.527
10341SOL     OW31921   2.130   2.715   1.891
10341SOL    HW131922   2.035   2.740   1.875
10341SOL    HW231923   2.188   2.796   1.878
10342SOL     OW31924   2.382   5.837   5.556
10342SOL    HW131925   2.447   5.786   5.499
10342SOL    HW231926   2.433   5.903   5.612
10343SOL     OW31927   2.533   4.055   0.173
10343SOL    HW131928   2.573   4.065   0.265
10343SOL    HW231929   2.596   4.092   0.105
10344SOL     OW31930   3.921   3.966   3.608
10344SOL    HW131931   3.963   4.056   3.622
10344SOL    HW231932   3.860   3.970   3.529
10345SOL     OW31933   2.025   1.303   6.926
10345SOL    HW131934   1.987   1.371   6.864
10345SOL    HW231935   1.952   1.259   6.978
10346SOL     OW31936   5.848   0.421   1.385
10346SOL    HW131937   5.930   0.411   1.442
10346SOL    HW231938   5.863   0.494   1.318
10347SOL     OW31939   5.197   2.221   1.297
10347SOL    HW131940   5.206   2.151   1.226
10347SOL    HW231941   5.282   2.225   1.350
10348SOL     OW31942   6.493   0.967   6.179
10348SOL    HW131943   6.423   0.984   6.110
10348SOL    HW231944   6.489   0.872   6.209
10349SOL     OW31945   6.166   0.616   1.464
10349SOL    HW131946   6.189   0.519   1.467
10349SOL    HW231947   6.226   0.667   1.525
10350SOL     OW31948   3.497   6.290   4.502
10350SOL    HW131949   3.406   6.317   4.532
10350SOL    HW231950   3.561   6.366   4.518
10351SOL     OW31951   5.632   5.012   6.105
10351SOL    HW131952   5.554   5.032   6.046
10351SOL    HW231953   5.629   5.071   6.186
10352SOL     OW31954   5.371   2.257   6.504
10352SOL    HW131955   5.444   2.320   6.476
10352SOL    HW231956   5.400   2.204   6.584
10353SOL     OW31957   6.845   2.939   3.892
10353SOL    HW131958   6.889   2.852   3.871
10353SOL    HW231959   6.879   3.009   3.829
10354SOL     OW31960   0.711   3.710   0.840
10354SOL    HW131961   0.807   3.696   0.865
10354SOL    HW231962   0.653   3.655   0.900
10355SOL     OW31963   0.861   0.818   0.923
10355SOL    HW131964   0.799   0.833   0.846
10355SOL    HW231965   0.811   0.774   0.998
10356SOL     OW31966   0.328   3.474   6.499
10356SOL    HW131967   0.246   3.432   6.537
10356SOL    HW231968   0.395   3.403   6.477
10357SOL     OW31969   2.692   2.121   5.758
10357SOL    HW131970   2.759   2.188   5.790
10357SOL    HW231971   2.731   2.068   5.683
10358SOL     OW31972   1.268   3.529   3.017
10358SOL    HW131973   1.239   3.599   3.082
10358SOL    HW231974   1.366   3.511   3.029
10359SOL     OW31975   4.846   2.430   2.299
10359SOL    HW131976   4.792   2.436   2.382
10359SOL    HW231977   4.824   2.345   2.251
10360SOL     OW31978   4.917   5.384   2.189
10360SOL    HW131979   4.884   5.417   2.277
10360SOL    HW231980   4.987   5.313   2.204
10361SOL     OW31981   2.682   0.952   2.348
10361SOL    HW131982   2.695   0.915   2.440
10361SOL    HW231983   2.771   0.977   2.309
10362SOL     OW31984   0.481   5.051   2.684
10362SOL    HW131985   0.537   4.983   2.733
10362SOL    HW231986   0.541   5.120   2.644
10363SOL     OW31987   4.995   2.951   0.967
10363SOL    HW131988   4.981   3.048   0.987
10363SOL    HW231989   4.912   2.913   0.927
10364SOL     OW31990   5.166   4.787   1.817
10364SOL    HW131991   5.072   4.759   1.836
10364SOL    HW231992   5.230   4.719   1.853
10365SOL     OW31993   5.810   4.926   0.505
10365SOL    HW131994   5.877   4.953   0.575
10365SOL    HW231995   5.857   4.908   0.419
10366SOL     OW31996   4.459   6.818   3.643
10366SOL    HW131997   4.418   6.727   3.637
10366SOL    HW231998   4.420   6.868   3.720
10367SOL     OW31999   0.062   1.992   1.770
10367SOL    HW132000   6.997   1.969   1.811
10367SOL    HW232001   0.049   2.065   1.702
10368SOL     OW32002   2.160   0.929   2.801
10368SOL    HW132003   2.184   0.900   2.894
10368SOL    HW232004   2.102   0.860   2.758
10369SOL     OW32005   2.649   6.457   5.948
10369SOL    HW132006   2.731   6.484   5.999
10369SOL    HW232007   2.667   6.370   5.901
10370SOL     OW32008   6.302   1.580   4.796
10370SOL    HW132009   6.306   1.665   4.849
10370SOL    HW232010   6.220   1.529   4.821
10371SOL     OW32011   3.018   6.877   3.463
10371SOL    HW132012   3.115   6.891   3.445
10371SOL    HW232013   3.000   6.888   3.560
10372SOL     OW32014   2.587   0.873   1.514
10372SOL    HW132015   2.532   0.956   1.519
10372SOL    HW232016   2.681   0.897   1.487
10373SOL     OW32017   0.956   6.436   4.858
10373SOL    HW132018   0.966   6.350   4.908
10373SOL    HW232019   0.915   6.505   4.917
10374SOL     OW32020   2.689   0.189   4.654
10374SOL    HW132021   2.759   0.196   4.725
10374SOL    HW232022   2.637   0.274   4.649
10375SOL     OW32023   3.199   2.252   6.545
10375SOL    HW132024   3.146   2.257   6.461
10375SOL    HW232025   3.159   2.312   6.614
10376SOL     OW32026   1.131   6.032   3.811
10376SOL    HW132027   1.082   6.051   3.726
10376SOL    HW232028   1.224   6.069   3.804
10377SOL     OW32029   0.810   1.900   1.637
10377SOL    HW132030   0.858   1.815   1.613
10377SOL    HW232031   0.797   1.904   1.736
10378SOL     OW32032   6.788   5.280   6.046
10378SOL    HW132033   6.856   5.283   6.119
10378SOL    HW232034   6.776   5.372   6.007
10379SOL     OW32035   3.797   5.278   3.848
10379SOL    HW132036   3.890   5.266   3.882
10379SOL    HW232037   3.775   5.376   3.844
10380SOL     OW32038   1.245   2.337   5.178
10380SOL    HW132039   1.304   2.288   5.242
10380SOL    HW232040   1.150   2.324   5.204
10381SOL     OW32041   4.229   4.128   0.545
10381SOL    HW132042   4.206   4.182   0.464
10381SOL    HW232043   4.230   4.188   0.626
10382SOL     OW32044   2.943   6.378   1.794
10382SOL    HW132045   3.001   6.320   1.850
10382SOL    HW232046   2.995   6.458   1.764
10383SOL     OW32047   2.184   3.812   0.323
10383SOL    HW132048   2.146   3.733   0.371
10383SOL    HW232049   2.158   3.809   0.227
10384SOL     OW32050   6.813   6.674   0.706
10384SOL    HW132051   6.844   6.580   0.697
10384SOL    HW232052   6.744   6.694   0.637
10385SOL     OW32053   4.070   6.017   6.436
10385SOL    HW132054   4.094   6.103   6.390
10385SOL    HW232055   3.992   6.032   6.497
10386SOL     OW32056   1.082   1.023   5.524
10386SOL    HW132057   1.082   1.087   5.447
10386SOL    HW232058   1.011   0.954   5.510
10387SOL     OW32059   4.683   2.617   2.957
10387SOL    HW132060   4.627   2.603   2.875
10387SOL    HW232061   4.715   2.529   2.991
10388SOL     OW32062   2.291   6.817   0.878
10388SOL    HW132063   2.240   6.732   0.885
10388SOL    HW232064   2.243   6.880   0.817
10389SOL     OW32065   5.515   3.427   1.322
10389SOL    HW132066   5.442   3.360   1.317
10389SOL    HW232067   5.479   3.518   1.301
10390SOL     OW32068   1.538   2.471   6.542
10390SOL    HW132069   1.501   2.422   6.621
10390SOL    HW232070   1.465   2.484   6.474
10391SOL     OW32071   1.271   6.301   3.499
10391SOL    HW132072   1.356   6.316   3.447
10391SOL    HW232073   1.234   6.211   3.476
10392SOL     OW32074   5.826   5.028   5.325
10392SOL    HW132075   5.869   5.108   5.367
10392SOL    HW232076   5.737   5.055   5.286
10393SOL     OW32077   2.126   3.566   3.806
10393SOL    HW132078   2.032   3.540   3.829
10393SOL    HW232079   2.125   3.632   3.731
10394SOL     OW32080   2.497   5.588   4.702
10394SOL    HW132081   2.429   5.594   4.776
10394SOL    HW232082   2.464   5.640   4.623
10395SOL     OW32083   0.025   6.984   1.147
10395SOL    HW132084   0.039   6.939   1.235
10395SOL    HW232085   0.113   6.998   1.102
10396SOL     OW32086   4.007   1.498   3.663
10396SOL    HW132087   4.022   1.552   3.580
10396SOL    HW232088   4.091   1.496   3.717
10397SOL     OW32089   3.194   1.801   3.843
10397SOL    HW132090   3.151   1.777   3.930
10397SOL    HW232091   3.154   1.746   3.769
10398SOL     OW32092   6.161   2.887   1.076
10398SOL    HW132093   6.069   2.899   1.112
10398SOL    HW232094   6.178   2.789   1.061
10399SOL     OW32095   5.860   2.118   3.101
10399SOL    HW132096   5.817   2.202   3.069
10399SOL    HW232097   5.881   2.059   3.023
10400SOL     OW32098   4.026   5.717   0.266
10400SOL    HW132099   4.001   5.811   0.245
10400SOL    HW232100   4.125   5.705   0.256
10401SOL     OW32101   0.078   6.718   2.199
10401SOL    HW132102   7.011   6.727   2.244
10401SOL    HW232103   0.066   6.728   2.100
10402SOL     OW32104   6.629   1.762   5.462
10402SOL    HW132105   6.727   1.745   5.460
10402SOL    HW232106   6.611   1.854   5.498
10403SOL     OW32107   4.951   1.875   3.534
10403SOL    HW132108   4.873   1.848   3.591
10403SOL    HW232109   5.036   1.845   3.579
10404SOL     OW32110   5.896   6.252   4.519
10404SOL    HW132111   5.805   6.267   4.483
10404SOL    HW232112   5.960   6.318   4.479
10405SOL     OW32113   1.207   0.272   4.858
10405SOL    HW132114   1.285   0.279   4.920
10405SOL    HW232115   1.200   0.356   4.804
10406SOL     OW32116   2.198   4.583   3.095
10406SOL    HW132117   2.169   4.629   3.179
10406SOL    HW232118   2.241   4.496   3.118
10407SOL     OW32119   2.358   7.005   6.165
10407SOL    HW132120   2.389   6.965   6.079
10407SOL    HW232121   2.421   6.980   6.239
10408SOL     OW32122   4.086   7.021   1.221
10408SOL    HW132123   4.140   6.940   1.248
10408SOL    HW232124   4.024   6.996   1.146
10409SOL     OW32125   0.322   4.753   0.903
10409SOL    HW132126   0.411   4.747   0.949
10409SOL    HW232127   0.335   4.743   0.805
10410SOL     OW32128   5.556   2.041   1.915
10410SOL    HW132129   5.497   2.103   1.966
10410SOL    HW232130   5.540   1.947   1.944
10411SOL     OW32131   3.350   6.561   3.310
10411SOL    HW132132   3.332   6.557   3.211
10411SOL    HW232133   3.275   6.607   3.356
10412SOL     OW32134   0.037   1.155   0.183
10412SOL    HW132135   7.000   1.131   0.107
10412SOL    HW232136   0.043   1.255   0.191
10413SOL     OW32137   0.241   2.934   0.517
10413SOL    HW132138   0.333   2.949   0.480
10413SOL    HW232139   0.182   3.011   0.494
10414SOL     OW32140   3.874   5.300   5.798
10414SOL    HW132141   3.877   5.205   5.829
10414SOL    HW232142   3.843   5.359   5.873
10415SOL     OW32143   1.514   3.751   5.095
10415SOL    HW132144   1.486   3.761   5.191
10415SOL    HW232145   1.457   3.809   5.037
10416SOL     OW32146   6.098   0.473   4.922
10416SOL    HW132147   6.190   0.504   4.945
10416SOL    HW232148   6.062   0.418   4.998
10417SOL     OW32149   3.352   5.391   3.710
10417SOL    HW132150   3.410   5.316   3.742
10417SOL    HW232151   3.259   5.357   3.697
10418SOL     OW32152   6.913   3.931   6.925
10418SOL    HW132153   6.926   4.010   6.866
10418SOL    HW232154   6.985   3.864   6.908
10419SOL     OW32155   2.463   0.022   5.707
10419SOL    HW132156   2.518   6.970   5.669
10419SOL    HW232157   2.367   0.007   5.683
10420SOL     OW32158   0.758   3.925   3.992
10420SOL    HW132159   0.731   4.021   4.000
10420SOL    HW232160   0.829   3.916   3.923
10421SOL     OW32161   0.638   1.902   3.791
10421SOL    HW132162   0.734   1.924   3.776
10421SOL    HW232163   0.591   1.981   3.832
10422SOL     OW32164   6.042   3.131   5.304
10422SOL    HW132165   6.092   3.050   5.275
10422SOL    HW232166   6.079   3.163   5.392
10423SOL     OW32167   6.281   5.610   5.562
10423SOL    HW132168   6.364   5.633   5.612
10423SOL    HW232169   6.277   5.512   5.545
10424SOL     OW32170   5.229   2.799   0.002
10424SOL    HW132171   5.238   2.720   0.064
10424SOL    HW232172   5.134   2.808   6.995
10425SOL     OW32173   0.957   0.134   1.713
10425SOL    HW132174   1.003   0.214   1.673
10425SOL    HW232175   0.967   0.056   1.652
10426SOL     OW32176   5.778   5.160   0.790
10426SOL    HW132177   5.804   5.090   0.723
10426SOL    HW232178   5.686   5.140   0.824
10427SOL     OW32179   3.823   0.999   6.534
10427SOL    HW132180   3.796   1.093   6.555
10427SOL    HW232181   3.850   0.952   6.618
10428SOL     OW32182   3.493   1.219   3.751
10428SOL    HW132183   3.551   1.138   3.754
10428SOL    HW232184   3.496   1.259   3.659
10429SOL     OW32185   0.033   4.390   1.411
10429SOL    HW132186   0.000   4.445   1.335
10429SOL    HW232187   0.123   4.353   1.389
10430SOL     OW32188   4.747   0.020   4.239
10430SOL    HW132189   4.753   0.055   4.146
10430SOL    HW232190   4.838   7.015   4.270
10431SOL     OW32191   3.084   6.115   4.392
10431SOL    HW132192   3.085   6.126   4.491
10431SOL    HW232193   3.177   6.124   4.356
10432SOL     OW32194   5.388   6.975   5.078
10432SOL    HW132195   5.379   7.016   4.988
10432SOL    HW232196   5.311   7.004   5.136
10433SOL     OW32197   1.179   5.863   1.452
10433SOL    HW132198   1.211   5.821   1.536
10433SOL    HW232199   1.082   5.843   1.439
10434SOL     OW32200   4.072   6.240   3.237
10434SOL    HW132201   3.997   6.306   3.240
10434SOL    HW232202   4.126   6.255   3.154
10435SOL     OW32203   7.010   1.096   4.889
10435SOL    HW132204   6.973   1.172   4.837
10435SOL    HW232205   0.049   1.042   4.832
10436SOL     OW32206   0.570   5.044   5.644
10436SOL    HW132207   0.642   5.033   5.712
10436SOL    HW232208   0.523   4.957   5.632
10437SOL     OW32209   4.742   4.095   5.693
10437SOL    HW132210   4.827   4.048   5.670
10437SOL    HW232211   4.676   4.081   5.618
10438SOL     OW32212   6.039   6.605   0.077
10438SOL    HW132213   5.977   6.684   0.079
10438SOL    HW232214   6.105   6.617   0.003
10439SOL     OW32215   3.887   0.863   5.353
10439SOL    HW132216   3.860   0.837   5.445
10439SOL    HW232217   3.927   0.784   5.306
10440SOL     OW32218   1.206   0.147   0.223
10440SOL    HW132219   1.295   0.188   0.242
10440SOL    HW232220   1.169   0.109   0.308
10441SOL     OW32221   3.192   0.320   1.470
10441SOL    HW132222   3.252   0.373   1.530
10441SOL    HW232223   3.102   0.310   1.513
10442SOL     OW32224   3.548   6.485   5.972
10442SOL    HW132225   3.500   6.407   5.932
10442SOL    HW232226   3.595   6.456   6.055
10443SOL     OW32227   4.691   4.256   4.290
10443SOL    HW132228   4.673   4.349   4.321
10443SOL    HW232229   4.656   4.191   4.357
10444SOL     OW32230   3.888   6.308   4.334
10444SOL    HW132231   3.846   6.351   4.414
10444SOL    HW232232   3.987   6.303   4.348
10445SOL     OW32233   0.660   4.955   4.767
10445SOL    HW132234   0.637   4.898   4.845
10445SOL    HW232235   0.602   5.037   4.767
10446SOL     OW32236   1.647   2.791   5.338
10446SOL    HW132237   1.571   2.753   5.392
10446SOL    HW232238   1.694   2.861   5.392
10447SOL     OW32239   0.364   1.006   1.564
10447SOL    HW132240   0.370   0.920   1.613
10447SOL    HW232241   0.455   1.033   1.532
10448SOL     OW32242   4.119   0.510   2.404
10448SOL    HW132243   4.049   0.576   2.431
10448SOL    HW232244   4.153   0.533   2.313
10449SOL     OW32245   2.795   5.177   4.605
10449SOL    HW132246   2.785   5.273   4.580
10449SOL    HW232247   2.705   5.139   4.628
10450SOL     OW32248   0.639   1.888   0.556
10450SOL    HW132249   0.592   1.914   0.471
10450SOL    HW232250   0.572   1.881   0.630
10451SOL     OW32251   1.015   5.966   2.462
10451SOL    HW132252   1.026   5.872   2.494
10451SOL    HW232253   1.076   6.026   2.513
10452SOL     OW32254   6.248   3.371   2.568
10452SOL    HW132255   6.298   3.299   2.519
10452SOL    HW232256   6.166   3.396   2.516
10453SOL     OW32257   3.648   6.613   1.200
10453SOL    HW132258   3.654   6.529   1.145
10453SOL    HW232259   3.625   6.590   1.294
10454SOL     OW32260   4.447   3.563   0.673
10454SOL    HW132261   4.368   3.624   0.661
10454SOL    HW232262   4.430   3.501   0.750
10455SOL     OW32263   6.375   6.029   3.597
10455SOL    HW132264   6.285   6.035   3.641
10455SOL    HW232265   6.446   6.040   3.667
10456SOL     OW32266   3.316   6.372   0.772
10456SOL    HW132267   3.297   6.412   0.682
10456SOL    HW232268   3.414   6.375   0.789
10457SOL     OW32269   2.900   3.641   1.964
10457SOL    HW132270   2.848   3.558   1.942
10457SOL    HW232271   2.987   3.615   2.005
10458SOL     OW32272   0.213   1.234   6.462
10458SOL    HW132273   0.145   1.203   6.395
10458SOL    HW232274   0.303   1.198   6.438
10459SOL     OW32275   4.562   6.198   1.216
10459SOL    HW132276   4.571   6.099   1.203
10459SOL    HW232277   4.479   6.230   1.171
10460SOL     OW32278   1.579   4.901   1.578
10460SOL    HW132279   1.500   4.841   1.588
10460SOL    HW232280   1.663   4.846   1.581
10461SOL     OW32281   1.107   4.805   5.380
10461SOL    HW132282   1.080   4.728   5.322
10461SOL    HW232283   1.078   4.787   5.474
10462SOL     OW32284   6.461   2.182   3.443
10462SOL    HW132285   6.376   2.234   3.427
10462SOL    HW232286   6.441   2.084   3.441
10463SOL     OW32287   3.875   2.845   5.616
10463SOL    HW132288   3.848   2.764   5.564
10463SOL    HW232289   3.840   2.839   5.709
10464SOL     OW32290   6.637   6.774   1.119
10464SOL    HW132291   6.553   6.812   1.080
10464SOL    HW232292   6.696   6.849   1.149
10465SOL     OW32293   6.886   5.852   1.337
10465SOL    HW132294   6.804   5.854   1.280
10465SOL    HW232295   6.950   5.785   1.301
10466SOL     OW32296   4.571   5.157   6.280
10466SOL    HW132297   4.636   5.109   6.222
10466SOL    HW232298   4.564   5.110   6.368
10467SOL     OW32299   1.949   2.258   5.992
10467SOL    HW132300   2.015   2.325   6.025
10467SOL    HW232301   1.986   2.166   6.005
10468SOL     OW32302   3.585   5.078   2.759
10468SOL    HW132303   3.670   5.129   2.770
10468SOL    HW232304   3.520   5.105   2.830
10469SOL     OW32305   4.101   3.428   5.821
10469SOL    HW132306   4.039   3.415   5.743
10469SOL    HW232307   4.117   3.525   5.835
10470SOL     OW32308   2.983   2.233   3.673
10470SOL    HW132309   2.999   2.205   3.578
10470SOL    HW232310   2.886   2.248   3.688
10471SOL     OW32311   2.560   2.326   0.794
10471SOL    HW132312   2.477   2.290   0.751
10471SOL    HW232313   2.610   2.252   0.838
10472SOL     OW32314   3.352   5.292   0.353
10472SOL    HW132315   3.346   5.246   0.264
10472SOL    HW232316   3.277   5.259   0.412
10473SOL     OW32317   6.214   0.757   0.262
10473SOL    HW132318   6.275   0.781   0.337
10473SOL    HW232319   6.158   0.679   0.288
10474SOL     OW32320   4.578   1.605   4.611
10474SOL    HW132321   4.637   1.536   4.568
10474SOL    HW232322   4.600   1.695   4.575
10475SOL     OW32323   5.249   0.003   2.672
10475SOL    HW132324   5.279   0.098   2.679
10475SOL    HW232325   5.223   6.991   2.762
10476SOL     OW32326   0.195   6.029   6.883
10476SOL    HW132327   0.195   6.074   6.794
10476SOL    HW232328   0.279   6.054   6.933
10477SOL     OW32329   6.159   1.708   4.208
10477SOL    HW132330   6.228   1.685   4.276
10477SOL    HW232331   6.142   1.807   4.211
10478SOL     OW32332   0.482   0.841   0.916
10478SOL    HW132333   0.450   0.931   0.889
10478SOL    HW232334   0.405   0.778   0.923
10479SOL     OW32335   0.430   2.501   1.653
10479SOL    HW132336   0.357   2.557   1.615
10479SOL    HW232337   0.428   2.506   1.753
10480SOL     OW32338   6.557   0.523   1.861
10480SOL    HW132339   6.504   0.480   1.934
10480SOL    HW232340   6.543   0.474   1.776
10481SOL     OW32341   2.423   6.986   4.569
10481SOL    HW132342   2.509   6.998   4.519
10481SOL    HW232343   2.442   6.963   4.665
10482SOL     OW32344   6.946   5.657   4.815
10482SOL    HW132345   6.943   5.624   4.909
10482SOL    HW232346   7.011   5.602   4.763
10483SOL     OW32347   0.099   5.501   0.560
10483SOL    HW132348   0.197   5.491   0.579
10483SOL    HW232349   0.080   5.594   0.528
10484SOL     OW32350   5.944   1.249   1.704
10484SOL    HW132351   5.957   1.334   1.755
10484SOL    HW232352   5.962   1.171   1.765
10485SOL     OW32353   3.088   3.628   2.331
10485SOL    HW132354   3.102   3.637   2.233
10485SOL    HW232355   3.116   3.536   2.360
10486SOL     OW32356   6.490   0.507   5.631
10486SOL    HW132357   6.413   0.445   5.615
10486SOL    HW232358   6.575   0.454   5.634
10487SOL     OW32359   4.177   1.938   1.961
10487SOL    HW132360   4.085   1.945   1.923
10487SOL    HW232361   4.224   2.025   1.949
10488SOL     OW32362   2.293   1.928   6.460
10488SOL    HW132363   2.351   1.961   6.534
10488SOL    HW232364   2.349   1.879   6.392
10489SOL     OW32365   5.867   6.993   4.019
10489SOL    HW132366   5.806   0.048   4.037
10489SOL    HW232367   5.860   6.966   3.923
10490SOL     OW32368   6.092   1.510   0.496
10490SOL    HW132369   6.039   1.459   0.428
10490SOL    HW232370   6.031   1.545   0.567
10491SOL     OW32371   2.454   2.496   5.347
10491SOL    HW132372   2.359   2.470   5.366
10491SOL    HW232373   2.455   2.581   5.295
10492SOL     OW32374   4.775   6.296   1.343
10492SOL    HW132375   4.752   6.349   1.424
10492SOL    HW232376   4.690   6.263   1.300
10493SOL     OW32377   2.438   6.652   1.715
10493SOL    HW132378   2.509   6.609   1.659
10493SOL    HW232379   2.437   6.751   1.697
10494SOL     OW32380   5.770   4.524   6.300
10494SOL    HW132381   5.729   4.615   6.304
10494SOL    HW232382   5.725   4.470   6.229
10495SOL     OW32383   0.222   0.288   0.898
10495SOL    HW132384   0.211   0.323   0.804
10495SOL    HW232385   0.134   0.291   0.945
10496SOL     OW32386   6.158   4.857   6.007
10496SOL    HW132387   6.190   4.857   6.102
10496SOL    HW232388   6.070   4.903   6.002
10497SOL     OW32389   1.041   6.476   2.340
10497SOL    HW132390   1.056   6.470   2.242
10497SOL    HW232391   0.944   6.492   2.358
10498SOL     OW32392   5.786   5.529   0.769
10498SOL    HW132393   5.885   5.520   0.753
10498SOL    HW232394   5.736   5.483   0.696
10499SOL     OW32395   4.472   0.166   2.153
10499SOL    HW132396   4.498   0.231   2.224
10499SOL    HW232397   4.405   0.208   2.092
10500SOL     OW32398   5.808   1.926   5.881
10500SOL    HW132399   5.769   1.905   5.971
10500SOL    HW232400   5.861   2.012   5.887
10501SOL     OW32401   2.453   5.871   2.000
10501SOL    HW132402   2.474   5.923   2.083
10501SOL    HW232403   2.474   5.926   1.920
10502SOL     OW32404   2.699   3.574   0.875
10502SOL    HW132405   2.674   3.670   0.859
10502SOL    HW232406   2.622   3.527   0.918
10503SOL     OW32407   5.915   3.384   0.632
10503SOL    HW132408   5.981   3.313   0.607
10503SOL    HW232409   5.824   3.358   0.599
10504SOL     OW32410   6.987   2.855   5.623
10504SOL    HW132411   6.907   2.901   5.585
10504SOL    HW232412   6.998   2.765   5.581
10505SOL     OW32413   5.793   6.216   1.293
10505SOL    HW132414   5.732   6.204   1.371
10505SOL    HW232415   5.888   6.222   1.325
10506SOL     OW32416   0.730   3.475   6.786
10506SOL    HW132417   0.827   3.500   6.775
10506SOL    HW232418   0.687   3.537   6.851
10507SOL     OW32419   2.633   5.409   0.174
10507SOL    HW132420   2.567   5.337   0.193
10507SOL    HW232421   2.664   5.402   0.080
10508SOL     OW32422   0.394   5.800   4.117
10508SOL    HW132423   0.310   5.764   4.160
10508SOL    HW232424   0.403   5.897   4.138
10509SOL     OW32425   6.557   4.730   5.039
10509SOL    HW132426   6.476   4.677   5.013
10509SOL    HW232427   6.617   4.674   5.095
10510SOL     OW32428   4.234   6.259   0.478
10510SOL    HW132429   4.292   6.340   0.485
10510SOL    HW232430   4.255   6.196   0.553
10511SOL     OW32431   3.140   1.526   2.347
10511SOL    HW132432   3.224   1.506   2.399
10511SOL    HW232433   3.151   1.612   2.298
10512SOL     OW32434   3.642   0.070   6.242
10512SOL    HW132435   3.557   0.100   6.286
10512SOL    HW232436   3.672   0.139   6.176
10513SOL     OW32437   6.567   3.173   2.934
10513SOL    HW132438   6.508   3.211   3.006
10513SOL    HW232439   6.522   3.095   2.893
10514SOL     OW32440   1.197   2.428   1.505
10514SOL    HW132441   1.156   2.376   1.430
10514SOL    HW232442   1.126   2.450   1.572
10515SOL     OW32443   1.620   3.676   4.510
10515SOL    HW132444   1.555   3.612   4.551
10515SOL    HW232445   1.574   3.732   4.442
10516SOL     OW32446   2.938   1.896   0.238
10516SOL    HW132447   2.984   1.972   0.284
10516SOL    HW232448   2.846   1.924   0.210
10517SOL     OW32449   1.342   3.961   1.935
10517SOL    HW132450   1.258   3.918   1.901
10517SOL    HW232451   1.394   3.997   1.858
10518SOL     OW32452   6.879   6.386   1.474
10518SOL    HW132453   6.901   6.293   1.446
10518SOL    HW232454   6.834   6.434   1.399
10519SOL     OW32455   2.987   3.920   0.682
10519SOL    HW132456   2.963   3.990   0.749
10519SOL    HW232457   3.074   3.878   0.707
10520SOL     OW32458   0.046   2.549   5.776
10520SOL    HW132459   7.005   2.536   5.852
10520SOL    HW232460   0.009   2.507   5.693
10521SOL     OW32461   0.147   5.772   1.536
10521SOL    HW132462   0.086   5.694   1.548
10521SOL    HW232463   0.120   5.822   1.454
10522SOL     OW32464   0.110   2.607   3.516
10522SOL    HW132465   0.151   2.641   3.431
10522SOL    HW232466   0.128   2.672   3.590
10523SOL     OW32467   0.521   4.385   3.574
10523SOL    HW132468   0.428   4.421   3.569
10523SOL    HW232469   0.584   4.456   3.604
10524SOL     OW32470   0.334   6.342   4.406
10524SOL    HW132471   0.235   6.326   4.403
10524SOL    HW232472   0.371   6.305   4.492
10525SOL     OW32473   3.972   0.616   5.221
10525SOL    HW132474   4.042   0.664   5.168
10525SOL    HW232475   3.919   0.557   5.161
10526SOL     OW32476   0.698   7.013   1.308
10526SOL    HW132477   0.676   7.022   1.405
10526SOL    HW232478   0.707   0.081   1.267
10527SOL     OW32479   1.511   1.055   6.174
10527SOL    HW132480   1.501   1.065   6.273
10527SOL    HW232481   1.422   1.035   6.134
10528SOL     OW32482   0.848   4.077   6.153
10528SOL    HW132483   0.893   4.157   6.114
10528SOL    HW232484   0.910   3.998   6.150
10529SOL     OW32485   2.441   6.139   4.540
10529SOL    HW132486   2.482   6.219   4.498
10529SOL    HW232487   2.385   6.091   4.473
10530SOL     OW32488   0.966   6.862   6.142
10530SOL    HW132489   0.957   6.768   6.177
10530SOL    HW232490   1.027   6.862   6.063
10531SOL     OW32491   2.896   2.208   4.320
10531SOL    HW132492   2.867   2.250   4.234
10531SOL    HW232493   2.815   2.182   4.374
10532SOL     OW32494   0.136   6.813   6.335
10532SOL    HW132495   0.112   6.844   6.427
10532SOL    HW232496   0.187   6.884   6.288
10533SOL     OW32497   3.345   5.865   3.651
10533SOL    HW132498   3.307   5.931   3.716
10533SOL    HW232499   3.388   5.914   3.575
10534SOL     OW32500   6.400   4.747   2.374
10534SOL    HW132501   6.392   4.821   2.442
10534SOL    HW232502   6.491   4.749   2.335
10535SOL     OW32503   2.027   1.708   2.046
10535SOL    HW132504   1.944   1.669   2.084
10535SOL    HW232505   2.064   1.776   2.109
10536SOL     OW32506   4.462   0.936   4.228
10536SOL    HW132507   4.393   1.009   4.224
10536SOL    HW232508   4.452   0.886   4.314
10537SOL     OW32509   5.152   6.642   4.040
10537SOL    HW132510   5.198   6.727   4.068
10537SOL    HW232511   5.076   6.623   4.102
10538SOL     OW32512   6.689   3.339   0.624
10538SOL    HW132513   6.631   3.390   0.687
10538SOL    HW232514   6.714   3.398   0.547
10539SOL     OW32515   6.250   5.434   1.284
10539SOL    HW132516   6.246   5.334   1.289
10539SOL    HW232517   6.334   5.462   1.236
10540SOL     OW32518   2.139   3.069   5.819
10540SOL    HW132519   2.112   3.010   5.895
10540SOL    HW232520   2.135   3.018   5.733
10541SOL     OW32521   3.972   3.574   3.283
10541SOL    HW132522   3.886   3.625   3.289
10541SOL    HW232523   4.009   3.559   3.375
10542SOL     OW32524   6.906   0.869   5.105
10542SOL    HW132525   6.958   0.785   5.096
10542SOL    HW232526   6.926   0.930   5.028
10543SOL     OW32527   0.969   1.976   4.005
10543SOL    HW132528   0.981   2.030   3.921
10543SOL    HW232529   0.992   2.033   4.084
10544SOL     OW32530   2.281   6.154   1.877
10544SOL    HW132531   2.356   6.113   1.825
10544SOL    HW232532   2.205   6.088   1.883
10545SOL     OW32533   1.979   2.456   1.662
10545SOL    HW132534   1.926   2.410   1.591
10545SOL    HW232535   1.931   2.449   1.749
10546SOL     OW32536   3.085   6.410   0.944
10546SOL    HW132537   3.172   6.391   0.899
10546SOL    HW232538   3.051   6.500   0.915
10547SOL     OW32539   5.374   2.558   4.003
10547SOL    HW132540   5.431   2.631   3.966
10547SOL    HW232541   5.277   2.585   3.996
10548SOL     OW32542   0.364   4.515   4.002
10548SOL    HW132543   0.265   4.503   4.013
10548SOL    HW232544   0.382   4.594   3.942
10549SOL     OW32545   0.489   1.344   0.809
10549SOL    HW132546   0.462   1.248   0.796
10549SOL    HW232547   0.583   1.348   0.841
10550SOL     OW32548   4.922   6.231   3.655
10550SOL    HW132549   4.931   6.233   3.755
10550SOL    HW232550   4.952   6.142   3.621
10551SOL     OW32551   1.535   1.917   6.854
10551SOL    HW132552   1.566   1.838   6.906
10551SOL    HW232553   1.466   1.888   6.787
10552SOL     OW32554   1.894   0.875   5.259
10552SOL    HW132555   1.991   0.898   5.267
10552SOL    HW232556   1.861   0.899   5.167
10553SOL     OW32557   0.495   4.593   1.336
10553SOL    HW132558   0.532   4.503   1.312
10553SOL    HW232559   0.568   4.661   1.332
10554SOL     OW32560   4.970   5.484   1.644
10554SOL    HW132561   4.895   5.429   1.681
10554SOL    HW232562   5.046   5.424   1.618
10555SOL     OW32563   2.524   2.761   0.914
10555SOL    HW132564   2.618   2.769   0.947
10555SOL    HW232565   2.519   2.686   0.847
10556SOL     OW32566   2.793   0.687   3.431
10556SOL    HW132567   2.876   0.639   3.458
10556SOL    HW232568   2.810   0.739   3.347
10557SOL     OW32569   1.600   3.279   3.781
10557SOL    HW132570   1.673   3.298   3.716
10557SOL    HW232571   1.615   3.189   3.823
10558SOL     OW32572   3.629   5.718   5.997
10558SOL    HW132573   3.540   5.685   6.028
10558SOL    HW232574   3.623   5.748   5.902
10559SOL     OW32575   3.999   6.786   1.581
10559SOL    HW132576   3.920   6.751   1.530
10559SOL    HW232577   4.081   6.777   1.525
10560SOL     OW32578   4.777   0.236   2.901
10560SOL    HW132579   4.744   0.145   2.925
10560SOL    HW232580   4.741   0.263   2.812
10561SOL     OW32581   3.784   4.146   1.730
10561SOL    HW132582   3.882   4.135   1.748
10561SOL    HW232583   3.769   4.230   1.679
10562SOL     OW32584   4.110   5.395   0.538
10562SOL    HW132585   4.040   5.422   0.472
10562SOL    HW232586   4.102   5.298   0.558
10563SOL     OW32587   0.781   0.705   1.871
10563SOL    HW132588   0.745   0.792   1.837
10563SOL    HW232589   0.838   0.721   1.951
10564SOL     OW32590   5.614   6.606   3.399
10564SOL    HW132591   5.706   6.644   3.395
10564SOL    HW232592   5.565   6.630   3.315
10565SOL     OW32593   6.703   6.191   5.534
10565SOL    HW132594   6.788   6.197   5.482
10565SOL    HW232595   6.627   6.174   5.472
10566SOL     OW32596   3.168   1.926   6.388
10566SOL    HW132597   3.191   1.857   6.319
10566SOL    HW232598   3.226   2.006   6.374
10567SOL     OW32599   1.837   3.096   5.725
10567SOL    HW132600   1.749   3.107   5.772
10567SOL    HW232601   1.906   3.151   5.772
10568SOL     OW32602   6.053   3.043   0.859
10568SOL    HW132603   6.094   3.004   0.941
10568SOL    HW232604   6.046   3.143   0.870
10569SOL     OW32605   5.527   0.576   2.099
10569SOL    HW132606   5.594   0.615   2.162
10569SOL    HW232607   5.464   0.648   2.069
10570SOL     OW32608   1.707   4.679   3.783
10570SOL    HW132609   1.758   4.611   3.836
10570SOL    HW232610   1.610   4.653   3.780
10571SOL     OW32611   0.075   4.185   5.073
10571SOL    HW132612   0.005   4.221   5.011
10571SOL    HW232613   0.139   4.128   5.021
10572SOL     OW32614   6.892   4.908   2.825
10572SOL    HW132615   6.844   4.830   2.785
10572SOL    HW232616   6.931   4.964   2.751
10573SOL     OW32617   4.853   0.173   4.891
10573SOL    HW132618   4.774   0.190   4.950
10573SOL    HW232619   4.846   0.083   4.849
10574SOL     OW32620   0.065   1.884   4.270
10574SOL    HW132621   0.122   1.966   4.265
10574SOL    HW232622   0.053   1.858   4.366
10575SOL     OW32623   6.889   0.968   3.496
10575SOL    HW132624   6.797   0.949   3.461
10575SOL    HW232625   6.949   0.993   3.420
10576SOL     OW32626   0.702   6.021   3.303
10576SOL    HW132627   0.658   6.089   3.245
10576SOL    HW232628   0.648   6.009   3.387
10577SOL     OW32629   1.735   4.387   0.518
10577SOL    HW132630   1.825   4.409   0.482
10577SOL    HW232631   1.674   4.466   0.506
10578SOL     OW32632   4.087   1.255   2.997
10578SOL    HW132633   4.010   1.194   2.977
10578SOL    HW232634   4.115   1.302   2.913
10579SOL     OW32635   3.861   2.848   1.807
10579SOL    HW132636   3.931   2.780   1.788
10579SOL    HW232637   3.770   2.809   1.788
10580SOL     OW32638   6.167   6.357   5.963
10580SOL    HW132639   6.238   6.286   5.964
10580SOL    HW232640   6.139   6.374   5.869
10581SOL     OW32641   5.913   0.638   2.595
10581SOL    HW132642   5.816   0.617   2.583
10581SOL    HW232643   5.955   0.569   2.654
10582SOL     OW32644   4.498   4.571   6.244
10582SOL    HW132645   4.498   4.591   6.146
10582SOL    HW232646   4.424   4.622   6.288
10583SOL     OW32647   4.617   0.736   3.863
10583SOL    HW132648   4.591   0.681   3.784
10583SOL    HW232649   4.534   0.764   3.912
10584SOL     OW32650   6.334   0.409   0.051
10584SOL    HW132651   6.349   0.316   0.086
10584SOL    HW232652   6.418   0.462   0.060
10585SOL     OW32653   2.498   1.976   5.453
10585SOL    HW132654   2.592   1.956   5.481
10585SOL    HW232655   2.493   2.072   5.424
10586SOL     OW32656   5.442   5.359   5.844
10586SOL    HW132657   5.490   5.274   5.864
10586SOL    HW232658   5.372   5.374   5.914
10587SOL     OW32659   6.749   4.987   6.790
10587SOL    HW132660   6.812   5.000   6.713
10587SOL    HW232661   6.684   4.914   6.768
10588SOL     OW32662   1.725   1.878   4.972
10588SOL    HW132663   1.643   1.825   4.955
10588SOL    HW232664   1.705   1.951   5.038
10589SOL     OW32665   4.834   0.712   4.642
10589SOL    HW132666   4.831   0.760   4.729
10589SOL    HW232667   4.844   0.778   4.567
10590SOL     OW32668   0.187   0.001   0.947
10590SOL    HW132669   0.278   6.983   0.945
10590SOL    HW232670   0.192   0.099   0.929
10591SOL     OW32671   2.131   2.301   0.530
10591SOL    HW132672   2.127   2.312   0.431
10591SOL    HW232673   2.096   2.384   0.574
10592SOL     OW32674   5.439   3.846   4.350
10592SOL    HW132675   5.395   3.764   4.385
10592SOL    HW232676   5.408   3.863   4.256
10593SOL     OW32677   3.227   5.857   0.742
10593SOL    HW132678   3.181   5.885   0.826
10593SOL    HW232679   3.165   5.867   0.664
10594SOL     OW32680   5.049   1.884   2.457
10594SOL    HW132681   5.059   1.926   2.547
10594SOL    HW232682   5.017   1.952   2.392
10595SOL     OW32683   5.731   6.756   0.320
10595SOL    HW132684   5.657   6.789   0.378
10595SOL    HW232685   5.795   6.703   0.375
10596SOL     OW32686   4.435   0.848   0.317
10596SOL    HW132687   4.502   0.920   0.295
10596SOL    HW232688   4.419   0.791   0.237
10597SOL     OW32689   3.076   1.617   6.127
10597SOL    HW132690   3.027   1.572   6.201
10597SOL    HW232691   3.157   1.563   6.103
10598SOL     OW32692   3.638   2.802   6.906
10598SOL    HW132693   3.597   2.781   6.818
10598SOL    HW232694   3.574   2.779   6.979
10599SOL     OW32695   5.980   3.401   6.753
10599SOL    HW132696   5.980   3.500   6.761
10599SOL    HW232697   5.902   3.372   6.698
10600SOL     OW32698   3.182   2.587   1.601
10600SOL    HW132699   3.113   2.516   1.589
10600SOL    HW232700   3.218   2.583   1.695
10601SOL     OW32701   1.759   4.713   5.749
10601SOL    HW132702   1.697   4.786   5.779
10601SOL    HW232703   1.775   4.650   5.826
10602SOL     OW32704   1.041   1.013   1.159
10602SOL    HW132705   1.113   1.021   1.228
10602SOL    HW232706   1.046   0.924   1.115
10603SOL     OW32707   4.417   0.303   3.373
10603SOL    HW132708   4.483   0.326   3.302
10603SOL    HW232709   4.419   0.204   3.388
10604SOL     OW32710   6.329   5.380   4.873
10604SOL    HW132711   6.258   5.391   4.943
10604SOL    HW232712   6.417   5.408   4.911
10605SOL     OW32713   2.083   6.492   6.768
10605SOL    HW132714   1.985   6.503   6.750
10605SOL    HW232715   2.135   6.547   6.702
10606SOL     OW32716   0.096   1.091   1.327
10606SOL    HW132717   0.019   1.060   1.272
10606SOL    HW232718   0.068   1.169   1.383
10607SOL     OW32719   3.935   4.755   0.386
10607SOL    HW132720   3.920   4.758   0.485
10607SOL    HW232721   3.933   4.660   0.355
10608SOL     OW32722   6.886   3.373   4.445
10608SOL    HW132723   6.926   3.456   4.483
10608SOL    HW232724   6.821   3.397   4.373
10609SOL     OW32725   2.982   6.824   6.795
10609SOL    HW132726   2.942   6.762   6.727
10609SOL    HW232727   3.082   6.821   6.789
10610SOL     OW32728   0.539   2.110   3.956
10610SOL    HW132729   0.459   2.158   3.921
10610SOL    HW232730   0.538   2.114   4.056
10611SOL     OW32731   2.979   4.815   6.583
10611SOL    HW132732   2.927   4.816   6.497
10611SOL    HW232733   2.974   4.905   6.625
10612SOL     OW32734   5.033   2.045   4.126
10612SOL    HW132735   4.988   1.956   4.112
10612SOL    HW232736   5.000   2.110   4.059
10613SOL     OW32737   6.515   5.719   5.670
10613SOL    HW132738   6.594   5.715   5.609
10613SOL    HW232739   6.543   5.756   5.759
10614SOL     OW32740   5.214   1.081   4.305
10614SOL    HW132741   5.219   1.104   4.402
10614SOL    HW232742   5.304   1.090   4.263
10615SOL     OW32743   3.290   1.140   5.813
10615SOL    HW132744   3.357   1.081   5.767
10615SOL    HW232745   3.301   1.234   5.782
10616SOL     OW32746   3.135   6.379   6.894
10616SOL    HW132747   3.116   6.456   6.955
10616SOL    HW232748   3.089   6.297   6.928
10617SOL     OW32749   2.992   3.839   1.347
10617SOL    HW132750   2.972   3.807   1.439
10617SOL    HW232751   2.986   3.762   1.283
10618SOL     OW32752   1.286   4.524   5.710
10618SOL    HW132753   1.337   4.582   5.647
10618SOL    HW232754   1.350   4.478   5.772
10619SOL     OW32755   0.255   3.015   3.538
10619SOL    HW132756   0.183   2.963   3.490
10619SOL    HW232757   0.221   3.107   3.558
10620SOL     OW32758   1.002   0.077   4.911
10620SOL    HW132759   1.054   0.020   4.848
10620SOL    HW232760   1.046   0.167   4.919
10621SOL     OW32761   0.842   4.759   2.132
10621SOL    HW132762   0.862   4.794   2.223
10621SOL    HW232763   0.746   4.774   2.110
10622SOL     OW32764   4.535   2.331   2.347
10622SOL    HW132765   4.543   2.430   2.340
10622SOL    HW232766   4.440   2.304   2.331
10623SOL     OW32767   6.533   5.246   5.838
10623SOL    HW132768   6.605   5.241   5.907
10623SOL    HW232769   6.481   5.330   5.851
10624SOL     OW32770   0.245   2.740   5.701
10624SOL    HW132771   0.294   2.690   5.630
10624SOL    HW232772   0.156   2.697   5.717
10625SOL     OW32773   0.634   4.144   1.345
10625SOL    HW132774   0.594   4.073   1.402
10625SOL    HW232775   0.654   4.225   1.401
10626SOL     OW32776   3.824   2.820   0.857
10626SOL    HW132777   3.914   2.812   0.901
10626SOL    HW232778   3.770   2.890   0.904
10627SOL     OW32779   5.578   1.473   6.906
10627SOL    HW132780   5.584   1.386   6.857
10627SOL    HW232781   5.532   1.541   6.850
10628SOL     OW32782   4.143   6.744   0.908
10628SOL    HW132783   4.142   6.694   0.994
10628SOL    HW232784   4.172   6.683   0.834
10629SOL     OW32785   2.842   5.089   4.307
10629SOL    HW132786   2.749   5.082   4.342
10629SOL    HW232787   2.896   5.011   4.341
10630SOL     OW32788   6.361   1.937   2.616
10630SOL    HW132789   6.419   2.013   2.646
10630SOL    HW232790   6.419   1.862   2.582
10631SOL     OW32791   4.152   4.626   5.441
10631SOL    HW132792   4.200   4.652   5.525
10631SOL    HW232793   4.054   4.623   5.458
10632SOL     OW32794   5.192   6.728   3.493
10632SOL    HW132795   5.196   6.812   3.548
10632SOL    HW232796   5.233   6.653   3.545
10633SOL     OW32797   2.691   2.697   1.486
10633SOL    HW132798   2.632   2.714   1.565
10633SOL    HW232799   2.682   2.773   1.421
10634SOL     OW32800   2.350   4.893   0.688
10634SOL    HW132801   2.281   4.831   0.724
10634SOL    HW232802   2.310   4.984   0.676
10635SOL     OW32803   1.636   3.281   6.729
10635SOL    HW132804   1.675   3.211   6.788
10635SOL    HW232805   1.704   3.310   6.661
10636SOL     OW32806   0.770   2.267   1.226
10636SOL    HW132807   0.745   2.355   1.184
10636SOL    HW232808   0.689   2.208   1.229
10637SOL     OW32809   1.110   5.005   5.981
10637SOL    HW132810   1.092   4.948   6.061
10637SOL    HW232811   1.055   5.088   5.985
10638SOL     OW32812   5.589   6.524   2.719
10638SOL    HW132813   5.564   6.586   2.793
10638SOL    HW232814   5.585   6.573   2.632
10639SOL     OW32815   1.133   3.773   2.636
10639SOL    HW132816   1.143   3.714   2.556
10639SOL    HW232817   1.059   3.838   2.620
10640SOL     OW32818   4.489   0.182   3.707
10640SOL    HW132819   4.426   0.235   3.650
10640SOL    HW232820   4.462   0.086   3.707
10641SOL     OW32821   2.348   1.764   2.607
10641SOL    HW132822   2.448   1.771   2.616
10641SOL    HW232823   2.305   1.814   2.681
10642SOL     OW32824   6.557   1.699   0.616
10642SOL    HW132825   6.479   1.698   0.678
10642SOL    HW232826   6.624   1.632   0.646
10643SOL     OW32827   2.366   5.775   4.525
10643SOL    HW132828   2.417   5.717   4.461
10643SOL    HW232829   2.307   5.838   4.474
10644SOL     OW32830   5.488   2.913   1.109
10644SOL    HW132831   5.501   2.817   1.131
10644SOL    HW232832   5.401   2.926   1.062
10645SOL     OW32833   1.770   3.156   4.328
10645SOL    HW132834   1.691   3.164   4.267
10645SOL    HW232835   1.797   3.060   4.335
10646SOL     OW32836   0.286   0.174   5.761
10646SOL    HW132837   0.381   0.199   5.743
10646SOL    HW232838   0.226   0.220   5.695
10647SOL     OW32839   3.049   5.580   4.378
10647SOL    HW132840   3.040   5.484   4.355
10647SOL    HW232841   3.125   5.620   4.327
10648SOL     OW32842   5.853   4.909   6.498
10648SOL    HW132843   5.934   4.883   6.550
10648SOL    HW232844   5.879   4.931   6.404
10649SOL     OW32845   0.592   4.260   3.359
10649SOL    HW132846   0.514   4.226   3.308
10649SOL    HW232847   0.563   4.291   3.449
10650SOL     OW32848   0.973   0.263   4.293
10650SOL    HW132849   0.908   0.199   4.251
10650SOL    HW232850   1.061   0.218   4.305
10651SOL     OW32851   6.102   6.555   6.741
10651SOL    HW132852   6.059   6.476   6.784
10651SOL    HW232853   6.163   6.600   6.806
10652SOL     OW32854   2.912   6.197   5.804
10652SOL    HW132855   2.843   6.216   5.734
10652SOL    HW232856   2.867   6.172   5.889
10653SOL     OW32857   3.955   5.814   4.318
10653SOL    HW132858   3.913   5.854   4.237
10653SOL    HW232859   3.983   5.886   4.381
10654SOL     OW32860   5.234   0.376   6.552
10654SOL    HW132861   5.149   0.325   6.541
10654SOL    HW232862   5.301   0.318   6.599
10655SOL     OW32863   2.254   5.706   0.284
10655SOL    HW132864   2.329   5.688   0.221
10655SOL    HW232865   2.206   5.789   0.256
10656SOL     OW32866   0.127   2.033   2.565
10656SOL    HW132867   0.091   1.995   2.650
10656SOL    HW232868   0.053   2.075   2.513
10657SOL     OW32869   5.934   0.363   5.126
10657SOL    HW132870   5.899   0.369   5.220
10657SOL    HW232871   5.859   0.337   5.065
10658SOL     OW32872   6.708   4.538   4.575
10658SOL    HW132873   6.783   4.595   4.609
10658SOL    HW232874   6.714   4.530   4.476
10659SOL     OW32875   0.918   5.541   0.769
10659SOL    HW132876   0.848   5.607   0.797
10659SOL    HW232877   0.912   5.459   0.826
10660SOL     OW32878   5.271   3.929   6.394
10660SOL    HW132879   5.216   3.932   6.477
10660SOL    HW232880   5.364   3.899   6.417
10661SOL     OW32881   0.967   6.862   0.914
10661SOL    HW132882   0.888   6.804   0.890
10661SOL    HW232883   0.961   6.888   1.010
10662SOL     OW32884   4.517   0.298   2.384
10662SOL    HW132885   4.445   0.332   2.444
10662SOL    HW232886   4.530   0.200   2.400
10663SOL     OW32887   0.690   1.904   2.424
10663SOL    HW132888   0.698   1.847   2.505
10663SOL    HW232889   0.781   1.916   2.383
10664SOL     OW32890   6.315   4.267   5.169
10664SOL    HW132891   6.280   4.210   5.242
10664SOL    HW232892   6.240   4.293   5.107
10665SOL     OW32893   0.774   1.610   6.985
10665SOL    HW132894   0.683   1.632   7.020
10665SOL    HW232895   0.816   1.540   0.021
10666SOL     OW32896   3.338   3.921   1.716
10666SOL    HW132897   3.393   3.949   1.637
10666SOL    HW232898   3.337   3.994   1.784
10667SOL     OW32899   4.967   2.345   4.308
10667SOL    HW132900   4.964   2.300   4.219
10667SOL    HW232901   4.895   2.308   4.366
10668SOL     OW32902   2.933   1.246   5.158
10668SOL    HW132903   2.943   1.171   5.093
10668SOL    HW232904   2.999   1.236   5.231
10669SOL     OW32905   5.383   0.286   1.646
10669SOL    HW132906   5.406   0.359   1.710
10669SOL    HW232907   5.340   0.325   1.565
10670SOL     OW32908   5.423   4.912   5.226
10670SOL    HW132909   5.471   4.865   5.153
10670SOL    HW232910   5.456   5.006   5.233
10671SOL     OW32911   2.058   1.941   3.956
10671SOL    HW132912   2.080   1.910   4.049
10671SOL    HW232913   1.959   1.947   3.946
10672SOL     OW32914   6.481   3.943   1.692
10672SOL    HW132915   6.538   4.018   1.727
10672SOL    HW232916   6.476   3.870   1.760
10673SOL     OW32917   0.053   1.183   6.674
10673SOL    HW132918   0.117   1.224   6.610
10673SOL    HW232919   0.018   1.097   6.635
10674SOL     OW32920   3.844   3.991   3.103
10674SOL    HW132921   3.835   4.024   3.197
10674SOL    HW232922   3.928   3.937   3.095
10675SOL     OW32923   1.748   6.876   6.835
10675SOL    HW132924   1.672   6.877   6.770
10675SOL    HW232925   1.741   6.793   6.891
10676SOL     OW32926   6.461   6.156   5.391
10676SOL    HW132927   6.401   6.099   5.335
10676SOL    HW232928   6.483   6.241   5.342
10677SOL     OW32929   1.426   0.837   1.183
10677SOL    HW132930   1.405   0.916   1.125
10677SOL    HW232931   1.523   0.815   1.176
10678SOL     OW32932   4.860   5.769   3.981
10678SOL    HW132933   4.952   5.787   4.016
10678SOL    HW232934   4.806   5.722   4.050
10679SOL     OW32935   4.377   5.418   6.651
10679SOL    HW132936   4.423   5.420   6.562
10679SOL    HW232937   4.446   5.417   6.724
10680SOL     OW32938   4.082   2.065   4.137
10680SOL    HW132939   4.021   1.994   4.102
10680SOL    HW232940   4.050   2.094   4.227
10681SOL     OW32941   1.096   3.877   0.380
10681SOL    HW132942   1.000   3.888   0.407
10681SOL    HW232943   1.118   3.944   0.308
10682SOL     OW32944   0.474   1.356   5.174
10682SOL    HW132945   0.568   1.356   5.206
10682SOL    HW232946   0.459   1.279   5.111
10683SOL     OW32947   4.754   1.625   3.927
10683SOL    HW132948   4.751   1.680   3.844
10683SOL    HW232949   4.686   1.659   3.992
10684SOL     OW32950   5.261   4.828   3.402
10684SOL    HW132951   5.203   4.836   3.321
10684SOL    HW232952   5.352   4.863   3.383
10685SOL     OW32953   0.795   5.721   1.667
10685SOL    HW132954   0.722   5.753   1.728
10685SOL    HW232955   0.884   5.737   1.709
10686SOL     OW32956   0.861   4.256   5.790
10686SOL    HW132957   0.794   4.186   5.812
10686SOL    HW232958   0.930   4.260   5.862
10687SOL     OW32959   5.993   5.402   3.786
10687SOL    HW132960   6.062   5.468   3.758
10687SOL    HW232961   6.017   5.312   3.750
10688SOL     OW32962   6.853   3.534   2.403
10688SOL    HW132963   6.941   3.580   2.416
10688SOL    HW232964   6.858   3.442   2.441
10689SOL     OW32965   0.082   6.662   3.859
10689SOL    HW132966   0.172   6.627   3.832
10689SOL    HW232967   0.075   6.758   3.834
10690SOL     OW32968   0.060   5.708   3.943
10690SOL    HW132969   0.092   5.796   3.911
10690SOL    HW232970   0.079   5.698   4.040
10691SOL     OW32971   0.615   2.414   2.484
10691SOL    HW132972   0.686   2.459   2.428
10691SOL    HW232973   0.636   2.317   2.492
10692SOL     OW32974   3.287   6.226   3.356
10692SOL    HW132975   3.364   6.199   3.415
10692SOL    HW232976   3.282   6.164   3.278
10693SOL     OW32977   2.078   6.179   0.279
10693SOL    HW132978   2.025   6.094   0.289
10693SOL    HW232979   2.156   6.177   0.341
10694SOL     OW32980   5.280   6.698   0.980
10694SOL    HW132981   5.231   6.735   0.901
10694SOL    HW232982   5.219   6.695   1.059
10695SOL     OW32983   0.114   2.253   2.876
10695SOL    HW132984   0.090   2.320   2.806
10695SOL    HW232985   0.118   2.297   2.965
10696SOL     OW32986   6.994   4.163   3.632
10696SOL    HW132987   6.908   4.112   3.625
10696SOL    HW232988   0.046   4.101   3.658
10697SOL     OW32989   6.665   5.911   4.975
10697SOL    HW132990   6.630   5.994   5.019
10697SOL    HW232991   6.762   5.922   4.955
10698SOL     OW32992   5.415   4.472   6.300
10698SOL    HW132993   5.363   4.494   6.218
10698SOL    HW232994   5.426   4.554   6.357
10699SOL     OW32995   3.664   4.099   1.964
10699SOL    HW132996   3.679   4.003   1.988
10699SOL    HW232997   3.699   4.116   1.872
10700SOL     OW32998   6.464   0.095   0.848
10700SOL    HW132999   6.485   0.017   0.907
10700SOL    HW233000   6.515   0.175   0.878
10701SOL     OW33001   3.107   6.571   6.435
10701SOL    HW133002   3.198   6.580   6.475
10701SOL    HW233003   3.110   6.503   6.361
10702SOL     OW33004   5.637   2.875   1.595
10702SOL    HW133005   5.641   2.776   1.607
10702SOL    HW233006   5.658   2.920   1.681
10703SOL     OW33007   3.302   2.901   4.877
10703SOL    HW133008   3.396   2.886   4.908
10703SOL    HW233009   3.257   2.812   4.865
10704SOL     OW33010   6.150   5.723   1.593
10704SOL    HW133011   6.220   5.787   1.562
10704SOL    HW233012   6.061   5.768   1.596
10705SOL     OW33013   5.331   4.758   2.627
10705SOL    HW133014   5.404   4.826   2.621
10705SOL    HW233015   5.354   4.689   2.696
10706SOL     OW33016   5.765   0.113   2.228
10706SOL    HW133017   5.666   0.106   2.239
10706SOL    HW233018   5.799   0.033   2.178
10707SOL     OW33019   0.218   0.156   4.152
10707SOL    HW133020   0.317   0.142   4.163
10707SOL    HW233021   0.174   0.151   4.242
10708SOL     OW33022   3.750   0.649   2.129
10708SOL    HW133023   3.840   0.694   2.126
10708SOL    HW233024   3.697   0.677   2.049
10709SOL     OW33025   6.018   5.548   5.492
10709SOL    HW133026   5.976   5.589   5.411
10709SOL    HW233027   6.108   5.590   5.508
10710SOL     OW33028   0.388   0.019   4.406
10710SOL    HW133029   0.295   0.056   4.407
10710SOL    HW233030   0.437   0.054   4.326
10711SOL     OW33031   1.591   6.776   4.327
10711SOL    HW133032   1.681   6.749   4.293
10711SOL    HW233033   1.548   6.839   4.262
10712SOL     OW33034   3.212   0.933   1.883
10712SOL    HW133035   3.212   0.854   1.821
10712SOL    HW233036   3.119   0.949   1.915
10713SOL     OW33037   0.687   3.409   1.517
10713SOL    HW133038   0.766   3.448   1.469
10713SOL    HW233039   0.717   3.329   1.570
10714SOL     OW33040   6.122   3.853   4.766
10714SOL    HW133041   6.118   3.895   4.675
10714SOL    HW233042   6.155   3.919   4.832
10715SOL     OW33043   4.850   0.840   2.791
10715SOL    HW133044   4.804   0.781   2.726
10715SOL    HW233045   4.914   0.786   2.846
10716SOL     OW33046   5.805   2.152   4.282
10716SOL    HW133047   5.828   2.056   4.300
10716SOL    HW233048   5.752   2.158   4.198
10717SOL     OW33049   1.175   1.946   1.159
10717SOL    HW133050   1.238   1.885   1.112
10717SOL    HW233051   1.085   1.942   1.116
10718SOL     OW33052   0.907   2.865   6.395
10718SOL    HW133053   0.946   2.942   6.344
10718SOL    HW233054   0.947   2.861   6.486
10719SOL     OW33055   6.637   5.508   2.183
10719SOL    HW133056   6.663   5.438   2.249
10719SOL    HW233057   6.712   5.574   2.172
10720SOL     OW33058   0.543   4.222   4.959
10720SOL    HW133059   0.462   4.275   4.935
10720SOL    HW233060   0.624   4.280   4.948
10721SOL     OW33061   5.981   4.312   5.100
10721SOL    HW133062   5.962   4.343   5.007
10721SOL    HW233063   5.903   4.334   5.159
10722SOL     OW33064   1.295   5.120   0.497
10722SOL    HW133065   1.332   5.207   0.530
10722SOL    HW233066   1.253   5.134   0.408
10723SOL     OW33067   0.183   3.975   6.018
10723SOL    HW133068   0.271   3.983   5.972
10723SOL    HW233069   0.173   3.882   6.055
10724SOL     OW33070   5.676   1.163   6.616
10724SOL    HW133071   5.610   1.175   6.690
10724SOL    HW233072   5.639   1.204   6.532
10725SOL     OW33073   0.843   5.109   4.625
10725SOL    HW133074   0.811   5.102   4.531
10725SOL    HW233075   0.809   5.031   4.678
10726SOL     OW33076   5.117   0.015   5.605
10726SOL    HW133077   5.148   6.976   5.679
10726SOL    HW233078   5.197   0.049   5.555
10727SOL     OW33079   0.324   4.878   4.776
10727SOL    HW133080   0.371   4.964   4.755
10727SOL    HW233081   0.392   4.810   4.804
10728SOL     OW33082   0.001   6.144   0.592
10728SOL    HW133083   6.931   6.178   0.578
10728SOL    HW233084   0.004   6.087   0.674
10729SOL     OW33085   5.280   1.294   1.554
10729SOL    HW133086   5.356   1.332   1.607
10729SOL    HW233087   5.196   1.344   1.576
10730SOL     OW33088   1.875   0.234   1.605
10730SOL    HW133089   1.863   0.284   1.690
10730SOL    HW233090   1.929   0.151   1.622
10731SOL     OW33091   3.373   6.093   0.468
10731SOL    HW133092   3.445   6.101   0.536
10731SOL    HW233093   3.289   6.060   0.512
10732SOL     OW33094   5.481   4.782   3.763
10732SOL    HW133095   5.383   4.796   3.747
10732SOL    HW233096   5.518   4.723   3.690
10733SOL     OW33097   6.275   2.351   0.505
10733SOL    HW133098   6.317   2.301   0.430
10733SOL    HW233099   6.335   2.426   0.533
10734SOL     OW33100   0.653   0.620   6.593
10734SOL    HW133101   0.704   0.544   6.632
10734SOL    HW233102   0.592   0.586   6.522
10735SOL     OW33103   1.795   3.284   3.089
10735SOL    HW133104   1.730   3.259   3.017
10735SOL    HW233105   1.858   3.208   3.105
10736SOL     OW33106   1.481   0.286   3.263
10736SOL    HW133107   1.385   0.292   3.290
10736SOL    HW233108   1.538   0.322   3.336
10737SOL     OW33109   1.803   2.154   0.116
10737SOL    HW133110   1.802   2.133   0.018
10737SOL    HW233111   1.891   2.127   0.155
10738SOL     OW33112   2.759   0.531   3.985
10738SOL    HW133113   2.768   0.434   4.005
10738SOL    HW233114   2.734   0.580   4.069
10739SOL     OW33115   0.200   1.486   1.313
10739SOL    HW133116   0.292   1.458   1.341
10739SOL    HW233117   0.132   1.436   1.367
10740SOL     OW33118   0.451   4.815   5.546
10740SOL    HW133119   0.351   4.811   5.536
10740SOL    HW233120   0.489   4.877   5.478
10741SOL     OW33121   0.012   6.870   1.929
10741SOL    HW133122   6.951   6.923   1.911
10741SOL    HW233123   7.014   6.773   1.921
10742SOL     OW33124   6.112   0.486   1.788
10742SOL    HW133125   6.145   0.503   1.695
10742SOL    HW233126   6.027   0.537   1.803
10743SOL     OW33127   3.043   2.020   5.461
10743SOL    HW133128   3.123   2.047   5.407
10743SOL    HW233129   2.984   2.099   5.474
10744SOL     OW33130   3.539   1.114   1.563
10744SOL    HW133131   3.553   1.026   1.609
10744SOL    HW233132   3.485   1.100   1.480
10745SOL     OW33133   0.401   5.376   0.203
10745SOL    HW133134   0.324   5.435   0.227
10745SOL    HW233135   0.375   5.317   0.127
10746SOL     OW33136   1.914   3.978   0.977
10746SOL    HW133137   1.869   3.997   1.064
10746SOL    HW233138   1.857   4.011   0.902
10747SOL     OW33139   4.105   0.807   3.198
10747SOL    HW133140   4.147   0.880   3.252
10747SOL    HW233141   4.163   0.725   3.203
10748SOL     OW33142   3.966   0.825   1.853
10748SOL    HW133143   3.934   0.745   1.803
10748SOL    HW233144   4.000   0.796   1.943
10749SOL     OW33145   6.975   5.563   3.380
10749SOL    HW133146   7.012   5.568   3.473
10749SOL    HW233147   0.010   5.616   3.318
10750SOL     OW33148   4.592   6.244   4.745
10750SOL    HW133149   4.523   6.179   4.777
10750SOL    HW233150   4.604   6.234   4.646
10751SOL     OW33151   1.441   4.863   4.080
10751SOL    HW133152   1.535   4.839   4.055
10751SOL    HW233153   1.383   4.859   3.999
10752SOL     OW33154   6.028   4.523   6.139
10752SOL    HW133155   5.940   4.546   6.182
10752SOL    HW233156   6.011   4.467   6.058
10753SOL     OW33157   4.105   6.631   4.410
10753SOL    HW133158   4.203   6.652   4.403
10753SOL    HW233159   4.062   6.693   4.475
10754SOL     OW33160   1.187   1.377   3.529
10754SOL    HW133161   1.250   1.443   3.570
10754SOL    HW233162   1.093   1.399   3.554
10755SOL     OW33163   6.958   1.166   6.339
10755SOL    HW133164   6.886   1.218   6.293
10755SOL    HW233165   6.920   1.125   6.422
10756SOL     OW33166   6.851   4.454   0.788
10756SOL    HW133167   6.932   4.397   0.794
10756SOL    HW233168   6.868   4.541   0.836
10757SOL     OW33169   1.499   2.628   0.049
10757SOL    HW133170   1.417   2.627   0.105
10757SOL    HW233171   1.577   2.655   0.105
10758SOL     OW33172   1.014   6.527   4.588
10758SOL    HW133173   0.994   6.539   4.685
10758SOL    HW233174   0.982   6.436   4.559
10759SOL     OW33175   1.592   2.934   0.365
10759SOL    HW133176   1.552   2.901   0.450
10759SOL    HW233177   1.587   3.034   0.361
10760SOL     OW33178   6.264   1.525   1.398
10760SOL    HW133179   6.241   1.564   1.309
10760SOL    HW233180   6.189   1.542   1.462
10761SOL     OW33181   0.979   1.628   6.118
10761SOL    HW133182   0.977   1.553   6.184
10761SOL    HW233183   0.998   1.591   6.027
10762SOL     OW33184   4.098   2.049   4.615
10762SOL    HW133185   4.163   1.973   4.602
10762SOL    HW233186   4.145   2.127   4.656
10763SOL     OW33187   4.639   6.263   1.921
10763SOL    HW133188   4.708   6.293   1.988
10763SOL    HW233189   4.593   6.344   1.884
10764SOL     OW33190   5.568   2.087   5.831
10764SOL    HW133191   5.608   2.173   5.798
10764SOL    HW233192   5.641   2.023   5.854
10765SOL     OW33193   5.280   2.519   0.856
10765SOL    HW133194   5.259   2.434   0.808
10765SOL    HW233195   5.203   2.582   0.848
10766SOL     OW33196   5.331   3.232   1.357
10766SOL    HW133197   5.407   3.168   1.368
10766SOL    HW233198   5.298   3.260   1.447
10767SOL     OW33199   0.914   0.699   0.103
10767SOL    HW133200   0.820   0.674   0.126
10767SOL    HW233201   0.942   0.777   0.159
10768SOL     OW33202   4.689   4.361   1.031
10768SOL    HW133203   4.760   4.355   0.962
10768SOL    HW233204   4.730   4.380   1.120
10769SOL     OW33205   2.667   4.960   4.836
10769SOL    HW133206   2.736   4.903   4.792
10769SOL    HW233207   2.596   4.986   4.770
10770SOL     OW33208   5.709   0.717   5.217
10770SOL    HW133209   5.673   0.666   5.138
10770SOL    HW233210   5.807   0.732   5.205
10771SOL     OW33211   5.219   1.190   3.218
10771SOL    HW133212   5.135   1.151   3.181
10771SOL    HW233213   5.279   1.117   3.250
10772SOL     OW33214   0.212   6.914   4.777
10772SOL    HW133215   0.312   6.922   4.780
10772SOL    HW233216   0.185   6.860   4.697
10773SOL     OW33217   6.866   5.636   7.004
10773SOL    HW133218   6.856   5.733   6.980
10773SOL    HW233219   6.940   5.627   0.049
10774SOL     OW33220   1.471   1.076   6.431
10774SOL    HW133221   1.373   1.084   6.447
10774SOL    HW233222   1.521   1.107   6.512
10775SOL     OW33223   0.456   3.989   1.053
10775SOL    HW133224   0.474   3.894   1.026
10775SOL    HW233225   0.434   3.991   1.151
10776SOL     OW33226   1.133   6.435   6.582
10776SOL    HW133227   1.230   6.420   6.564
10776SOL    HW233228   1.122   6.484   6.669
10777SOL     OW33229   3.626   6.018   3.043
10777SOL    HW133230   3.568   6.089   3.004
10777SOL    HW233231   3.722   6.044   3.034
10778SOL     OW33232   5.858   6.680   4.355
10778SOL    HW133233   5.891   6.774   4.366
10778SOL    HW233234   5.769   6.671   4.399
10779SOL     OW33235   6.488   5.028   3.309
10779SOL    HW133236   6.548   4.959   3.269
10779SOL    HW233237   6.441   5.078   3.236
10780SOL     OW33238   1.855   0.477   3.564
10780SOL    HW133239   1.892   0.463   3.656
10780SOL    HW233240   1.929   0.477   3.497
10781SOL     OW33241   4.244   0.306   3.603
10781SOL    HW133242   4.273   0.382   3.660
10781SOL    HW233243   4.283   0.317   3.511
10782SOL     OW33244   5.834   1.761   2.672
10782SOL    HW133245   5.868   1.797   2.585
10782SOL    HW233246   5.883   1.676   2.694
10783SOL     OW33247   0.968   3.543   3.240
10783SOL    HW133248   0.973   3.550   3.140
10783SOL    HW233249   0.874   3.561   3.270
10784SOL     OW33250   3.708   0.716   4.173
10784SOL    HW133251   3.750   0.630   4.148
10784SOL    HW233252   3.695   0.719   4.273
10785SOL     OW33253   6.976   5.420   2.219
10785SOL    HW133254   6.959   5.400   2.316
10785SOL    HW233255   6.901   5.386   2.164
10786SOL     OW33256   5.097   4.724   3.187
10786SOL    HW133257   5.036   4.644   3.185
10786SOL    HW233258   5.052   4.801   3.141
10787SOL     OW33259   2.259   1.786   4.707
10787SOL    HW133260   2.281   1.832   4.793
10787SOL    HW233261   2.189   1.838   4.659
10788SOL     OW33262   2.113   4.633   5.989
10788SOL    HW133263   2.079   4.723   5.964
10788SOL    HW233264   2.118   4.627   6.089
10789SOL     OW33265   6.760   2.664   6.427
10789SOL    HW133266   6.824   2.600   6.469
10789SOL    HW233267   6.721   2.623   6.344
10790SOL     OW33268   1.560   1.169   1.818
10790SOL    HW133269   1.521   1.081   1.791
10790SOL    HW233270   1.646   1.154   1.866
10791SOL     OW33271   0.673   6.987   0.605
10791SOL    HW133272   0.625   0.052   0.614
10791SOL    HW233273   0.687   6.966   0.508
10792SOL     OW33274   3.416   3.736   3.710
10792SOL    HW133275   3.407   3.665   3.779
10792SOL    HW233276   3.474   3.810   3.744
10793SOL     OW33277   6.270   3.578   4.414
10793SOL    HW133278   6.272   3.662   4.361
10793SOL    HW233279   6.175   3.548   4.425
10794SOL     OW33280   2.896   3.703   3.555
10794SOL    HW133281   2.930   3.779   3.611
10794SOL    HW233282   2.882   3.734   3.461
10795SOL     OW33283   6.814   4.188   2.680
10795SOL    HW133284   6.751   4.175   2.757
10795SOL    HW233285   6.825   4.286   2.663
10796SOL     OW33286   5.352   6.661   0.569
10796SOL    HW133287   5.365   6.760   0.569
10796SOL    HW233288   5.255   6.640   0.586
10797SOL     OW33289   4.147   2.540   1.428
10797SOL    HW133290   4.198   2.462   1.392
10797SOL    HW233291   4.051   2.531   1.404
10798SOL     OW33292   3.309   6.284   0.263
10798SOL    HW133293   3.343   6.240   0.346
10798SOL    HW233294   3.232   6.231   0.227
10799SOL     OW33295   3.485   0.682   1.988
10799SOL    HW133296   3.432   0.676   2.072
10799SOL    HW233297   3.438   0.744   1.924
10800SOL     OW33298   0.454   6.918   6.315
10800SOL    HW133299   0.370   6.937   6.263
10800SOL    HW233300   0.489   6.828   6.288
10801SOL     OW33301   0.659   5.994   6.086
10801SOL    HW133302   0.597   5.917   6.070
10801SOL    HW233303   0.703   5.983   6.175
10802SOL     OW33304   0.446   2.108   3.186
10802SOL    HW133305   0.453   2.051   3.268
10802SOL    HW233306   0.495   2.194   3.201
10803SOL     OW33307   3.073   4.073   5.738
10803SOL    HW133308   2.995   4.017   5.710
10803SOL    HW233309   3.054   4.169   5.720
10804SOL     OW33310   5.602   3.568   2.048
10804SOL    HW133311   5.554   3.565   1.960
10804SOL    HW233312   5.691   3.524   2.038
10805SOL     OW33313   3.885   0.225   7.017
10805SOL    HW133314   3.900   0.309   0.048
10805SOL    HW233315   3.936   0.150   0.036
10806SOL     OW33316   4.745   3.824   6.218
10806SOL    HW133317   4.817   3.891   6.202
10806SOL    HW233318   4.728   3.817   6.317
10807SOL     OW33319   1.331   0.168   1.879
10807SOL    HW133320   1.364   0.183   1.785
10807SOL    HW233321   1.313   0.070   1.892
10808SOL     OW33322   6.757   3.303   6.437
10808SOL    HW133323   6.662   3.333   6.430
10808SOL    HW233324   6.788   3.267   6.349
10809SOL     OW33325   3.115   5.297   3.274
10809SOL    HW133326   3.195   5.241   3.252
10809SOL    HW233327   3.038   5.271   3.216
10810SOL     OW33328   1.745   0.376   4.224
10810SOL    HW133329   1.826   0.351   4.172
10810SOL    HW233330   1.717   0.469   4.199
10811SOL     OW33331   3.828   4.314   5.841
10811SOL    HW133332   3.801   4.306   5.937
10811SOL    HW233333   3.770   4.254   5.786
10812SOL     OW33334   0.902   3.980   1.058
10812SOL    HW133335   0.832   4.036   1.015
10812SOL    HW233336   0.979   3.967   0.995
10813SOL     OW33337   1.853   4.728   6.205
10813SOL    HW133338   1.849   4.813   6.153
10813SOL    HW233339   1.948   4.706   6.227
10814SOL     OW33340   1.664   6.298   6.244
10814SOL    HW133341   1.740   6.361   6.260
10814SOL    HW233342   1.650   6.287   6.145
10815SOL     OW33343   4.424   4.588   3.501
10815SOL    HW133344   4.432   4.488   3.496
10815SOL    HW233345   4.485   4.630   3.433
10816SOL     OW33346   2.982   3.292   2.078
10816SOL    HW133347   2.905   3.324   2.022
10816SOL    HW233348   2.966   3.317   2.173
10817SOL     OW33349   4.486   6.761   2.957
10817SOL    HW133350   4.471   6.731   2.863
10817SOL    HW233351   4.584   6.757   2.977
10818SOL     OW33352   4.514   4.496   5.508
10818SOL    HW133353   4.465   4.411   5.522
10818SOL    HW233354   4.612   4.481   5.525
10819SOL     OW33355   6.544   4.729   0.006
10819SOL    HW133356   6.591   4.646   0.036
10819SOL    HW233357   6.445   4.717   0.017
10820SOL     OW33358   6.373   5.918   4.156
10820SOL    HW133359   6.469   5.941   4.171
10820SOL    HW233360   6.318   5.950   4.233
10821SOL     OW33361   6.124   0.179   2.505
10821SOL    HW133362   6.138   0.097   2.560
10821SOL    HW233363   6.208   0.203   2.457
10822SOL     OW33364   0.157   3.429   2.823
10822SOL    HW133365   0.073   3.473   2.854
10822SOL    HW233366   0.166   3.340   2.868
10823SOL     OW33367   1.546   6.215   1.395
10823SOL    HW133368   1.468   6.202   1.456
10823SOL    HW233369   1.563   6.130   1.345
10824SOL     OW33370   6.635   0.890   3.380
10824SOL    HW133371   6.633   0.817   3.449
10824SOL    HW233372   6.581   0.862   3.300
10825SOL     OW33373   2.305   1.283   6.423
10825SOL    HW133374   2.284   1.256   6.329
10825SOL    HW233375   2.222   1.279   6.479
10826SOL     OW33376   1.670   3.024   3.905
10826SOL    HW133377   1.661   2.933   3.864
10826SOL    HW233378   1.664   3.016   4.005
10827SOL     OW33379   6.599   3.526   4.401
10827SOL    HW133380   6.546   3.610   4.404
10827SOL    HW233381   6.552   3.455   4.454
10828SOL     OW33382   0.902   5.269   0.928
10828SOL    HW133383   0.804   5.253   0.913
10828SOL    HW233384   0.953   5.234   0.850
10829SOL     OW33385   3.923   2.403   0.962
10829SOL    HW133386   4.002   2.424   0.904
10829SOL    HW233387   3.948   2.330   1.027
10830SOL     OW33388   5.573   2.061   3.065
10830SOL    HW133389   5.667   2.067   3.031
10830SOL    HW233390   5.557   1.970   3.102
10831SOL     OW33391   2.734   5.983   2.348
10831SOL    HW133392   2.644   5.997   2.306
10831SOL    HW233393   2.789   5.924   2.289
10832SOL     OW33394   0.695   2.793   6.168
10832SOL    HW133395   0.759   2.867   6.151
10832SOL    HW233396   0.619   2.826   6.225
10833SOL     OW33397   1.194   0.969   2.141
10833SOL    HW133398   1.099   0.998   2.147
10833SOL    HW233399   1.221   0.963   2.045
10834SOL     OW33400   0.692   1.848   0.140
10834SOL    HW133401   0.716   1.784   0.213
10834SOL    HW233402   0.620   1.909   0.173
10835SOL     OW33403   5.873   1.936   7.007
10835SOL    HW133404   5.910   1.874   6.938
10835SOL    HW233405   5.778   1.957   6.985
10836SOL     OW33406   6.601   1.500   5.046
10836SOL    HW133407   6.591   1.514   4.947
10836SOL    HW233408   6.570   1.408   5.070
10837SOL     OW33409   6.974   5.466   1.658
10837SOL    HW133410   6.988   5.388   1.718
10837SOL    HW233411   6.998   5.550   1.706
10838SOL     OW33412   5.675   5.894   4.818
10838SOL    HW133413   5.687   5.961   4.892
10838SOL    HW233414   5.746   5.823   4.825
10839SOL     OW33415   4.261   3.170   1.771
10839SOL    HW133416   4.297   3.103   1.707
10839SOL    HW233417   4.336   3.207   1.827
10840SOL     OW33418   2.439   5.838   2.540
10840SOL    HW133419   2.521   5.814   2.593
10840SOL    HW233420   2.412   5.760   2.484
10841SOL     OW33421   5.372   5.304   6.927
10841SOL    HW133422   5.456   5.319   6.875
10841SOL    HW233423   5.328   5.392   6.946
10842SOL     OW33424   4.962   2.555   2.038
10842SOL    HW133425   4.929   2.500   2.115
10842SOL    HW233426   4.884   2.603   1.996
10843SOL     OW33427   1.359   2.610   1.381
10843SOL    HW133428   1.306   2.537   1.426
10843SOL    HW233429   1.456   2.600   1.405
10844SOL     OW33430   0.087   6.796   3.445
10844SOL    HW133431   0.141   6.877   3.467
10844SOL    HW233432   0.064   6.796   3.348
10845SOL     OW33433   3.254   0.357   5.487
10845SOL    HW133434   3.280   0.453   5.496
10845SOL    HW233435   3.308   0.302   5.550
10846SOL     OW33436   4.709   1.436   0.621
10846SOL    HW133437   4.768   1.403   0.694
10846SOL    HW233438   4.676   1.358   0.567
10847SOL     OW33439   3.781   3.183   6.706
10847SOL    HW133440   3.698   3.224   6.667
10847SOL    HW233441   3.861   3.233   6.673
10848SOL     OW33442   3.326   3.388   6.802
10848SOL    HW133443   3.338   3.445   6.883
10848SOL    HW233444   3.352   3.440   6.721
10849SOL     OW33445   2.084   5.699   3.024
10849SOL    HW133446   2.066   5.785   3.073
10849SOL    HW233447   2.073   5.622   3.087
10850SOL     OW33448   2.679   5.346   6.627
10850SOL    HW133449   2.699   5.295   6.711
10850SOL    HW233450   2.589   5.390   6.636
10851SOL     OW33451   1.813   3.206   6.904
10851SOL    HW133452   1.738   3.189   6.969
10851SOL    HW233453   1.882   3.134   6.913
10852SOL     OW33454   1.117   0.375   6.743
10852SOL    HW133455   1.133   0.309   6.817
10852SOL    HW233456   1.156   0.340   6.658
10853SOL     OW33457   1.902   1.874   5.761
10853SOL    HW133458   1.960   1.955   5.751
10853SOL    HW233459   1.936   1.800   5.703
10854SOL     OW33460   4.176   5.581   4.703
10854SOL    HW133461   4.093   5.628   4.734
10854SOL    HW233462   4.162   5.482   4.707
10855SOL     OW33463   2.882   6.853   0.515
10855SOL    HW133464   2.965   6.825   0.562
10855SOL    HW233465   2.898   6.939   0.467
10856SOL     OW33466   5.383   1.209   0.267
10856SOL    HW133467   5.378   1.247   0.359
10856SOL    HW233468   5.416   1.279   0.204
10857SOL     OW33469   6.917   2.875   2.660
10857SOL    HW133470   6.840   2.822   2.695
10857SOL    HW233471   6.930   2.957   2.716
10858SOL     OW33472   0.552   1.871   6.073
10858SOL    HW133473   0.552   1.885   5.974
10858SOL    HW233474   0.472   1.819   6.100
10859SOL     OW33475   2.101   3.744   4.240
10859SOL    HW133476   2.131   3.656   4.202
10859SOL    HW233477   2.042   3.728   4.319
10860SOL     OW33478   6.738   1.565   5.702
10860SOL    HW133479   6.769   1.633   5.635
10860SOL    HW233480   6.800   1.566   5.780
10861SOL     OW33481   3.448   3.502   2.797
10861SOL    HW133482   3.467   3.455   2.711
10861SOL    HW233483   3.534   3.520   2.844
10862SOL     OW33484   2.519   2.022   6.943
10862SOL    HW133485   2.479   1.965   6.871
10862SOL    HW233486   2.473   2.111   6.944
10863SOL     OW33487   3.275   0.812   3.594
10863SOL    HW133488   3.262   0.903   3.557
10863SOL    HW233489   3.216   0.747   3.545
10864SOL     OW33490   3.040   5.288   0.743
10864SOL    HW133491   2.979   5.236   0.684
10864SOL    HW233492   3.134   5.278   0.711
10865SOL     OW33493   6.831   1.707   2.161
10865SOL    HW133494   6.892   1.687   2.084
10865SOL    HW233495   6.758   1.638   2.163
10866SOL     OW33496   5.293   4.762   0.304
10866SOL    HW133497   5.243   4.847   0.320
10866SOL    HW233498   5.228   4.688   0.287
10867SOL     OW33499   3.684   3.436   0.260
10867SOL    HW133500   3.651   3.359   0.205
10867SOL    HW233501   3.648   3.521   0.223
10868SOL     OW33502   3.876   1.828   3.911
10868SOL    HW133503   3.822   1.912   3.915
10868SOL    HW233504   3.893   1.804   3.815
10869NA      NA33505   0.131   2.253   5.181
10870NA      NA33506   4.336   4.587   5.286
10871NA      NA33507   2.044   4.027   2.460
10872NA      NA33508   4.894   4.125   4.347
10873NA      NA33509   4.395   2.597   5.223
10874NA      NA33510   3.199   4.784   1.699
10875NA      NA33511   0.230   4.241   0.663
10876NA      NA33512   3.234   3.422   3.427
10877NA      NA33513   5.301   5.606   0.727
10878NA      NA33514   3.327   6.611   5.574
10879NA      NA33515   5.806   5.378   1.775
10880NA      NA33516   2.225   0.937   4.525
10881NA      NA33517   3.903   5.076   2.137
10882NA      NA33518   3.960   3.689   1.822
   7.02235   7.02235   7.02235
