Generated by trjconv : CNT in water t= 462.00000
33518
    1C        C    1   2.839   2.763   4.746
    1C        C    2   2.893   2.714   4.867
    1C        C    3   2.837   2.762   4.986
    1C        C    4   2.847   2.771   4.259
    1C        C    5   2.900   2.726   4.382
    1C        C    6   2.845   2.769   4.505
    1C        C    7   3.010   2.632   4.626
    1C        C    8   2.896   2.715   4.626
    1C        C    9   3.074   2.599   4.747
    1C        C   10   3.007   2.630   4.868
    1C        C   11   3.182   2.491   4.978
    1C        C   12   3.065   2.567   4.979
    1C        C   13   2.846   2.764   3.772
    1C        C   14   2.897   2.713   3.893
    1C        C   15   2.848   2.767   4.014
    1C        C   16   3.017   2.642   4.137
    1C        C   17   2.901   2.723   4.138
    1C        C   18   3.080   2.612   4.260
    1C        C   19   3.017   2.647   4.381
    1C        C   20   3.205   2.551   4.506
    1C        C   21   3.073   2.602   4.503
    1C        C   22   3.275   2.527   4.626
    1C        C   23   3.204   2.541   4.747
    1C        C   24   3.411   2.474   4.865
    1C        C   25   3.269   2.494   4.864
    1C        C   26   3.488   2.476   4.982
    1C        C   27   2.850   2.764   3.280
    1C        C   28   2.906   2.721   3.403
    1C        C   29   2.855   2.769   3.526
    1C        C   30   3.016   2.637   3.649
    1C        C   31   2.901   2.720   3.650
    1C        C   32   3.074   2.595   3.771
    1C        C   33   3.013   2.633   3.893
    1C        C   34   3.208   2.550   4.015
    1C        C   35   3.077   2.602   4.015
    1C        C   36   3.275   2.531   4.138
    1C        C   37   3.209   2.554   4.261
    1C        C   38   3.413   2.505   4.383
    1C        C   39   3.275   2.535   4.385
    1C        C   40   3.485   2.493   4.504
    1C        C   41   3.414   2.501   4.626
    1C        C   42   3.629   2.486   4.742
    1C        C   43   3.487   2.481   4.745
    1C        C   44   3.703   2.484   4.863
    1C        C   45   3.627   2.473   4.980
    1C        C   46   2.836   2.751   2.790
    1C        C   47   2.893   2.711   2.912
    1C        C   48   2.844   2.758   3.036
    1C        C   49   3.014   2.631   3.159
    1C        C   50   2.899   2.712   3.158
    1C        C   51   3.078   2.598   3.281
    1C        C   52   3.018   2.635   3.403
    1C        C   53   3.203   2.537   3.526
    1C        C   54   3.076   2.598   3.527
    1C        C   55   3.271   2.514   3.648
    1C        C   56   3.203   2.538   3.770
    1C        C   57   3.413   2.505   3.895
    1C        C   58   3.273   2.527   3.892
    1C        C   59   3.484   2.496   4.017
    1C        C   60   3.413   2.504   4.139
    1C        C   61   3.624   2.497   4.257
    1C        C   62   3.483   2.492   4.261
    1C        C   63   3.696   2.510   4.378
    1C        C   64   3.626   2.504   4.501
    1C        C   65   3.835   2.544   4.623
    1C        C   66   3.699   2.504   4.621
    1C        C   67   3.904   2.559   4.745
    1C        C   68   3.839   2.520   4.864
    1C        C   69   4.050   2.587   4.977
    1C        C   70   3.923   2.529   4.976
    1C        C   71   2.824   2.734   2.301
    1C        C   72   2.883   2.695   2.423
    1C        C   73   2.832   2.741   2.546
    1C        C   74   3.006   2.624   2.671
    1C        C   75   2.887   2.698   2.669
    1C        C   76   3.072   2.594   2.792
    1C        C   77   3.009   2.630   2.913
    1C        C   78   3.201   2.538   3.037
    1C        C   79   3.072   2.596   3.035
    1C        C   80   3.271   2.517   3.158
    1C        C   81   3.207   2.540   3.282
    1C        C   82   3.414   2.498   3.402
    1C        C   83   3.274   2.521   3.404
    1C        C   84   3.481   2.495   3.527
    1C        C   85   3.411   2.496   3.649
    1C        C   86   3.622   2.499   3.768
    1C        C   87   3.481   2.494   3.772
    1C        C   88   3.692   2.515   3.890
    1C        C   89   3.625   2.504   4.014
    1C        C   90   3.832   2.550   4.135
    1C        C   91   3.696   2.514   4.136
    1C        C   92   3.897   2.575   4.258
    1C        C   93   3.831   2.548   4.380
    1C        C   94   4.027   2.635   4.501
    1C        C   95   3.900   2.572   4.501
    1C        C   96   4.089   2.672   4.622
    1C        C   97   4.027   2.631   4.742
    1C        C   98   4.193   2.765   4.861
    1C        C   99   4.096   2.660   4.863
    1C        C  100   4.214   2.843   4.976
    1C        C  101   2.820   2.732   2.066
    1C        C  102   2.990   2.593   2.185
    1C        C  103   2.873   2.674   2.182
    1C        C  104   3.063   2.580   2.307
    1C        C  105   3.002   2.618   2.428
    1C        C  106   3.199   2.534   2.549
    1C        C  107   3.067   2.584   2.549
    1C        C  108   3.270   2.517   2.670
    1C        C  109   3.204   2.542   2.792
    1C        C  110   3.409   2.496   2.914
    1C        C  111   3.269   2.519   2.915
    1C        C  112   3.482   2.493   3.035
    1C        C  113   3.411   2.499   3.157
    1C        C  114   3.623   2.498   3.281
    1C        C  115   3.482   2.491   3.279
    1C        C  116   3.692   2.511   3.404
    1C        C  117   3.622   2.500   3.526
    1C        C  118   3.829   2.549   3.646
    1C        C  119   3.694   2.509   3.647
    1C        C  120   3.896   2.573   3.769
    1C        C  121   3.829   2.552   3.891
    1C        C  122   4.021   2.644   4.014
    1C        C  123   3.898   2.575   4.012
    1C        C  124   4.085   2.677   4.135
    1C        C  125   4.023   2.639   4.256
    1C        C  126   4.193   2.764   4.377
    1C        C  127   4.083   2.676   4.379
    1C        C  128   4.246   2.815   4.497
    1C        C  129   4.194   2.767   4.619
    1C        C  130   4.332   2.931   4.740
    1C        C  131   4.246   2.817   4.740
    1C        C  132   4.357   3.002   4.859
    1C        C  133   4.283   2.963   4.971
    1C        C  134   3.171   2.463   2.080
    1C        C  135   3.038   2.508   2.080
    1C        C  136   3.258   2.483   2.188
    1C        C  137   3.192   2.521   2.307
    1C        C  138   3.402   2.475   2.427
    1C        C  139   3.263   2.500   2.428
    1C        C  140   3.476   2.477   2.547
    1C        C  141   3.408   2.489   2.671
    1C        C  142   3.621   2.491   2.791
    1C        C  143   3.480   2.485   2.793
    1C        C  144   3.691   2.508   2.913
    1C        C  145   3.623   2.495   3.036
    1C        C  146   3.830   2.538   3.157
    1C        C  147   3.693   2.507   3.158
    1C        C  148   3.897   2.567   3.278
    1C        C  149   3.828   2.549   3.400
    1C        C  150   4.022   2.634   3.523
    1C        C  151   3.894   2.573   3.523
    1C        C  152   4.081   2.672   3.646
    1C        C  153   4.021   2.638   3.769
    1C        C  154   4.194   2.762   3.887
    1C        C  155   4.082   2.677   3.891
    1C        C  156   4.246   2.810   4.010
    1C        C  157   4.197   2.764   4.134
    1C        C  158   4.335   2.925   4.253
    1C        C  159   4.248   2.814   4.256
    1C        C  160   4.375   2.984   4.375
    1C        C  161   4.329   2.930   4.497
    1C        C  162   4.435   3.115   4.616
    1C        C  163   4.368   2.991   4.618
    1C        C  164   4.465   3.186   4.735
    1C        C  165   4.432   3.122   4.857
    1C        C  166   4.517   3.322   4.974
    1C        C  167   4.480   3.188   4.971
    1C        C  168   3.472   2.433   2.072
    1C        C  169   3.397   2.459   2.187
    1C        C  170   3.615   2.463   2.305
    1C        C  171   3.473   2.458   2.306
    1C        C  172   3.690   2.486   2.422
    1C        C  173   3.617   2.486   2.543
    1C        C  174   3.821   2.539   2.667
    1C        C  175   3.686   2.500   2.666
    1C        C  176   3.890   2.566   2.788
    1C        C  177   3.827   2.546   2.913
    1C        C  178   4.021   2.629   3.031
    1C        C  179   3.896   2.564   3.035
    1C        C  180   4.083   2.664   3.153
    1C        C  181   4.023   2.632   3.277
    1C        C  182   4.198   2.749   3.399
    1C        C  183   4.083   2.666   3.400
    1C        C  184   4.246   2.807   3.519
    1C        C  185   4.193   2.758   3.641
    1C        C  186   4.334   2.917   3.764
    1C        C  187   4.244   2.808   3.763
    1C        C  188   4.374   2.976   3.886
    1C        C  189   4.331   2.922   4.010
    1C        C  190   4.449   3.102   4.128
    1C        C  191   4.376   2.981   4.130
    1C        C  192   4.468   3.172   4.249
    1C        C  193   4.440   3.110   4.373
    1C        C  194   4.503   3.315   4.492
    1C        C  195   4.462   3.180   4.494
    1C        C  196   4.524   3.387   4.612
    1C        C  197   4.511   3.321   4.736
    1C        C  198   4.553   3.537   4.854
    1C        C  199   4.531   3.395   4.855
    1C        C  200   4.584   3.622   4.965
    1C        C  201   3.612   2.426   2.068
    1C        C  202   3.822   2.514   2.184
    1C        C  203   3.688   2.464   2.182
    1C        C  204   3.897   2.543   2.301
    1C        C  205   3.826   2.526   2.422
    1C        C  206   4.016   2.618   2.544
    1C        C  207   3.889   2.556   2.545
    1C        C  208   4.077   2.661   2.664
    1C        C  209   4.016   2.630   2.787
    1C        C  210   4.196   2.747   2.907
    1C        C  211   4.078   2.670   2.908
    1C        C  212   4.251   2.792   3.030
    1C        C  213   4.198   2.747   3.153
    1C        C  214   4.335   2.906   3.274
    1C        C  215   4.251   2.791   3.276
    1C        C  216   4.377   2.966   3.394
    1C        C  217   4.341   2.911   3.519
    1C        C  218   4.436   3.100   3.638
    1C        C  219   4.380   2.970   3.642
    1C        C  220   4.460   3.166   3.760
    1C        C  221   4.441   3.100   3.884
    1C        C  222   4.503   3.304   4.003
    1C        C  223   4.476   3.165   4.004
    1C        C  224   4.516   3.377   4.124
    1C        C  225   4.509   3.308   4.247
    1C        C  226   4.522   3.521   4.367
    1C        C  227   4.516   3.380   4.368
    1C        C  228   4.514   3.595   4.487
    1C        C  229   4.529   3.528   4.610
    1C        C  230   4.503   3.741   4.727
    1C        C  231   4.535   3.602   4.730
    1C        C  232   4.493   3.818   4.845
    1C        C  233   4.542   3.755   4.960
    1C        C  234   4.022   2.599   2.062
    1C        C  235   3.894   2.544   2.067
    1C        C  236   4.083   2.645   2.180
    1C        C  237   4.022   2.610   2.302
    1C        C  238   4.196   2.734   2.419
    1C        C  239   4.085   2.644   2.423
    1C        C  240   4.249   2.786   2.539
    1C        C  241   4.195   2.739   2.661
    1C        C  242   4.335   2.898   2.787
    1C        C  243   4.249   2.786   2.782
    1C        C  244   4.376   2.960   2.907
    1C        C  245   4.339   2.902   3.031
    1C        C  246   4.437   3.091   3.148
    1C        C  247   4.377   2.963   3.152
    1C        C  248   4.457   3.160   3.269
    1C        C  249   4.438   3.094   3.393
    1C        C  250   4.494   3.300   3.512
    1C        C  251   4.463   3.162   3.514
    1C        C  252   4.511   3.369   3.634
    1C        C  253   4.499   3.302   3.758
    1C        C  254   4.515   3.514   3.878
    1C        C  255   4.513   3.372   3.880
    1C        C  256   4.511   3.586   3.999
    1C        C  257   4.518   3.518   4.123
    1C        C  258   4.489   3.729   4.240
    1C        C  259   4.520   3.591   4.244
    1C        C  260   4.463   3.797   4.361
    1C        C  261   4.482   3.733   4.485
    1C        C  262   4.426   3.940   4.603
    1C        C  263   4.475   3.807   4.605
    1C        C  264   4.398   4.010   4.722
    1C        C  265   4.432   3.945   4.843
    1C        C  266   4.317   4.128   4.958
    1C        C  267   4.388   4.009   4.960
    1C        C  268   4.258   2.780   2.064
    1C        C  269   4.195   2.731   2.180
    1C        C  270   4.347   2.887   2.298
    1C        C  271   4.253   2.780   2.299
    1C        C  272   4.386   2.949   2.419
    1C        C  273   4.344   2.891   2.541
    1C        C  274   4.443   3.078   2.660
    1C        C  275   4.377   2.953   2.664
    1C        C  276   4.474   3.147   2.779
    1C        C  277   4.443   3.084   2.902
    1C        C  278   4.509   3.287   3.025
    1C        C  279   4.467   3.152   3.024
    1C        C  280   4.515   3.362   3.144
    1C        C  281   4.500   3.295   3.267
    1C        C  282   4.510   3.508   3.390
    1C        C  283   4.507   3.367   3.389
    1C        C  284   4.509   3.581   3.511
    1C        C  285   4.514   3.510   3.633
    1C        C  286   4.485   3.721   3.752
    1C        C  287   4.507   3.582   3.755
    1C        C  288   4.471   3.792   3.874
    1C        C  289   4.488   3.725   3.997
    1C        C  290   4.417   3.928   4.116
    1C        C  291   4.470   3.797   4.118
    1C        C  292   4.389   3.994   4.237
    1C        C  293   4.418   3.931   4.360
    1C        C  294   4.327   4.126   4.478
    1C        C  295   4.393   4.001   4.480
    1C        C  296   4.285   4.187   4.598
    1C        C  297   4.327   4.133   4.721
    1C        C  298   4.197   4.312   4.837
    1C        C  299   4.282   4.197   4.840
    1C        C  300   4.171   4.401   4.946
    1C        C  301   4.355   2.879   2.063
    1C        C  302   4.466   3.071   2.177
    1C        C  303   4.398   2.945   2.179
    1C        C  304   4.477   3.144   2.298
    1C        C  305   4.447   3.077   2.418
    1C        C  306   4.510   3.282   2.536
    1C        C  307   4.472   3.146   2.539
    1C        C  308   4.515   3.354   2.658
    1C        C  309   4.505   3.285   2.781
    1C        C  310   4.521   3.497   2.898
    1C        C  311   4.518   3.356   2.902
    1C        C  312   4.515   3.570   3.020
    1C        C  313   4.515   3.503   3.144
    1C        C  314   4.484   3.714   3.263
    1C        C  315   4.509   3.575   3.266
    1C        C  316   4.463   3.784   3.383
    1C        C  317   4.483   3.720   3.508
    1C        C  318   4.419   3.923   3.628
    1C        C  319   4.466   3.789   3.630
    1C        C  320   4.389   3.987   3.750
    1C        C  321   4.424   3.925   3.873
    1C        C  322   4.322   4.116   3.989
    1C        C  323   4.390   3.992   3.993
    1C        C  324   4.279   4.172   4.111
    1C        C  325   4.319   4.117   4.235
    1C        C  326   4.189   4.286   4.355
    1C        C  327   4.283   4.181   4.355
    1C        C  328   4.137   4.341   4.474
    1C        C  329   4.194   4.295   4.595
    1C        C  330   4.028   4.438   4.711
    1C        C  331   4.143   4.354   4.713
    1C        C  332   3.970   4.491   4.829
    1C        C  333   4.052   4.476   4.942
    1C        C  334   4.555   3.267   2.064
    1C        C  335   4.537   3.128   2.067
    1C        C  336   4.538   3.352   2.174
    1C        C  337   4.514   3.281   2.293
    1C        C  338   4.525   3.494   2.411
    1C        C  339   4.523   3.353   2.415
    1C        C  340   4.523   3.566   2.533
    1C        C  341   4.524   3.495   2.655
    1C        C  342   4.488   3.706   2.776
    1C        C  343   4.514   3.567   2.776
    1C        C  344   4.470   3.778   2.896
    1C        C  345   4.489   3.709   3.018
    1C        C  346   4.418   3.912   3.136
    1C        C  347   4.468   3.779   3.138
    1C        C  348   4.387   3.978   3.257
    1C        C  349   4.410   3.915   3.381
    1C        C  350   4.320   4.105   3.502
    1C        C  351   4.392   3.984   3.504
    1C        C  352   4.277   4.166   3.623
    1C        C  353   4.320   4.110   3.745
    1C        C  354   4.179   4.271   3.865
    1C        C  355   4.279   4.170   3.866
    1C        C  356   4.126   4.319   3.986
    1C        C  357   4.181   4.274   4.108
    1C        C  358   4.017   4.405   4.230
    1C        C  359   4.134   4.326   4.231
    1C        C  360   3.957   4.450   4.350
    1C        C  361   4.021   4.422   4.472
    1C        C  362   3.829   4.519   4.593
    1C        C  363   3.961   4.470   4.591
    1C        C  364   3.762   4.548   4.714
    1C        C  365   3.838   4.540   4.833
    1C        C  366   3.626   4.592   4.950
    1C        C  367   3.764   4.577   4.946
    1C        C  368   4.505   3.566   2.052
    1C        C  369   4.520   3.492   2.170
    1C        C  370   4.497   3.706   2.291
    1C        C  371   4.513   3.566   2.290
    1C        C  372   4.488   3.778   2.412
    1C        C  373   4.500   3.705   2.533
    1C        C  374   4.423   3.906   2.648
    1C        C  375   4.474   3.774   2.653
    1C        C  376   4.390   3.972   2.768
    1C        C  377   4.424   3.912   2.892
    1C        C  378   4.315   4.095   3.011
    1C        C  379   4.390   3.975   3.013
    1C        C  380   4.273   4.152   3.133
    1C        C  381   4.314   4.099   3.258
    1C        C  382   4.180   4.263   3.376
    1C        C  383   4.274   4.158   3.380
    1C        C  384   4.124   4.310   3.497
    1C        C  385   4.178   4.266   3.620
    1C        C  386   4.006   4.392   3.744
    1C        C  387   4.123   4.312   3.742
    1C        C  388   3.946   4.433   3.865
    1C        C  389   4.009   4.399   3.987
    1C        C  390   3.819   4.488   4.107
    1C        C  391   3.951   4.439   4.110
    1C        C  392   3.754   4.512   4.230
    1C        C  393   3.826   4.502   4.351
    1C        C  394   3.617   4.550   4.475
    1C        C  395   3.757   4.527   4.472
    1C        C  396   3.544   4.559   4.596
    1C        C  397   3.621   4.561   4.714
    1C        C  398   3.411   4.544   4.836
    1C        C  399   3.549   4.574   4.835
    1C        C  400   3.340   4.508   4.951
    1C        C  401   4.509   3.705   2.053
    1C        C  402   4.460   3.917   2.168
    1C        C  403   4.492   3.779   2.171
    1C        C  404   4.417   3.981   2.287
    1C        C  405   4.438   3.910   2.407
    1C        C  406   4.330   4.098   2.524
    1C        C  407   4.400   3.976   2.527
    1C        C  408   4.282   4.153   2.646
    1C        C  409   4.314   4.090   2.768
    1C        C  410   4.174   4.253   2.886
    1C        C  411   4.271   4.151   2.889
    1C        C  412   4.123   4.300   3.009
    1C        C  413   4.176   4.254   3.133
    1C        C  414   4.005   4.382   3.249
    1C        C  415   4.123   4.305   3.254
    1C        C  416   3.945   4.414   3.373
    1C        C  417   4.005   4.386   3.498
    1C        C  418   3.815   4.479   3.620
    1C        C  419   3.945   4.423   3.620
    1C        C  420   3.747   4.503   3.741
    1C        C  421   3.814   4.481   3.863
    1C        C  422   3.609   4.530   3.988
    1C        C  423   3.749   4.508   3.986
    1C        C  424   3.541   4.531   4.111
    1C        C  425   3.614   4.529   4.232
    1C        C  426   3.403   4.540   4.355
    1C        C  427   3.544   4.545   4.354
    1C        C  428   3.332   4.546   4.476
    1C        C  429   3.403   4.561   4.598
    1C        C  430   3.193   4.518   4.724
    1C        C  431   3.332   4.546   4.719
    1C        C  432   3.120   4.496   4.844
    1C        C  433   3.202   4.490   4.958
    1C        C  434   4.385   4.122   2.048
    1C        C  435   4.444   3.995   2.053
    1C        C  436   4.307   4.165   2.160
    1C        C  437   4.336   4.098   2.282
    1C        C  438   4.184   4.250   2.401
    1C        C  439   4.289   4.155   2.402
    1C        C  440   4.126   4.297   2.520
    1C        C  441   4.182   4.252   2.642
    1C        C  442   4.005   4.375   2.764
    1C        C  443   4.124   4.298   2.762
    1C        C  444   3.942   4.410   2.886
    1C        C  445   4.007   4.380   3.008
    1C        C  446   3.811   4.470   3.131
    1C        C  447   3.942   4.415   3.128
    1C        C  448   3.748   4.497   3.255
    1C        C  449   3.815   4.470   3.376
    1C        C  450   3.609   4.526   3.495
    1C        C  451   3.748   4.497   3.498
    1C        C  452   3.540   4.535   3.618
    1C        C  453   3.607   4.527   3.742
    1C        C  454   3.398   4.535   3.866
    1C        C  455   3.539   4.536   3.865
    1C        C  456   3.329   4.526   3.989
    1C        C  457   3.399   4.530   4.112
    1C        C  458   3.193   4.489   4.236
    1C        C  459   3.331   4.521   4.235
    1C        C  460   3.128   4.478   4.361
    1C        C  461   3.197   4.503   4.481
    1C        C  462   2.998   4.431   4.604
    1C        C  463   3.128   4.487   4.603
    1C        C  464   2.929   4.402   4.723
    1C        C  465   2.985   4.450   4.845
    1C        C  466   2.804   4.336   4.960
    1C        C  467   2.904   4.435   4.962
    1C        C  468   4.125   4.287   2.043
    1C        C  469   4.188   4.244   2.161
    1C        C  470   4.005   4.368   2.279
    1C        C  471   4.127   4.294   2.279
    1C        C  472   3.940   4.399   2.401
    1C        C  473   4.008   4.375   2.523
    1C        C  474   3.814   4.470   2.643
    1C        C  475   3.944   4.413   2.643
    1C        C  476   3.745   4.492   2.764
    1C        C  477   3.812   4.464   2.886
    1C        C  478   3.605   4.509   3.007
    1C        C  479   3.744   4.488   3.008
    1C        C  480   3.536   4.527   3.129
    1C        C  481   3.610   4.524   3.250
    1C        C  482   3.398   4.525   3.376
    1C        C  483   3.540   4.527   3.373
    1C        C  484   3.328   4.523   3.498
    1C        C  485   3.398   4.534   3.620
    1C        C  486   3.191   4.496   3.745
    1C        C  487   3.329   4.528   3.742
    1C        C  488   3.125   4.473   3.868
    1C        C  489   3.192   4.492   3.991
    1C        C  490   2.998   4.411   4.117
    1C        C  491   3.125   4.473   4.113
    1C        C  492   2.936   4.383   4.241
    1C        C  493   2.997   4.425   4.361
    1C        C  494   2.827   4.302   4.485
    1C        C  495   2.935   4.393   4.483
    1C        C  496   2.773   4.257   4.607
    1C        C  497   2.815   4.317   4.728
    1C        C  498   2.662   4.164   4.846
    1C        C  499   2.750   4.274   4.846
    1C        C  500   2.588   4.119   4.956
    1C        C  501   4.004   4.356   2.040
    1C        C  502   3.815   4.461   2.155
    1C        C  503   3.944   4.402   2.157
    1C        C  504   3.743   4.476   2.275
    1C        C  505   3.809   4.451   2.398
    1C        C  506   3.606   4.504   2.519
    1C        C  507   3.745   4.480   2.520
    1C        C  508   3.534   4.513   2.640
    1C        C  509   3.605   4.510   2.762
    1C        C  510   3.393   4.522   2.886
    1C        C  511   3.535   4.517   2.885
    1C        C  512   3.324   4.519   3.009
    1C        C  513   3.395   4.531   3.130
    1C        C  514   3.189   4.490   3.256
    1C        C  515   3.327   4.523   3.254
    1C        C  516   3.122   4.467   3.378
    1C        C  517   3.190   4.491   3.499
    1C        C  518   2.996   4.411   3.623
    1C        C  519   3.125   4.470   3.623
    1C        C  520   2.938   4.374   3.746
    1C        C  521   2.999   4.410   3.869
    1C        C  522   2.829   4.289   3.996
    1C        C  523   2.942   4.373   3.992
    1C        C  524   2.779   4.240   4.118
    1C        C  525   2.827   4.293   4.240
    1C        C  526   2.695   4.133   4.367
    1C        C  527   2.776   4.249   4.364
    1C        C  528   2.653   4.076   4.489
    1C        C  529   2.686   4.146   4.607
    1C        C  530   2.584   3.958   4.732
    1C        C  531   2.640   4.089   4.728
    1C        C  532   2.541   3.900   4.855
    1C        C  533   2.528   3.992   4.963
    1C        C  534   3.618   4.555   2.044
    1C        C  535   3.750   4.506   2.040
    1C        C  536   3.534   4.531   2.157
    1C        C  537   3.605   4.510   2.278
    1C        C  538   3.391   4.507   2.398
    1C        C  539   3.532   4.513   2.399
    1C        C  540   3.322   4.505   2.521
    1C        C  541   3.393   4.514   2.642
    1C        C  542   3.186   4.473   2.766
    1C        C  543   3.322   4.508   2.764
    1C        C  544   3.121   4.458   2.890
    1C        C  545   3.187   4.486   3.012
    1C        C  546   2.994   4.402   3.135
    1C        C  547   3.119   4.467   3.135
    1C        C  548   2.938   4.362   3.259
    1C        C  549   2.998   4.401   3.381
    1C        C  550   2.829   4.274   3.507
    1C        C  551   2.935   4.367   3.504
    1C        C  552   2.781   4.227   3.631
    1C        C  553   2.829   4.285   3.751
    1C        C  554   2.691   4.127   3.879
    1C        C  555   2.778   4.238   3.874
    1C        C  556   2.648   4.070   4.001
    1C        C  557   2.686   4.134   4.121
    1C        C  558   2.596   3.946   4.247
    1C        C  559   2.658   4.072   4.245
    1C        C  560   2.563   3.882   4.369
    1C        C  561   2.588   3.950   4.490
    1C        C  562   2.526   3.750   4.616
    1C        C  563   2.563   3.886   4.613
    1C        C  564   2.515   3.680   4.739
    1C        C  565   2.524   3.758   4.857
    1C        C  566   2.535   3.546   4.979
    1C        C  567   2.534   3.686   4.977
    1C        C  568   3.324   4.467   2.040
    1C        C  569   3.393   4.510   2.154
    1C        C  570   3.182   4.476   2.279
    1C        C  571   3.320   4.511   2.276
    1C        C  572   3.115   4.455   2.402
    1C        C  573   3.183   4.477   2.523
    1C        C  574   2.986   4.397   2.647
    1C        C  575   3.115   4.455   2.645
    1C        C  576   2.930   4.361   2.772
    1C        C  577   2.993   4.399   2.892
    1C        C  578   2.820   4.278   3.017
    1C        C  579   2.930   4.366   3.014
    1C        C  580   2.773   4.226   3.139
    1C        C  581   2.826   4.276   3.260
    1C        C  582   2.692   4.116   3.387
    1C        C  583   2.777   4.229   3.384
    1C        C  584   2.653   4.059   3.510
    1C        C  585   2.688   4.121   3.632
    1C        C  586   2.594   3.937   3.758
    1C        C  587   2.652   4.066   3.757
    1C        C  588   2.567   3.876   3.882
    1C        C  589   2.592   3.941   4.005
    1C        C  590   2.538   3.737   4.128
    1C        C  591   2.569   3.875   4.128
    1C        C  592   2.526   3.670   4.252
    1C        C  593   2.534   3.744   4.372
    1C        C  594   2.510   3.536   4.498
    1C        C  595   2.517   3.677   4.496
    1C        C  596   2.519   3.465   4.620
    1C        C  597   2.521   3.538   4.741
    1C        C  598   2.541   3.327   4.860
    1C        C  599   2.529   3.468   4.863
    1C        C  600   2.537   3.249   4.977
    1C        C  601   3.189   4.437   2.040
    1C        C  602   2.979   4.394   2.159
    1C        C  603   3.114   4.441   2.159
    1C        C  604   2.925   4.359   2.286
    1C        C  605   2.986   4.398   2.407
    1C        C  606   2.814   4.268   2.530
    1C        C  607   2.923   4.358   2.527
    1C        C  608   2.763   4.223   2.654
    1C        C  609   2.818   4.275   2.774
    1C        C  610   2.682   4.113   2.896
    1C        C  611   2.768   4.225   2.896
    1C        C  612   2.644   4.054   3.019
    1C        C  613   2.685   4.115   3.140
    1C        C  614   2.583   3.934   3.267
    1C        C  615   2.650   4.058   3.265
    1C        C  616   2.559   3.869   3.390
    1C        C  617   2.587   3.934   3.512
    1C        C  618   2.531   3.734   3.638
    1C        C  619   2.569   3.870   3.637
    1C        C  620   2.520   3.667   3.762
    1C        C  621   2.535   3.738   3.883
    1C        C  622   2.511   3.527   4.008
    1C        C  623   2.525   3.667   4.005
    1C        C  624   2.517   3.458   4.131
    1C        C  625   2.517   3.529   4.253
    1C        C  626   2.546   3.324   4.379
    1C        C  627   2.520   3.462   4.377
    1C        C  628   2.562   3.253   4.501
    1C        C  629   2.543   3.326   4.620
    1C        C  630   2.601   3.118   4.744
    1C        C  631   2.554   3.253   4.740
    1C        C  632   2.622   3.050   4.867
    1C        C  633   2.566   3.113   4.983
    1C        C  634   2.782   4.301   2.055
    1C        C  635   2.890   4.391   2.047
    1C        C  636   2.747   4.231   2.170
    1C        C  637   2.813   4.272   2.288
    1C        C  638   2.672   4.109   2.410
    1C        C  639   2.761   4.219   2.409
    1C        C  640   2.636   4.051   2.533
    1C        C  641   2.677   4.111   2.654
    1C        C  642   2.588   3.919   2.777
    1C        C  643   2.643   4.049   2.776
    1C        C  644   2.562   3.859   2.902
    1C        C  645   2.585   3.926   3.024
    1C        C  646   2.526   3.725   3.151
    1C        C  647   2.560   3.862   3.148
    1C        C  648   2.512   3.658   3.274
    1C        C  649   2.532   3.730   3.394
    1C        C  650   2.515   3.521   3.520
    1C        C  651   2.521   3.662   3.517
    1C        C  652   2.520   3.452   3.643
    1C        C  653   2.519   3.526   3.764
    1C        C  654   2.537   3.316   3.890
    1C        C  655   2.516   3.455   3.887
    1C        C  656   2.559   3.250   4.012
    1C        C  657   2.542   3.319   4.135
    1C        C  658   2.611   3.120   4.257
    1C        C  659   2.560   3.252   4.258
    1C        C  660   2.639   3.055   4.379
    1C        C  661   2.606   3.119   4.500
    1C        C  662   2.708   2.934   4.624
    1C        C  663   2.632   3.053   4.622
    1C        C  664   2.748   2.872   4.745
    1C        C  665   2.702   2.931   4.866
    1C        C  666   2.741   2.862   4.981
    1C        C  667   2.679   4.025   2.054
    1C        C  668   2.680   4.107   2.168
    1C        C  669   2.584   3.914   2.290
    1C        C  670   2.638   4.046   2.288
    1C        C  671   2.557   3.850   2.412
    1C        C  672   2.581   3.921   2.532
    1C        C  673   2.522   3.718   2.660
    1C        C  674   2.562   3.854   2.654
    1C        C  675   2.513   3.651   2.784
    1C        C  676   2.528   3.722   2.905
    1C        C  677   2.515   3.514   3.031
    1C        C  678   2.516   3.655   3.029
    1C        C  679   2.513   3.445   3.154
    1C        C  680   2.506   3.517   3.276
    1C        C  681   2.533   3.308   3.401
    1C        C  682   2.512   3.447   3.399
    1C        C  683   2.555   3.241   3.524
    1C        C  684   2.541   3.313   3.644
    1C        C  685   2.608   3.114   3.768
    1C        C  686   2.557   3.246   3.768
    1C        C  687   2.640   3.052   3.891
    1C        C  688   2.611   3.118   4.012
    1C        C  689   2.716   2.935   4.135
    1C        C  690   2.642   3.056   4.135
    1C        C  691   2.754   2.877   4.258
    1C        C  692   2.718   2.937   4.380
    1C        C  693   2.759   2.881   4.503
    1C        C  694   2.634   3.893   2.055
    1C        C  695   2.532   3.705   2.176
    1C        C  696   2.580   3.837   2.172
    1C        C  697   2.506   3.639   2.298
    1C        C  698   2.521   3.713   2.418
    1C        C  699   2.493   3.505   2.542
    1C        C  700   2.502   3.646   2.540
    1C        C  701   2.507   3.437   2.665
    1C        C  702   2.509   3.509   2.786
    1C        C  703   2.532   3.301   2.911
    1C        C  704   2.511   3.441   2.910
    1C        C  705   2.556   3.237   3.035
    1C        C  706   2.538   3.307   3.157
    1C        C  707   2.605   3.107   3.277
    1C        C  708   2.553   3.238   3.279
    1C        C  709   2.639   3.046   3.400
    1C        C  710   2.608   3.110   3.523
    1C        C  711   2.713   2.929   3.647
    1C        C  712   2.638   3.049   3.647
    1C        C  713   2.761   2.876   3.769
    1C        C  714   2.718   2.934   3.891
    1C        C  715   2.759   2.876   4.013
    1C        C  716   2.446   3.500   2.066
    1C        C  717   2.486   3.634   2.064
    1C        C  718   2.461   3.422   2.185
    1C        C  719   2.477   3.500   2.302
    1C        C  720   2.513   3.289   2.425
    1C        C  721   2.487   3.428   2.424
    1C        C  722   2.533   3.222   2.548
    1C        C  723   2.527   3.297   2.667
    1C        C  724   2.599   3.099   2.791
    1C        C  725   2.546   3.230   2.790
    1C        C  726   2.636   3.038   2.914
    1C        C  727   2.608   3.106   3.034
    1C        C  728   2.710   2.920   3.158
    1C        C  729   2.637   3.041   3.157
    1C        C  730   2.755   2.868   3.281
    1C        C  731   2.715   2.927   3.403
    1C        C  732   2.758   2.872   3.526
    1C        C  733   2.494   3.200   2.071
    1C        C  734   2.488   3.281   2.185
    1C        C  735   2.589   3.088   2.307
    1C        C  736   2.527   3.216   2.305
    1C        C  737   2.614   3.020   2.428
    1C        C  738   2.587   3.091   2.547
    1C        C  739   2.696   2.910   2.667
    1C        C  740   2.622   3.031   2.670
    1C        C  741   2.740   2.855   2.789
    1C        C  742   2.702   2.913   2.912
    1C        C  743   2.748   2.863   3.035
    1C        C  744   2.544   3.070   2.074
    1C        C  745   2.682   2.896   2.185
    1C        C  746   2.611   3.019   2.186
    1C        C  747   2.729   2.841   2.305
    1C        C  748   2.688   2.900   2.427
    1C        C  749   2.739   2.847   2.548
    1C        C  750   2.729   2.838   2.067
    1C        C  751   3.667   2.340   1.960
    1C        O  752   3.713   2.225   1.985
    1C        O  753   3.662   2.379   1.826
    1C        C  754   4.627   3.051   1.979
    1C        O  755   4.577   2.974   1.893
    1C        O  756   4.744   2.993   2.031
    1C        C  757   4.429   4.212   1.938
    1C        O  758   4.517   4.297   1.969
    1C        O  759   4.391   4.221   1.804
    1C        C  760   3.611   4.672   1.954
    1C        O  761   3.694   4.767   1.967
    1C        O  762   3.572   4.650   1.822
    1C        C  763   2.859   4.507   1.961
    1C        O  764   2.871   4.505   1.836
    1C        O  765   2.787   4.614   2.016
    1C        C  766   2.346   3.480   1.958
    1C        O  767   2.376   3.472   1.836
    1C        O  768   2.209   3.496   1.979
    1C        C  769   4.707   3.596   5.043
    1C        O  770   4.703   3.538   5.155
    1C        O  771   4.829   3.665   5.035
    1C        C  772   4.273   4.434   5.048
    1C        O  773   4.242   4.456   5.168
    1C        O  774   4.385   4.512   5.015
    1C        C  775   4.150   2.540   5.076
    1C        O  776   4.200   2.427   5.052
    1C        O  777   4.113   2.545   5.211
    1C        C  778   2.905   4.541   5.065
    1C        O  779   2.808   4.620   5.077
    1C        O  780   2.954   4.525   5.195
    1C        C  781   2.458   3.041   5.055
    1C        O  782   2.370   2.979   4.989
    1C        O  783   2.425   3.057   5.189
    1C        C  784   2.446   3.976   5.085
    1C        O  785   2.320   3.981   5.081
    1C        O  786   2.499   3.985   5.214
    1C        C  787   2.955   2.416   2.000
    1C        O  788   2.916   2.454   1.886
    1C        O  789   2.904   2.297   2.052
    1C        C  790   3.186   2.383   5.080
    1C        O  791   3.214   2.267   5.042
    1C        O  792   3.216   2.393   5.216
    1C        H  793   4.272   3.027   5.057
    1C        H  794   4.226   2.788   5.067
    1C        H  795   4.470   3.143   5.068
    1C        H  796   4.504   3.372   5.067
    1C        H  797   4.557   3.814   5.049
    1C        H  798   4.391   3.952   5.051
    1C        H  799   4.347   4.191   5.039
    1C        H  800   4.053   4.563   5.004
    1C        H  801   3.817   4.597   5.037
    1C        H  802   3.576   4.610   5.042
    1C        H  803   3.392   4.515   5.044
    1C        H  804   3.158   4.491   5.056
    1C        H  805   3.875   2.517   5.071
    1C        H  806   3.661   2.406   5.056
    1C        H  807   3.000   2.557   5.063
    1C        H  808   3.442   2.469   5.079
    1C        H  809   2.836   2.700   5.074
    1C        H  810   2.714   2.904   5.076
    1C        H  811   2.498   3.293   5.066
    1C        H  812   2.484   3.505   5.064
    1C        H  813   2.582   3.738   5.057
    1C        H  814   2.552   4.194   5.023
    1C        H  815   2.738   4.337   5.045
    1C        H  816   2.718   2.889   1.973
    1C        H  817   2.861   2.695   1.974
    1C        H  818   3.197   2.384   2.013
    1C        H  819   3.422   2.461   1.981
    1C        H  820   3.838   2.563   1.978
    1C        H  821   4.087   2.549   1.994
    1C        H  822   4.249   2.722   1.975
    1C        H  823   4.364   2.929   1.968
    1C        H  824   4.605   3.303   1.976
    1C        H  825   4.431   3.522   1.988
    1C        H  826   4.563   3.753   1.975
    1C        H  827   3.799   4.504   1.945
    1C        H  828   3.954   4.359   1.945
    1C        H  829   4.140   4.225   1.957
    1C        H  830   4.465   3.948   1.959
    1C        H  831   2.620   3.845   1.961
    1C        H  832   2.726   4.063   1.965
    1C        H  833   2.703   4.315   1.984
    1C        H  834   3.382   4.426   1.960
    1C        H  835   3.138   4.466   1.951
    1C        H  836   2.473   3.005   2.029
    1C        H  837   2.436   3.221   1.983
    1C        H  838   2.469   3.689   1.974
    2V3OU   H29  839   2.802   3.553   5.164
    2V3OU   C27  840   2.782   3.501   5.261
    2V3OU   H27  841   2.727   3.565   5.336
    2V3OU   H28  842   2.725   3.409   5.233
    2V3OU   O11  843   2.906   3.476   5.327
    2V3OU   C15  844   2.920   3.394   5.438
    2V3OU   C13  845   3.052   3.378   5.485
    2V3OU   C14  846   3.075   3.272   5.573
    2V3OU   C16  847   2.971   3.193   5.619
    2V3OU    H6  848   2.990   3.109   5.688
    2V3OU   C12  849   3.214   3.228   5.602
    2V3OU    O2  850   3.235   3.124   5.668
    2V3OU   C10  851   3.326   3.312   5.557
    2V3OU    C8  852   3.456   3.269   5.577
    2V3OU   O10  853   3.487   3.167   5.662
    2V3OU   H26  854   3.407   3.113   5.659
    2V3OU    C6  855   3.564   3.347   5.524
    2V3OU    C5  856   3.535   3.465   5.457
    2V3OU    C4  857   3.704   3.296   5.527
    2V3OU    H4  858   3.719   3.227   5.615
    2V3OU    H5  859   3.708   3.226   5.438
    2V3OU    C2  860   3.817   3.399   5.519
    2V3OU    O6  861   3.809   3.472   5.642
    2V3OU   H21  862   3.762   3.555   5.627
    2V3OU    C3  863   3.780   3.496   5.407
    2V3OU    H2  864   3.859   3.575   5.401
    2V3OU    H3  865   3.781   3.438   5.311
    2V3OU   C25  866   3.953   3.330   5.507
    2V3OU    O7  867   3.994   3.296   5.396
    2V3OU   C26  868   4.024   3.293   5.636
    2V3OU   H22  869   4.065   3.387   5.683
    2V3OU   H23  870   4.108   3.221   5.616
    2V3OU    O8  871   3.956   3.210   5.727
    2V3OU   H24  872   3.926   3.263   5.802
    2V3OU    C1  873   3.643   3.562   5.419
    2V3OU    H1  874   3.624   3.617   5.322
    2V3OU    O3  875   3.658   3.651   5.530
    2V3OU   C19  876   3.620   3.789   5.526
    2V3OU    H9  877   3.524   3.808   5.470
    2V3OU    O4  878   3.714   3.845   5.436
    2V3OU   C20  879   3.841   3.880   5.490
    2V3OU   H10  880   3.893   3.783   5.517
    2V3OU   C24  881   3.611   3.859   5.662
    2V3OU   H16  882   3.542   3.799   5.727
    2V3OU   H17  883   3.567   3.958   5.634
    2V3OU   C23  884   3.750   3.876   5.724
    2V3OU   H15  885   3.793   3.772   5.741
    2V3OU    N1  886   3.735   3.953   5.846
    2V3OU   H19  887   3.810   3.929   5.907
    2V3OU   H20  888   3.642   3.942   5.883
    2V3OU   C21  889   3.843   3.953   5.625
    2V3OU   H11  890   3.949   3.933   5.658
    2V3OU    O5  891   3.822   4.093   5.621
    2V3OU   H18  892   3.786   4.101   5.711
    2V3OU   C22  893   3.912   3.950   5.375
    2V3OU   H12  894   3.859   4.044   5.347
    2V3OU   H13  895   3.908   3.885   5.284
    2V3OU   H14  896   4.020   3.964   5.400
    2V3OU   C11  897   3.162   3.470   5.450
    2V3OU    O1  898   3.139   3.586   5.411
    2V3OU    C9  899   3.300   3.426   5.477
    2V3OU    C7  900   3.402   3.507   5.426
    2V3OU    O9  901   3.382   3.621   5.351
    2V3OU   H25  902   3.287   3.627   5.333
    2V3OU   C17  903   2.817   3.314   5.490
    2V3OU    H7  904   2.716   3.343   5.459
    2V3OU   C18  905   2.839   3.210   5.579
    2V3OU    H8  906   2.760   3.144   5.618
    3SOL     OW  907   4.034   3.307   3.954
    3SOL    HW1  908   4.052   3.311   3.856
    3SOL    HW2  909   4.021   3.212   3.982
    4SOL     OW  910   6.827   6.928   0.530
    4SOL    HW1  911   6.899   6.915   0.598
    4SOL    HW2  912   6.760   6.854   0.537
    5SOL     OW  913   5.316   2.154   0.608
    5SOL    HW1  914   5.314   2.117   0.700
    5SOL    HW2  915   5.290   2.251   0.610
    6SOL     OW  916   5.489   0.902   2.558
    6SOL    HW1  917   5.512   0.923   2.653
    6SOL    HW2  918   5.445   0.981   2.515
    7SOL     OW  919   1.208   4.318   4.397
    7SOL    HW1  920   1.116   4.287   4.373
    7SOL    HW2  921   1.259   4.241   4.435
    8SOL     OW  922   1.575   3.537   5.045
    8SOL    HW1  923   1.670   3.515   5.021
    8SOL    HW2  924   1.567   3.635   5.061
    9SOL     OW  925   6.878   0.651   6.400
    9SOL    HW1  926   6.815   0.688   6.332
    9SOL    HW2  927   6.931   0.577   6.360
   10SOL     OW  928   5.080   4.887   2.364
   10SOL    HW1  929   5.120   4.801   2.332
   10SOL    HW2  930   4.984   4.872   2.390
   11SOL     OW  931   2.557   2.387   0.374
   11SOL    HW1  932   2.622   2.439   0.430
   11SOL    HW2  933   2.478   2.360   0.430
   12SOL     OW  934   3.412   4.972   2.917
   12SOL    HW1  935   3.372   4.932   3.000
   12SOL    HW2  936   3.351   4.955   2.840
   13SOL     OW  937   5.644   6.241   1.054
   13SOL    HW1  938   5.616   6.326   1.010
   13SOL    HW2  939   5.656   6.170   0.985
   14SOL     OW  940   4.449   5.618   5.293
   14SOL    HW1  941   4.505   5.599   5.374
   14SOL    HW2  942   4.451   5.539   5.232
   15SOL     OW  943   0.233   6.728   6.102
   15SOL    HW1  944   0.195   6.656   6.044
   15SOL    HW2  945   0.233   6.697   6.197
   16SOL     OW  946   1.417   4.395   4.946
   16SOL    HW1  947   1.357   4.376   4.868
   16SOL    HW2  948   1.499   4.444   4.913
   17SOL     OW  949   6.584   1.532   5.548
   17SOL    HW1  950   6.609   1.532   5.451
   17SOL    HW2  951   6.572   1.626   5.579
   18SOL     OW  952   2.164   1.188   6.099
   18SOL    HW1  953   2.094   1.249   6.061
   18SOL    HW2  954   2.252   1.208   6.058
   19SOL     OW  955   2.663   0.048   3.449
   19SOL    HW1  956   2.693   7.002   3.516
   19SOL    HW2  957   2.743   0.082   3.399
   20SOL     OW  958   6.730   1.831   5.809
   20SOL    HW1  959   6.668   1.879   5.746
   20SOL    HW2  960   6.752   1.741   5.771
   21SOL     OW  961   2.771   4.780   3.248
   21SOL    HW1  962   2.734   4.863   3.289
   21SOL    HW2  963   2.865   4.767   3.280
   22SOL     OW  964   1.685   0.828   6.506
   22SOL    HW1  965   1.625   0.776   6.446
   22SOL    HW2  966   1.655   0.923   6.510
   23SOL     OW  967   6.031   4.896   1.200
   23SOL    HW1  968   5.965   4.883   1.126
   23SOL    HW2  969   5.983   4.891   1.288
   24SOL     OW  970   4.503   0.669   0.614
   24SOL    HW1  971   4.566   0.739   0.646
   24SOL    HW2  972   4.468   0.694   0.523
   25SOL     OW  973   1.706   1.142   4.481
   25SOL    HW1  974   1.613   1.176   4.472
   25SOL    HW2  975   1.735   1.101   4.395
   26SOL     OW  976   0.883   3.025   7.005
   26SOL    HW1  977   0.941   2.958   6.960
   26SOL    HW2  978   0.894   3.018   0.081
   27SOL     OW  979   6.058   1.047   1.425
   27SOL    HW1  980   6.086   0.954   1.452
   27SOL    HW2  981   5.959   1.055   1.432
   28SOL     OW  982   2.357   1.056   5.508
   28SOL    HW1  983   2.272   1.007   5.530
   28SOL    HW2  984   2.370   1.130   5.574
   29SOL     OW  985   0.625   0.411   1.334
   29SOL    HW1  986   0.578   0.375   1.415
   29SOL    HW2  987   0.560   0.461   1.277
   30SOL     OW  988   4.763   0.364   4.760
   30SOL    HW1  989   4.783   0.403   4.670
   30SOL    HW2  990   4.752   0.265   4.752
   31SOL     OW  991   1.181   3.039   5.369
   31SOL    HW1  992   1.231   2.975   5.311
   31SOL    HW2  993   1.209   3.026   5.464
   32SOL     OW  994   3.219   0.383   1.429
   32SOL    HW1  995   3.125   0.384   1.465
   32SOL    HW2  996   3.219   0.342   1.337
   33SOL     OW  997   1.424   5.585   6.053
   33SOL    HW1  998   1.411   5.671   6.004
   33SOL    HW2  999   1.391   5.594   6.147
   34SOL     OW 1000   2.103   5.054   5.367
   34SOL    HW1 1001   2.072   5.142   5.331
   34SOL    HW2 1002   2.173   5.070   5.437
   35SOL     OW 1003   2.631   3.340   6.964
   35SOL    HW1 1004   2.730   3.327   6.959
   35SOL    HW2 1005   2.595   3.292   0.021
   36SOL     OW 1006   4.110   0.949   4.450
   36SOL    HW1 1007   4.097   0.956   4.351
   36SOL    HW2 1008   4.050   1.014   4.496
   37SOL     OW 1009   3.091   0.865   4.137
   37SOL    HW1 1010   3.152   0.900   4.208
   37SOL    HW2 1011   3.094   0.765   4.136
   38SOL     OW 1012   0.386   4.066   2.801
   38SOL    HW1 1013   0.399   4.051   2.703
   38SOL    HW2 1014   0.463   4.027   2.852
   39SOL     OW 1015   6.779   5.234   6.763
   39SOL    HW1 1016   6.833   5.220   6.681
   39SOL    HW2 1017   6.829   5.200   6.843
   40SOL     OW 1018   4.164   1.467   0.255
   40SOL    HW1 1019   4.121   1.486   0.343
   40SOL    HW2 1020   4.125   1.527   0.185
   41SOL     OW 1021   5.330   3.942   1.528
   41SOL    HW1 1022   5.361   3.851   1.557
   41SOL    HW2 1023   5.280   3.935   1.442
   42SOL     OW 1024   2.557   4.876   6.307
   42SOL    HW1 1025   2.480   4.812   6.306
   42SOL    HW2 1026   2.603   4.872   6.395
   43SOL     OW 1027   3.759   6.683   5.044
   43SOL    HW1 1028   3.683   6.623   5.022
   43SOL    HW2 1029   3.727   6.778   5.046
   44SOL     OW 1030   6.883   0.969   5.684
   44SOL    HW1 1031   6.919   1.054   5.721
   44SOL    HW2 1032   6.924   0.892   5.732
   45SOL     OW 1033   2.418   5.039   6.706
   45SOL    HW1 1034   2.360   5.100   6.652
   45SOL    HW2 1035   2.439   5.082   6.794
   46SOL     OW 1036   0.433   3.349   4.481
   46SOL    HW1 1037   0.384   3.262   4.479
   46SOL    HW2 1038   0.490   3.357   4.399
   47SOL     OW 1039   5.905   2.880   0.912
   47SOL    HW1 1040   5.918   2.840   0.821
   47SOL    HW2 1041   5.994   2.897   0.954
   48SOL     OW 1042   5.964   3.332   1.141
   48SOL    HW1 1043   5.920   3.390   1.073
   48SOL    HW2 1044   6.053   3.370   1.166
   49SOL     OW 1045   3.508   3.931   0.107
   49SOL    HW1 1046   3.442   3.945   0.182
   49SOL    HW2 1047   3.485   3.847   0.058
   50SOL     OW 1048   6.167   3.000   0.070
   50SOL    HW1 1049   6.266   2.987   0.070
   50SOL    HW2 1050   6.132   2.994   0.163
   51SOL     OW 1051   2.219   5.531   3.013
   51SOL    HW1 1052   2.198   5.629   3.024
   51SOL    HW2 1053   2.318   5.518   3.017
   52SOL     OW 1054   6.537   2.802   1.690
   52SOL    HW1 1055   6.539   2.895   1.727
   52SOL    HW2 1056   6.443   2.777   1.668
   53SOL     OW 1057   3.960   0.344   1.894
   53SOL    HW1 1058   3.918   0.371   1.981
   53SOL    HW2 1059   4.031   0.409   1.869
   54SOL     OW 1060   5.430   0.015   6.406
   54SOL    HW1 1061   5.530   0.013   6.405
   54SOL    HW2 1062   5.398   0.096   6.355
   55SOL     OW 1063   0.804   3.155   6.460
   55SOL    HW1 1064   0.859   3.103   6.525
   55SOL    HW2 1065   0.768   3.094   6.389
   56SOL     OW 1066   0.566   2.670   6.660
   56SOL    HW1 1067   0.606   2.677   6.752
   56SOL    HW2 1068   0.488   2.732   6.653
   57SOL     OW 1069   4.250   6.252   0.174
   57SOL    HW1 1070   4.275   6.324   0.238
   57SOL    HW2 1071   4.251   6.288   0.081
   58SOL     OW 1072   0.652   0.444   0.000
   58SOL    HW1 1073   0.743   0.434   6.982
   58SOL    HW2 1074   0.642   0.537   0.035
   59SOL     OW 1075   5.086   3.127   5.483
   59SOL    HW1 1076   5.046   3.053   5.429
   59SOL    HW2 1077   5.170   3.096   5.525
   60SOL     OW 1078   5.305   1.282   2.681
   60SOL    HW1 1079   5.206   1.291   2.675
   60SOL    HW2 1080   5.346   1.369   2.707
   61SOL     OW 1081   0.073   5.748   4.504
   61SOL    HW1 1082   0.171   5.764   4.494
   61SOL    HW2 1083   0.027   5.761   4.415
   62SOL     OW 1084   6.119   2.781   2.319
   62SOL    HW1 1085   6.209   2.824   2.328
   62SOL    HW2 1086   6.064   2.802   2.400
   63SOL     OW 1087   4.087   6.800   5.522
   63SOL    HW1 1088   4.048   6.868   5.584
   63SOL    HW2 1089   4.168   6.759   5.565
   64SOL     OW 1090   1.067   4.045   5.559
   64SOL    HW1 1091   1.082   4.011   5.652
   64SOL    HW2 1092   1.142   4.106   5.534
   65SOL     OW 1093   0.414   6.413   4.732
   65SOL    HW1 1094   0.334   6.359   4.757
   65SOL    HW2 1095   0.472   6.361   4.670
   66SOL     OW 1096   3.780   0.937   2.032
   66SOL    HW1 1097   3.695   0.987   2.019
   66SOL    HW2 1098   3.855   0.988   1.991
   67SOL     OW 1099   0.139   3.130   1.925
   67SOL    HW1 1100   0.136   3.230   1.922
   67SOL    HW2 1101   0.112   3.099   2.016
   68SOL     OW 1102   6.938   2.165   5.893
   68SOL    HW1 1103   6.906   2.203   5.806
   68SOL    HW2 1104   6.965   2.070   5.880
   69SOL     OW 1105   0.964   5.978   6.622
   69SOL    HW1 1106   0.985   6.026   6.708
   69SOL    HW2 1107   0.986   5.881   6.632
   70SOL     OW 1108   5.141   3.661   4.220
   70SOL    HW1 1109   5.237   3.657   4.246
   70SOL    HW2 1110   5.113   3.573   4.182
   71SOL     OW 1111   5.163   2.043   4.759
   71SOL    HW1 1112   5.221   2.092   4.824
   71SOL    HW2 1113   5.091   2.103   4.726
   72SOL     OW 1114   0.344   0.498   3.369
   72SOL    HW1 1115   0.327   0.400   3.359
   72SOL    HW2 1116   0.394   0.531   3.289
   73SOL     OW 1117   3.139   1.067   0.719
   73SOL    HW1 1118   3.103   1.081   0.627
   73SOL    HW2 1119   3.125   1.150   0.773
   74SOL     OW 1120   2.819   2.179   0.793
   74SOL    HW1 1121   2.744   2.242   0.812
   74SOL    HW2 1122   2.877   2.217   0.721
   75SOL     OW 1123   3.206   3.525   0.810
   75SOL    HW1 1124   3.124   3.571   0.842
   75SOL    HW2 1125   3.280   3.591   0.800
   76SOL     OW 1126   3.705   4.862   5.334
   76SOL    HW1 1127   3.754   4.803   5.398
   76SOL    HW2 1128   3.625   4.901   5.379
   77SOL     OW 1129   0.070   5.364   4.518
   77SOL    HW1 1130   0.084   5.269   4.545
   77SOL    HW2 1131   0.055   5.368   4.419
   78SOL     OW 1132   4.744   1.553   1.044
   78SOL    HW1 1133   4.842   1.572   1.052
   78SOL    HW2 1134   4.705   1.608   0.970
   79SOL     OW 1135   0.838   4.545   3.202
   79SOL    HW1 1136   0.848   4.639   3.170
   79SOL    HW2 1137   0.928   4.503   3.211
   80SOL     OW 1138   3.695   0.953   5.174
   80SOL    HW1 1139   3.751   0.992   5.248
   80SOL    HW2 1140   3.708   1.006   5.090
   81SOL     OW 1141   4.742   5.734   1.592
   81SOL    HW1 1142   4.666   5.728   1.658
   81SOL    HW2 1143   4.811   5.797   1.627
   82SOL     OW 1144   3.147   6.282   1.952
   82SOL    HW1 1145   3.177   6.362   1.901
   82SOL    HW2 1146   3.047   6.285   1.964
   83SOL     OW 1147   5.302   1.132   4.559
   83SOL    HW1 1148   5.373   1.135   4.489
   83SOL    HW2 1149   5.226   1.192   4.532
   84SOL     OW 1150   5.153   2.670   2.279
   84SOL    HW1 1151   5.160   2.574   2.252
   84SOL    HW2 1152   5.156   2.728   2.198
   85SOL     OW 1153   2.376   6.795   4.410
   85SOL    HW1 1154   2.325   6.873   4.446
   85SOL    HW2 1155   2.473   6.806   4.432
   86SOL     OW 1156   6.004   0.266   0.360
   86SOL    HW1 1157   5.943   0.230   0.290
   86SOL    HW2 1158   5.954   0.273   0.447
   87SOL     OW 1159   2.370   4.054   6.240
   87SOL    HW1 1160   2.442   4.059   6.171
   87SOL    HW2 1161   2.371   4.137   6.295
   88SOL     OW 1162   3.153   3.702   1.099
   88SOL    HW1 1163   3.142   3.612   1.142
   88SOL    HW2 1164   3.250   3.725   1.095
   89SOL     OW 1165   3.279   3.838   4.136
   89SOL    HW1 1166   3.310   3.928   4.104
   89SOL    HW2 1167   3.326   3.815   4.221
   90SOL     OW 1168   4.955   3.743   1.998
   90SOL    HW1 1169   5.044   3.779   1.968
   90SOL    HW2 1170   4.885   3.768   1.932
   91SOL     OW 1171   4.294   5.480   5.599
   91SOL    HW1 1172   4.206   5.513   5.564
   91SOL    HW2 1173   4.283   5.386   5.632
   92SOL     OW 1174   5.299   3.266   6.318
   92SOL    HW1 1175   5.309   3.346   6.377
   92SOL    HW2 1176   5.388   3.243   6.279
   93SOL     OW 1177   3.272   3.304   2.212
   93SOL    HW1 1178   3.325   3.389   2.210
   93SOL    HW2 1179   3.334   3.226   2.212
   94SOL     OW 1180   3.191   1.704   4.702
   94SOL    HW1 1181   3.210   1.685   4.798
   94SOL    HW2 1182   3.177   1.802   4.690
   95SOL     OW 1183   0.527   0.349   4.047
   95SOL    HW1 1184   0.593   0.312   4.112
   95SOL    HW2 1185   0.440   0.300   4.056
   96SOL     OW 1186   6.313   4.707   0.056
   96SOL    HW1 1187   6.281   4.791   0.013
   96SOL    HW2 1188   6.306   4.631   7.013
   97SOL     OW 1189   2.157   4.794   5.534
   97SOL    HW1 1190   2.150   4.721   5.466
   97SOL    HW2 1191   2.070   4.804   5.582
   98SOL     OW 1192   2.085   1.976   3.262
   98SOL    HW1 1193   2.122   2.032   3.187
   98SOL    HW2 1194   2.085   2.030   3.346
   99SOL     OW 1195   3.547   3.863   5.145
   99SOL    HW1 1196   3.643   3.889   5.151
   99SOL    HW2 1197   3.490   3.944   5.156
  100SOL     OW 1198   6.759   1.100   5.006
  100SOL    HW1 1199   6.816   1.179   4.982
  100SOL    HW2 1200   6.797   1.019   4.963
  101SOL     OW 1201   6.258   3.854   2.270
  101SOL    HW1 1202   6.357   3.844   2.280
  101SOL    HW2 1203   6.214   3.839   2.359
  102SOL     OW 1204   4.672   6.868   0.458
  102SOL    HW1 1205   4.739   6.881   0.532
  102SOL    HW2 1206   4.678   6.944   0.394
  103SOL     OW 1207   3.217   0.956   2.159
  103SOL    HW1 1208   3.216   0.936   2.062
  103SOL    HW2 1209   3.309   0.946   2.196
  104SOL     OW 1210   6.682   4.832   2.149
  104SOL    HW1 1211   6.601   4.840   2.207
  104SOL    HW2 1212   6.667   4.760   2.081
  105SOL     OW 1213   6.303   1.029   5.564
  105SOL    HW1 1214   6.329   0.954   5.503
  105SOL    HW2 1215   6.285   1.111   5.510
  106SOL     OW 1216   5.242   4.558   1.458
  106SOL    HW1 1217   5.314   4.525   1.520
  106SOL    HW2 1218   5.212   4.483   1.400
  107SOL     OW 1219   5.801   0.233   1.322
  107SOL    HW1 1220   5.808   0.319   1.272
  107SOL    HW2 1221   5.707   0.218   1.352
  108SOL     OW 1222   2.771   1.264   4.361
  108SOL    HW1 1223   2.680   1.228   4.380
  108SOL    HW2 1224   2.839   1.192   4.373
  109SOL     OW 1225   1.603   1.080   4.235
  109SOL    HW1 1226   1.541   1.002   4.232
  109SOL    HW2 1227   1.592   1.134   4.151
  110SOL     OW 1228   3.492   4.408   5.823
  110SOL    HW1 1229   3.412   4.363   5.862
  110SOL    HW2 1230   3.572   4.348   5.832
  111SOL     OW 1231   6.309   2.745   1.567
  111SOL    HW1 1232   6.250   2.674   1.607
  111SOL    HW2 1233   6.303   2.741   1.467
  112SOL     OW 1234   5.027   6.360   6.675
  112SOL    HW1 1235   5.090   6.294   6.716
  112SOL    HW2 1236   5.017   6.340   6.577
  113SOL     OW 1237   0.653   6.042   2.142
  113SOL    HW1 1238   0.571   6.080   2.186
  113SOL    HW2 1239   0.720   6.115   2.129
  114SOL     OW 1240   6.868   2.847   2.474
  114SOL    HW1 1241   6.887   2.753   2.501
  114SOL    HW2 1242   6.873   2.854   2.374
  115SOL     OW 1243   5.339   0.543   3.227
  115SOL    HW1 1244   5.261   0.539   3.290
  115SOL    HW2 1245   5.363   0.638   3.211
  116SOL     OW 1246   0.463   5.211   0.217
  116SOL    HW1 1247   0.380   5.251   0.179
  116SOL    HW2 1248   0.439   5.141   0.284
  117SOL     OW 1249   2.282   2.036   0.278
  117SOL    HW1 1250   2.234   1.969   0.222
  117SOL    HW2 1251   2.219   2.075   0.345
  118SOL     OW 1252   0.289   1.917   3.000
  118SOL    HW1 1253   0.274   1.858   3.079
  118SOL    HW2 1254   0.387   1.936   2.991
  119SOL     OW 1255   6.041   6.704   6.024
  119SOL    HW1 1256   6.092   6.618   6.014
  119SOL    HW2 1257   6.042   6.732   6.120
  120SOL     OW 1258   5.561   2.622   4.962
  120SOL    HW1 1259   5.468   2.654   4.942
  120SOL    HW2 1260   5.596   2.572   4.882
  121SOL     OW 1261   1.062   4.924   7.015
  121SOL    HW1 1262   0.990   4.987   6.986
  121SOL    HW2 1263   1.021   4.846   0.040
  122SOL     OW 1264   0.027   4.517   6.287
  122SOL    HW1 1265   7.020   4.431   6.328
  122SOL    HW2 1266   6.998   4.534   6.203
  123SOL     OW 1267   1.109   2.160   1.922
  123SOL    HW1 1268   1.174   2.142   1.995
  123SOL    HW2 1269   1.038   2.223   1.955
  124SOL     OW 1270   1.685   3.001   6.959
  124SOL    HW1 1271   1.695   3.098   6.935
  124SOL    HW2 1272   1.775   2.958   6.964
  125SOL     OW 1273   4.490   3.066   0.508
  125SOL    HW1 1274   4.454   3.003   0.440
  125SOL    HW2 1275   4.489   3.159   0.471
  126SOL     OW 1276   4.114   3.458   4.581
  126SOL    HW1 1277   4.100   3.528   4.511
  126SOL    HW2 1278   4.080   3.370   4.547
  127SOL     OW 1279   0.331   5.475   5.798
  127SOL    HW1 1280   0.358   5.435   5.886
  127SOL    HW2 1281   0.362   5.570   5.794
  128SOL     OW 1282   4.737   2.779   6.947
  128SOL    HW1 1283   4.641   2.752   6.955
  128SOL    HW2 1284   4.778   2.783   0.016
  129SOL     OW 1285   1.406   5.589   1.670
  129SOL    HW1 1286   1.343   5.657   1.706
  129SOL    HW2 1287   1.460   5.550   1.745
  130SOL     OW 1288   6.739   3.169   4.121
  130SOL    HW1 1289   6.766   3.099   4.187
  130SOL    HW2 1290   6.722   3.255   4.168
  131SOL     OW 1291   0.308   2.333   3.440
  131SOL    HW1 1292   0.318   2.295   3.348
  131SOL    HW2 1293   0.374   2.290   3.501
  132SOL     OW 1294   3.806   3.010   2.279
  132SOL    HW1 1295   3.881   3.055   2.230
  132SOL    HW2 1296   3.751   2.957   2.215
  133SOL     OW 1297   5.477   6.363   6.168
  133SOL    HW1 1298   5.447   6.276   6.128
  133SOL    HW2 1299   5.555   6.398   6.116
  134SOL     OW 1300   5.759   1.740   1.518
  134SOL    HW1 1301   5.851   1.743   1.478
  134SOL    HW2 1302   5.755   1.669   1.588
  135SOL     OW 1303   4.819   2.909   3.742
  135SOL    HW1 1304   4.835   3.007   3.755
  135SOL    HW2 1305   4.851   2.882   3.652
  136SOL     OW 1306   3.109   0.375   6.277
  136SOL    HW1 1307   3.052   0.294   6.287
  136SOL    HW2 1308   3.170   0.384   6.356
  137SOL     OW 1309   3.272   3.541   6.045
  137SOL    HW1 1310   3.216   3.582   6.117
  137SOL    HW2 1311   3.368   3.562   6.061
  138SOL     OW 1312   1.134   5.051   6.321
  138SOL    HW1 1313   1.056   5.086   6.269
  138SOL    HW2 1314   1.216   5.104   6.299
  139SOL     OW 1315   2.046   6.474   1.319
  139SOL    HW1 1316   2.104   6.393   1.319
  139SOL    HW2 1317   1.957   6.452   1.279
  140SOL     OW 1318   3.433   0.519   1.045
  140SOL    HW1 1319   3.415   0.617   1.039
  140SOL    HW2 1320   3.476   0.498   1.133
  141SOL     OW 1321   6.724   2.945   0.525
  141SOL    HW1 1322   6.721   3.023   0.463
  141SOL    HW2 1323   6.804   2.953   0.585
  142SOL     OW 1324   1.490   4.430   1.715
  142SOL    HW1 1325   1.568   4.448   1.656
  142SOL    HW2 1326   1.448   4.517   1.743
  143SOL     OW 1327   4.568   6.088   2.304
  143SOL    HW1 1328   4.479   6.050   2.277
  143SOL    HW2 1329   4.604   6.036   2.381
  144SOL     OW 1330   3.135   4.862   3.933
  144SOL    HW1 1331   3.176   4.917   4.006
  144SOL    HW2 1332   3.082   4.787   3.973
  145SOL     OW 1333   6.712   4.419   3.166
  145SOL    HW1 1334   6.710   4.516   3.192
  145SOL    HW2 1335   6.619   4.387   3.152
  146SOL     OW 1336   5.376   0.835   6.312
  146SOL    HW1 1337   5.385   0.925   6.355
  146SOL    HW2 1338   5.434   0.830   6.232
  147SOL     OW 1339   4.900   1.034   5.034
  147SOL    HW1 1340   4.913   0.946   4.989
  147SOL    HW2 1341   4.933   1.028   5.128
  148SOL     OW 1342   1.228   5.745   1.013
  148SOL    HW1 1343   1.277   5.818   1.061
  148SOL    HW2 1344   1.271   5.657   1.033
  149SOL     OW 1345   1.922   2.252   5.076
  149SOL    HW1 1346   1.956   2.306   4.999
  149SOL    HW2 1347   2.000   2.221   5.130
  150SOL     OW 1348   4.219   1.457   4.770
  150SOL    HW1 1349   4.134   1.405   4.779
  150SOL    HW2 1350   4.276   1.442   4.851
  151SOL     OW 1351   3.843   2.857   1.409
  151SOL    HW1 1352   3.784   2.938   1.408
  151SOL    HW2 1353   3.788   2.776   1.428
  152SOL     OW 1354   0.222   2.541   0.681
  152SOL    HW1 1355   0.218   2.500   0.772
  152SOL    HW2 1356   0.317   2.546   0.651
  153SOL     OW 1357   2.673   1.344   3.250
  153SOL    HW1 1358   2.745   1.402   3.210
  153SOL    HW2 1359   2.682   1.343   3.349
  154SOL     OW 1360   6.466   1.447   2.685
  154SOL    HW1 1361   6.400   1.378   2.715
  154SOL    HW2 1362   6.417   1.529   2.655
  155SOL     OW 1363   0.897   6.929   2.148
  155SOL    HW1 1364   0.799   6.945   2.143
  155SOL    HW2 1365   0.938   6.995   2.211
  156SOL     OW 1366   5.485   2.587   0.475
  156SOL    HW1 1367   5.519   2.497   0.500
  156SOL    HW2 1368   5.557   2.655   0.487
  157SOL     OW 1369   4.068   5.590   0.567
  157SOL    HW1 1370   4.077   5.591   0.467
  157SOL    HW2 1371   4.136   5.528   0.606
  158SOL     OW 1372   0.204   2.764   3.663
  158SOL    HW1 1373   0.232   2.854   3.631
  158SOL    HW2 1374   0.181   2.706   3.585
  159SOL     OW 1375   6.265   5.181   0.573
  159SOL    HW1 1376   6.165   5.171   0.569
  159SOL    HW2 1377   6.289   5.276   0.552
  160SOL     OW 1378   6.636   0.097   2.280
  160SOL    HW1 1379   6.574   0.117   2.356
  160SOL    HW2 1380   6.624   0.001   2.252
  161SOL     OW 1381   0.816   6.185   0.869
  161SOL    HW1 1382   0.760   6.144   0.942
  161SOL    HW2 1383   0.872   6.114   0.827
  162SOL     OW 1384   4.670   6.795   0.033
  162SOL    HW1 1385   4.716   6.707   0.043
  162SOL    HW2 1386   4.735   6.865   0.005
  163SOL     OW 1387   0.169   4.198   2.894
  163SOL    HW1 1388   0.260   4.157   2.895
  163SOL    HW2 1389   0.176   4.295   2.916
  164SOL     OW 1390   2.739   2.032   3.983
  164SOL    HW1 1391   2.783   1.982   4.058
  164SOL    HW2 1392   2.798   2.108   3.954
  165SOL     OW 1393   0.395   5.818   3.424
  165SOL    HW1 1394   0.419   5.729   3.463
  165SOL    HW2 1395   0.387   5.886   3.498
  166SOL     OW 1396   6.318   3.920   3.263
  166SOL    HW1 1397   6.317   3.821   3.257
  166SOL    HW2 1398   6.247   3.958   3.204
  167SOL     OW 1399   2.403   2.010   6.820
  167SOL    HW1 1400   2.384   1.918   6.856
  167SOL    HW2 1401   2.489   2.007   6.767
  168SOL     OW 1402   4.661   3.936   1.327
  168SOL    HW1 1403   4.634   4.032   1.339
  168SOL    HW2 1404   4.586   3.885   1.284
  169SOL     OW 1405   4.540   2.133   1.127
  169SOL    HW1 1406   4.616   2.170   1.181
  169SOL    HW2 1407   4.465   2.109   1.189
  170SOL     OW 1408   0.065   6.124   2.116
  170SOL    HW1 1409   0.046   6.170   2.030
  170SOL    HW2 1410   0.144   6.063   2.105
  171SOL     OW 1411   3.701   3.581   0.762
  171SOL    HW1 1412   3.614   3.613   0.725
  171SOL    HW2 1413   3.753   3.534   0.690
  172SOL     OW 1414   0.420   2.450   6.567
  172SOL    HW1 1415   0.468   2.528   6.605
  172SOL    HW2 1416   0.472   2.366   6.583
  173SOL     OW 1417   6.825   1.580   4.213
  173SOL    HW1 1418   6.836   1.547   4.119
  173SOL    HW2 1419   6.746   1.641   4.218
  174SOL     OW 1420   5.666   5.500   5.130
  174SOL    HW1 1421   5.672   5.586   5.181
  174SOL    HW2 1422   5.588   5.447   5.163
  175SOL     OW 1423   0.428   6.963   1.412
  175SOL    HW1 1424   0.444   6.864   1.416
  175SOL    HW2 1425   0.352   6.987   1.472
  176SOL     OW 1426   6.243   4.170   1.178
  176SOL    HW1 1427   6.191   4.128   1.252
  176SOL    HW2 1428   6.184   4.233   1.127
  177SOL     OW 1429   5.762   2.978   4.161
  177SOL    HW1 1430   5.665   2.958   4.179
  177SOL    HW2 1431   5.778   2.977   4.063
  178SOL     OW 1432   1.991   5.978   5.787
  178SOL    HW1 1433   2.080   6.021   5.771
  178SOL    HW2 1434   1.935   5.986   5.704
  179SOL     OW 1435   3.453   4.786   0.936
  179SOL    HW1 1436   3.509   4.747   0.863
  179SOL    HW2 1437   3.470   4.885   0.942
  180SOL     OW 1438   4.043   1.330   0.695
  180SOL    HW1 1439   4.021   1.330   0.793
  180SOL    HW2 1440   4.081   1.241   0.670
  181SOL     OW 1441   3.439   2.204   5.591
  181SOL    HW1 1442   3.475   2.124   5.640
  181SOL    HW2 1443   3.455   2.193   5.493
  182SOL     OW 1444   4.354   2.800   6.614
  182SOL    HW1 1445   4.342   2.766   6.707
  182SOL    HW2 1446   4.450   2.796   6.588
  183SOL     OW 1447   3.682   1.580   3.312
  183SOL    HW1 1448   3.591   1.552   3.284
  183SOL    HW2 1449   3.687   1.586   3.411
  184SOL     OW 1450   5.105   5.930   3.311
  184SOL    HW1 1451   5.006   5.944   3.322
  184SOL    HW2 1452   5.131   5.949   3.216
  185SOL     OW 1453   0.061   0.374   4.151
  185SOL    HW1 1454   0.004   0.441   4.198
  185SOL    HW2 1455   0.138   0.349   4.209
  186SOL     OW 1456   4.480   6.486   4.172
  186SOL    HW1 1457   4.433   6.469   4.258
  186SOL    HW2 1458   4.415   6.516   4.103
  187SOL     OW 1459   4.157   6.292   1.725
  187SOL    HW1 1460   4.196   6.242   1.648
  187SOL    HW2 1461   4.076   6.343   1.695
  188SOL     OW 1462   1.472   3.250   3.248
  188SOL    HW1 1463   1.455   3.348   3.235
  188SOL    HW2 1464   1.555   3.239   3.303
  189SOL     OW 1465   5.946   4.886   5.955
  189SOL    HW1 1466   5.905   4.829   5.884
  189SOL    HW2 1467   5.986   4.828   6.026
  190SOL     OW 1468   6.166   0.707   6.944
  190SOL    HW1 1469   6.197   0.793   6.904
  190SOL    HW2 1470   6.208   0.693   0.011
  191SOL     OW 1471   6.978   0.906   5.239
  191SOL    HW1 1472   6.997   0.976   5.307
  191SOL    HW2 1473   6.917   0.837   5.278
  192SOL     OW 1474   0.374   5.433   0.597
  192SOL    HW1 1475   0.445   5.383   0.546
  192SOL    HW2 1476   0.294   5.375   0.608
  193SOL     OW 1477   2.863   6.609   0.197
  193SOL    HW1 1478   2.823   6.525   0.160
  193SOL    HW2 1479   2.796   6.683   0.192
  194SOL     OW 1480   3.971   6.534   2.600
  194SOL    HW1 1481   3.882   6.542   2.643
  194SOL    HW2 1482   3.973   6.590   2.517
  195SOL     OW 1483   3.818   1.035   0.748
  195SOL    HW1 1484   3.777   1.127   0.747
  195SOL    HW2 1485   3.769   0.979   0.815
  196SOL     OW 1486   2.952   2.281   0.565
  196SOL    HW1 1487   2.971   2.362   0.510
  196SOL    HW2 1488   2.876   2.230   0.525
  197SOL     OW 1489   2.485   6.093   0.428
  197SOL    HW1 1490   2.424   6.172   0.428
  197SOL    HW2 1491   2.578   6.124   0.451
  198SOL     OW 1492   4.047   0.757   6.758
  198SOL    HW1 1493   4.028   0.678   6.816
  198SOL    HW2 1494   4.073   0.726   6.667
  199SOL     OW 1495   0.569   0.487   2.896
  199SOL    HW1 1496   0.495   0.420   2.893
  199SOL    HW2 1497   0.548   0.563   2.835
  200SOL     OW 1498   0.223   4.017   3.512
  200SOL    HW1 1499   0.283   3.938   3.495
  200SOL    HW2 1500   0.186   4.050   3.425
  201SOL     OW 1501   4.376   1.711   6.311
  201SOL    HW1 1502   4.445   1.778   6.283
  201SOL    HW2 1503   4.340   1.736   6.401
  202SOL     OW 1504   3.374   0.386   2.835
  202SOL    HW1 1505   3.391   0.288   2.850
  202SOL    HW2 1506   3.321   0.398   2.751
  203SOL     OW 1507   5.620   2.762   6.809
  203SOL    HW1 1508   5.677   2.822   6.866
  203SOL    HW2 1509   5.612   2.673   6.853
  204SOL     OW 1510   2.555   6.135   1.133
  204SOL    HW1 1511   2.608   6.168   1.211
  204SOL    HW2 1512   2.579   6.039   1.116
  205SOL     OW 1513   6.337   0.718   0.179
  205SOL    HW1 1514   6.360   0.621   0.185
  205SOL    HW2 1515   6.274   0.742   0.254
  206SOL     OW 1516   0.883   4.251   1.030
  206SOL    HW1 1517   0.896   4.199   1.115
  206SOL    HW2 1518   0.926   4.202   0.955
  207SOL     OW 1519   4.946   0.573   5.320
  207SOL    HW1 1520   4.878   0.504   5.297
  207SOL    HW2 1521   5.034   0.529   5.337
  208SOL     OW 1522   3.612   4.735   6.179
  208SOL    HW1 1523   3.557   4.712   6.098
  208SOL    HW2 1524   3.572   4.692   6.260
  209SOL     OW 1525   6.474   5.722   5.776
  209SOL    HW1 1526   6.493   5.819   5.770
  209SOL    HW2 1527   6.431   5.702   5.865
  210SOL     OW 1528   4.088   2.260   1.854
  210SOL    HW1 1529   4.048   2.307   1.775
  210SOL    HW2 1530   4.021   2.198   1.894
  211SOL     OW 1531   1.378   2.059   1.683
  211SOL    HW1 1532   1.472   2.029   1.696
  211SOL    HW2 1533   1.355   2.057   1.586
  212SOL     OW 1534   0.737   5.131   3.729
  212SOL    HW1 1535   0.769   5.128   3.634
  212SOL    HW2 1536   0.784   5.062   3.783
  213SOL     OW 1537   4.922   2.662   0.139
  213SOL    HW1 1538   4.895   2.569   0.112
  213SOL    HW2 1539   4.977   2.658   0.222
  214SOL     OW 1540   1.444   0.373   2.394
  214SOL    HW1 1541   1.523   0.399   2.449
  214SOL    HW2 1542   1.473   0.356   2.300
  215SOL     OW 1543   3.100   3.147   2.800
  215SOL    HW1 1544   3.082   3.109   2.709
  215SOL    HW2 1545   3.075   3.079   2.870
  216SOL     OW 1546   0.423   6.360   5.983
  216SOL    HW1 1547   0.340   6.367   5.928
  216SOL    HW2 1548   0.462   6.452   5.996
  217SOL     OW 1549   0.555   2.693   3.458
  217SOL    HW1 1550   0.633   2.646   3.499
  217SOL    HW2 1551   0.589   2.765   3.397
  218SOL     OW 1552   1.154   3.809   5.714
  218SOL    HW1 1553   1.144   3.804   5.615
  218SOL    HW2 1554   1.152   3.717   5.752
  219SOL     OW 1555   4.528   4.624   0.368
  219SOL    HW1 1556   4.478   4.675   0.298
  219SOL    HW2 1557   4.547   4.685   0.445
  220SOL     OW 1558   2.925   5.519   0.477
  220SOL    HW1 1559   2.876   5.467   0.547
  220SOL    HW2 1560   3.023   5.513   0.494
  221SOL     OW 1561   6.338   2.360   4.247
  221SOL    HW1 1562   6.364   2.418   4.325
  221SOL    HW2 1563   6.247   2.388   4.215
  222SOL     OW 1564   1.476   6.649   4.830
  222SOL    HW1 1565   1.448   6.629   4.736
  222SOL    HW2 1566   1.404   6.621   4.893
  223SOL     OW 1567   6.511   3.775   1.529
  223SOL    HW1 1568   6.455   3.821   1.598
  223SOL    HW2 1569   6.597   3.825   1.516
  224SOL     OW 1570   3.167   2.256   1.654
  224SOL    HW1 1571   3.170   2.307   1.568
  224SOL    HW2 1572   3.223   2.303   1.722
  225SOL     OW 1573   6.563   0.284   0.040
  225SOL    HW1 1574   6.489   0.264   6.998
  225SOL    HW2 1575   6.618   0.201   0.054
  226SOL     OW 1576   6.457   5.526   1.121
  226SOL    HW1 1577   6.534   5.491   1.175
  226SOL    HW2 1578   6.383   5.554   1.183
  227SOL     OW 1579   1.345   2.635   4.015
  227SOL    HW1 1580   1.438   2.605   4.032
  227SOL    HW2 1581   1.297   2.565   3.960
  228SOL     OW 1582   3.849   0.104   3.453
  228SOL    HW1 1583   3.848   0.203   3.438
  228SOL    HW2 1584   3.899   0.083   3.537
  229SOL     OW 1585   5.988   5.233   2.451
  229SOL    HW1 1586   6.056   5.161   2.464
  229SOL    HW2 1587   5.961   5.235   2.354
  230SOL     OW 1588   1.805   4.326   6.021
  230SOL    HW1 1589   1.786   4.406   6.078
  230SOL    HW2 1590   1.732   4.259   6.032
  231SOL     OW 1591   0.686   1.859   0.060
  231SOL    HW1 1592   0.733   1.935   0.016
  231SOL    HW2 1593   0.587   1.874   0.055
  232SOL     OW 1594   1.928   5.106   6.821
  232SOL    HW1 1595   1.836   5.097   6.782
  232SOL    HW2 1596   1.947   5.202   6.838
  233SOL     OW 1597   2.536   0.918   5.994
  233SOL    HW1 1598   2.491   0.832   5.970
  233SOL    HW2 1599   2.526   0.983   5.918
  234SOL     OW 1600   2.707   5.835   6.871
  234SOL    HW1 1601   2.803   5.811   6.852
  234SOL    HW2 1602   2.672   5.894   6.798
  235SOL     OW 1603   3.487   3.027   4.935
  235SOL    HW1 1604   3.558   2.959   4.914
  235SOL    HW2 1605   3.411   2.982   4.983
  236SOL     OW 1606   6.993   2.760   5.646
  236SOL    HW1 1607   0.041   2.689   5.641
  236SOL    HW2 1608   6.993   2.812   5.561
  237SOL     OW 1609   0.589   6.984   1.829
  237SOL    HW1 1610   0.621   6.892   1.808
  237SOL    HW2 1611   0.665   0.026   1.821
  238SOL     OW 1612   5.574   2.562   2.230
  238SOL    HW1 1613   5.572   2.462   2.227
  238SOL    HW2 1614   5.508   2.598   2.165
  239SOL     OW 1615   0.689   5.788   0.393
  239SOL    HW1 1616   0.614   5.853   0.409
  239SOL    HW2 1617   0.724   5.755   0.481
  240SOL     OW 1618   6.488   3.798   5.589
  240SOL    HW1 1619   6.506   3.711   5.544
  240SOL    HW2 1620   6.433   3.856   5.528
  241SOL     OW 1621   0.485   0.943   2.921
  241SOL    HW1 1622   0.451   1.035   2.941
  241SOL    HW2 1623   0.511   0.897   3.006
  242SOL     OW 1624   2.117   3.346   3.843
  242SOL    HW1 1625   2.133   3.379   3.936
  242SOL    HW2 1626   2.168   3.261   3.829
  243SOL     OW 1627   4.945   0.462   4.953
  243SOL    HW1 1628   4.974   0.381   5.003
  243SOL    HW2 1629   4.875   0.437   4.886
  244SOL     OW 1630   6.774   1.577   5.749
  244SOL    HW1 1631   6.848   1.581   5.683
  244SOL    HW2 1632   6.696   1.530   5.709
  245SOL     OW 1633   6.463   1.549   3.547
  245SOL    HW1 1634   6.370   1.581   3.531
  245SOL    HW2 1635   6.471   1.519   3.642
  246SOL     OW 1636   4.957   3.412   3.105
  246SOL    HW1 1637   5.037   3.402   3.164
  246SOL    HW2 1638   4.901   3.330   3.111
  247SOL     OW 1639   3.222   1.635   3.360
  247SOL    HW1 1640   3.218   1.722   3.312
  247SOL    HW2 1641   3.130   1.595   3.366
  248SOL     OW 1642   5.770   1.241   2.829
  248SOL    HW1 1643   5.717   1.252   2.745
  248SOL    HW2 1644   5.823   1.324   2.847
  249SOL     OW 1645   3.383   0.202   3.582
  249SOL    HW1 1646   3.342   0.179   3.493
  249SOL    HW2 1647   3.480   0.176   3.581
  250SOL     OW 1648   4.709   3.497   5.892
  250SOL    HW1 1649   4.792   3.502   5.948
  250SOL    HW2 1650   4.630   3.520   5.949
  251SOL     OW 1651   2.439   2.251   0.753
  251SOL    HW1 1652   2.410   2.268   0.659
  251SOL    HW2 1653   2.358   2.235   0.810
  252SOL     OW 1654   0.318   1.306   6.301
  252SOL    HW1 1655   0.319   1.232   6.234
  252SOL    HW2 1656   0.243   1.294   6.365
  253SOL     OW 1657   2.675   3.774   5.955
  253SOL    HW1 1658   2.711   3.852   5.904
  253SOL    HW2 1659   2.688   3.790   6.053
  254SOL     OW 1660   5.913   3.644   5.335
  254SOL    HW1 1661   5.839   3.708   5.356
  254SOL    HW2 1662   5.995   3.696   5.308
  255SOL     OW 1663   3.340   2.125   3.536
  255SOL    HW1 1664   3.355   2.036   3.492
  255SOL    HW2 1665   3.380   2.122   3.628
  256SOL     OW 1666   6.678   5.746   0.014
  256SOL    HW1 1667   6.611   5.817   0.036
  256SOL    HW2 1668   6.752   5.750   0.081
  257SOL     OW 1669   2.722   5.485   5.855
  257SOL    HW1 1670   2.667   5.453   5.778
  257SOL    HW2 1671   2.719   5.417   5.929
  258SOL     OW 1672   4.829   4.037   4.017
  258SOL    HW1 1673   4.887   4.078   3.946
  258SOL    HW2 1674   4.833   3.938   4.010
  259SOL     OW 1675   1.071   2.303   3.032
  259SOL    HW1 1676   1.170   2.313   3.033
  259SOL    HW2 1677   1.038   2.316   2.938
  260SOL     OW 1678   6.359   0.029   6.466
  260SOL    HW1 1679   6.329   0.047   6.372
  260SOL    HW2 1680   6.307   0.088   6.529
  261SOL     OW 1681   1.080   2.022   2.652
  261SOL    HW1 1682   1.174   1.989   2.659
  261SOL    HW2 1683   1.033   2.009   2.740
  262SOL     OW 1684   1.239   5.376   1.908
  262SOL    HW1 1685   1.225   5.465   1.866
  262SOL    HW2 1686   1.212   5.380   2.004
  263SOL     OW 1687   0.887   1.992   4.313
  263SOL    HW1 1688   0.945   2.017   4.236
  263SOL    HW2 1689   0.924   1.910   4.357
  264SOL     OW 1690   2.833   4.636   6.211
  264SOL    HW1 1691   2.912   4.621   6.270
  264SOL    HW2 1692   2.750   4.634   6.267
  265SOL     OW 1693   5.193   4.953   5.311
  265SOL    HW1 1694   5.256   4.876   5.323
  265SOL    HW2 1695   5.127   4.955   5.385
  266SOL     OW 1696   3.949   2.437   0.460
  266SOL    HW1 1697   4.036   2.392   0.439
  266SOL    HW2 1698   3.942   2.454   0.558
  267SOL     OW 1699   1.420   1.527   5.578
  267SOL    HW1 1700   1.348   1.545   5.645
  267SOL    HW2 1701   1.456   1.613   5.543
  268SOL     OW 1702   3.669   5.526   4.346
  268SOL    HW1 1703   3.660   5.482   4.435
  268SOL    HW2 1704   3.634   5.620   4.351
  269SOL     OW 1705   1.025   1.190   5.993
  269SOL    HW1 1706   0.937   1.230   5.970
  269SOL    HW2 1707   1.096   1.225   5.932
  270SOL     OW 1708   4.993   1.002   3.813
  270SOL    HW1 1709   5.044   0.962   3.888
  270SOL    HW2 1710   5.037   0.979   3.726
  271SOL     OW 1711   1.448   1.208   6.942
  271SOL    HW1 1712   1.502   1.129   6.969
  271SOL    HW2 1713   1.372   1.220   7.007
  272SOL     OW 1714   3.674   5.898   2.636
  272SOL    HW1 1715   3.763   5.892   2.592
  272SOL    HW2 1716   3.684   5.940   2.727
  273SOL     OW 1717   2.746   7.021   5.157
  273SOL    HW1 1718   2.778   0.067   5.222
  273SOL    HW2 1719   2.648   7.008   5.168
  274SOL     OW 1720   5.974   2.000   1.434
  274SOL    HW1 1721   5.886   2.031   1.397
  274SOL    HW2 1722   6.024   1.950   1.363
  275SOL     OW 1723   5.848   5.795   5.091
  275SOL    HW1 1724   5.925   5.732   5.089
  275SOL    HW2 1725   5.823   5.821   4.998
  276SOL     OW 1726   6.487   6.564   3.943
  276SOL    HW1 1727   6.398   6.526   3.916
  276SOL    HW2 1728   6.476   6.620   4.025
  277SOL     OW 1729   4.875   1.212   5.460
  277SOL    HW1 1730   4.961   1.244   5.420
  277SOL    HW2 1731   4.835   1.285   5.515
  278SOL     OW 1732   6.050   3.013   3.165
  278SOL    HW1 1733   6.074   2.952   3.090
  278SOL    HW2 1734   6.104   3.097   3.159
  279SOL     OW 1735   6.963   3.310   4.825
  279SOL    HW1 1736   6.893   3.339   4.759
  279SOL    HW2 1737   6.940   3.220   4.860
  280SOL     OW 1738   3.295   1.108   2.929
  280SOL    HW1 1739   3.343   1.179   2.878
  280SOL    HW2 1740   3.328   1.108   3.024
  281SOL     OW 1741   5.692   6.020   3.407
  281SOL    HW1 1742   5.708   6.055   3.315
  281SOL    HW2 1743   5.655   5.928   3.402
  282SOL     OW 1744   2.630   1.659   0.602
  282SOL    HW1 1745   2.727   1.640   0.612
  282SOL    HW2 1746   2.588   1.670   0.692
  283SOL     OW 1747   6.968   1.858   4.870
  283SOL    HW1 1748   6.873   1.871   4.898
  283SOL    HW2 1749   6.980   1.765   4.835
  284SOL     OW 1750   4.951   6.162   3.520
  284SOL    HW1 1751   4.961   6.237   3.455
  284SOL    HW2 1752   4.923   6.079   3.472
  285SOL     OW 1753   4.347   0.400   6.163
  285SOL    HW1 1754   4.295   0.486   6.164
  285SOL    HW2 1755   4.337   0.354   6.251
  286SOL     OW 1756   2.169   4.916   5.165
  286SOL    HW1 1757   2.144   4.977   5.240
  286SOL    HW2 1758   2.269   4.914   5.156
  287SOL     OW 1759   2.725   0.222   6.038
  287SOL    HW1 1760   2.696   0.183   6.125
  287SOL    HW2 1761   2.823   0.207   6.024
  288SOL     OW 1762   4.018   0.523   1.121
  288SOL    HW1 1763   4.116   0.504   1.118
  288SOL    HW2 1764   3.967   0.440   1.095
  289SOL     OW 1765   6.260   6.083   3.275
  289SOL    HW1 1766   6.163   6.101   3.255
  289SOL    HW2 1767   6.306   6.168   3.298
  290SOL     OW 1768   3.418   0.524   6.019
  290SOL    HW1 1769   3.337   0.544   6.074
  290SOL    HW2 1770   3.440   0.427   6.027
  291SOL     OW 1771   3.187   6.875   5.201
  291SOL    HW1 1772   3.211   6.969   5.224
  291SOL    HW2 1773   3.087   6.864   5.203
  292SOL     OW 1774   4.268   6.854   4.361
  292SOL    HW1 1775   4.363   6.874   4.386
  292SOL    HW2 1776   4.261   6.847   4.261
  293SOL     OW 1777   5.956   6.893   2.290
  293SOL    HW1 1778   5.873   6.881   2.344
  293SOL    HW2 1779   5.995   6.983   2.307
  294SOL     OW 1780   6.266   0.717   5.919
  294SOL    HW1 1781   6.332   0.773   5.869
  294SOL    HW2 1782   6.213   0.775   5.980
  295SOL     OW 1783   1.186   1.533   4.596
  295SOL    HW1 1784   1.226   1.599   4.531
  295SOL    HW2 1785   1.087   1.528   4.583
  296SOL     OW 1786   6.795   2.158   0.965
  296SOL    HW1 1787   6.801   2.138   1.062
  296SOL    HW2 1788   6.830   2.081   0.912
  297SOL     OW 1789   5.031   3.150   3.638
  297SOL    HW1 1790   5.120   3.195   3.627
  297SOL    HW2 1791   5.002   3.158   3.733
  298SOL     OW 1792   3.884   0.328   5.895
  298SOL    HW1 1793   3.939   0.366   5.821
  298SOL    HW2 1794   3.823   0.398   5.931
  299SOL     OW 1795   0.977   0.808   6.945
  299SOL    HW1 1796   1.040   0.884   6.960
  299SOL    HW2 1797   1.027   0.730   6.908
  300SOL     OW 1798   4.796   0.124   3.541
  300SOL    HW1 1799   4.865   0.189   3.508
  300SOL    HW2 1800   4.707   0.148   3.503
  301SOL     OW 1801   6.480   5.818   1.299
  301SOL    HW1 1802   6.408   5.748   1.297
  301SOL    HW2 1803   6.530   5.817   1.212
  302SOL     OW 1804   0.744   5.595   1.531
  302SOL    HW1 1805   0.800   5.647   1.466
  302SOL    HW2 1806   0.788   5.507   1.549
  303SOL     OW 1807   5.683   6.142   3.123
  303SOL    HW1 1808   5.610   6.074   3.130
  303SOL    HW2 1809   5.644   6.234   3.126
  304SOL     OW 1810   2.343   5.641   4.889
  304SOL    HW1 1811   2.256   5.691   4.889
  304SOL    HW2 1812   2.363   5.609   4.797
  305SOL     OW 1813   0.970   3.033   2.345
  305SOL    HW1 1814   1.049   3.042   2.283
  305SOL    HW2 1815   0.912   2.958   2.314
  306SOL     OW 1816   0.325   6.500   3.087
  306SOL    HW1 1817   0.328   6.504   2.988
  306SOL    HW2 1818   0.411   6.537   3.124
  307SOL     OW 1819   3.691   3.095   3.654
  307SOL    HW1 1820   3.722   3.032   3.725
  307SOL    HW2 1821   3.620   3.051   3.599
  308SOL     OW 1822   5.296   2.590   3.349
  308SOL    HW1 1823   5.361   2.570   3.423
  308SOL    HW2 1824   5.346   2.626   3.270
  309SOL     OW 1825   1.395   6.756   6.550
  309SOL    HW1 1826   1.334   6.686   6.514
  309SOL    HW2 1827   1.343   6.840   6.567
  310SOL     OW 1828   5.186   0.377   4.856
  310SOL    HW1 1829   5.136   0.318   4.792
  310SOL    HW2 1830   5.126   0.451   4.886
  311SOL     OW 1831   2.248   5.545   2.601
  311SOL    HW1 1832   2.281   5.491   2.524
  311SOL    HW2 1833   2.150   5.565   2.590
  312SOL     OW 1834   4.429   1.238   3.202
  312SOL    HW1 1835   4.391   1.269   3.115
  312SOL    HW2 1836   4.528   1.251   3.203
  313SOL     OW 1837   3.749   3.839   2.364
  313SOL    HW1 1838   3.820   3.860   2.431
  313SOL    HW2 1839   3.791   3.815   2.277
  314SOL     OW 1840   2.377   5.556   6.104
  314SOL    HW1 1841   2.399   5.645   6.064
  314SOL    HW2 1842   2.329   5.500   6.037
  315SOL     OW 1843   6.142   1.330   3.608
  315SOL    HW1 1844   6.198   1.262   3.561
  315SOL    HW2 1845   6.104   1.291   3.692
  316SOL     OW 1846   3.900   1.195   6.272
  316SOL    HW1 1847   3.976   1.146   6.315
  316SOL    HW2 1848   3.815   1.174   6.322
  317SOL     OW 1849   1.222   1.662   1.776
  317SOL    HW1 1850   1.293   1.708   1.830
  317SOL    HW2 1851   1.255   1.572   1.747
  318SOL     OW 1852   1.318   0.484   4.875
  318SOL    HW1 1853   1.220   0.466   4.880
  318SOL    HW2 1854   1.334   0.583   4.869
  319SOL     OW 1855   1.449   1.741   2.493
  319SOL    HW1 1856   1.527   1.709   2.547
  319SOL    HW2 1857   1.482   1.784   2.409
  320SOL     OW 1858   6.099   2.106   6.079
  320SOL    HW1 1859   6.003   2.123   6.056
  320SOL    HW2 1860   6.105   2.071   6.172
  321SOL     OW 1861   4.643   2.968   0.911
  321SOL    HW1 1862   4.558   3.019   0.923
  321SOL    HW2 1863   4.644   2.926   0.820
  322SOL     OW 1864   3.275   3.256   6.064
  322SOL    HW1 1865   3.296   3.350   6.037
  322SOL    HW2 1866   3.353   3.197   6.044
  323SOL     OW 1867   0.918   3.951   2.097
  323SOL    HW1 1868   1.000   3.995   2.133
  323SOL    HW2 1869   0.883   3.886   2.164
  324SOL     OW 1870   0.373   0.191   3.195
  324SOL    HW1 1871   0.282   0.229   3.213
  324SOL    HW2 1872   0.386   0.182   3.096
  325SOL     OW 1873   0.088   3.845   1.830
  325SOL    HW1 1874   0.114   3.861   1.925
  325SOL    HW2 1875   7.012   3.829   1.825
  326SOL     OW 1876   0.831   6.686   6.582
  326SOL    HW1 1877   0.816   6.762   6.519
  326SOL    HW2 1878   0.921   6.645   6.563
  327SOL     OW 1879   5.158   5.644   4.001
  327SOL    HW1 1880   5.089   5.629   3.931
  327SOL    HW2 1881   5.138   5.729   4.050
  328SOL     OW 1882   1.940   3.950   2.516
  328SOL    HW1 1883   2.024   3.915   2.474
  328SOL    HW2 1884   1.892   3.876   2.561
  329SOL     OW 1885   3.126   3.293   1.958
  329SOL    HW1 1886   3.202   3.328   2.013
  329SOL    HW2 1887   3.103   3.201   1.988
  330SOL     OW 1888   3.114   6.105   0.517
  330SOL    HW1 1889   3.044   6.095   0.588
  330SOL    HW2 1890   3.083   6.059   0.434
  331SOL     OW 1891   5.767   5.171   6.791
  331SOL    HW1 1892   5.845   5.183   6.853
  331SOL    HW2 1893   5.695   5.120   6.837
  332SOL     OW 1894   5.935   2.008   3.191
  332SOL    HW1 1895   6.014   1.946   3.193
  332SOL    HW2 1896   5.864   1.972   3.251
  333SOL     OW 1897   2.989   1.190   5.385
  333SOL    HW1 1898   2.997   1.146   5.295
  333SOL    HW2 1899   2.953   1.124   5.451
  334SOL     OW 1900   3.977   3.858   3.746
  334SOL    HW1 1901   4.029   3.834   3.828
  334SOL    HW2 1902   4.005   3.797   3.671
  335SOL     OW 1903   3.831   0.620   6.907
  335SOL    HW1 1904   3.829   0.642   7.005
  335SOL    HW2 1905   3.856   0.524   6.895
  336SOL     OW 1906   2.923   1.420   3.633
  336SOL    HW1 1907   3.009   1.450   3.675
  336SOL    HW2 1908   2.865   1.378   3.703
  337SOL     OW 1909   1.787   0.307   6.155
  337SOL    HW1 1910   1.847   0.261   6.221
  337SOL    HW2 1911   1.771   0.401   6.185
  338SOL     OW 1912   3.972   1.582   1.082
  338SOL    HW1 1913   3.892   1.616   1.130
  338SOL    HW2 1914   3.967   1.609   0.986
  339SOL     OW 1915   3.779   5.264   4.745
  339SOL    HW1 1916   3.722   5.198   4.694
  339SOL    HW2 1917   3.868   5.222   4.765
  340SOL     OW 1918   4.981   2.043   3.884
  340SOL    HW1 1919   5.037   1.962   3.900
  340SOL    HW2 1920   4.885   2.021   3.903
  341SOL     OW 1921   6.262   6.124   2.698
  341SOL    HW1 1922   6.355   6.158   2.710
  341SOL    HW2 1923   6.219   6.112   2.787
  342SOL     OW 1924   4.366   1.948   2.414
  342SOL    HW1 1925   4.434   2.021   2.407
  342SOL    HW2 1926   4.288   1.980   2.467
  343SOL     OW 1927   0.005   5.961   2.764
  343SOL    HW1 1928   0.081   5.990   2.823
  343SOL    HW2 1929   7.010   6.032   2.695
  344SOL     OW 1930   2.042   2.421   1.338
  344SOL    HW1 1931   2.121   2.401   1.280
  344SOL    HW2 1932   2.065   2.400   1.434
  345SOL     OW 1933   6.628   3.870   4.034
  345SOL    HW1 1934   6.614   3.940   3.963
  345SOL    HW2 1935   6.598   3.781   3.999
  346SOL     OW 1936   2.052   6.489   3.322
  346SOL    HW1 1937   2.048   6.500   3.223
  346SOL    HW2 1938   2.053   6.392   3.345
  347SOL     OW 1939   2.547   4.912   0.455
  347SOL    HW1 1940   2.592   4.844   0.511
  347SOL    HW2 1941   2.450   4.889   0.446
  348SOL     OW 1942   4.647   5.225   1.262
  348SOL    HW1 1943   4.696   5.312   1.264
  348SOL    HW2 1944   4.597   5.217   1.176
  349SOL     OW 1945   6.615   4.262   1.216
  349SOL    HW1 1946   6.541   4.303   1.162
  349SOL    HW2 1947   6.576   4.214   1.295
  350SOL     OW 1948   3.490   2.937   0.220
  350SOL    HW1 1949   3.423   2.929   0.294
  350SOL    HW2 1950   3.547   2.855   0.218
  351SOL     OW 1951   3.132   4.482   1.309
  351SOL    HW1 1952   3.152   4.386   1.290
  351SOL    HW2 1953   3.196   4.517   1.378
  352SOL     OW 1954   4.198   0.343   3.173
  352SOL    HW1 1955   4.118   0.366   3.228
  352SOL    HW2 1956   4.204   0.244   3.162
  353SOL     OW 1957   2.157   6.687   6.719
  353SOL    HW1 1958   2.114   6.645   6.640
  353SOL    HW2 1959   2.097   6.679   6.799
  354SOL     OW 1960   0.137   2.921   0.112
  354SOL    HW1 1961   0.189   3.006   0.104
  354SOL    HW2 1962   0.124   2.882   0.021
  355SOL     OW 1963   1.825   2.149   2.457
  355SOL    HW1 1964   1.864   2.058   2.460
  355SOL    HW2 1965   1.822   2.181   2.362
  356SOL     OW 1966   0.779   6.922   6.447
  356SOL    HW1 1967   0.816   6.912   6.355
  356SOL    HW2 1968   0.851   6.956   6.508
  357SOL     OW 1969   5.312   6.573   5.057
  357SOL    HW1 1970   5.370   6.617   5.126
  357SOL    HW2 1971   5.367   6.550   4.977
  358SOL     OW 1972   4.134   5.538   0.302
  358SOL    HW1 1973   4.077   5.581   0.233
  358SOL    HW2 1974   4.226   5.523   0.266
  359SOL     OW 1975   2.471   2.448   2.896
  359SOL    HW1 1976   2.551   2.392   2.876
  359SOL    HW2 1977   2.470   2.471   2.994
  360SOL     OW 1978   0.980   4.732   4.420
  360SOL    HW1 1979   1.067   4.760   4.378
  360SOL    HW2 1980   0.951   4.645   4.381
  361SOL     OW 1981   6.192   0.293   3.135
  361SOL    HW1 1982   6.143   0.256   3.214
  361SOL    HW2 1983   6.201   0.223   3.065
  362SOL     OW 1984   4.252   4.890   0.938
  362SOL    HW1 1985   4.223   4.805   0.895
  362SOL    HW2 1986   4.196   4.906   1.020
  363SOL     OW 1987   5.559   5.133   2.208
  363SOL    HW1 1988   5.517   5.223   2.198
  363SOL    HW2 1989   5.519   5.070   2.141
  364SOL     OW 1990   0.936   6.164   6.398
  364SOL    HW1 1991   0.844   6.194   6.375
  364SOL    HW2 1992   0.934   6.107   6.480
  365SOL     OW 1993   4.837   1.921   3.121
  365SOL    HW1 1994   4.807   1.843   3.175
  365SOL    HW2 1995   4.763   1.988   3.114
  366SOL     OW 1996   5.812   1.972   0.069
  366SOL    HW1 1997   5.905   1.967   0.034
  366SOL    HW2 1998   5.749   1.991   7.016
  367SOL     OW 1999   5.005   1.905   5.684
  367SOL    HW1 2000   4.916   1.879   5.646
  367SOL    HW2 2001   5.004   1.893   5.783
  368SOL     OW 2002   6.308   2.291   6.300
  368SOL    HW1 2003   6.242   2.365   6.291
  368SOL    HW2 2004   6.400   2.329   6.308
  369SOL     OW 2005   6.273   2.922   2.499
  369SOL    HW1 2006   6.238   2.856   2.565
  369SOL    HW2 2007   6.362   2.957   2.529
  370SOL     OW 2008   2.078   3.396   3.551
  370SOL    HW1 2009   2.111   3.394   3.645
  370SOL    HW2 2010   1.978   3.400   3.551
  371SOL     OW 2011   1.599   4.713   6.621
  371SOL    HW1 2012   1.501   4.717   6.605
  371SOL    HW2 2013   1.621   4.633   6.678
  372SOL     OW 2014   3.442   6.441   6.650
  372SOL    HW1 2015   3.350   6.414   6.679
  372SOL    HW2 2016   3.504   6.440   6.729
  373SOL     OW 2017   6.174   5.828   3.987
  373SOL    HW1 2018   6.105   5.853   4.055
  373SOL    HW2 2019   6.207   5.911   3.941
  374SOL     OW 2020   2.874   1.988   2.627
  374SOL    HW1 2021   2.862   2.086   2.618
  374SOL    HW2 2022   2.915   1.951   2.544
  375SOL     OW 2023   1.589   4.997   4.874
  375SOL    HW1 2024   1.516   4.937   4.839
  375SOL    HW2 2025   1.611   4.971   4.968
  376SOL     OW 2026   2.923   0.993   4.366
  376SOL    HW1 2027   2.883   0.947   4.287
  376SOL    HW2 2028   2.904   0.940   4.449
  377SOL     OW 2029   0.849   2.299   6.788
  377SOL    HW1 2030   0.898   2.294   6.701
  377SOL    HW2 2031   0.896   2.363   6.849
  378SOL     OW 2032   3.503   0.771   1.359
  378SOL    HW1 2033   3.591   0.807   1.327
  378SOL    HW2 2034   3.429   0.819   1.313
  379SOL     OW 2035   6.380   1.866   6.110
  379SOL    HW1 2036   6.397   1.773   6.077
  379SOL    HW2 2037   6.465   1.918   6.111
  380SOL     OW 2038   4.067   1.914   1.057
  380SOL    HW1 2039   4.050   1.844   0.988
  380SOL    HW2 2040   3.982   1.963   1.077
  381SOL     OW 2041   1.891   3.816   3.337
  381SOL    HW1 2042   1.954   3.738   3.347
  381SOL    HW2 2043   1.944   3.900   3.329
  382SOL     OW 2044   5.665   0.396   0.187
  382SOL    HW1 2045   5.668   0.397   0.087
  382SOL    HW2 2046   5.697   0.484   0.222
  383SOL     OW 2047   3.976   2.811   0.625
  383SOL    HW1 2048   3.974   2.844   0.531
  383SOL    HW2 2049   3.926   2.874   0.684
  384SOL     OW 2050   5.806   4.274   4.621
  384SOL    HW1 2051   5.837   4.308   4.710
  384SOL    HW2 2052   5.707   4.284   4.615
  385SOL     OW 2053   4.414   4.401   0.497
  385SOL    HW1 2054   4.487   4.452   0.453
  385SOL    HW2 2055   4.438   4.383   0.593
  386SOL     OW 2056   3.196   0.001   3.968
  386SOL    HW1 2057   3.166   7.011   4.062
  386SOL    HW2 2058   3.169   0.092   3.936
  387SOL     OW 2059   2.067   5.731   3.553
  387SOL    HW1 2060   2.166   5.715   3.561
  387SOL    HW2 2061   2.038   5.710   3.459
  388SOL     OW 2062   2.313   2.702   6.142
  388SOL    HW1 2063   2.302   2.630   6.074
  388SOL    HW2 2064   2.410   2.724   6.152
  389SOL     OW 2065   2.936   3.607   3.231
  389SOL    HW1 2066   2.939   3.573   3.137
  389SOL    HW2 2067   2.910   3.532   3.292
  390SOL     OW 2068   1.988   1.081   4.269
  390SOL    HW1 2069   1.957   1.176   4.265
  390SOL    HW2 2070   2.085   1.079   4.294
  391SOL     OW 2071   0.727   3.699   0.140
  391SOL    HW1 2072   0.794   3.717   0.212
  391SOL    HW2 2073   0.681   3.612   0.158
  392SOL     OW 2074   2.553   4.774   2.435
  392SOL    HW1 2075   2.466   4.754   2.480
  392SOL    HW2 2076   2.560   4.722   2.350
  393SOL     OW 2077   5.642   4.789   5.083
  393SOL    HW1 2078   5.735   4.801   5.047
  393SOL    HW2 2079   5.579   4.846   5.031
  394SOL     OW 2080   1.412   0.223   1.011
  394SOL    HW1 2081   1.445   0.288   1.080
  394SOL    HW2 2082   1.482   0.154   0.993
  395SOL     OW 2083   5.132   3.913   1.326
  395SOL    HW1 2084   5.123   3.904   1.226
  395SOL    HW2 2085   5.083   3.839   1.370
  396SOL     OW 2086   3.377   4.096   4.087
  396SOL    HW1 2087   3.280   4.110   4.070
  396SOL    HW2 2088   3.426   4.094   4.000
  397SOL     OW 2089   4.581   1.642   5.649
  397SOL    HW1 2090   4.611   1.736   5.629
  397SOL    HW2 2091   4.481   1.640   5.656
  398SOL     OW 2092   0.992   5.094   2.634
  398SOL    HW1 2093   1.000   5.031   2.557
  398SOL    HW2 2094   0.901   5.136   2.633
  399SOL     OW 2095   4.874   5.047   1.302
  399SOL    HW1 2096   4.776   5.060   1.289
  399SOL    HW2 2097   4.923   5.073   1.218
  400SOL     OW 2098   0.371   5.910   5.200
  400SOL    HW1 2099   0.334   5.841   5.263
  400SOL    HW2 2100   0.374   5.998   5.247
  401SOL     OW 2101   4.938   2.119   6.956
  401SOL    HW1 2102   5.009   2.176   6.915
  401SOL    HW2 2103   4.929   2.034   6.904
  402SOL     OW 2104   6.104   6.023   1.385
  402SOL    HW1 2105   6.067   6.110   1.353
  402SOL    HW2 2106   6.061   5.948   1.335
  403SOL     OW 2107   4.479   2.098   5.707
  403SOL    HW1 2108   4.454   2.062   5.797
  403SOL    HW2 2109   4.397   2.131   5.660
  404SOL     OW 2110   0.631   6.723   4.396
  404SOL    HW1 2111   0.658   6.638   4.350
  404SOL    HW2 2112   0.649   6.801   4.335
  405SOL     OW 2113   0.884   2.847   0.948
  405SOL    HW1 2114   0.909   2.942   0.968
  405SOL    HW2 2115   0.868   2.837   0.850
  406SOL     OW 2116   1.593   2.578   4.234
  406SOL    HW1 2117   1.563   2.585   4.329
  406SOL    HW2 2118   1.643   2.660   4.208
  407SOL     OW 2119   2.702   0.593   5.348
  407SOL    HW1 2120   2.652   0.679   5.365
  407SOL    HW2 2121   2.798   0.614   5.329
  408SOL     OW 2122   1.741   0.478   3.856
  408SOL    HW1 2123   1.746   0.382   3.883
  408SOL    HW2 2124   1.738   0.485   3.757
  409SOL     OW 2125   5.800   3.231   3.449
  409SOL    HW1 2126   5.714   3.279   3.465
  409SOL    HW2 2127   5.810   3.211   3.352
  410SOL     OW 2128   2.294   0.930   6.537
  410SOL    HW1 2129   2.308   0.993   6.460
  410SOL    HW2 2130   2.290   0.983   6.622
  411SOL     OW 2131   6.324   4.419   4.957
  411SOL    HW1 2132   6.225   4.429   4.952
  411SOL    HW2 2133   6.351   4.336   4.907
  412SOL     OW 2134   3.710   0.416   2.357
  412SOL    HW1 2135   3.729   0.350   2.430
  412SOL    HW2 2136   3.625   0.465   2.378
  413SOL     OW 2137   3.207   6.378   0.481
  413SOL    HW1 2138   3.299   6.412   0.464
  413SOL    HW2 2139   3.206   6.278   0.478
  414SOL     OW 2140   4.155   4.448   0.334
  414SOL    HW1 2141   4.219   4.451   0.411
  414SOL    HW2 2142   4.079   4.511   0.351
  415SOL     OW 2143   2.094   6.717   1.582
  415SOL    HW1 2144   2.161   6.762   1.641
  415SOL    HW2 2145   2.097   6.618   1.597
  416SOL     OW 2146   4.213   6.262   4.921
  416SOL    HW1 2147   4.197   6.260   5.019
  416SOL    HW2 2148   4.158   6.335   4.880
  417SOL     OW 2149   4.154   6.422   2.269
  417SOL    HW1 2150   4.155   6.452   2.173
  417SOL    HW2 2151   4.092   6.344   2.278
  418SOL     OW 2152   4.911   5.605   0.360
  418SOL    HW1 2153   4.904   5.508   0.383
  418SOL    HW2 2154   4.882   5.660   0.438
  419SOL     OW 2155   0.145   6.561   1.303
  419SOL    HW1 2156   0.118   6.651   1.337
  419SOL    HW2 2157   0.129   6.492   1.374
  420SOL     OW 2158   5.203   4.174   0.084
  420SOL    HW1 2159   5.262   4.112   0.032
  420SOL    HW2 2160   5.186   4.257   0.030
  421SOL     OW 2161   2.442   6.263   6.640
  421SOL    HW1 2162   2.379   6.334   6.673
  421SOL    HW2 2163   2.403   6.173   6.660
  422SOL     OW 2164   5.836   4.341   6.385
  422SOL    HW1 2165   5.762   4.409   6.383
  422SOL    HW2 2166   5.918   4.379   6.343
  423SOL     OW 2167   5.890   2.869   0.180
  423SOL    HW1 2168   5.819   2.827   0.238
  423SOL    HW2 2169   5.977   2.822   0.194
  424SOL     OW 2170   2.873   4.190   0.592
  424SOL    HW1 2171   2.826   4.140   0.666
  424SOL    HW2 2172   2.920   4.125   0.533
  425SOL     OW 2173   3.716   1.329   1.355
  425SOL    HW1 2174   3.673   1.417   1.375
  425SOL    HW2 2175   3.767   1.336   1.269
  426SOL     OW 2176   4.911   3.256   5.884
  426SOL    HW1 2177   4.826   3.248   5.937
  426SOL    HW2 2178   4.989   3.254   5.946
  427SOL     OW 2179   5.515   3.829   0.985
  427SOL    HW1 2180   5.441   3.789   0.931
  427SOL    HW2 2181   5.483   3.913   1.029
  428SOL     OW 2182   4.023   0.443   5.668
  428SOL    HW1 2183   4.091   0.515   5.649
  428SOL    HW2 2184   3.942   0.459   5.613
  429SOL     OW 2185   1.625   4.616   7.022
  429SOL    HW1 2186   1.631   4.623   0.099
  429SOL    HW2 2187   1.690   4.678   6.980
  430SOL     OW 2188   1.141   0.031   5.022
  430SOL    HW1 2189   1.053   7.013   4.996
  430SOL    HW2 2190   1.208   6.981   5.038
  431SOL     OW 2191   3.713   1.621   0.200
  431SOL    HW1 2192   3.686   1.541   0.254
  431SOL    HW2 2193   3.810   1.639   0.213
  432SOL     OW 2194   6.582   1.741   0.354
  432SOL    HW1 2195   6.653   1.753   0.422
  432SOL    HW2 2196   6.621   1.753   0.262
  433SOL     OW 2197   2.929   6.809   5.142
  433SOL    HW1 2198   2.865   6.884   5.160
  433SOL    HW2 2199   2.888   6.745   5.077
  434SOL     OW 2200   5.641   3.274   1.061
  434SOL    HW1 2201   5.633   3.343   1.132
  434SOL    HW2 2202   5.708   3.205   1.088
  435SOL     OW 2203   3.314   3.867   6.185
  435SOL    HW1 2204   3.391   3.852   6.124
  435SOL    HW2 2205   3.308   3.792   6.251
  436SOL     OW 2206   1.487   0.587   0.963
  436SOL    HW1 2207   1.427   0.554   0.890
  436SOL    HW2 2208   1.506   0.512   1.027
  437SOL     OW 2209   0.110   0.225   6.160
  437SOL    HW1 2210   0.165   0.259   6.236
  437SOL    HW2 2211   0.123   0.126   6.152
  438SOL     OW 2212   1.528   3.233   1.890
  438SOL    HW1 2213   1.439   3.231   1.935
  438SOL    HW2 2214   1.587   3.301   1.933
  439SOL     OW 2215   6.291   4.706   2.166
  439SOL    HW1 2216   6.275   4.609   2.147
  439SOL    HW2 2217   6.236   4.761   2.104
  440SOL     OW 2218   0.884   2.273   3.783
  440SOL    HW1 2219   0.973   2.233   3.757
  440SOL    HW2 2220   0.896   2.332   3.862
  441SOL     OW 2221   1.715   1.431   3.029
  441SOL    HW1 2222   1.705   1.441   3.128
  441SOL    HW2 2223   1.707   1.334   3.004
  442SOL     OW 2224   6.636   4.256   6.912
  442SOL    HW1 2225   6.663   4.293   7.001
  442SOL    HW2 2226   6.702   4.186   6.884
  443SOL     OW 2227   1.593   3.784   5.131
  443SOL    HW1 2228   1.517   3.836   5.170
  443SOL    HW2 2229   1.662   3.848   5.096
  444SOL     OW 2230   4.493   2.686   6.138
  444SOL    HW1 2231   4.434   2.606   6.125
  444SOL    HW2 2232   4.456   2.743   6.212
  445SOL     OW 2233   2.102   4.523   3.597
  445SOL    HW1 2234   2.156   4.551   3.676
  445SOL    HW2 2235   2.048   4.441   3.621
  446SOL     OW 2236   3.666   4.914   3.847
  446SOL    HW1 2237   3.734   4.849   3.881
  446SOL    HW2 2238   3.684   4.934   3.750
  447SOL     OW 2239   0.284   4.998   6.900
  447SOL    HW1 2240   0.262   5.065   6.970
  447SOL    HW2 2241   0.224   4.918   6.909
  448SOL     OW 2242   3.970   0.849   5.430
  448SOL    HW1 2243   3.918   0.849   5.515
  448SOL    HW2 2244   3.991   0.755   5.404
  449SOL     OW 2245   6.200   1.274   4.586
  449SOL    HW1 2246   6.265   1.277   4.509
  449SOL    HW2 2247   6.181   1.367   4.616
  450SOL     OW 2248   0.342   5.948   3.670
  450SOL    HW1 2249   0.244   5.944   3.648
  450SOL    HW2 2250   0.357   5.904   3.759
  451SOL     OW 2251   0.687   1.643   2.411
  451SOL    HW1 2252   0.679   1.712   2.483
  451SOL    HW2 2253   0.650   1.556   2.444
  452SOL     OW 2254   0.208   4.253   0.437
  452SOL    HW1 2255   0.171   4.346   0.429
  452SOL    HW2 2256   0.137   4.193   0.474
  453SOL     OW 2257   2.886   1.584   6.385
  453SOL    HW1 2258   2.961   1.543   6.437
  453SOL    HW2 2259   2.919   1.668   6.341
  454SOL     OW 2260   0.306   6.245   6.746
  454SOL    HW1 2261   0.368   6.318   6.776
  454SOL    HW2 2262   0.226   6.243   6.805
  455SOL     OW 2263   6.112   0.555   4.007
  455SOL    HW1 2264   6.093   0.458   3.999
  455SOL    HW2 2265   6.026   0.605   4.019
  456SOL     OW 2266   4.380   5.855   6.333
  456SOL    HW1 2267   4.305   5.825   6.273
  456SOL    HW2 2268   4.369   5.813   6.423
  457SOL     OW 2269   2.296   4.218   3.371
  457SOL    HW1 2270   2.349   4.140   3.338
  457SOL    HW2 2271   2.229   4.245   3.302
  458SOL     OW 2272   5.917   5.866   5.660
  458SOL    HW1 2273   5.918   5.855   5.759
  458SOL    HW2 2274   5.995   5.817   5.620
  459SOL     OW 2275   1.234   0.344   3.040
  459SOL    HW1 2276   1.195   0.436   3.038
  459SOL    HW2 2277   1.167   0.280   3.075
  460SOL     OW 2278   6.704   1.722   2.263
  460SOL    HW1 2279   6.607   1.745   2.253
  460SOL    HW2 2280   6.736   1.748   2.354
  461SOL     OW 2281   4.507   6.811   5.219
  461SOL    HW1 2282   4.569   6.874   5.266
  461SOL    HW2 2283   4.512   6.827   5.121
  462SOL     OW 2284   3.233   2.805   6.208
  462SOL    HW1 2285   3.223   2.901   6.234
  462SOL    HW2 2286   3.256   2.798   6.111
  463SOL     OW 2287   6.214   5.451   3.398
  463SOL    HW1 2288   6.150   5.383   3.435
  463SOL    HW2 2289   6.178   5.488   3.313
  464SOL     OW 2290   1.623   1.242   6.721
  464SOL    HW1 2291   1.558   1.245   6.797
  464SOL    HW2 2292   1.656   1.149   6.708
  465SOL     OW 2293   0.609   1.945   4.072
  465SOL    HW1 2294   0.584   1.867   4.130
  465SOL    HW2 2295   0.705   1.938   4.046
  466SOL     OW 2296   0.632   6.864   3.726
  466SOL    HW1 2297   0.576   6.782   3.735
  466SOL    HW2 2298   0.638   6.889   3.629
  467SOL     OW 2299   0.827   0.376   5.604
  467SOL    HW1 2300   0.886   0.400   5.528
  467SOL    HW2 2301   0.832   0.277   5.621
  468SOL     OW 2302   4.045   5.671   0.937
  468SOL    HW1 2303   3.990   5.688   0.855
  468SOL    HW2 2304   4.138   5.646   0.909
  469SOL     OW 2305   2.202   5.683   0.470
  469SOL    HW1 2306   2.234   5.772   0.502
  469SOL    HW2 2307   2.139   5.644   0.538
  470SOL     OW 2308   4.192   0.489   1.871
  470SOL    HW1 2309   4.171   0.503   1.967
  470SOL    HW2 2310   4.271   0.428   1.862
  471SOL     OW 2311   1.788   2.556   4.735
  471SOL    HW1 2312   1.845   2.584   4.658
  471SOL    HW2 2313   1.846   2.536   4.814
  472SOL     OW 2314   5.100   5.004   6.339
  472SOL    HW1 2315   5.142   5.063   6.270
  472SOL    HW2 2316   5.043   5.058   6.400
  473SOL     OW 2317   0.624   2.889   2.169
  473SOL    HW1 2318   0.581   2.811   2.213
  473SOL    HW2 2319   0.721   2.870   2.153
  474SOL     OW 2320   3.991   5.517   3.834
  474SOL    HW1 2321   4.002   5.473   3.746
  474SOL    HW2 2322   4.020   5.612   3.828
  475SOL     OW 2323   6.868   6.743   6.902
  475SOL    HW1 2324   6.891   6.703   6.990
  475SOL    HW2 2325   6.950   6.748   6.845
  476SOL     OW 2326   6.355   4.440   2.379
  476SOL    HW1 2327   6.376   4.344   2.362
  476SOL    HW2 2328   6.438   4.494   2.372
  477SOL     OW 2329   2.010   5.088   4.443
  477SOL    HW1 2330   2.079   5.148   4.482
  477SOL    HW2 2331   2.031   5.070   4.347
  478SOL     OW 2332   3.581   5.355   3.081
  478SOL    HW1 2333   3.605   5.371   3.176
  478SOL    HW2 2334   3.582   5.442   3.031
  479SOL     OW 2335   2.692   2.555   0.504
  479SOL    HW1 2336   2.642   2.619   0.563
  479SOL    HW2 2337   2.786   2.545   0.537
  480SOL     OW 2338   1.343   6.951   1.753
  480SOL    HW1 2339   1.259   6.994   1.787
  480SOL    HW2 2340   1.335   6.937   1.654
  481SOL     OW 2341   2.714   0.634   1.741
  481SOL    HW1 2342   2.803   0.646   1.698
  481SOL    HW2 2343   2.642   0.669   1.680
  482SOL     OW 2344   5.451   4.420   2.598
  482SOL    HW1 2345   5.528   4.368   2.635
  482SOL    HW2 2346   5.378   4.425   2.665
  483SOL     OW 2347   5.485   1.800   1.765
  483SOL    HW1 2348   5.429   1.722   1.739
  483SOL    HW2 2349   5.472   1.874   1.698
  484SOL     OW 2350   0.687   2.745   4.495
  484SOL    HW1 2351   0.640   2.815   4.549
  484SOL    HW2 2352   0.624   2.706   4.428
  485SOL     OW 2353   3.524   4.869   2.416
  485SOL    HW1 2354   3.434   4.852   2.375
  485SOL    HW2 2355   3.588   4.900   2.345
  486SOL     OW 2356   1.232   1.603   0.687
  486SOL    HW1 2357   1.282   1.553   0.757
  486SOL    HW2 2358   1.152   1.550   0.657
  487SOL     OW 2359   0.589   2.379   0.429
  487SOL    HW1 2360   0.620   2.313   0.498
  487SOL    HW2 2361   0.576   2.333   0.342
  488SOL     OW 2362   0.813   1.910   1.586
  488SOL    HW1 2363   0.825   2.008   1.568
  488SOL    HW2 2364   0.903   1.868   1.601
  489SOL     OW 2365   3.728   6.054   0.135
  489SOL    HW1 2366   3.818   6.084   0.102
  489SOL    HW2 2367   3.665   6.132   0.136
  490SOL     OW 2368   6.090   6.664   4.125
  490SOL    HW1 2369   6.081   6.622   4.035
  490SOL    HW2 2370   6.021   6.628   4.187
  491SOL     OW 2371   0.259   2.692   2.464
  491SOL    HW1 2372   0.186   2.624   2.472
  491SOL    HW2 2373   0.233   2.774   2.515
  492SOL     OW 2374   3.238   0.839   5.729
  492SOL    HW1 2375   3.306   0.908   5.703
  492SOL    HW2 2376   3.165   0.882   5.782
  493SOL     OW 2377   6.557   4.593   6.049
  493SOL    HW1 2378   6.497   4.515   6.063
  493SOL    HW2 2379   6.630   4.568   5.985
  494SOL     OW 2380   0.526   6.059   0.320
  494SOL    HW1 2381   0.572   6.123   0.382
  494SOL    HW2 2382   0.497   6.107   0.237
  495SOL     OW 2383   5.059   5.048   2.851
  495SOL    HW1 2384   5.152   5.085   2.858
  495SOL    HW2 2385   5.019   5.076   2.764
  496SOL     OW 2386   5.517   3.016   3.193
  496SOL    HW1 2387   5.502   3.087   3.263
  496SOL    HW2 2388   5.615   3.010   3.173
  497SOL     OW 2389   3.394   1.047   4.905
  497SOL    HW1 2390   3.484   1.051   4.862
  497SOL    HW2 2391   3.331   0.996   4.847
  498SOL     OW 2392   0.936   3.305   2.351
  498SOL    HW1 2393   0.933   3.205   2.347
  498SOL    HW2 2394   0.916   3.335   2.445
  499SOL     OW 2395   3.207   0.300   4.378
  499SOL    HW1 2396   3.242   0.394   4.386
  499SOL    HW2 2397   3.281   0.240   4.347
  500SOL     OW 2398   0.584   4.188   3.345
  500SOL    HW1 2399   0.672   4.193   3.298
  500SOL    HW2 2400   0.516   4.148   3.283
  501SOL     OW 2401   2.481   2.653   0.287
  501SOL    HW1 2402   2.503   2.556   0.283
  501SOL    HW2 2403   2.384   2.666   0.264
  502SOL     OW 2404   4.780   4.045   5.766
  502SOL    HW1 2405   4.732   4.087   5.843
  502SOL    HW2 2406   4.733   4.069   5.681
  503SOL     OW 2407   6.239   4.167   6.175
  503SOL    HW1 2408   6.185   4.114   6.109
  503SOL    HW2 2409   6.306   4.107   6.219
  504SOL     OW 2410   2.126   6.118   4.213
  504SOL    HW1 2411   2.078   6.070   4.140
  504SOL    HW2 2412   2.106   6.073   4.301
  505SOL     OW 2413   4.028   0.223   6.192
  505SOL    HW1 2414   4.060   0.129   6.181
  505SOL    HW2 2415   3.996   0.258   6.104
  506SOL     OW 2416   1.621   4.519   4.813
  506SOL    HW1 2417   1.678   4.450   4.769
  506SOL    HW2 2418   1.564   4.564   4.744
  507SOL     OW 2419   3.064   0.055   4.679
  507SOL    HW1 2420   3.043   0.077   4.584
  507SOL    HW2 2421   3.141   0.110   4.710
  508SOL     OW 2422   6.068   3.256   2.711
  508SOL    HW1 2423   6.146   3.292   2.660
  508SOL    HW2 2424   6.059   3.305   2.798
  509SOL     OW 2425   4.311   1.131   1.939
  509SOL    HW1 2426   4.383   1.163   2.001
  509SOL    HW2 2427   4.343   1.138   1.844
  510SOL     OW 2428   6.482   4.568   5.691
  510SOL    HW1 2429   6.383   4.578   5.693
  510SOL    HW2 2430   6.506   4.471   5.696
  511SOL     OW 2431   0.214   6.378   0.297
  511SOL    HW1 2432   0.145   6.310   0.321
  511SOL    HW2 2433   0.240   6.430   0.379
  512SOL     OW 2434   1.175   3.231   0.286
  512SOL    HW1 2435   1.272   3.240   0.264
  512SOL    HW2 2436   1.162   3.240   0.385
  513SOL     OW 2437   6.498   5.809   2.969
  513SOL    HW1 2438   6.498   5.739   3.041
  513SOL    HW2 2439   6.551   5.887   3.000
  514SOL     OW 2440   0.228   2.376   4.279
  514SOL    HW1 2441   0.169   2.411   4.352
  514SOL    HW2 2442   0.173   2.361   4.197
  515SOL     OW 2443   2.370   7.018   5.711
  515SOL    HW1 2444   2.295   7.012   5.776
  515SOL    HW2 2445   2.451   0.031   5.758
  516SOL     OW 2446   2.833   4.863   1.598
  516SOL    HW1 2447   2.813   4.845   1.694
  516SOL    HW2 2448   2.847   4.961   1.584
  517SOL     OW 2449   5.285   6.807   1.824
  517SOL    HW1 2450   5.329   6.865   1.756
  517SOL    HW2 2451   5.225   6.863   1.882
  518SOL     OW 2452   2.065   2.620   1.685
  518SOL    HW1 2453   1.971   2.591   1.665
  518SOL    HW2 2454   2.073   2.641   1.782
  519SOL     OW 2455   0.189   0.164   4.646
  519SOL    HW1 2456   0.258   0.226   4.681
  519SOL    HW2 2457   0.223   0.070   4.651
  520SOL     OW 2458   5.560   4.519   6.157
  520SOL    HW1 2459   5.512   4.477   6.080
  520SOL    HW2 2460   5.523   4.610   6.174
  521SOL     OW 2461   6.855   1.883   6.198
  521SOL    HW1 2462   6.904   1.969   6.187
  521SOL    HW2 2463   6.819   1.876   6.291
  522SOL     OW 2464   3.844   2.823   5.509
  522SOL    HW1 2465   3.865   2.757   5.437
  522SOL    HW2 2466   3.870   2.915   5.479
  523SOL     OW 2467   6.787   6.492   3.641
  523SOL    HW1 2468   6.690   6.498   3.665
  523SOL    HW2 2469   6.802   6.535   3.552
  524SOL     OW 2470   2.674   0.851   6.778
  524SOL    HW1 2471   2.582   0.815   6.795
  524SOL    HW2 2472   2.668   0.940   6.733
  525SOL     OW 2473   2.903   3.436   6.208
  525SOL    HW1 2474   2.823   3.482   6.171
  525SOL    HW2 2475   2.981   3.498   6.207
  526SOL     OW 2476   2.960   5.240   4.844
  526SOL    HW1 2477   2.969   5.244   4.943
  526SOL    HW2 2478   2.898   5.166   4.819
  527SOL     OW 2479   6.706   1.457   6.001
  527SOL    HW1 2480   6.771   1.477   6.075
  527SOL    HW2 2481   6.735   1.503   5.918
  528SOL     OW 2482   1.613   1.252   4.814
  528SOL    HW1 2483   1.558   1.271   4.732
  528SOL    HW2 2484   1.707   1.231   4.787
  529SOL     OW 2485   0.993   5.003   4.950
  529SOL    HW1 2486   1.067   5.013   4.883
  529SOL    HW2 2487   0.997   4.913   4.992
  530SOL     OW 2488   2.543   3.006   5.403
  530SOL    HW1 2489   2.510   3.071   5.472
  530SOL    HW2 2490   2.500   3.025   5.315
  531SOL     OW 2491   0.066   0.377   1.065
  531SOL    HW1 2492   0.078   0.410   1.159
  531SOL    HW2 2493   0.126   0.427   1.004
  532SOL     OW 2494   1.464   1.815   5.564
  532SOL    HW1 2495   1.488   1.887   5.629
  532SOL    HW2 2496   1.386   1.845   5.509
  533SOL     OW 2497   5.091   6.626   4.951
  533SOL    HW1 2498   5.055   6.577   4.872
  533SOL    HW2 2499   5.180   6.587   4.976
  534SOL     OW 2500   4.360   5.542   3.219
  534SOL    HW1 2501   4.407   5.467   3.267
  534SOL    HW2 2502   4.262   5.522   3.215
  535SOL     OW 2503   0.398   3.865   3.816
  535SOL    HW1 2504   0.479   3.915   3.786
  535SOL    HW2 2505   0.402   3.771   3.783
  536SOL     OW 2506   0.668   5.584   1.037
  536SOL    HW1 2507   0.721   5.645   1.096
  536SOL    HW2 2508   0.594   5.635   0.994
  537SOL     OW 2509   2.650   6.392   3.067
  537SOL    HW1 2510   2.647   6.343   2.980
  537SOL    HW2 2511   2.571   6.453   3.073
  538SOL     OW 2512   1.377   5.368   3.358
  538SOL    HW1 2513   1.372   5.383   3.260
  538SOL    HW2 2514   1.286   5.345   3.393
  539SOL     OW 2515   1.064   5.561   1.613
  539SOL    HW1 2516   1.126   5.624   1.661
  539SOL    HW2 2517   1.027   5.495   1.678
  540SOL     OW 2518   0.671   1.858   2.574
  540SOL    HW1 2519   0.660   1.957   2.562
  540SOL    HW2 2520   0.757   1.840   2.623
  541SOL     OW 2521   2.916   6.292   4.955
  541SOL    HW1 2522   2.879   6.295   4.862
  541SOL    HW2 2523   2.979   6.369   4.969
  542SOL     OW 2524   5.980   6.104   6.804
  542SOL    HW1 2525   6.073   6.077   6.781
  542SOL    HW2 2526   5.920   6.024   6.797
  543SOL     OW 2527   1.214   5.092   6.852
  543SOL    HW1 2528   1.203   5.086   6.752
  543SOL    HW2 2529   1.162   5.019   6.896
  544SOL     OW 2530   0.667   5.290   0.583
  544SOL    HW1 2531   0.712   5.365   0.630
  544SOL    HW2 2532   0.693   5.291   0.486
  545SOL     OW 2533   4.029   1.449   2.795
  545SOL    HW1 2534   3.997   1.408   2.880
  545SOL    HW2 2535   4.121   1.486   2.808
  546SOL     OW 2536   0.898   3.756   1.618
  546SOL    HW1 2537   0.818   3.754   1.557
  546SOL    HW2 2538   0.980   3.734   1.566
  547SOL     OW 2539   2.715   2.904   0.793
  547SOL    HW1 2540   2.737   2.921   0.889
  547SOL    HW2 2541   2.797   2.873   0.745
  548SOL     OW 2542   3.836   2.943   3.837
  548SOL    HW1 2543   3.867   2.979   3.925
  548SOL    HW2 2544   3.757   2.884   3.852
  549SOL     OW 2545   5.125   3.503   1.575
  549SOL    HW1 2546   5.111   3.477   1.670
  549SOL    HW2 2547   5.068   3.447   1.515
  550SOL     OW 2548   6.899   2.917   2.186
  550SOL    HW1 2549   6.939   3.007   2.170
  550SOL    HW2 2550   6.846   2.889   2.106
  551SOL     OW 2551   6.989   1.621   1.162
  551SOL    HW1 2552   6.925   1.684   1.205
  551SOL    HW2 2553   0.056   1.666   1.152
  552SOL     OW 2554   4.055   5.283   0.706
  552SOL    HW1 2555   4.060   5.277   0.607
  552SOL    HW2 2556   4.029   5.194   0.744
  553SOL     OW 2557   1.940   1.127   1.822
  553SOL    HW1 2558   1.971   1.111   1.916
  553SOL    HW2 2559   1.856   1.181   1.823
  554SOL     OW 2560   5.336   6.974   5.755
  554SOL    HW1 2561   5.296   6.931   5.836
  554SOL    HW2 2562   5.430   6.944   5.744
  555SOL     OW 2563   1.966   4.738   4.670
  555SOL    HW1 2564   1.938   4.833   4.681
  555SOL    HW2 2565   2.005   4.705   4.756
  556SOL     OW 2566   6.581   2.292   3.849
  556SOL    HW1 2567   6.547   2.333   3.763
  556SOL    HW2 2568   6.670   2.331   3.871
  557SOL     OW 2569   6.784   5.857   6.540
  557SOL    HW1 2570   6.859   5.923   6.538
  557SOL    HW2 2571   6.782   5.812   6.629
  558SOL     OW 2572   4.390   3.541   5.288
  558SOL    HW1 2573   4.460   3.478   5.322
  558SOL    HW2 2574   4.429   3.632   5.276
  559SOL     OW 2575   0.117   5.922   6.560
  559SOL    HW1 2576   0.082   5.857   6.493
  559SOL    HW2 2577   0.089   6.015   6.533
  560SOL     OW 2578   4.815   6.575   0.078
  560SOL    HW1 2579   4.790   6.478   0.085
  560SOL    HW2 2580   4.889   6.585   0.012
  561SOL     OW 2581   5.983   6.948   0.342
  561SOL    HW1 2582   6.017   6.967   0.434
  561SOL    HW2 2583   6.057   6.957   0.276
  562SOL     OW 2584   5.405   1.146   6.119
  562SOL    HW1 2585   5.334   1.215   6.104
  562SOL    HW2 2586   5.372   1.057   6.087
  563SOL     OW 2587   2.580   6.239   3.880
  563SOL    HW1 2588   2.618   6.157   3.837
  563SOL    HW2 2589   2.627   6.257   3.966
  564SOL     OW 2590   1.074   1.817   6.780
  564SOL    HW1 2591   1.066   1.906   6.735
  564SOL    HW2 2592   1.139   1.760   6.730
  565SOL     OW 2593   4.412   3.761   5.622
  565SOL    HW1 2594   4.357   3.679   5.636
  565SOL    HW2 2595   4.492   3.758   5.682
  566SOL     OW 2596   4.305   5.332   3.538
  566SOL    HW1 2597   4.339   5.259   3.598
  566SOL    HW2 2598   4.368   5.343   3.461
  567SOL     OW 2599   3.520   2.889   4.609
  567SOL    HW1 2600   3.425   2.891   4.639
  567SOL    HW2 2601   3.527   2.842   4.521
  568SOL     OW 2602   3.169   2.509   0.181
  568SOL    HW1 2603   3.217   2.515   0.094
  568SOL    HW2 2604   3.211   2.572   0.247
  569SOL     OW 2605   1.728   2.704   0.740
  569SOL    HW1 2606   1.729   2.612   0.701
  569SOL    HW2 2607   1.686   2.768   0.675
  570SOL     OW 2608   1.144   6.543   0.621
  570SOL    HW1 2609   1.193   6.509   0.702
  570SOL    HW2 2610   1.208   6.548   0.544
  571SOL     OW 2611   3.550   5.183   2.678
  571SOL    HW1 2612   3.497   5.206   2.596
  571SOL    HW2 2613   3.592   5.266   2.714
  572SOL     OW 2614   2.100   3.837   5.655
  572SOL    HW1 2615   2.173   3.880   5.708
  572SOL    HW2 2616   2.040   3.908   5.617
  573SOL     OW 2617   4.424   1.085   5.245
  573SOL    HW1 2618   4.443   1.025   5.167
  573SOL    HW2 2619   4.358   1.040   5.306
  574SOL     OW 2620   2.509   2.055   4.117
  574SOL    HW1 2621   2.434   2.075   4.054
  574SOL    HW2 2622   2.589   2.024   4.066
  575SOL     OW 2623   6.519   3.030   0.278
  575SOL    HW1 2624   6.589   3.066   0.216
  575SOL    HW2 2625   6.517   2.930   0.272
  576SOL     OW 2626   1.097   2.288   2.540
  576SOL    HW1 2627   1.074   2.194   2.567
  576SOL    HW2 2628   1.187   2.312   2.576
  577SOL     OW 2629   2.680   1.646   3.659
  577SOL    HW1 2630   2.614   1.592   3.607
  577SOL    HW2 2631   2.659   1.743   3.648
  578SOL     OW 2632   0.439   3.326   3.579
  578SOL    HW1 2633   0.473   3.395   3.643
  578SOL    HW2 2634   0.465   3.235   3.610
  579SOL     OW 2635   4.363   1.958   0.436
  579SOL    HW1 2636   4.423   1.965   0.356
  579SOL    HW2 2637   4.287   2.021   0.426
  580SOL     OW 2638   1.304   5.353   6.892
  580SOL    HW1 2639   1.399   5.333   6.918
  580SOL    HW2 2640   1.256   5.267   6.874
  581SOL     OW 2641   4.111   3.626   2.897
  581SOL    HW1 2642   4.087   3.716   2.860
  581SOL    HW2 2643   4.110   3.629   2.997
  582SOL     OW 2644   4.938   4.042   2.682
  582SOL    HW1 2645   5.002   4.062   2.757
  582SOL    HW2 2646   4.845   4.065   2.711
  583SOL     OW 2647   2.188   4.088   0.135
  583SOL    HW1 2648   2.155   4.144   0.212
  583SOL    HW2 2649   2.190   3.992   0.163
  584SOL     OW 2650   0.382   4.547   5.060
  584SOL    HW1 2651   0.456   4.556   4.993
  584SOL    HW2 2652   0.294   4.548   5.013
  585SOL     OW 2653   6.845   2.538   6.026
  585SOL    HW1 2654   6.815   2.502   5.938
  585SOL    HW2 2655   6.779   2.605   6.059
  586SOL     OW 2656   2.766   6.514   0.729
  586SOL    HW1 2657   2.818   6.443   0.775
  586SOL    HW2 2658   2.824   6.594   0.714
  587SOL     OW 2659   0.825   3.421   5.836
  587SOL    HW1 2660   0.761   3.365   5.889
  587SOL    HW2 2661   0.794   3.516   5.836
  588SOL     OW 2662   3.331   6.236   1.468
  588SOL    HW1 2663   3.341   6.334   1.453
  588SOL    HW2 2664   3.286   6.220   1.556
  589SOL     OW 2665   3.768   5.282   2.397
  589SOL    HW1 2666   3.811   5.349   2.457
  589SOL    HW2 2667   3.787   5.190   2.431
  590SOL     OW 2668   0.231   2.217   1.950
  590SOL    HW1 2669   0.191   2.290   1.894
  590SOL    HW2 2670   0.301   2.169   1.899
  591SOL     OW 2671   3.851   0.446   3.695
  591SOL    HW1 2672   3.881   0.357   3.730
  591SOL    HW2 2673   3.770   0.476   3.746
  592SOL     OW 2674   4.909   0.441   0.094
  592SOL    HW1 2675   4.853   0.485   0.164
  592SOL    HW2 2676   4.955   0.361   0.134
  593SOL     OW 2677   4.844   2.507   3.980
  593SOL    HW1 2678   4.800   2.590   4.016
  593SOL    HW2 2679   4.831   2.433   4.046
  594SOL     OW 2680   4.223   4.065   1.411
  594SOL    HW1 2681   4.149   4.057   1.345
  594SOL    HW2 2682   4.194   4.122   1.488
  595SOL     OW 2683   3.787   6.161   4.103
  595SOL    HW1 2684   3.785   6.198   4.196
  595SOL    HW2 2685   3.694   6.140   4.074
  596SOL     OW 2686   0.714   4.642   2.710
  596SOL    HW1 2687   0.805   4.683   2.701
  596SOL    HW2 2688   0.715   4.576   2.786
  597SOL     OW 2689   4.417   0.592   5.850
  597SOL    HW1 2690   4.334   0.564   5.897
  597SOL    HW2 2691   4.473   0.648   5.911
  598SOL     OW 2692   3.773   4.430   0.216
  598SOL    HW1 2693   3.704   4.363   0.242
  598SOL    HW2 2694   3.816   4.468   0.298
  599SOL     OW 2695   6.883   0.293   2.542
  599SOL    HW1 2696   6.981   0.289   2.563
  599SOL    HW2 2697   6.833   0.320   2.624
  600SOL     OW 2698   1.560   7.018   0.206
  600SOL    HW1 2699   1.496   0.071   0.219
  600SOL    HW2 2700   1.540   6.973   0.119
  601SOL     OW 2701   2.913   5.737   3.973
  601SOL    HW1 2702   2.837   5.689   4.016
  601SOL    HW2 2703   2.893   5.751   3.876
  602SOL     OW 2704   1.917   0.414   1.327
  602SOL    HW1 2705   1.890   0.493   1.271
  602SOL    HW2 2706   1.835   0.367   1.359
  603SOL     OW 2707   3.958   2.225   3.228
  603SOL    HW1 2708   4.033   2.233   3.294
  603SOL    HW2 2709   3.913   2.313   3.216
  604SOL     OW 2710   0.937   3.388   6.304
  604SOL    HW1 2711   1.013   3.337   6.263
  604SOL    HW2 2712   0.905   3.339   6.386
  605SOL     OW 2713   6.112   6.786   3.379
  605SOL    HW1 2714   6.141   6.835   3.461
  605SOL    HW2 2715   6.018   6.756   3.389
  606SOL     OW 2716   4.125   0.755   3.433
  606SOL    HW1 2717   4.135   0.748   3.532
  606SOL    HW2 2718   4.214   0.774   3.391
  607SOL     OW 2719   5.111   1.497   4.174
  607SOL    HW1 2720   5.133   1.422   4.236
  607SOL    HW2 2721   5.070   1.461   4.091
  608SOL     OW 2722   4.187   0.829   0.509
  608SOL    HW1 2723   4.249   0.890   0.559
  608SOL    HW2 2724   4.160   0.873   0.423
  609SOL     OW 2725   3.195   3.048   4.142
  609SOL    HW1 2726   3.237   2.995   4.215
  609SOL    HW2 2727   3.127   3.111   4.180
  610SOL     OW 2728   5.441   2.672   4.370
  610SOL    HW1 2729   5.380   2.643   4.444
  610SOL    HW2 2730   5.409   2.633   4.284
  611SOL     OW 2731   0.288   0.158   0.582
  611SOL    HW1 2732   0.299   0.226   0.654
  611SOL    HW2 2733   0.377   0.118   0.560
  612SOL     OW 2734   2.704   5.115   5.945
  612SOL    HW1 2735   2.649   5.034   5.967
  612SOL    HW2 2736   2.696   5.182   6.018
  613SOL     OW 2737   3.806   1.713   6.605
  613SOL    HW1 2738   3.871   1.643   6.574
  613SOL    HW2 2739   3.743   1.672   6.671
  614SOL     OW 2740   5.512   4.400   1.218
  614SOL    HW1 2741   5.432   4.416   1.161
  614SOL    HW2 2742   5.526   4.301   1.228
  615SOL     OW 2743   0.312   6.824   0.967
  615SOL    HW1 2744   0.252   6.820   0.887
  615SOL    HW2 2745   0.382   6.894   0.953
  616SOL     OW 2746   5.540   1.239   4.177
  616SOL    HW1 2747   5.543   1.338   4.171
  616SOL    HW2 2748   5.537   1.212   4.274
  617SOL     OW 2749   0.564   4.869   5.942
  617SOL    HW1 2750   0.636   4.938   5.946
  617SOL    HW2 2751   0.567   4.822   5.854
  618SOL     OW 2752   5.820   3.243   0.542
  618SOL    HW1 2753   5.854   3.212   0.453
  618SOL    HW2 2754   5.873   3.322   0.572
  619SOL     OW 2755   3.171   0.574   0.554
  619SOL    HW1 2756   3.072   0.582   0.553
  619SOL    HW2 2757   3.210   0.636   0.486
  620SOL     OW 2758   5.722   2.026   1.646
  620SOL    HW1 2759   5.747   1.955   1.579
  620SOL    HW2 2760   5.753   1.999   1.737
  621SOL     OW 2761   3.038   1.060   6.282
  621SOL    HW1 2762   3.024   1.136   6.346
  621SOL    HW2 2763   3.058   0.977   6.333
  622SOL     OW 2764   1.121   1.575   4.867
  622SOL    HW1 2765   1.148   1.522   4.786
  622SOL    HW2 2766   1.203   1.611   4.911
  623SOL     OW 2767   5.754   6.764   4.162
  623SOL    HW1 2768   5.777   6.702   4.088
  623SOL    HW2 2769   5.756   6.858   4.129
  624SOL     OW 2770   6.424   0.833   6.593
  624SOL    HW1 2771   6.480   0.904   6.552
  624SOL    HW2 2772   6.416   0.850   6.692
  625SOL     OW 2773   2.881   0.877   0.469
  625SOL    HW1 2774   2.837   0.960   0.504
  625SOL    HW2 2775   2.925   0.828   0.544
  626SOL     OW 2776   0.543   4.715   3.784
  626SOL    HW1 2777   0.616   4.695   3.849
  626SOL    HW2 2778   0.577   4.703   3.691
  627SOL     OW 2779   6.682   0.507   6.967
  627SOL    HW1 2780   6.629   0.426   6.992
  627SOL    HW2 2781   6.725   0.492   6.878
  628SOL     OW 2782   4.808   5.028   5.379
  628SOL    HW1 2783   4.749   5.049   5.458
  628SOL    HW2 2784   4.812   5.106   5.318
  629SOL     OW 2785   0.141   6.977   6.159
  629SOL    HW1 2786   0.069   6.982   6.229
  629SOL    HW2 2787   0.159   6.882   6.136
  630SOL     OW 2788   6.370   1.240   1.192
  630SOL    HW1 2789   6.293   1.265   1.251
  630SOL    HW2 2790   6.368   1.297   1.109
  631SOL     OW 2791   1.999   2.514   4.899
  631SOL    HW1 2792   2.080   2.527   4.841
  631SOL    HW2 2793   2.021   2.540   4.993
  632SOL     OW 2794   3.154   3.055   6.687
  632SOL    HW1 2795   3.170   3.057   6.786
  632SOL    HW2 2796   3.116   2.966   6.662
  633SOL     OW 2797   1.937   5.627   1.629
  633SOL    HW1 2798   1.879   5.584   1.560
  633SOL    HW2 2799   2.001   5.690   1.585
  634SOL     OW 2800   2.872   3.429   4.251
  634SOL    HW1 2801   2.864   3.478   4.338
  634SOL    HW2 2802   2.869   3.494   4.175
  635SOL     OW 2803   5.933   0.897   6.363
  635SOL    HW1 2804   5.881   0.902   6.448
  635SOL    HW2 2805   5.952   0.990   6.330
  636SOL     OW 2806   2.380   0.724   6.707
  636SOL    HW1 2807   2.379   0.754   6.802
  636SOL    HW2 2808   2.348   0.798   6.648
  637SOL     OW 2809   6.643   1.362   1.522
  637SOL    HW1 2810   6.683   1.278   1.487
  637SOL    HW2 2811   6.570   1.393   1.460
  638SOL     OW 2812   6.290   3.496   3.951
  638SOL    HW1 2813   6.259   3.590   3.970
  638SOL    HW2 2814   6.376   3.479   3.998
  639SOL     OW 2815   5.062   4.884   3.299
  639SOL    HW1 2816   5.114   4.803   3.272
  639SOL    HW2 2817   5.082   4.906   3.395
  640SOL     OW 2818   0.658   2.325   2.438
  640SOL    HW1 2819   0.661   2.319   2.339
  640SOL    HW2 2820   0.581   2.384   2.465
  641SOL     OW 2821   1.854   5.001   4.649
  641SOL    HW1 2822   1.905   5.027   4.567
  641SOL    HW2 2823   1.760   5.033   4.641
  642SOL     OW 2824   1.041   3.869   5.038
  642SOL    HW1 2825   1.098   3.912   5.108
  642SOL    HW2 2826   1.085   3.785   5.006
  643SOL     OW 2827   4.676   4.953   6.537
  643SOL    HW1 2828   4.628   4.879   6.490
  643SOL    HW2 2829   4.625   4.980   6.619
  644SOL     OW 2830   6.800   6.809   4.675
  644SOL    HW1 2831   6.752   6.834   4.759
  644SOL    HW2 2832   6.855   6.727   4.692
  645SOL     OW 2833   4.298   4.650   2.249
  645SOL    HW1 2834   4.206   4.667   2.212
  645SOL    HW2 2835   4.327   4.730   2.302
  646SOL     OW 2836   4.220   0.609   5.565
  646SOL    HW1 2837   4.316   0.582   5.550
  646SOL    HW2 2838   4.169   0.599   5.480
  647SOL     OW 2839   4.528   2.405   5.227
  647SOL    HW1 2840   4.436   2.402   5.267
  647SOL    HW2 2841   4.579   2.325   5.257
  648SOL     OW 2842   5.962   2.319   3.180
  648SOL    HW1 2843   5.877   2.284   3.220
  648SOL    HW2 2844   6.023   2.243   3.160
  649SOL     OW 2845   2.024   5.165   0.606
  649SOL    HW1 2846   1.954   5.236   0.611
  649SOL    HW2 2847   2.019   5.120   0.517
  650SOL     OW 2848   6.815   5.383   1.033
  650SOL    HW1 2849   6.744   5.374   1.103
  650SOL    HW2 2850   6.888   5.442   1.067
  651SOL     OW 2851   1.399   6.873   5.009
  651SOL    HW1 2852   1.464   6.945   5.035
  651SOL    HW2 2853   1.433   6.826   4.928
  652SOL     OW 2854   3.709   6.757   1.543
  652SOL    HW1 2855   3.791   6.794   1.587
  652SOL    HW2 2856   3.638   6.827   1.542
  653SOL     OW 2857   0.892   6.235   1.756
  653SOL    HW1 2858   0.940   6.183   1.827
  653SOL    HW2 2859   0.951   6.309   1.724
  654SOL     OW 2860   0.158   6.859   4.937
  654SOL    HW1 2861   0.204   6.820   5.017
  654SOL    HW2 2862   0.061   6.875   4.958
  655SOL     OW 2863   7.006   4.563   2.062
  655SOL    HW1 2864   0.052   4.490   2.070
  655SOL    HW2 2865   0.017   4.632   1.997
  656SOL     OW 2866   3.507   6.626   0.285
  656SOL    HW1 2867   3.515   6.573   0.370
  656SOL    HW2 2868   3.466   6.715   0.306
  657SOL     OW 2869   3.876   2.859   1.874
  657SOL    HW1 2870   3.882   2.773   1.824
  657SOL    HW2 2871   3.850   2.842   1.969
  658SOL     OW 2872   2.289   4.237   4.014
  658SOL    HW1 2873   2.324   4.230   4.107
  658SOL    HW2 2874   2.348   4.297   3.960
  659SOL     OW 2875   2.492   6.336   5.620
  659SOL    HW1 2876   2.472   6.298   5.529
  659SOL    HW2 2877   2.407   6.342   5.672
  660SOL     OW 2878   4.909   4.132   2.212
  660SOL    HW1 2879   4.855   4.183   2.145
  660SOL    HW2 2880   4.956   4.196   2.273
  661SOL     OW 2881   4.329   4.685   4.391
  661SOL    HW1 2882   4.396   4.630   4.440
  661SOL    HW2 2883   4.243   4.687   4.442
  662SOL     OW 2884   4.734   3.484   0.435
  662SOL    HW1 2885   4.738   3.569   0.487
  662SOL    HW2 2886   4.644   3.442   0.446
  663SOL     OW 2887   0.426   4.509   0.596
  663SOL    HW1 2888   0.511   4.556   0.618
  663SOL    HW2 2889   0.427   4.418   0.639
  664SOL     OW 2890   1.536   6.670   6.767
  664SOL    HW1 2891   1.471   6.664   6.691
  664SOL    HW2 2892   1.617   6.616   6.745
  665SOL     OW 2893   4.356   5.843   0.759
  665SOL    HW1 2894   4.307   5.916   0.712
  665SOL    HW2 2895   4.454   5.854   0.745
  666SOL     OW 2896   3.705   2.083   0.093
  666SOL    HW1 2897   3.704   2.164   0.034
  666SOL    HW2 2898   3.794   2.078   0.139
  667SOL     OW 2899   0.931   3.125   2.841
  667SOL    HW1 2900   1.004   3.143   2.907
  667SOL    HW2 2901   0.842   3.137   2.886
  668SOL     OW 2902   4.745   6.686   0.770
  668SOL    HW1 2903   4.734   6.759   0.703
  668SOL    HW2 2904   4.727   6.597   0.727
  669SOL     OW 2905   1.538   5.864   3.084
  669SOL    HW1 2906   1.554   5.772   3.048
  669SOL    HW2 2907   1.611   5.926   3.054
  670SOL     OW 2908   3.186   3.588   3.991
  670SOL    HW1 2909   3.237   3.513   4.034
  670SOL    HW2 2910   3.207   3.674   4.037
  671SOL     OW 2911   2.027   7.019   5.647
  671SOL    HW1 2912   2.064   6.974   5.729
  671SOL    HW2 2913   2.019   6.951   5.574
  672SOL     OW 2914   2.115   3.412   4.133
  672SOL    HW1 2915   2.115   3.315   4.158
  672SOL    HW2 2916   2.166   3.464   4.201
  673SOL     OW 2917   5.315   0.454   0.601
  673SOL    HW1 2918   5.260   0.525   0.646
  673SOL    HW2 2919   5.273   0.365   0.616
  674SOL     OW 2920   0.444   1.363   3.711
  674SOL    HW1 2921   0.464   1.267   3.728
  674SOL    HW2 2922   0.523   1.408   3.670
  675SOL     OW 2923   6.902   2.604   4.676
  675SOL    HW1 2924   6.848   2.642   4.602
  675SOL    HW2 2925   6.958   2.676   4.718
  676SOL     OW 2926   1.932   4.692   4.284
  676SOL    HW1 2927   1.896   4.785   4.293
  676SOL    HW2 2928   1.878   4.629   4.338
  677SOL     OW 2929   6.119   0.356   0.831
  677SOL    HW1 2930   6.154   0.393   0.917
  677SOL    HW2 2931   6.024   0.327   0.844
  678SOL     OW 2932   2.574   1.073   6.219
  678SOL    HW1 2933   2.494   1.107   6.267
  678SOL    HW2 2934   2.545   1.025   6.136
  679SOL     OW 2935   4.532   0.466   2.291
  679SOL    HW1 2936   4.601   0.528   2.328
  679SOL    HW2 2937   4.443   0.509   2.295
  680SOL     OW 2938   4.655   4.656   5.852
  680SOL    HW1 2939   4.619   4.743   5.820
  680SOL    HW2 2940   4.591   4.582   5.830
  681SOL     OW 2941   0.690   6.945   1.375
  681SOL    HW1 2942   0.742   6.886   1.437
  681SOL    HW2 2943   0.602   6.968   1.417
  682SOL     OW 2944   1.735   5.787   6.905
  682SOL    HW1 2945   1.761   5.773   6.809
  682SOL    HW2 2946   1.737   5.699   6.953
  683SOL     OW 2947   4.545   1.668   0.263
  683SOL    HW1 2948   4.587   1.740   0.209
  683SOL    HW2 2949   4.533   1.699   0.357
  684SOL     OW 2950   0.296   5.566   6.215
  684SOL    HW1 2951   0.347   5.505   6.154
  684SOL    HW2 2952   0.302   5.531   6.309
  685SOL     OW 2953   5.399   0.366   5.567
  685SOL    HW1 2954   5.345   0.414   5.497
  685SOL    HW2 2955   5.459   0.300   5.523
  686SOL     OW 2956   5.161   4.319   2.976
  686SOL    HW1 2957   5.082   4.326   2.915
  686SOL    HW2 2958   5.231   4.263   2.932
  687SOL     OW 2959   6.935   3.483   5.913
  687SOL    HW1 2960   6.887   3.560   5.954
  687SOL    HW2 2961   0.004   3.512   5.885
  688SOL     OW 2962   0.289   4.088   5.933
  688SOL    HW1 2963   0.309   4.168   5.989
  688SOL    HW2 2964   0.370   4.030   5.927
  689SOL     OW 2965   6.259   3.793   6.057
  689SOL    HW1 2966   6.336   3.784   5.994
  689SOL    HW2 2967   6.246   3.707   6.106
  690SOL     OW 2968   1.502   2.078   3.333
  690SOL    HW1 2969   1.460   2.041   3.251
  690SOL    HW2 2970   1.443   2.058   3.412
  691SOL     OW 2971   0.836   2.626   6.568
  691SOL    HW1 2972   0.882   2.639   6.480
  691SOL    HW2 2973   0.738   2.642   6.557
  692SOL     OW 2974   2.615   0.119   2.473
  692SOL    HW1 2975   2.533   0.174   2.484
  692SOL    HW2 2976   2.635   0.071   2.559
  693SOL     OW 2977   6.901   2.561   2.602
  693SOL    HW1 2978   6.822   2.528   2.551
  693SOL    HW2 2979   6.896   2.528   2.697
  694SOL     OW 2980   2.158   6.687   1.202
  694SOL    HW1 2981   2.101   6.745   1.144
  694SOL    HW2 2982   2.100   6.622   1.251
  695SOL     OW 2983   5.321   5.858   5.448
  695SOL    HW1 2984   5.333   5.946   5.494
  695SOL    HW2 2985   5.349   5.784   5.509
  696SOL     OW 2986   4.272   4.989   2.454
  696SOL    HW1 2987   4.278   4.916   2.522
  696SOL    HW2 2988   4.364   5.011   2.421
  697SOL     OW 2989   0.889   4.277   4.389
  697SOL    HW1 2990   0.838   4.259   4.305
  697SOL    HW2 2991   0.876   4.201   4.453
  698SOL     OW 2992   4.809   0.208   3.143
  698SOL    HW1 2993   4.799   0.246   3.050
  698SOL    HW2 2994   4.817   0.283   3.208
  699SOL     OW 2995   1.358   3.861   0.955
  699SOL    HW1 2996   1.442   3.880   1.007
  699SOL    HW2 2997   1.344   3.934   0.888
  700SOL     OW 2998   2.833   2.281   4.452
  700SOL    HW1 2999   2.870   2.236   4.533
  700SOL    HW2 3000   2.742   2.317   4.474
  701SOL     OW 3001   0.371   3.777   6.199
  701SOL    HW1 3002   0.419   3.811   6.280
  701SOL    HW2 3003   0.285   3.734   6.227
  702SOL     OW 3004   5.097   6.121   3.970
  702SOL    HW1 3005   5.163   6.191   3.995
  702SOL    HW2 3006   5.129   6.032   4.003
  703SOL     OW 3007   3.774   3.995   6.672
  703SOL    HW1 3008   3.758   4.017   6.576
  703SOL    HW2 3009   3.784   4.080   6.725
  704SOL     OW 3010   1.712   0.331   6.980
  704SOL    HW1 3011   1.788   0.373   0.007
  704SOL    HW2 3012   1.747   0.256   6.923
  705SOL     OW 3013   5.925   1.750   2.295
  705SOL    HW1 3014   5.829   1.756   2.268
  705SOL    HW2 3015   5.939   1.802   2.379
  706SOL     OW 3016   3.908   1.823   3.719
  706SOL    HW1 3017   3.982   1.801   3.783
  706SOL    HW2 3018   3.921   1.915   3.684
  707SOL     OW 3019   5.064   0.292   1.468
  707SOL    HW1 3020   5.062   0.377   1.416
  707SOL    HW2 3021   5.058   0.312   1.566
  708SOL     OW 3022   4.216   0.785   1.404
  708SOL    HW1 3023   4.229   0.867   1.459
  708SOL    HW2 3024   4.240   0.805   1.308
  709SOL     OW 3025   1.064   4.962   0.734
  709SOL    HW1 3026   1.036   4.903   0.810
  709SOL    HW2 3027   1.160   4.945   0.713
  710SOL     OW 3028   2.985   3.888   2.799
  710SOL    HW1 3029   2.918   3.960   2.784
  710SOL    HW2 3030   2.956   3.805   2.751
  711SOL     OW 3031   6.914   1.330   4.296
  711SOL    HW1 3032   6.869   1.418   4.286
  711SOL    HW2 3033   6.970   1.330   4.379
  712SOL     OW 3034   1.480   3.831   1.363
  712SOL    HW1 3035   1.403   3.807   1.304
  712SOL    HW2 3036   1.564   3.791   1.326
  713SOL     OW 3037   4.032   3.747   2.433
  713SOL    HW1 3038   4.043   3.676   2.502
  713SOL    HW2 3039   3.999   3.707   2.347
  714SOL     OW 3040   5.320   4.676   5.063
  714SOL    HW1 3041   5.347   4.771   5.075
  714SOL    HW2 3042   5.398   4.623   5.030
  715SOL     OW 3043   4.399   0.338   6.428
  715SOL    HW1 3044   4.452   0.421   6.441
  715SOL    HW2 3045   4.461   0.260   6.422
  716SOL     OW 3046   0.440   4.898   1.452
  716SOL    HW1 3047   0.387   4.943   1.524
  716SOL    HW2 3048   0.492   4.822   1.491
  717SOL     OW 3049   6.143   2.801   0.290
  717SOL    HW1 3050   6.178   2.707   0.293
  717SOL    HW2 3051   6.175   2.850   0.371
  718SOL     OW 3052   3.562   3.588   6.055
  718SOL    HW1 3053   3.635   3.584   6.122
  718SOL    HW2 3054   3.562   3.504   6.000
  719SOL     OW 3055   6.415   4.379   1.092
  719SOL    HW1 3056   6.366   4.462   1.120
  719SOL    HW2 3057   6.364   4.298   1.121
  720SOL     OW 3058   2.110   1.718   6.416
  720SOL    HW1 3059   2.084   1.811   6.442
  720SOL    HW2 3060   2.194   1.691   6.463
  721SOL     OW 3061   1.417   6.945   5.964
  721SOL    HW1 3062   1.421   6.850   5.997
  721SOL    HW2 3063   1.432   7.007   6.041
  722SOL     OW 3064   4.058   0.197   4.873
  722SOL    HW1 3065   4.120   0.152   4.808
  722SOL    HW2 3066   3.979   0.233   4.824
  723SOL     OW 3067   1.224   2.774   2.182
  723SOL    HW1 3068   1.198   2.860   2.226
  723SOL    HW2 3069   1.323   2.764   2.186
  724SOL     OW 3070   0.193   0.859   4.718
  724SOL    HW1 3071   0.205   0.794   4.793
  724SOL    HW2 3072   0.104   0.905   4.727
  725SOL     OW 3073   2.000   4.937   2.448
  725SOL    HW1 3074   2.032   4.843   2.440
  725SOL    HW2 3075   2.022   4.972   2.540
  726SOL     OW 3076   3.670   0.021   6.889
  726SOL    HW1 3077   3.605   6.971   6.867
  726SOL    HW2 3078   3.763   7.006   6.889
  727SOL     OW 3079   3.017   5.235   4.228
  727SOL    HW1 3080   2.993   5.212   4.134
  727SOL    HW2 3081   3.080   5.313   4.228
  728SOL     OW 3082   6.720   4.275   4.981
  728SOL    HW1 3083   6.703   4.258   4.884
  728SOL    HW2 3084   6.707   4.372   5.000
  729SOL     OW 3085   2.383   0.578   1.261
  729SOL    HW1 3086   2.339   0.666   1.248
  729SOL    HW2 3087   2.385   0.556   1.359
  730SOL     OW 3088   6.269   0.346   3.562
  730SOL    HW1 3089   6.343   0.292   3.522
  730SOL    HW2 3090   6.272   0.439   3.525
  731SOL     OW 3091   5.923   3.906   4.504
  731SOL    HW1 3092   5.850   3.898   4.572
  731SOL    HW2 3093   5.964   3.996   4.510
  732SOL     OW 3094   6.592   3.003   1.068
  732SOL    HW1 3095   6.529   2.926   1.057
  732SOL    HW2 3096   6.658   2.982   1.140
  733SOL     OW 3097   4.680   4.181   3.690
  733SOL    HW1 3098   4.683   4.175   3.790
  733SOL    HW2 3099   4.627   4.104   3.655
  734SOL     OW 3100   6.900   4.608   0.946
  734SOL    HW1 3101   6.801   4.596   0.951
  734SOL    HW2 3102   6.931   4.661   1.025
  735SOL     OW 3103   1.873   3.968   6.529
  735SOL    HW1 3104   1.779   3.986   6.500
  735SOL    HW2 3105   1.929   3.946   6.450
  736SOL     OW 3106   7.017   0.441   3.321
  736SOL    HW1 3107   6.926   0.462   3.286
  736SOL    HW2 3108   0.057   0.515   3.298
  737SOL     OW 3109   5.317   4.092   0.785
  737SOL    HW1 3110   5.361   4.029   0.721
  737SOL    HW2 3111   5.344   4.186   0.763
  738SOL     OW 3112   0.392   4.172   4.065
  738SOL    HW1 3113   0.302   4.138   4.092
  738SOL    HW2 3114   0.462   4.132   4.123
  739SOL     OW 3115   4.204   6.057   6.032
  739SOL    HW1 3116   4.299   6.055   6.001
  739SOL    HW2 3117   4.145   6.013   5.964
  740SOL     OW 3118   6.508   6.792   1.434
  740SOL    HW1 3119   6.427   6.733   1.439
  740SOL    HW2 3120   6.565   6.763   1.356
  741SOL     OW 3121   1.842   6.253   3.141
  741SOL    HW1 3122   1.767   6.201   3.101
  741SOL    HW2 3123   1.913   6.267   3.072
  742SOL     OW 3124   1.489   6.444   3.447
  742SOL    HW1 3125   1.576   6.430   3.400
  742SOL    HW2 3126   1.476   6.374   3.517
  743SOL     OW 3127   1.868   4.011   4.074
  743SOL    HW1 3128   1.854   4.023   3.975
  743SOL    HW2 3129   1.817   3.931   4.105
  744SOL     OW 3130   6.889   5.737   0.234
  744SOL    HW1 3131   6.814   5.747   0.300
  744SOL    HW2 3132   6.931   5.647   0.245
  745SOL     OW 3133   1.864   5.805   2.621
  745SOL    HW1 3134   1.937   5.832   2.557
  745SOL    HW2 3135   1.895   5.728   2.677
  746SOL     OW 3136   1.489   0.326   4.723
  746SOL    HW1 3137   1.425   0.386   4.771
  746SOL    HW2 3138   1.548   0.279   4.789
  747SOL     OW 3139   4.237   4.985   3.816
  747SOL    HW1 3140   4.271   4.965   3.908
  747SOL    HW2 3141   4.262   5.079   3.791
  748SOL     OW 3142   3.947   3.634   1.079
  748SOL    HW1 3143   4.041   3.601   1.084
  748SOL    HW2 3144   3.889   3.567   1.033
  749SOL     OW 3145   0.627   2.320   5.046
  749SOL    HW1 3146   0.650   2.231   5.006
  749SOL    HW2 3147   0.637   2.316   5.145
  750SOL     OW 3148   2.172   3.361   6.903
  750SOL    HW1 3149   2.266   3.341   6.874
  750SOL    HW2 3150   2.167   3.355   7.003
  751SOL     OW 3151   4.634   0.988   0.037
  751SOL    HW1 3152   4.536   0.970   0.032
  751SOL    HW2 3153   4.666   1.027   6.973
  752SOL     OW 3154   4.298   2.335   2.217
  752SOL    HW1 3155   4.347   2.264   2.165
  752SOL    HW2 3156   4.200   2.317   2.212
  753SOL     OW 3157   2.162   3.145   4.644
  753SOL    HW1 3158   2.206   3.203   4.575
  753SOL    HW2 3159   2.074   3.185   4.669
  754SOL     OW 3160   4.149   4.580   6.657
  754SOL    HW1 3161   4.168   4.653   6.591
  754SOL    HW2 3162   4.064   4.534   6.632
  755SOL     OW 3163   0.905   6.036   0.371
  755SOL    HW1 3164   0.966   6.024   0.293
  755SOL    HW2 3165   0.889   5.948   0.414
  756SOL     OW 3166   4.996   0.329   1.726
  756SOL    HW1 3167   5.010   0.304   1.822
  756SOL    HW2 3168   4.906   0.370   1.715
  757SOL     OW 3169   0.447   6.747   3.367
  757SOL    HW1 3170   0.384   6.675   3.395
  757SOL    HW2 3171   0.400   6.836   3.372
  758SOL     OW 3172   3.556   1.987   0.880
  758SOL    HW1 3173   3.606   2.046   0.816
  758SOL    HW2 3174   3.504   2.044   0.944
  759SOL     OW 3175   0.928   1.821   0.242
  759SOL    HW1 3176   0.881   1.909   0.243
  759SOL    HW2 3177   0.890   1.764   0.169
  760SOL     OW 3178   5.510   1.119   0.172
  760SOL    HW1 3179   5.517   1.218   0.180
  760SOL    HW2 3180   5.414   1.093   0.158
  761SOL     OW 3181   6.170   2.376   6.930
  761SOL    HW1 3182   6.248   2.365   6.869
  761SOL    HW2 3183   6.122   2.461   6.908
  762SOL     OW 3184   2.440   5.862   3.544
  762SOL    HW1 3185   2.510   5.828   3.481
  762SOL    HW2 3186   2.450   5.961   3.554
  763SOL     OW 3187   4.371   5.760   6.606
  763SOL    HW1 3188   4.374   5.854   6.641
  763SOL    HW2 3189   4.399   5.697   6.678
  764SOL     OW 3190   3.425   1.807   1.958
  764SOL    HW1 3191   3.446   1.784   1.863
  764SOL    HW2 3192   3.471   1.892   1.983
  765SOL     OW 3193   0.376   6.932   2.583
  765SOL    HW1 3194   0.407   6.851   2.633
  765SOL    HW2 3195   0.302   6.976   2.633
  766SOL     OW 3196   7.005   7.001   0.057
  766SOL    HW1 3197   0.060   0.005   0.114
  766SOL    HW2 3198   6.920   0.009   0.099
  767SOL     OW 3199   6.748   6.322   2.453
  767SOL    HW1 3200   6.726   6.408   2.407
  767SOL    HW2 3201   6.795   6.261   2.388
  768SOL     OW 3202   2.805   0.209   3.064
  768SOL    HW1 3203   2.760   0.288   3.023
  768SOL    HW2 3204   2.885   0.240   3.116
  769SOL     OW 3205   4.491   0.311   5.147
  769SOL    HW1 3206   4.544   0.323   5.230
  769SOL    HW2 3207   4.396   0.340   5.162
  770SOL     OW 3208   3.026   4.991   3.705
  770SOL    HW1 3209   3.060   5.054   3.635
  770SOL    HW2 3210   3.087   4.994   3.784
  771SOL     OW 3211   1.108   5.412   3.453
  771SOL    HW1 3212   1.025   5.439   3.502
  771SOL    HW2 3213   1.104   5.315   3.433
  772SOL     OW 3214   6.429   4.142   6.743
  772SOL    HW1 3215   6.373   4.062   6.768
  772SOL    HW2 3216   6.490   4.164   6.819
  773SOL     OW 3217   6.933   4.317   3.039
  773SOL    HW1 3218   6.865   4.353   3.102
  773SOL    HW2 3219   6.897   4.318   2.946
  774SOL     OW 3220   1.611   1.404   1.552
  774SOL    HW1 3221   1.523   1.357   1.545
  774SOL    HW2 3222   1.648   1.420   1.461
  775SOL     OW 3223   1.543   2.056   4.173
  775SOL    HW1 3224   1.486   2.124   4.219
  775SOL    HW2 3225   1.485   1.989   4.127
  776SOL     OW 3226   1.792   0.633   6.246
  776SOL    HW1 3227   1.704   0.624   6.291
  776SOL    HW2 3228   1.856   0.683   6.306
  777SOL     OW 3229   4.580   0.980   0.849
  777SOL    HW1 3230   4.611   0.888   0.826
  777SOL    HW2 3231   4.638   1.048   0.804
  778SOL     OW 3232   4.367   0.594   3.538
  778SOL    HW1 3233   4.416   0.574   3.453
  778SOL    HW2 3234   4.314   0.514   3.566
  779SOL     OW 3235   0.916   2.325   2.056
  779SOL    HW1 3236   0.971   2.286   2.130
  779SOL    HW2 3237   0.822   2.338   2.087
  780SOL     OW 3238   6.319   3.033   4.429
  780SOL    HW1 3239   6.251   2.960   4.431
  780SOL    HW2 3240   6.343   3.059   4.523
  781SOL     OW 3241   6.603   1.203   6.076
  781SOL    HW1 3242   6.682   1.151   6.108
  781SOL    HW2 3243   6.635   1.286   6.029
  782SOL     OW 3244   0.610   3.159   1.068
  782SOL    HW1 3245   0.639   3.199   0.981
  782SOL    HW2 3246   0.587   3.063   1.054
  783SOL     OW 3247   3.173   5.585   0.569
  783SOL    HW1 3248   3.258   5.567   0.519
  783SOL    HW2 3249   3.181   5.548   0.662
  784SOL     OW 3250   4.035   0.869   5.167
  784SOL    HW1 3251   3.986   0.878   5.253
  784SOL    HW2 3252   4.128   0.904   5.177
  785SOL     OW 3253   6.324   1.198   3.075
  785SOL    HW1 3254   6.312   1.179   2.978
  785SOL    HW2 3255   6.235   1.218   3.116
  786SOL     OW 3256   6.971   6.645   0.124
  786SOL    HW1 3257   0.018   6.583   0.089
  786SOL    HW2 3258   7.006   6.692   0.205
  787SOL     OW 3259   2.753   1.927   6.635
  787SOL    HW1 3260   2.845   1.942   6.599
  787SOL    HW2 3261   2.722   2.009   6.682
  788SOL     OW 3262   2.171   3.659   4.304
  788SOL    HW1 3263   2.207   3.721   4.373
  788SOL    HW2 3264   2.075   3.682   4.284
  789SOL     OW 3265   5.480   3.625   1.788
  789SOL    HW1 3266   5.428   3.639   1.872
  789SOL    HW2 3267   5.428   3.658   1.710
  790SOL     OW 3268   2.915   1.156   3.537
  790SOL    HW1 3269   2.838   1.104   3.572
  790SOL    HW2 3270   2.887   1.250   3.520
  791SOL     OW 3271   3.755   1.159   4.673
  791SOL    HW1 3272   3.802   1.130   4.589
  791SOL    HW2 3273   3.666   1.199   4.649
  792SOL     OW 3274   6.099   0.581   2.238
  792SOL    HW1 3275   6.049   0.502   2.200
  792SOL    HW2 3276   6.034   0.654   2.258
  793SOL     OW 3277   5.209   0.221   0.695
  793SOL    HW1 3278   5.119   0.177   0.690
  793SOL    HW2 3279   5.274   0.158   0.737
  794SOL     OW 3280   2.573   4.458   5.557
  794SOL    HW1 3281   2.616   4.445   5.468
  794SOL    HW2 3282   2.475   4.438   5.551
  795SOL     OW 3283   4.040   4.977   5.808
  795SOL    HW1 3284   4.113   5.043   5.790
  795SOL    HW2 3285   4.011   4.984   5.904
  796SOL     OW 3286   6.903   2.848   5.930
  796SOL    HW1 3287   6.820   2.826   5.981
  796SOL    HW2 3288   6.888   2.831   5.832
  797SOL     OW 3289   6.173   2.485   3.553
  797SOL    HW1 3290   6.124   2.398   3.552
  797SOL    HW2 3291   6.152   2.534   3.638
  798SOL     OW 3292   5.417   0.592   0.088
  798SOL    HW1 3293   5.350   0.522   0.063
  798SOL    HW2 3294   5.427   0.595   0.187
  799SOL     OW 3295   6.831   1.950   3.386
  799SOL    HW1 3296   6.853   1.866   3.436
  799SOL    HW2 3297   6.915   2.003   3.372
  800SOL     OW 3298   5.144   0.955   2.370
  800SOL    HW1 3299   5.066   0.923   2.316
  800SOL    HW2 3300   5.113   0.979   2.462
  801SOL     OW 3301   0.563   2.127   3.371
  801SOL    HW1 3302   0.531   2.082   3.455
  801SOL    HW2 3303   0.490   2.126   3.303
  802SOL     OW 3304   5.475   1.309   0.488
  802SOL    HW1 3305   5.450   1.305   0.391
  802SOL    HW2 3306   5.431   1.234   0.536
  803SOL     OW 3307   6.386   5.097   4.065
  803SOL    HW1 3308   6.322   5.172   4.083
  803SOL    HW2 3309   6.385   5.075   3.968
  804SOL     OW 3310   0.307   6.650   0.437
  804SOL    HW1 3311   0.298   6.733   0.491
  804SOL    HW2 3312   0.398   6.611   0.450
  805SOL     OW 3313   3.343   2.760   5.938
  805SOL    HW1 3314   3.387   2.685   5.889
  805SOL    HW2 3315   3.391   2.845   5.919
  806SOL     OW 3316   5.029   2.236   6.518
  806SOL    HW1 3317   5.032   2.306   6.589
  806SOL    HW2 3318   5.117   2.234   6.470
  807SOL     OW 3319   1.101   0.642   3.308
  807SOL    HW1 3320   1.168   0.683   3.247
  807SOL    HW2 3321   1.058   0.714   3.363
  808SOL     OW 3322   5.236   3.040   5.903
  808SOL    HW1 3323   5.166   2.969   5.913
  808SOL    HW2 3324   5.256   3.053   5.806
  809SOL     OW 3325   0.901   4.462   0.392
  809SOL    HW1 3326   0.871   4.555   0.373
  809SOL    HW2 3327   0.905   4.410   0.307
  810SOL     OW 3328   5.177   3.802   0.620
  810SOL    HW1 3329   5.103   3.763   0.565
  810SOL    HW2 3330   5.196   3.895   0.590
  811SOL     OW 3331   5.167   5.083   3.839
  811SOL    HW1 3332   5.135   5.123   3.925
  811SOL    HW2 3333   5.159   4.983   3.844
  812SOL     OW 3334   0.279   0.198   1.329
  812SOL    HW1 3335   0.358   0.232   1.380
  812SOL    HW2 3336   0.284   0.098   1.322
  813SOL     OW 3337   4.432   5.662   2.719
  813SOL    HW1 3338   4.433   5.739   2.655
  813SOL    HW2 3339   4.456   5.578   2.671
  814SOL     OW 3340   5.522   6.348   2.069
  814SOL    HW1 3341   5.518   6.435   2.021
  814SOL    HW2 3342   5.618   6.324   2.086
  815SOL     OW 3343   6.585   2.749   0.797
  815SOL    HW1 3344   6.670   2.718   0.754
  815SOL    HW2 3345   6.527   2.794   0.729
  816SOL     OW 3346   6.839   6.280   0.778
  816SOL    HW1 3347   6.856   6.379   0.774
  816SOL    HW2 3348   6.779   6.254   0.702
  817SOL     OW 3349   1.716   3.477   1.980
  817SOL    HW1 3350   1.653   3.544   1.941
  817SOL    HW2 3351   1.809   3.494   1.946
  818SOL     OW 3352   6.156   2.067   0.718
  818SOL    HW1 3353   6.123   2.136   0.653
  818SOL    HW2 3354   6.106   1.982   0.705
  819SOL     OW 3355   6.844   2.176   3.615
  819SOL    HW1 3356   6.942   2.193   3.603
  819SOL    HW2 3357   6.791   2.253   3.578
  820SOL     OW 3358   0.835   2.633   4.295
  820SOL    HW1 3359   0.794   2.682   4.371
  820SOL    HW2 3360   0.930   2.610   4.317
  821SOL     OW 3361   1.327   4.059   0.276
  821SOL    HW1 3362   1.268   4.104   0.209
  821SOL    HW2 3363   1.367   4.127   0.337
  822SOL     OW 3364   1.102   4.175   4.742
  822SOL    HW1 3365   1.043   4.126   4.677
  822SOL    HW2 3366   1.190   4.128   4.749
  823SOL     OW 3367   4.706   3.740   6.698
  823SOL    HW1 3368   4.671   3.684   6.622
  823SOL    HW2 3369   4.682   3.696   6.785
  824SOL     OW 3370   4.729   2.704   5.407
  824SOL    HW1 3371   4.723   2.679   5.310
  824SOL    HW2 3372   4.803   2.770   5.419
  825SOL     OW 3373   2.176   3.232   2.515
  825SOL    HW1 3374   2.200   3.200   2.423
  825SOL    HW2 3375   2.251   3.288   2.551
  826SOL     OW 3376   5.696   3.263   6.932
  826SOL    HW1 3377   5.704   3.361   6.919
  826SOL    HW2 3378   5.785   3.220   6.914
  827SOL     OW 3379   3.733   5.617   0.089
  827SOL    HW1 3380   3.736   5.518   0.081
  827SOL    HW2 3381   3.826   5.653   0.097
  828SOL     OW 3382   5.623   0.758   5.299
  828SOL    HW1 3383   5.542   0.814   5.320
  828SOL    HW2 3384   5.697   0.783   5.361
  829SOL     OW 3385   3.013   3.210   4.305
  829SOL    HW1 3386   3.024   3.188   4.401
  829SOL    HW2 3387   2.936   3.272   4.293
  830SOL     OW 3388   4.667   4.011   5.276
  830SOL    HW1 3389   4.667   4.042   5.371
  830SOL    HW2 3390   4.592   3.947   5.261
  831SOL     OW 3391   5.928   0.767   5.060
  831SOL    HW1 3392   5.947   0.865   5.051
  831SOL    HW2 3393   5.960   0.735   5.149
  832SOL     OW 3394   1.888   1.943   0.087
  832SOL    HW1 3395   1.973   1.961   0.037
  832SOL    HW2 3396   1.900   1.862   0.145
  833SOL     OW 3397   6.414   6.832   6.674
  833SOL    HW1 3398   6.488   6.861   6.735
  833SOL    HW2 3399   6.391   6.907   6.612
  834SOL     OW 3400   3.144   3.610   4.313
  834SOL    HW1 3401   3.106   3.583   4.225
  834SOL    HW2 3402   3.139   3.710   4.322
  835SOL     OW 3403   2.951   6.559   4.046
  835SOL    HW1 3404   2.897   6.555   4.130
  835SOL    HW2 3405   2.893   6.586   3.970
  836SOL     OW 3406   3.131   0.359   0.300
  836SOL    HW1 3407   3.153   0.448   0.262
  836SOL    HW2 3408   3.215   0.311   0.325
  837SOL     OW 3409   5.065   0.647   6.200
  837SOL    HW1 3410   5.102   0.704   6.273
  837SOL    HW2 3411   4.969   0.669   6.185
  838SOL     OW 3412   2.112   5.779   4.198
  838SOL    HW1 3413   2.027   5.820   4.165
  838SOL    HW2 3414   2.120   5.792   4.297
  839SOL     OW 3415   2.965   1.557   3.408
  839SOL    HW1 3416   2.943   1.654   3.415
  839SOL    HW2 3417   2.936   1.510   3.491
  840SOL     OW 3418   1.201   1.005   6.930
  840SOL    HW1 3419   1.188   1.088   6.986
  840SOL    HW2 3420   1.237   0.932   6.987
  841SOL     OW 3421   6.771   3.692   0.117
  841SOL    HW1 3422   6.720   3.728   0.195
  841SOL    HW2 3423   6.853   3.645   0.150
  842SOL     OW 3424   3.732   5.168   3.376
  842SOL    HW1 3425   3.805   5.198   3.315
  842SOL    HW2 3426   3.669   5.108   3.326
  843SOL     OW 3427   6.373   2.217   2.079
  843SOL    HW1 3428   6.334   2.251   2.165
  843SOL    HW2 3429   6.318   2.141   2.046
  844SOL     OW 3430   5.159   5.909   0.398
  844SOL    HW1 3431   5.131   5.967   0.474
  844SOL    HW2 3432   5.082   5.855   0.366
  845SOL     OW 3433   0.045   4.366   4.485
  845SOL    HW1 3434   0.137   4.386   4.449
  845SOL    HW2 3435   7.000   4.407   4.424
  846SOL     OW 3436   6.303   1.394   6.969
  846SOL    HW1 3437   6.319   1.490   6.946
  846SOL    HW2 3438   6.363   1.336   6.915
  847SOL     OW 3439   5.245   3.198   1.579
  847SOL    HW1 3440   5.173   3.192   1.648
  847SOL    HW2 3441   5.316   3.261   1.610
  848SOL     OW 3442   6.361   0.287   5.652
  848SOL    HW1 3443   6.265   0.313   5.637
  848SOL    HW2 3444   6.383   0.207   5.596
  849SOL     OW 3445   0.324   5.030   4.857
  849SOL    HW1 3446   0.286   4.949   4.901
  849SOL    HW2 3447   0.415   5.049   4.894
  850SOL     OW 3448   4.217   1.309   3.014
  850SOL    HW1 3449   4.262   1.346   2.933
  850SOL    HW2 3450   4.149   1.241   2.986
  851SOL     OW 3451   0.642   1.015   0.129
  851SOL    HW1 3452   0.609   0.957   0.054
  851SOL    HW2 3453   0.686   1.096   0.090
  852SOL     OW 3454   2.193   3.041   6.500
  852SOL    HW1 3455   2.237   2.992   6.575
  852SOL    HW2 3456   2.150   3.124   6.534
  853SOL     OW 3457   1.344   2.903   1.694
  853SOL    HW1 3458   1.282   2.970   1.735
  853SOL    HW2 3459   1.402   2.947   1.626
  854SOL     OW 3460   5.452   5.574   2.911
  854SOL    HW1 3461   5.462   5.673   2.919
  854SOL    HW2 3462   5.386   5.541   2.978
  855SOL     OW 3463   5.946   0.072   2.002
  855SOL    HW1 3464   6.046   0.070   2.006
  855SOL    HW2 3465   5.910   7.006   2.029
  856SOL     OW 3466   2.089   5.942   5.176
  856SOL    HW1 3467   2.050   5.925   5.086
  856SOL    HW2 3468   2.186   5.965   5.167
  857SOL     OW 3469   5.813   3.080   1.079
  857SOL    HW1 3470   5.884   3.150   1.085
  857SOL    HW2 3471   5.825   3.027   0.995
  858SOL     OW 3472   3.316   5.281   1.575
  858SOL    HW1 3473   3.322   5.380   1.583
  858SOL    HW2 3474   3.393   5.239   1.623
  859SOL     OW 3475   0.219   4.743   6.996
  859SOL    HW1 3476   0.128   4.711   7.022
  859SOL    HW2 3477   0.288   4.682   0.013
  860SOL     OW 3478   2.712   4.600   0.995
  860SOL    HW1 3479   2.673   4.556   1.075
  860SOL    HW2 3480   2.785   4.543   0.958
  861SOL     OW 3481   3.067   5.827   5.441
  861SOL    HW1 3482   2.978   5.806   5.402
  861SOL    HW2 3483   3.061   5.912   5.494
  862SOL     OW 3484   5.137   4.072   4.572
  862SOL    HW1 3485   5.169   3.992   4.523
  862SOL    HW2 3486   5.111   4.046   4.666
  863SOL     OW 3487   0.036   0.781   1.047
  863SOL    HW1 3488   0.077   0.744   1.131
  863SOL    HW2 3489   6.960   0.790   1.060
  864SOL     OW 3490   6.016   4.124   2.452
  864SOL    HW1 3491   5.999   4.163   2.361
  864SOL    HW2 3492   6.026   4.198   2.518
  865SOL     OW 3493   1.932   6.900   4.144
  865SOL    HW1 3494   2.023   6.941   4.146
  865SOL    HW2 3495   1.917   6.857   4.055
  866SOL     OW 3496   3.297   2.151   1.925
  866SOL    HW1 3497   3.212   2.115   1.962
  866SOL    HW2 3498   3.375   2.102   1.964
  867SOL     OW 3499   2.704   2.724   6.795
  867SOL    HW1 3500   2.623   2.673   6.825
  867SOL    HW2 3501   2.702   2.816   6.833
  868SOL     OW 3502   5.650   1.279   3.072
  868SOL    HW1 3503   5.669   1.376   3.088
  868SOL    HW2 3504   5.683   1.254   2.981
  869SOL     OW 3505   6.175   5.844   1.605
  869SOL    HW1 3506   6.164   5.825   1.507
  869SOL    HW2 3507   6.096   5.894   1.639
  870SOL     OW 3508   6.421   2.200   1.254
  870SOL    HW1 3509   6.423   2.253   1.339
  870SOL    HW2 3510   6.503   2.222   1.200
  871SOL     OW 3511   5.991   2.332   1.397
  871SOL    HW1 3512   5.899   2.344   1.361
  871SOL    HW2 3513   6.025   2.419   1.432
  872SOL     OW 3514   6.799   2.465   3.919
  872SOL    HW1 3515   6.850   2.478   3.834
  872SOL    HW2 3516   6.728   2.535   3.927
  873SOL     OW 3517   3.125   6.697   4.294
  873SOL    HW1 3518   3.089   6.698   4.387
  873SOL    HW2 3519   3.172   6.611   4.277
  874SOL     OW 3520   1.445   3.989   5.265
  874SOL    HW1 3521   1.496   4.058   5.213
  874SOL    HW2 3522   1.348   4.011   5.263
  875SOL     OW 3523   5.651   3.680   0.267
  875SOL    HW1 3524   5.595   3.607   0.307
  875SOL    HW2 3525   5.683   3.652   0.177
  876SOL     OW 3526   0.117   3.442   1.876
  876SOL    HW1 3527   0.123   3.514   1.807
  876SOL    HW2 3528   0.022   3.434   1.907
  877SOL     OW 3529   4.865   5.665   6.984
  877SOL    HW1 3530   4.863   5.590   0.027
  877SOL    HW2 3531   4.773   5.682   6.948
  878SOL     OW 3532   2.971   5.023   0.578
  878SOL    HW1 3533   3.070   5.034   0.587
  878SOL    HW2 3534   2.926   5.064   0.657
  879SOL     OW 3535   4.210   2.300   2.817
  879SOL    HW1 3536   4.289   2.315   2.759
  879SOL    HW2 3537   4.132   2.270   2.761
  880SOL     OW 3538   3.595   5.361   0.561
  880SOL    HW1 3539   3.538   5.440   0.538
  880SOL    HW2 3540   3.659   5.344   0.486
  881SOL     OW 3541   3.636   5.033   4.659
  881SOL    HW1 3542   3.695   5.051   4.580
  881SOL    HW2 3543   3.551   4.990   4.628
  882SOL     OW 3544   1.373   0.448   4.088
  882SOL    HW1 3545   1.385   0.439   3.990
  882SOL    HW2 3546   1.423   0.375   4.135
  883SOL     OW 3547   3.171   5.609   6.282
  883SOL    HW1 3548   3.116   5.538   6.238
  883SOL    HW2 3549   3.262   5.573   6.303
  884SOL     OW 3550   5.251   3.056   1.912
  884SOL    HW1 3551   5.218   2.984   1.973
  884SOL    HW2 3552   5.173   3.102   1.869
  885SOL     OW 3553   5.654   6.305   0.604
  885SOL    HW1 3554   5.559   6.273   0.613
  885SOL    HW2 3555   5.660   6.401   0.631
  886SOL     OW 3556   4.696   1.847   6.676
  886SOL    HW1 3557   4.687   1.938   6.635
  886SOL    HW2 3558   4.653   1.779   6.616
  887SOL     OW 3559   4.008   6.574   5.428
  887SOL    HW1 3560   4.048   6.663   5.451
  887SOL    HW2 3561   3.986   6.525   5.512
  888SOL     OW 3562   6.340   5.834   3.253
  888SOL    HW1 3563   6.274   5.795   3.189
  888SOL    HW2 3564   6.332   5.933   3.253
  889SOL     OW 3565   0.444   6.474   5.014
  889SOL    HW1 3566   0.469   6.436   4.924
  889SOL    HW2 3567   0.503   6.552   5.034
  890SOL     OW 3568   2.570   4.611   2.221
  890SOL    HW1 3569   2.517   4.572   2.146
  890SOL    HW2 3570   2.667   4.616   2.194
  891SOL     OW 3571   5.332   3.020   6.939
  891SOL    HW1 3572   5.335   2.957   6.861
  891SOL    HW2 3573   5.357   3.112   6.909
  892SOL     OW 3574   2.634   4.873   1.017
  892SOL    HW1 3575   2.667   4.780   1.004
  892SOL    HW2 3576   2.550   4.872   1.072
  893SOL     OW 3577   1.115   0.331   0.020
  893SOL    HW1 3578   1.097   0.234   0.041
  893SOL    HW2 3579   1.148   0.339   6.949
  894SOL     OW 3580   0.983   5.449   4.283
  894SOL    HW1 3581   0.972   5.544   4.313
  894SOL    HW2 3582   1.062   5.442   4.222
  895SOL     OW 3583   2.277   6.501   4.797
  895SOL    HW1 3584   2.235   6.471   4.882
  895SOL    HW2 3585   2.238   6.589   4.770
  896SOL     OW 3586   5.820   6.983   2.697
  896SOL    HW1 3587   5.903   6.927   2.701
  896SOL    HW2 3588   5.753   6.948   2.762
  897SOL     OW 3589   5.073   1.904   6.233
  897SOL    HW1 3590   5.080   1.817   6.185
  897SOL    HW2 3591   5.164   1.945   6.241
  898SOL     OW 3592   5.770   6.434   3.197
  898SOL    HW1 3593   5.742   6.461   3.105
  898SOL    HW2 3594   5.700   6.462   3.263
  899SOL     OW 3595   0.588   4.511   5.803
  899SOL    HW1 3596   0.533   4.584   5.762
  899SOL    HW2 3597   0.600   4.530   5.901
  900SOL     OW 3598   0.829   5.467   3.294
  900SOL    HW1 3599   0.895   5.501   3.227
  900SOL    HW2 3600   0.742   5.516   3.283
  901SOL     OW 3601   5.935   1.342   4.236
  901SOL    HW1 3602   5.933   1.258   4.290
  901SOL    HW2 3603   5.990   1.410   4.284
  902SOL     OW 3604   0.087   6.494   0.573
  902SOL    HW1 3605   0.028   6.525   0.648
  902SOL    HW2 3606   0.106   6.571   0.512
  903SOL     OW 3607   1.248   4.828   0.412
  903SOL    HW1 3608   1.335   4.877   0.428
  903SOL    HW2 3609   1.182   4.890   0.371
  904SOL     OW 3610   1.790   1.662   3.498
  904SOL    HW1 3611   1.736   1.734   3.542
  904SOL    HW2 3612   1.860   1.629   3.562
  905SOL     OW 3613   5.753   1.939   5.132
  905SOL    HW1 3614   5.701   1.860   5.165
  905SOL    HW2 3615   5.722   1.963   5.040
  906SOL     OW 3616   6.399   3.300   6.034
  906SOL    HW1 3617   6.303   3.293   6.008
  906SOL    HW2 3618   6.448   3.357   5.968
  907SOL     OW 3619   6.009   2.179   2.686
  907SOL    HW1 3620   6.092   2.125   2.699
  907SOL    HW2 3621   6.017   2.265   2.735
  908SOL     OW 3622   1.817   1.025   4.046
  908SOL    HW1 3623   1.720   1.044   4.061
  908SOL    HW2 3624   1.868   1.048   4.130
  909SOL     OW 3625   4.144   1.382   1.892
  909SOL    HW1 3626   4.141   1.433   1.807
  909SOL    HW2 3627   4.234   1.340   1.903
  910SOL     OW 3628   2.203   1.575   0.718
  910SOL    HW1 3629   2.109   1.604   0.699
  910SOL    HW2 3630   2.253   1.566   0.632
  911SOL     OW 3631   0.269   4.661   1.314
  911SOL    HW1 3632   0.170   4.660   1.297
  911SOL    HW2 3633   0.300   4.756   1.322
  912SOL     OW 3634   0.521   6.620   5.976
  912SOL    HW1 3635   0.576   6.609   6.059
  912SOL    HW2 3636   0.582   6.627   5.897
  913SOL     OW 3637   3.135   0.760   2.423
  913SOL    HW1 3638   3.196   0.792   2.351
  913SOL    HW2 3639   3.181   0.770   2.512
  914SOL     OW 3640   3.016   6.321   2.559
  914SOL    HW1 3641   2.983   6.377   2.635
  914SOL    HW2 3642   3.032   6.228   2.591
  915SOL     OW 3643   0.477   2.763   0.725
  915SOL    HW1 3644   0.385   2.774   0.761
  915SOL    HW2 3645   0.475   2.703   0.645
  916SOL     OW 3646   2.151   3.012   2.688
  916SOL    HW1 3647   2.183   2.937   2.629
  916SOL    HW2 3648   2.164   3.099   2.641
  917SOL     OW 3649   3.905   1.725   0.433
  917SOL    HW1 3650   3.894   1.626   0.428
  917SOL    HW2 3651   3.848   1.761   0.507
  918SOL     OW 3652   1.961   0.237   6.332
  918SOL    HW1 3653   2.015   0.303   6.384
  918SOL    HW2 3654   1.974   0.146   6.371
  919SOL     OW 3655   2.739   6.135   2.376
  919SOL    HW1 3656   2.707   6.095   2.462
  919SOL    HW2 3657   2.764   6.231   2.391
  920SOL     OW 3658   1.949   1.120   3.822
  920SOL    HW1 3659   2.004   1.061   3.764
  920SOL    HW2 3660   1.907   1.066   3.896
  921SOL     OW 3661   5.646   5.610   4.884
  921SOL    HW1 3662   5.660   5.584   4.979
  921SOL    HW2 3663   5.567   5.560   4.847
  922SOL     OW 3664   2.749   3.476   6.506
  922SOL    HW1 3665   2.799   3.407   6.454
  922SOL    HW2 3666   2.755   3.565   6.459
  923SOL     OW 3667   3.255   0.096   6.401
  923SOL    HW1 3668   3.165   0.065   6.432
  923SOL    HW2 3669   3.323   0.025   6.420
  924SOL     OW 3670   5.532   2.742   3.260
  924SOL    HW1 3671   5.614   2.729   3.316
  924SOL    HW2 3672   5.525   2.838   3.234
  925SOL     OW 3673   0.183   1.405   3.654
  925SOL    HW1 3674   0.135   1.343   3.716
  925SOL    HW2 3675   0.281   1.389   3.658
  926SOL     OW 3676   5.311   5.927   0.683
  926SOL    HW1 3677   5.332   5.933   0.781
  926SOL    HW2 3678   5.293   5.831   0.660
  927SOL     OW 3679   3.779   4.964   4.900
  927SOL    HW1 3680   3.714   4.969   4.825
  927SOL    HW2 3681   3.736   4.996   4.985
  928SOL     OW 3682   1.794   1.784   1.022
  928SOL    HW1 3683   1.838   1.694   1.017
  928SOL    HW2 3684   1.718   1.787   0.959
  929SOL     OW 3685   0.044   2.435   2.417
  929SOL    HW1 3686   0.002   2.457   2.329
  929SOL    HW2 3687   7.014   2.479   2.490
  930SOL     OW 3688   5.275   5.874   4.363
  930SOL    HW1 3689   5.230   5.803   4.418
  930SOL    HW2 3690   5.310   5.946   4.423
  931SOL     OW 3691   1.696   2.740   2.501
  931SOL    HW1 3692   1.607   2.782   2.482
  931SOL    HW2 3693   1.761   2.810   2.529
  932SOL     OW 3694   4.571   6.670   0.976
  932SOL    HW1 3695   4.618   6.666   0.888
  932SOL    HW2 3696   4.473   6.686   0.961
  933SOL     OW 3697   2.052   5.637   2.816
  933SOL    HW1 3698   2.041   5.716   2.876
  933SOL    HW2 3699   2.135   5.588   2.841
  934SOL     OW 3700   3.031   1.181   5.131
  934SOL    HW1 3701   3.128   1.159   5.126
  934SOL    HW2 3702   2.980   1.121   5.070
  935SOL     OW 3703   3.702   3.376   6.444
  935SOL    HW1 3704   3.665   3.461   6.406
  935SOL    HW2 3705   3.744   3.394   6.532
  936SOL     OW 3706   1.072   1.434   1.281
  936SOL    HW1 3707   1.049   1.530   1.260
  936SOL    HW2 3708   1.039   1.412   1.372
  937SOL     OW 3709   4.874   1.954   4.847
  937SOL    HW1 3710   4.794   1.999   4.807
  937SOL    HW2 3711   4.911   1.887   4.783
  938SOL     OW 3712   0.350   2.797   6.623
  938SOL    HW1 3713   0.306   2.820   6.709
  938SOL    HW2 3714   0.312   2.853   6.549
  939SOL     OW 3715   6.009   1.259   5.576
  939SOL    HW1 3716   6.101   1.256   5.537
  939SOL    HW2 3717   6.003   1.196   5.653
  940SOL     OW 3718   6.541   1.223   4.049
  940SOL    HW1 3719   6.631   1.210   4.092
  940SOL    HW2 3720   6.486   1.141   4.063
  941SOL     OW 3721   5.925   2.269   4.361
  941SOL    HW1 3722   5.917   2.182   4.314
  941SOL    HW2 3723   5.939   2.253   4.459
  942SOL     OW 3724   5.658   6.643   5.380
  942SOL    HW1 3725   5.757   6.629   5.368
  942SOL    HW2 3726   5.617   6.563   5.422
  943SOL     OW 3727   5.475   2.088   1.397
  943SOL    HW1 3728   5.387   2.046   1.375
  943SOL    HW2 3729   5.460   2.167   1.456
  944SOL     OW 3730   5.381   4.436   4.252
  944SOL    HW1 3731   5.447   4.362   4.259
  944SOL    HW2 3732   5.407   4.498   4.178
  945SOL     OW 3733   5.532   4.372   4.576
  945SOL    HW1 3734   5.440   4.411   4.566
  945SOL    HW2 3735   5.596   4.445   4.599
  946SOL     OW 3736   5.795   2.559   5.323
  946SOL    HW1 3737   5.790   2.512   5.235
  946SOL    HW2 3738   5.739   2.641   5.321
  947SOL     OW 3739   2.094   2.569   5.978
  947SOL    HW1 3740   2.012   2.543   6.030
  947SOL    HW2 3741   2.090   2.666   5.956
  948SOL     OW 3742   3.781   2.226   0.443
  948SOL    HW1 3743   3.794   2.164   0.365
  948SOL    HW2 3744   3.838   2.307   0.430
  949SOL     OW 3745   6.115   5.981   6.560
  949SOL    HW1 3746   6.177   5.967   6.483
  949SOL    HW2 3747   6.022   5.993   6.527
  950SOL     OW 3748   4.469   5.020   1.313
  950SOL    HW1 3749   4.514   5.109   1.300
  950SOL    HW2 3750   4.489   4.962   1.235
  951SOL     OW 3751   0.905   1.456   2.739
  951SOL    HW1 3752   0.859   1.395   2.804
  951SOL    HW2 3753   1.001   1.429   2.732
  952SOL     OW 3754   5.384   1.534   2.788
  952SOL    HW1 3755   5.401   1.489   2.876
  952SOL    HW2 3756   5.409   1.630   2.795
  953SOL     OW 3757   4.805   6.475   6.805
  953SOL    HW1 3758   4.778   6.412   6.878
  953SOL    HW2 3759   4.893   6.445   6.767
  954SOL     OW 3760   6.318   6.609   0.436
  954SOL    HW1 3761   6.224   6.575   0.429
  954SOL    HW2 3762   6.318   6.708   0.444
  955SOL     OW 3763   0.509   6.699   2.709
  955SOL    HW1 3764   0.537   6.723   2.803
  955SOL    HW2 3765   0.457   6.614   2.711
  956SOL     OW 3766   1.481   2.664   1.161
  956SOL    HW1 3767   1.527   2.700   1.080
  956SOL    HW2 3768   1.471   2.736   1.229
  957SOL     OW 3769   1.683   5.612   4.309
  957SOL    HW1 3770   1.711   5.557   4.231
  957SOL    HW2 3771   1.653   5.702   4.278
  958SOL     OW 3772   4.561   2.505   1.304
  958SOL    HW1 3773   4.529   2.451   1.382
  958SOL    HW2 3774   4.523   2.597   1.310
  959SOL     OW 3775   2.112   4.779   3.005
  959SOL    HW1 3776   2.067   4.854   3.054
  959SOL    HW2 3777   2.060   4.758   2.922
  960SOL     OW 3778   1.369   5.675   4.192
  960SOL    HW1 3779   1.378   5.576   4.181
  960SOL    HW2 3780   1.280   5.704   4.158
  961SOL     OW 3781   4.148   0.153   1.861
  961SOL    HW1 3782   4.146   0.072   1.919
  961SOL    HW2 3783   4.081   0.219   1.893
  962SOL     OW 3784   2.201   0.397   4.131
  962SOL    HW1 3785   2.136   0.438   4.068
  962SOL    HW2 3786   2.166   0.308   4.162
  963SOL     OW 3787   6.607   0.241   0.797
  963SOL    HW1 3788   6.676   0.179   0.834
  963SOL    HW2 3789   6.523   0.190   0.777
  964SOL     OW 3790   5.775   3.368   1.770
  964SOL    HW1 3791   5.782   3.464   1.743
  964SOL    HW2 3792   5.713   3.321   1.708
  965SOL     OW 3793   0.263   2.188   0.583
  965SOL    HW1 3794   0.166   2.193   0.603
  965SOL    HW2 3795   0.284   2.099   0.542
  966SOL     OW 3796   6.630   2.486   2.764
  966SOL    HW1 3797   6.654   2.403   2.715
  966SOL    HW2 3798   6.541   2.475   2.808
  967SOL     OW 3799   1.693   5.977   1.721
  967SOL    HW1 3800   1.673   6.033   1.641
  967SOL    HW2 3801   1.701   6.035   1.802
  968SOL     OW 3802   5.142   3.180   2.855
  968SOL    HW1 3803   5.102   3.270   2.838
  968SOL    HW2 3804   5.233   3.191   2.896
  969SOL     OW 3805   4.791   5.803   5.717
  969SOL    HW1 3806   4.774   5.787   5.620
  969SOL    HW2 3807   4.889   5.814   5.733
  970SOL     OW 3808   4.295   2.432   5.349
  970SOL    HW1 3809   4.317   2.503   5.416
  970SOL    HW2 3810   4.228   2.467   5.284
  971SOL     OW 3811   6.437   1.389   1.711
  971SOL    HW1 3812   6.448   1.371   1.809
  971SOL    HW2 3813   6.512   1.348   1.660
  972SOL     OW 3814   6.382   5.000   0.813
  972SOL    HW1 3815   6.390   5.068   0.885
  972SOL    HW2 3816   6.330   5.039   0.736
  973SOL     OW 3817   5.616   4.498   5.511
  973SOL    HW1 3818   5.654   4.545   5.432
  973SOL    HW2 3819   5.680   4.503   5.587
  974SOL     OW 3820   2.453   0.985   3.658
  974SOL    HW1 3821   2.436   1.056   3.726
  974SOL    HW2 3822   2.444   1.025   3.566
  975SOL     OW 3823   3.119   6.417   5.454
  975SOL    HW1 3824   3.068   6.415   5.540
  975SOL    HW2 3825   3.061   6.454   5.382
  976SOL     OW 3826   0.069   4.515   3.358
  976SOL    HW1 3827   0.133   4.557   3.422
  976SOL    HW2 3828   0.052   4.420   3.384
  977SOL     OW 3829   2.067   0.928   3.620
  977SOL    HW1 3830   1.975   0.901   3.590
  977SOL    HW2 3831   2.134   0.862   3.586
  978SOL     OW 3832   5.412   3.622   4.244
  978SOL    HW1 3833   5.385   3.555   4.174
  978SOL    HW2 3834   5.498   3.665   4.218
  979SOL     OW 3835   6.185   0.886   2.818
  979SOL    HW1 3836   6.251   0.888   2.894
  979SOL    HW2 3837   6.114   0.954   2.835
  980SOL     OW 3838   5.758   2.014   4.473
  980SOL    HW1 3839   5.752   2.051   4.380
  980SOL    HW2 3840   5.718   1.923   4.475
  981SOL     OW 3841   0.664   2.040   5.022
  981SOL    HW1 3842   0.704   1.993   5.100
  981SOL    HW2 3843   0.564   2.030   5.024
  982SOL     OW 3844   0.769   3.440   1.898
  982SOL    HW1 3845   0.737   3.534   1.891
  982SOL    HW2 3846   0.734   3.399   1.982
  983SOL     OW 3847   6.299   2.143   3.033
  983SOL    HW1 3848   6.332   2.070   3.094
  983SOL    HW2 3849   6.328   2.232   3.069
  984SOL     OW 3850   4.278   1.918   4.175
  984SOL    HW1 3851   4.344   1.849   4.146
  984SOL    HW2 3852   4.190   1.899   4.132
  985SOL     OW 3853   3.495   5.610   0.816
  985SOL    HW1 3854   3.543   5.676   0.757
  985SOL    HW2 3855   3.556   5.583   0.891
  986SOL     OW 3856   4.320   5.019   6.342
  986SOL    HW1 3857   4.326   4.979   6.433
  986SOL    HW2 3858   4.228   5.057   6.328
  987SOL     OW 3859   4.166   6.631   2.772
  987SOL    HW1 3860   4.099   6.614   2.844
  987SOL    HW2 3861   4.134   6.590   2.686
  988SOL     OW 3862   3.909   3.392   1.281
  988SOL    HW1 3863   3.990   3.449   1.267
  988SOL    HW2 3864   3.929   3.298   1.253
  989SOL     OW 3865   0.573   6.934   5.538
  989SOL    HW1 3866   0.501   6.995   5.571
  989SOL    HW2 3867   0.553   6.906   5.444
  990SOL     OW 3868   4.517   0.705   3.935
  990SOL    HW1 3869   4.581   0.766   3.982
  990SOL    HW2 3870   4.543   0.610   3.953
  991SOL     OW 3871   0.448   1.695   5.195
  991SOL    HW1 3872   0.490   1.716   5.283
  991SOL    HW2 3873   0.387   1.617   5.205
  992SOL     OW 3874   0.374   3.547   0.168
  992SOL    HW1 3875   0.334   3.458   0.144
  992SOL    HW2 3876   0.344   3.616   0.103
  993SOL     OW 3877   2.876   4.786   2.964
  993SOL    HW1 3878   2.843   4.737   3.045
  993SOL    HW2 3879   2.800   4.801   2.901
  994SOL     OW 3880   3.108   3.042   3.059
  994SOL    HW1 3881   3.151   3.007   3.143
  994SOL    HW2 3882   3.032   3.102   3.084
  995SOL     OW 3883   1.884   1.661   5.339
  995SOL    HW1 3884   1.814   1.717   5.382
  995SOL    HW2 3885   1.860   1.646   5.243
  996SOL     OW 3886   2.192   3.895   2.817
  996SOL    HW1 3887   2.136   3.813   2.807
  996SOL    HW2 3888   2.276   3.872   2.865
  997SOL     OW 3889   0.435   0.888   1.731
  997SOL    HW1 3890   0.462   0.981   1.758
  997SOL    HW2 3891   0.435   0.829   1.812
  998SOL     OW 3892   4.217   6.952   2.508
  998SOL    HW1 3893   4.265   6.912   2.431
  998SOL    HW2 3894   4.145   7.013   2.475
  999SOL     OW 3895   6.679   5.454   1.297
  999SOL    HW1 3896   6.688   5.380   1.364
  999SOL    HW2 3897   6.732   5.533   1.328
 1000SOL     OW 3898   3.139   2.193   4.083
 1000SOL    HW1 3899   3.092   2.214   3.997
 1000SOL    HW2 3900   3.237   2.185   4.066
 1001SOL     OW 3901   5.024   0.267   5.543
 1001SOL    HW1 3902   5.119   0.263   5.576
 1001SOL    HW2 3903   4.988   0.359   5.556
 1002SOL     OW 3904   6.016   1.419   0.309
 1002SOL    HW1 3905   6.106   1.377   0.313
 1002SOL    HW2 3906   5.951   1.355   0.268
 1003SOL     OW 3907   3.553   6.210   2.633
 1003SOL    HW1 3908   3.600   6.122   2.642
 1003SOL    HW2 3909   3.592   6.260   2.556
 1004SOL     OW 3910   6.819   6.883   0.252
 1004SOL    HW1 3911   6.887   6.890   0.324
 1004SOL    HW2 3912   6.850   6.816   0.183
 1005SOL     OW 3913   0.829   0.096   3.011
 1005SOL    HW1 3914   0.822   0.196   3.017
 1005SOL    HW2 3915   0.778   0.054   3.086
 1006SOL     OW 3916   2.405   4.968   1.143
 1006SOL    HW1 3917   2.355   5.030   1.082
 1006SOL    HW2 3918   2.356   4.960   1.229
 1007SOL     OW 3919   0.085   1.049   3.528
 1007SOL    HW1 3920   0.017   1.060   3.601
 1007SOL    HW2 3921   0.128   0.959   3.537
 1008SOL     OW 3922   1.477   3.376   4.020
 1008SOL    HW1 3923   1.397   3.372   3.959
 1008SOL    HW2 3924   1.518   3.285   4.027
 1009SOL     OW 3925   0.758   6.335   4.765
 1009SOL    HW1 3926   0.834   6.396   4.740
 1009SOL    HW2 3927   0.749   6.332   4.864
 1010SOL     OW 3928   4.409   2.566   0.657
 1010SOL    HW1 3929   4.355   2.649   0.668
 1010SOL    HW2 3930   4.366   2.507   0.589
 1011SOL     OW 3931   2.317   5.648   3.651
 1011SOL    HW1 3932   2.368   5.730   3.625
 1011SOL    HW2 3933   2.293   5.653   3.748
 1012SOL     OW 3934   5.419   5.190   0.147
 1012SOL    HW1 3935   5.445   5.287   0.157
 1012SOL    HW2 3936   5.366   5.179   0.063
 1013SOL     OW 3937   0.851   0.970   0.869
 1013SOL    HW1 3938   0.878   0.980   0.773
 1013SOL    HW2 3939   0.909   0.901   0.913
 1014SOL     OW 3940   4.960   6.198   6.043
 1014SOL    HW1 3941   5.024   6.185   5.966
 1014SOL    HW2 3942   5.012   6.200   6.129
 1015SOL     OW 3943   3.648   5.975   4.637
 1015SOL    HW1 3944   3.735   6.022   4.617
 1015SOL    HW2 3945   3.640   5.959   4.735
 1016SOL     OW 3946   3.793   2.675   1.065
 1016SOL    HW1 3947   3.760   2.583   1.046
 1016SOL    HW2 3948   3.891   2.680   1.044
 1017SOL     OW 3949   4.244   2.788   0.360
 1017SOL    HW1 3950   4.240   2.688   0.354
 1017SOL    HW2 3951   4.338   2.819   0.346
 1018SOL     OW 3952   1.025   2.505   3.452
 1018SOL    HW1 3953   0.966   2.475   3.377
 1018SOL    HW2 3954   1.027   2.605   3.456
 1019SOL     OW 3955   0.236   1.697   6.687
 1019SOL    HW1 3956   0.335   1.691   6.678
 1019SOL    HW2 3957   0.207   1.791   6.670
 1020SOL     OW 3958   2.440   1.310   1.409
 1020SOL    HW1 3959   2.390   1.344   1.489
 1020SOL    HW2 3960   2.536   1.336   1.415
 1021SOL     OW 3961   6.962   1.108   0.850
 1021SOL    HW1 3962   6.911   1.025   0.873
 1021SOL    HW2 3963   6.899   1.173   0.807
 1022SOL     OW 3964   4.172   3.632   5.990
 1022SOL    HW1 3965   4.078   3.618   5.958
 1022SOL    HW2 3966   4.174   3.708   6.055
 1023SOL     OW 3967   5.482   0.484   2.585
 1023SOL    HW1 3968   5.536   0.410   2.546
 1023SOL    HW2 3969   5.519   0.510   2.674
 1024SOL     OW 3970   6.800   1.488   3.970
 1024SOL    HW1 3971   6.827   1.535   3.885
 1024SOL    HW2 3972   6.785   1.392   3.951
 1025SOL     OW 3973   3.379   5.169   1.053
 1025SOL    HW1 3974   3.288   5.128   1.051
 1025SOL    HW2 3975   3.370   5.269   1.053
 1026SOL     OW 3976   2.185   1.837   0.062
 1026SOL    HW1 3977   2.245   1.830   7.005
 1026SOL    HW2 3978   2.121   1.761   0.062
 1027SOL     OW 3979   2.879   4.916   2.405
 1027SOL    HW1 3980   2.952   4.904   2.473
 1027SOL    HW2 3981   2.903   4.867   2.321
 1028SOL     OW 3982   1.646   5.989   0.775
 1028SOL    HW1 3983   1.710   5.963   0.703
 1028SOL    HW2 3984   1.610   6.081   0.757
 1029SOL     OW 3985   2.262   0.026   6.617
 1029SOL    HW1 3986   2.336   0.086   6.588
 1029SOL    HW2 3987   2.299   6.959   6.641
 1030SOL     OW 3988   4.203   3.799   5.272
 1030SOL    HW1 3989   4.176   3.784   5.177
 1030SOL    HW2 3990   4.185   3.716   5.325
 1031SOL     OW 3991   2.717   5.559   1.737
 1031SOL    HW1 3992   2.644   5.541   1.803
 1031SOL    HW2 3993   2.697   5.643   1.687
 1032SOL     OW 3994   1.440   1.249   4.560
 1032SOL    HW1 3995   1.462   1.314   4.488
 1032SOL    HW2 3996   1.342   1.250   4.578
 1033SOL     OW 3997   2.839   5.723   2.076
 1033SOL    HW1 3998   2.873   5.661   2.006
 1033SOL    HW2 3999   2.915   5.758   2.131
 1034SOL     OW 4000   2.269   4.896   3.700
 1034SOL    HW1 4001   2.180   4.883   3.655
 1034SOL    HW2 4002   2.340   4.904   3.630
 1035SOL     OW 4003   3.120   1.045   4.715
 1035SOL    HW1 4004   3.038   0.990   4.731
 1035SOL    HW2 4005   3.137   1.104   4.794
 1036SOL     OW 4006   4.354   2.770   0.956
 1036SOL    HW1 4007   4.387   2.678   0.980
 1036SOL    HW2 4008   4.357   2.782   0.857
 1037SOL     OW 4009   2.539   1.225   0.247
 1037SOL    HW1 4010   2.531   1.147   0.310
 1037SOL    HW2 4011   2.458   1.283   0.255
 1038SOL     OW 4012   1.939   1.233   5.236
 1038SOL    HW1 4013   1.870   1.192   5.294
 1038SOL    HW2 4014   1.988   1.305   5.286
 1039SOL     OW 4015   3.915   2.086   4.093
 1039SOL    HW1 4016   3.953   1.997   4.120
 1039SOL    HW2 4017   3.816   2.085   4.106
 1040SOL     OW 4018   6.127   4.396   2.813
 1040SOL    HW1 4019   6.208   4.408   2.869
 1040SOL    HW2 4020   6.045   4.421   2.865
 1041SOL     OW 4021   0.302   1.000   4.348
 1041SOL    HW1 4022   0.268   0.907   4.360
 1041SOL    HW2 4023   0.289   1.028   4.253
 1042SOL     OW 4024   5.463   5.034   0.794
 1042SOL    HW1 4025   5.427   5.092   0.720
 1042SOL    HW2 4026   5.555   5.004   0.770
 1043SOL     OW 4027   3.095   1.769   6.273
 1043SOL    HW1 4028   3.159   1.844   6.257
 1043SOL    HW2 4029   3.141   1.681   6.260
 1044SOL     OW 4030   3.757   3.370   1.697
 1044SOL    HW1 4031   3.699   3.289   1.710
 1044SOL    HW2 4032   3.849   3.341   1.673
 1045SOL     OW 4033   2.850   1.356   2.926
 1045SOL    HW1 4034   2.884   1.398   3.010
 1045SOL    HW2 4035   2.918   1.293   2.889
 1046SOL     OW 4036   3.957   0.143   1.016
 1046SOL    HW1 4037   3.923   0.203   1.088
 1046SOL    HW2 4038   3.928   0.178   0.927
 1047SOL     OW 4039   0.825   4.943   2.823
 1047SOL    HW1 4040   0.911   4.920   2.779
 1047SOL    HW2 4041   0.836   5.026   2.878
 1048SOL     OW 4042   4.721   4.285   5.187
 1048SOL    HW1 4043   4.635   4.239   5.211
 1048SOL    HW2 4044   4.718   4.313   5.091
 1049SOL     OW 4045   0.323   3.931   4.624
 1049SOL    HW1 4046   0.366   3.848   4.588
 1049SOL    HW2 4047   0.343   3.939   4.722
 1050SOL     OW 4048   3.598   0.262   6.920
 1050SOL    HW1 4049   3.612   0.167   6.894
 1050SOL    HW2 4050   3.686   0.303   6.945
 1051SOL     OW 4051   4.606   4.515   0.097
 1051SOL    HW1 4052   4.616   4.611   0.069
 1051SOL    HW2 4053   4.543   4.510   0.174
 1052SOL     OW 4054   3.766   0.337   5.116
 1052SOL    HW1 4055   3.832   0.397   5.072
 1052SOL    HW2 4056   3.700   0.391   5.167
 1053SOL     OW 4057   4.736   4.574   4.028
 1053SOL    HW1 4058   4.758   4.625   4.111
 1053SOL    HW2 4059   4.756   4.630   3.948
 1054SOL     OW 4060   3.429   5.258   4.534
 1054SOL    HW1 4061   3.524   5.237   4.558
 1054SOL    HW2 4062   3.381   5.290   4.616
 1055SOL     OW 4063   4.606   6.423   4.990
 1055SOL    HW1 4064   4.556   6.440   5.075
 1055SOL    HW2 4065   4.572   6.340   4.947
 1056SOL     OW 4066   1.624   6.382   5.520
 1056SOL    HW1 4067   1.573   6.305   5.481
 1056SOL    HW2 4068   1.661   6.354   5.609
 1057SOL     OW 4069   2.912   3.652   2.662
 1057SOL    HW1 4070   2.911   3.557   2.692
 1057SOL    HW2 4071   2.937   3.655   2.565
 1058SOL     OW 4072   3.231   1.506   1.668
 1058SOL    HW1 4073   3.230   1.500   1.768
 1058SOL    HW2 4074   3.159   1.567   1.637
 1059SOL     OW 4075   4.452   1.661   1.623
 1059SOL    HW1 4076   4.395   1.598   1.571
 1059SOL    HW2 4077   4.472   1.742   1.567
 1060SOL     OW 4078   1.504   2.013   5.732
 1060SOL    HW1 4079   1.565   1.992   5.809
 1060SOL    HW2 4080   1.523   2.104   5.698
 1061SOL     OW 4081   3.721   5.358   1.525
 1061SOL    HW1 4082   3.743   5.296   1.450
 1061SOL    HW2 4083   3.789   5.432   1.527
 1062SOL     OW 4084   5.701   5.891   5.511
 1062SOL    HW1 4085   5.787   5.886   5.561
 1062SOL    HW2 4086   5.655   5.977   5.534
 1063SOL     OW 4087   1.649   2.830   0.291
 1063SOL    HW1 4088   1.595   2.761   0.244
 1063SOL    HW2 4089   1.734   2.845   0.240
 1064SOL     OW 4090   0.261   2.935   1.729
 1064SOL    HW1 4091   0.231   2.977   1.814
 1064SOL    HW2 4092   0.357   2.955   1.714
 1065SOL     OW 4093   6.016   6.738   4.635
 1065SOL    HW1 4094   5.943   6.684   4.677
 1065SOL    HW2 4095   6.071   6.782   4.706
 1066SOL     OW 4096   4.801   0.567   3.586
 1066SOL    HW1 4097   4.740   0.505   3.636
 1066SOL    HW2 4098   4.800   0.656   3.630
 1067SOL     OW 4099   1.855   3.246   2.108
 1067SOL    HW1 4100   1.946   3.255   2.067
 1067SOL    HW2 4101   1.794   3.315   2.069
 1068SOL     OW 4102   0.504   3.930   2.240
 1068SOL    HW1 4103   0.469   3.896   2.153
 1068SOL    HW2 4104   0.520   4.029   2.234
 1069SOL     OW 4105   4.031   4.086   1.202
 1069SOL    HW1 4106   3.966   4.155   1.234
 1069SOL    HW2 4107   3.994   4.039   1.122
 1070SOL     OW 4108   2.180   0.830   0.501
 1070SOL    HW1 4109   2.088   0.793   0.486
 1070SOL    HW2 4110   2.223   0.783   0.578
 1071SOL     OW 4111   3.805   6.671   3.390
 1071SOL    HW1 4112   3.813   6.749   3.328
 1071SOL    HW2 4113   3.802   6.704   3.485
 1072SOL     OW 4114   3.631   6.327   2.856
 1072SOL    HW1 4115   3.553   6.327   2.918
 1072SOL    HW2 4116   3.606   6.281   2.771
 1073SOL     OW 4117   2.361   4.430   2.691
 1073SOL    HW1 4118   2.281   4.371   2.700
 1073SOL    HW2 4119   2.396   4.452   2.782
 1074SOL     OW 4120   0.923   4.849   1.608
 1074SOL    HW1 4121   0.832   4.870   1.571
 1074SOL    HW2 4122   0.980   4.812   1.536
 1075SOL     OW 4123   5.635   4.874   3.944
 1075SOL    HW1 4124   5.692   4.797   3.917
 1075SOL    HW2 4125   5.693   4.950   3.975
 1076SOL     OW 4126   0.473   4.263   3.810
 1076SOL    HW1 4127   0.433   4.226   3.894
 1076SOL    HW2 4128   0.410   4.252   3.734
 1077SOL     OW 4129   4.479   0.317   0.722
 1077SOL    HW1 4130   4.475   0.230   0.673
 1077SOL    HW2 4131   4.392   0.365   0.713
 1078SOL     OW 4132   1.231   2.304   1.388
 1078SOL    HW1 4133   1.283   2.220   1.370
 1078SOL    HW2 4134   1.177   2.293   1.471
 1079SOL     OW 4135   2.806   5.656   3.745
 1079SOL    HW1 4136   2.800   5.734   3.682
 1079SOL    HW2 4137   2.720   5.605   3.742
 1080SOL     OW 4138   1.602   5.084   4.499
 1080SOL    HW1 4139   1.537   5.123   4.433
 1080SOL    HW2 4140   1.553   5.026   4.564
 1081SOL     OW 4141   1.496   0.588   0.458
 1081SOL    HW1 4142   1.527   0.496   0.436
 1081SOL    HW2 4143   1.459   0.590   0.551
 1082SOL     OW 4144   1.249   6.701   6.148
 1082SOL    HW1 4145   1.325   6.667   6.203
 1082SOL    HW2 4146   1.238   6.643   6.067
 1083SOL     OW 4147   3.348   3.439   1.637
 1083SOL    HW1 4148   3.249   3.448   1.644
 1083SOL    HW2 4149   3.388   3.526   1.609
 1084SOL     OW 4150   6.033   3.831   1.098
 1084SOL    HW1 4151   6.089   3.764   1.049
 1084SOL    HW2 4152   5.986   3.787   1.174
 1085SOL     OW 4153   1.743   4.369   4.073
 1085SOL    HW1 4154   1.730   4.464   4.045
 1085SOL    HW2 4155   1.792   4.319   4.001
 1086SOL     OW 4156   4.335   4.672   1.944
 1086SOL    HW1 4157   4.293   4.696   2.032
 1086SOL    HW2 4158   4.434   4.683   1.951
 1087SOL     OW 4159   4.444   2.792   5.299
 1087SOL    HW1 4160   4.494   2.849   5.364
 1087SOL    HW2 4161   4.504   2.720   5.265
 1088SOL     OW 4162   5.029   4.215   4.083
 1088SOL    HW1 4163   4.950   4.163   4.114
 1088SOL    HW2 4164   5.113   4.173   4.120
 1089SOL     OW 4165   0.154   0.276   3.733
 1089SOL    HW1 4166   0.236   0.333   3.727
 1089SOL    HW2 4167   0.175   0.194   3.785
 1090SOL     OW 4168   1.774   1.524   6.485
 1090SOL    HW1 4169   1.843   1.469   6.439
 1090SOL    HW2 4170   1.780   1.619   6.454
 1091SOL     OW 4171   1.533   1.886   4.925
 1091SOL    HW1 4172   1.579   1.861   4.839
 1091SOL    HW2 4173   1.589   1.952   4.975
 1092SOL     OW 4174   1.967   4.332   1.418
 1092SOL    HW1 4175   2.058   4.328   1.460
 1092SOL    HW2 4176   1.900   4.362   1.485
 1093SOL     OW 4177   0.409   1.768   2.467
 1093SOL    HW1 4178   0.455   1.847   2.508
 1093SOL    HW2 4179   0.426   1.767   2.369
 1094SOL     OW 4180   0.371   6.584   1.106
 1094SOL    HW1 4181   0.302   6.604   1.175
 1094SOL    HW2 4182   0.364   6.650   1.031
 1095SOL     OW 4183   5.678   3.433   6.225
 1095SOL    HW1 4184   5.646   3.507   6.166
 1095SOL    HW2 4185   5.676   3.462   6.321
 1096SOL     OW 4186   3.516   4.424   1.675
 1096SOL    HW1 4187   3.418   4.431   1.656
 1096SOL    HW2 4188   3.546   4.507   1.722
 1097SOL     OW 4189   0.799   5.263   5.485
 1097SOL    HW1 4190   0.715   5.235   5.438
 1097SOL    HW2 4191   0.851   5.324   5.425
 1098SOL     OW 4192   4.547   2.136   2.501
 1098SOL    HW1 4193   4.618   2.144   2.571
 1098SOL    HW2 4194   4.458   2.160   2.540
 1099SOL     OW 4195   4.448   2.083   3.909
 1099SOL    HW1 4196   4.439   2.173   3.868
 1099SOL    HW2 4197   4.362   2.032   3.898
 1100SOL     OW 4198   0.573   0.679   0.108
 1100SOL    HW1 4199   0.529   0.745   0.048
 1100SOL    HW2 4200   0.506   0.643   0.173
 1101SOL     OW 4201   5.483   2.890   1.105
 1101SOL    HW1 4202   5.577   2.861   1.126
 1101SOL    HW2 4203   5.421   2.848   1.170
 1102SOL     OW 4204   0.757   4.329   3.825
 1102SOL    HW1 4205   0.668   4.285   3.840
 1102SOL    HW2 4206   0.789   4.309   3.732
 1103SOL     OW 4207   1.385   2.491   1.829
 1103SOL    HW1 4208   1.417   2.495   1.735
 1103SOL    HW2 4209   1.297   2.539   1.837
 1104SOL     OW 4210   3.642   4.984   6.098
 1104SOL    HW1 4211   3.641   4.887   6.122
 1104SOL    HW2 4212   3.563   5.005   6.041
 1105SOL     OW 4213   4.513   3.942   6.620
 1105SOL    HW1 4214   4.597   3.900   6.654
 1105SOL    HW2 4215   4.506   3.927   6.521
 1106SOL     OW 4216   0.313   2.463   6.137
 1106SOL    HW1 4217   0.395   2.464   6.078
 1106SOL    HW2 4218   0.240   2.412   6.091
 1107SOL     OW 4219   0.776   0.225   0.580
 1107SOL    HW1 4220   0.774   0.325   0.588
 1107SOL    HW2 4221   0.821   0.186   0.660
 1108SOL     OW 4222   1.307   1.250   5.226
 1108SOL    HW1 4223   1.223   1.304   5.234
 1108SOL    HW2 4224   1.316   1.216   5.132
 1109SOL     OW 4225   4.316   0.248   3.846
 1109SOL    HW1 4226   4.243   0.182   3.864
 1109SOL    HW2 4227   4.288   0.308   3.771
 1110SOL     OW 4228   2.887   3.261   2.199
 1110SOL    HW1 4229   2.806   3.248   2.255
 1110SOL    HW2 4230   2.959   3.305   2.253
 1111SOL     OW 4231   5.872   0.172   0.164
 1111SOL    HW1 4232   5.804   0.244   0.173
 1111SOL    HW2 4233   5.826   0.085   0.144
 1112SOL     OW 4234   6.690   0.962   2.208
 1112SOL    HW1 4235   6.714   0.887   2.146
 1112SOL    HW2 4236   6.770   0.988   2.262
 1113SOL     OW 4237   6.817   3.582   2.249
 1113SOL    HW1 4238   6.780   3.538   2.331
 1113SOL    HW2 4239   6.784   3.676   2.243
 1114SOL     OW 4240   4.335   1.530   5.036
 1114SOL    HW1 4241   4.314   1.626   5.022
 1114SOL    HW2 4242   4.431   1.520   5.061
 1115SOL     OW 4243   2.757   3.703   0.987
 1115SOL    HW1 4244   2.850   3.735   0.968
 1115SOL    HW2 4245   2.709   3.771   1.041
 1116SOL     OW 4246   3.976   0.210   4.068
 1116SOL    HW1 4247   3.944   0.282   4.129
 1116SOL    HW2 4248   4.064   0.175   4.100
 1117SOL     OW 4249   2.497   2.978   1.455
 1117SOL    HW1 4250   2.538   3.015   1.372
 1117SOL    HW2 4251   2.564   2.923   1.504
 1118SOL     OW 4252   2.045   3.953   3.746
 1118SOL    HW1 4253   2.093   3.874   3.784
 1118SOL    HW2 4254   2.094   3.987   3.666
 1119SOL     OW 4255   4.441   4.022   1.575
 1119SOL    HW1 4256   4.422   4.071   1.660
 1119SOL    HW2 4257   4.379   4.054   1.504
 1120SOL     OW 4258   4.062   0.617   5.333
 1120SOL    HW1 4259   4.105   0.636   5.245
 1120SOL    HW2 4260   4.036   0.521   5.337
 1121SOL     OW 4261   5.635   3.033   2.401
 1121SOL    HW1 4262   5.636   3.061   2.305
 1121SOL    HW2 4263   5.725   3.050   2.442
 1122SOL     OW 4264   4.978   3.581   6.489
 1122SOL    HW1 4265   4.888   3.562   6.451
 1122SOL    HW2 4266   4.975   3.665   6.543
 1123SOL     OW 4267   4.100   0.840   2.625
 1123SOL    HW1 4268   4.066   0.870   2.714
 1123SOL    HW2 4269   4.065   0.748   2.606
 1124SOL     OW 4270   0.297   4.249   4.914
 1124SOL    HW1 4271   0.394   4.233   4.898
 1124SOL    HW2 4272   0.283   4.343   4.945
 1125SOL     OW 4273   3.555   3.301   5.151
 1125SOL    HW1 4274   3.530   3.395   5.173
 1125SOL    HW2 4275   3.501   3.238   5.207
 1126SOL     OW 4276   4.997   6.246   1.745
 1126SOL    HW1 4277   4.928   6.244   1.818
 1126SOL    HW2 4278   4.981   6.326   1.686
 1127SOL     OW 4279   1.854   4.742   6.915
 1127SOL    HW1 4280   1.927   4.789   6.965
 1127SOL    HW2 4281   1.847   4.780   6.823
 1128SOL     OW 4282   3.015   1.577   4.503
 1128SOL    HW1 4283   3.009   1.668   4.543
 1128SOL    HW2 4284   2.936   1.561   4.444
 1129SOL     OW 4285   5.479   0.688   6.851
 1129SOL    HW1 4286   5.451   0.677   6.946
 1129SOL    HW2 4287   5.465   0.601   6.802
 1130SOL     OW 4288   1.335   4.346   6.897
 1130SOL    HW1 4289   1.307   4.440   6.873
 1130SOL    HW2 4290   1.320   4.286   6.818
 1131SOL     OW 4291   0.381   6.041   5.601
 1131SOL    HW1 4292   0.374   5.942   5.614
 1131SOL    HW2 4293   0.467   6.074   5.640
 1132SOL     OW 4294   5.242   6.991   5.488
 1132SOL    HW1 4295   5.165   6.932   5.514
 1132SOL    HW2 4296   5.308   6.996   5.563
 1133SOL     OW 4297   0.258   3.274   1.454
 1133SOL    HW1 4298   0.322   3.268   1.378
 1133SOL    HW2 4299   0.253   3.185   1.499
 1134SOL     OW 4300   5.079   2.728   6.206
 1134SOL    HW1 4301   5.010   2.719   6.277
 1134SOL    HW2 4302   5.128   2.815   6.218
 1135SOL     OW 4303   2.910   2.286   3.098
 1135SOL    HW1 4304   2.941   2.375   3.062
 1135SOL    HW2 4305   2.960   2.213   3.053
 1136SOL     OW 4306   3.454   5.169   3.656
 1136SOL    HW1 4307   3.383   5.239   3.669
 1136SOL    HW2 4308   3.412   5.078   3.660
 1137SOL     OW 4309   1.184   1.511   5.815
 1137SOL    HW1 4310   1.197   1.412   5.808
 1137SOL    HW2 4311   1.192   1.539   5.910
 1138SOL     OW 4312   0.658   3.653   5.783
 1138SOL    HW1 4313   0.729   3.724   5.784
 1138SOL    HW2 4314   0.603   3.660   5.866
 1139SOL     OW 4315   1.549   6.094   2.492
 1139SOL    HW1 4316   1.469   6.111   2.550
 1139SOL    HW2 4317   1.568   5.996   2.489
 1140SOL     OW 4318   3.523   1.684   4.154
 1140SOL    HW1 4319   3.451   1.621   4.185
 1140SOL    HW2 4320   3.567   1.646   4.072
 1141SOL     OW 4321   6.322   5.734   5.237
 1141SOL    HW1 4322   6.420   5.743   5.222
 1141SOL    HW2 4323   6.301   5.758   5.332
 1142SOL     OW 4324   5.882   0.708   4.050
 1142SOL    HW1 4325   5.819   0.697   4.127
 1142SOL    HW2 4326   5.914   0.802   4.047
 1143SOL     OW 4327   4.183   1.916   3.037
 1143SOL    HW1 4328   4.154   1.932   2.942
 1143SOL    HW2 4329   4.212   2.002   3.077
 1144SOL     OW 4330   0.230   5.577   4.174
 1144SOL    HW1 4331   0.209   5.539   4.264
 1144SOL    HW2 4332   0.329   5.594   4.167
 1145SOL     OW 4333   0.163   5.421   4.978
 1145SOL    HW1 4334   0.187   5.423   4.881
 1145SOL    HW2 4335   0.233   5.469   5.031
 1146SOL     OW 4336   5.746   1.975   0.969
 1146SOL    HW1 4337   5.750   1.876   0.982
 1146SOL    HW2 4338   5.748   1.996   0.872
 1147SOL     OW 4339   0.319   3.055   2.220
 1147SOL    HW1 4340   0.244   3.119   2.234
 1147SOL    HW2 4341   0.387   3.066   2.293
 1148SOL     OW 4342   3.404   6.943   0.249
 1148SOL    HW1 4343   3.469   6.913   0.319
 1148SOL    HW2 4344   3.312   6.944   0.286
 1149SOL     OW 4345   6.621   3.429   2.393
 1149SOL    HW1 4346   6.611   3.335   2.359
 1149SOL    HW2 4347   6.545   3.484   2.360
 1150SOL     OW 4348   1.581   4.670   0.525
 1150SOL    HW1 4349   1.569   4.766   0.500
 1150SOL    HW2 4350   1.671   4.656   0.566
 1151SOL     OW 4351   5.721   5.039   6.558
 1151SOL    HW1 4352   5.776   5.089   6.625
 1151SOL    HW2 4353   5.626   5.034   6.590
 1152SOL     OW 4354   1.719   6.815   5.199
 1152SOL    HW1 4355   1.766   6.902   5.188
 1152SOL    HW2 4356   1.679   6.809   5.290
 1153SOL     OW 4357   2.609   5.431   2.846
 1153SOL    HW1 4358   2.641   5.349   2.800
 1153SOL    HW2 4359   2.562   5.490   2.781
 1154SOL     OW 4360   0.576   3.940   1.799
 1154SOL    HW1 4361   0.497   3.997   1.776
 1154SOL    HW2 4362   0.656   3.973   1.749
 1155SOL     OW 4363   3.983   5.778   2.109
 1155SOL    HW1 4364   4.057   5.752   2.048
 1155SOL    HW2 4365   3.898   5.734   2.081
 1156SOL     OW 4366   2.402   0.327   4.498
 1156SOL    HW1 4367   2.332   0.257   4.483
 1156SOL    HW2 4368   2.456   0.304   4.579
 1157SOL     OW 4369   0.588   2.865   3.882
 1157SOL    HW1 4370   0.656   2.833   3.947
 1157SOL    HW2 4371   0.496   2.844   3.916
 1158SOL     OW 4372   5.023   5.272   5.753
 1158SOL    HW1 4373   5.019   5.357   5.701
 1158SOL    HW2 4374   4.946   5.214   5.729
 1159SOL     OW 4375   3.897   5.171   3.748
 1159SOL    HW1 4376   3.906   5.152   3.846
 1159SOL    HW2 4377   3.858   5.091   3.703
 1160SOL     OW 4378   3.311   3.730   1.418
 1160SOL    HW1 4379   3.241   3.670   1.378
 1160SOL    HW2 4380   3.307   3.819   1.374
 1161SOL     OW 4381   5.297   1.219   3.556
 1161SOL    HW1 4382   5.352   1.272   3.490
 1161SOL    HW2 4383   5.207   1.201   3.518
 1162SOL     OW 4384   3.314   3.964   2.147
 1162SOL    HW1 4385   3.384   3.892   2.146
 1162SOL    HW2 4386   3.358   4.053   2.151
 1163SOL     OW 4387   5.363   1.789   3.102
 1163SOL    HW1 4388   5.427   1.866   3.099
 1163SOL    HW2 4389   5.269   1.824   3.100
 1164SOL     OW 4390   6.077   3.243   3.469
 1164SOL    HW1 4391   5.978   3.255   3.461
 1164SOL    HW2 4392   6.121   3.266   3.381
 1165SOL     OW 4393   0.951   4.828   3.060
 1165SOL    HW1 4394   0.935   4.857   2.965
 1165SOL    HW2 4395   0.999   4.901   3.109
 1166SOL     OW 4396   4.148   2.651   6.172
 1166SOL    HW1 4397   4.180   2.663   6.266
 1166SOL    HW2 4398   4.106   2.735   6.139
 1167SOL     OW 4399   4.662   1.226   5.020
 1167SOL    HW1 4400   4.749   1.184   5.047
 1167SOL    HW2 4401   4.622   1.274   5.097
 1168SOL     OW 4402   6.311   6.809   3.187
 1168SOL    HW1 4403   6.236   6.801   3.253
 1168SOL    HW2 4404   6.383   6.867   3.226
 1169SOL     OW 4405   0.679   3.699   1.922
 1169SOL    HW1 4406   0.654   3.786   1.880
 1169SOL    HW2 4407   0.651   3.699   2.018
 1170SOL     OW 4408   2.985   0.850   1.360
 1170SOL    HW1 4409   2.977   0.950   1.361
 1170SOL    HW2 4410   3.008   0.817   1.451
 1171SOL     OW 4411   2.982   5.808   0.758
 1171SOL    HW1 4412   3.075   5.774   0.739
 1171SOL    HW2 4413   2.923   5.789   0.679
 1172SOL     OW 4414   2.962   3.384   4.813
 1172SOL    HW1 4415   2.939   3.316   4.743
 1172SOL    HW2 4416   2.961   3.341   4.903
 1173SOL     OW 4417   3.420   1.119   6.564
 1173SOL    HW1 4418   3.446   1.027   6.534
 1173SOL    HW2 4419   3.413   1.120   6.664
 1174SOL     OW 4420   2.860   6.054   0.846
 1174SOL    HW1 4421   2.821   5.991   0.914
 1174SOL    HW2 4422   2.924   6.005   0.787
 1175SOL     OW 4423   6.050   4.795   5.591
 1175SOL    HW1 4424   5.965   4.750   5.621
 1175SOL    HW2 4425   6.059   4.787   5.492
 1176SOL     OW 4426   5.389   4.619   1.014
 1176SOL    HW1 4427   5.404   4.644   1.109
 1176SOL    HW2 4428   5.436   4.533   0.994
 1177SOL     OW 4429   6.434   2.646   6.046
 1177SOL    HW1 4430   6.433   2.674   6.142
 1177SOL    HW2 4431   6.470   2.553   6.038
 1178SOL     OW 4432   6.241   3.542   1.909
 1178SOL    HW1 4433   6.168   3.560   1.975
 1178SOL    HW2 4434   6.203   3.533   1.817
 1179SOL     OW 4435   2.272   5.286   6.256
 1179SOL    HW1 4436   2.206   5.357   6.282
 1179SOL    HW2 4437   2.337   5.324   6.190
 1180SOL     OW 4438   2.811   1.407   4.121
 1180SOL    HW1 4439   2.815   1.342   4.197
 1180SOL    HW2 4440   2.716   1.435   4.106
 1181SOL     OW 4441   2.137   4.327   3.190
 1181SOL    HW1 4442   2.138   4.341   3.091
 1181SOL    HW2 4443   2.053   4.366   3.228
 1182SOL     OW 4444   2.032   4.283   3.681
 1182SOL    HW1 4445   2.007   4.280   3.778
 1182SOL    HW2 4446   2.124   4.247   3.669
 1183SOL     OW 4447   4.824   5.747   0.944
 1183SOL    HW1 4448   4.759   5.677   0.972
 1183SOL    HW2 4449   4.790   5.837   0.971
 1184SOL     OW 4450   3.075   2.801   5.851
 1184SOL    HW1 4451   3.099   2.853   5.769
 1184SOL    HW2 4452   3.155   2.751   5.884
 1185SOL     OW 4453   1.659   1.002   0.076
 1185SOL    HW1 4454   1.638   1.013   0.173
 1185SOL    HW2 4455   1.623   0.914   0.044
 1186SOL     OW 4456   4.900   1.192   4.648
 1186SOL    HW1 4457   4.967   1.234   4.588
 1186SOL    HW2 4458   4.821   1.162   4.594
 1187SOL     OW 4459   5.923   0.629   5.301
 1187SOL    HW1 4460   5.993   0.562   5.279
 1187SOL    HW2 4461   5.837   0.604   5.255
 1188SOL     OW 4462   1.874   0.302   5.907
 1188SOL    HW1 4463   1.881   0.288   6.005
 1188SOL    HW2 4464   1.854   0.398   5.887
 1189SOL     OW 4465   5.330   0.690   1.769
 1189SOL    HW1 4466   5.429   0.676   1.771
 1189SOL    HW2 4467   5.285   0.623   1.828
 1190SOL     OW 4468   4.663   4.953   2.638
 1190SOL    HW1 4469   4.633   4.906   2.721
 1190SOL    HW2 4470   4.670   5.051   2.657
 1191SOL     OW 4471   3.086   5.645   6.764
 1191SOL    HW1 4472   3.031   5.725   6.740
 1191SOL    HW2 4473   3.151   5.626   6.690
 1192SOL     OW 4474   5.349   5.100   2.893
 1192SOL    HW1 4475   5.438   5.102   2.847
 1192SOL    HW2 4476   5.341   5.179   2.953
 1193SOL     OW 4477   5.139   0.581   3.940
 1193SOL    HW1 4478   5.072   0.528   3.991
 1193SOL    HW2 4479   5.230   0.564   3.977
 1194SOL     OW 4480   6.024   0.003   0.992
 1194SOL    HW1 4481   6.009   6.936   0.952
 1194SOL    HW2 4482   5.941   0.059   0.982
 1195SOL     OW 4483   5.158   0.786   6.461
 1195SOL    HW1 4484   5.250   0.778   6.423
 1195SOL    HW2 4485   5.129   0.698   6.499
 1196SOL     OW 4486   0.318   5.441   2.347
 1196SOL    HW1 4487   0.295   5.363   2.405
 1196SOL    HW2 4488   0.377   5.504   2.397
 1197SOL     OW 4489   3.967   5.520   6.106
 1197SOL    HW1 4490   3.911   5.438   6.094
 1197SOL    HW2 4491   4.063   5.493   6.113
 1198SOL     OW 4492   2.843   2.237   2.624
 1198SOL    HW1 4493   2.782   2.272   2.695
 1198SOL    HW2 4494   2.807   2.262   2.534
 1199SOL     OW 4495   4.093   3.797   1.967
 1199SOL    HW1 4496   4.177   3.841   1.997
 1199SOL    HW2 4497   4.115   3.727   1.899
 1200SOL     OW 4498   4.188   3.920   0.157
 1200SOL    HW1 4499   4.101   3.903   0.111
 1200SOL    HW2 4500   4.261   3.923   0.089
 1201SOL     OW 4501   1.140   0.948   4.954
 1201SOL    HW1 4502   1.081   1.022   4.923
 1201SOL    HW2 4503   1.181   0.902   4.876
 1202SOL     OW 4504   5.956   0.317   4.887
 1202SOL    HW1 4505   6.052   0.299   4.869
 1202SOL    HW2 4506   5.930   0.275   4.974
 1203SOL     OW 4507   5.893   0.072   1.502
 1203SOL    HW1 4508   5.868   0.142   1.435
 1203SOL    HW2 4509   5.915   7.010   1.455
 1204SOL     OW 4510   3.417   0.894   0.607
 1204SOL    HW1 4511   3.338   0.947   0.638
 1204SOL    HW2 4512   3.390   0.833   0.534
 1205SOL     OW 4513   6.487   2.560   4.952
 1205SOL    HW1 4514   6.450   2.468   4.963
 1205SOL    HW2 4515   6.532   2.566   4.863
 1206SOL     OW 4516   2.351   1.998   4.877
 1206SOL    HW1 4517   2.324   1.991   4.973
 1206SOL    HW2 4518   2.321   2.085   4.840
 1207SOL     OW 4519   5.745   6.996   6.490
 1207SOL    HW1 4520   5.843   6.996   6.514
 1207SOL    HW2 4521   5.705   0.061   6.514
 1208SOL     OW 4522   3.508   4.142   3.304
 1208SOL    HW1 4523   3.410   4.163   3.296
 1208SOL    HW2 4524   3.526   4.103   3.394
 1209SOL     OW 4525   5.719   5.408   4.290
 1209SOL    HW1 4526   5.744   5.367   4.202
 1209SOL    HW2 4527   5.797   5.460   4.325
 1210SOL     OW 4528   3.715   0.122   2.220
 1210SOL    HW1 4529   3.665   0.208   2.232
 1210SOL    HW2 4530   3.649   0.048   2.205
 1211SOL     OW 4531   0.515   4.518   4.844
 1211SOL    HW1 4532   0.576   4.446   4.812
 1211SOL    HW2 4533   0.459   4.551   4.768
 1212SOL     OW 4534   1.977   3.762   5.003
 1212SOL    HW1 4535   1.921   3.817   5.065
 1212SOL    HW2 4536   1.952   3.666   5.012
 1213SOL     OW 4537   5.931   2.126   5.499
 1213SOL    HW1 4538   5.938   2.062   5.422
 1213SOL    HW2 4539   5.835   2.151   5.513
 1214SOL     OW 4540   2.001   3.600   3.806
 1214SOL    HW1 4541   2.054   3.516   3.821
 1214SOL    HW2 4542   2.024   3.666   3.877
 1215SOL     OW 4543   1.034   4.963   1.814
 1215SOL    HW1 4544   1.132   4.945   1.806
 1215SOL    HW2 4545   0.985   4.913   1.742
 1216SOL     OW 4546   2.133   0.396   2.295
 1216SOL    HW1 4547   2.195   0.429   2.225
 1216SOL    HW2 4548   2.041   0.385   2.257
 1217SOL     OW 4549   1.251   6.470   1.993
 1217SOL    HW1 4550   1.351   6.461   1.984
 1217SOL    HW2 4551   1.230   6.530   2.069
 1218SOL     OW 4552   0.698   3.664   3.646
 1218SOL    HW1 4553   0.793   3.648   3.619
 1218SOL    HW2 4554   0.693   3.747   3.702
 1219SOL     OW 4555   3.857   6.370   1.718
 1219SOL    HW1 4556   3.775   6.318   1.742
 1219SOL    HW2 4557   3.838   6.429   1.639
 1220SOL     OW 4558   5.939   3.618   3.637
 1220SOL    HW1 4559   6.022   3.562   3.624
 1220SOL    HW2 4560   5.892   3.627   3.549
 1221SOL     OW 4561   4.822   3.699   0.111
 1221SOL    HW1 4562   4.872   3.784   0.092
 1221SOL    HW2 4563   4.885   3.622   0.107
 1222SOL     OW 4564   0.057   6.310   1.447
 1222SOL    HW1 4565   0.012   6.269   1.367
 1222SOL    HW2 4566   0.021   6.268   1.530
 1223SOL     OW 4567   6.006   6.879   6.267
 1223SOL    HW1 4568   6.097   6.919   6.273
 1223SOL    HW2 4569   5.950   6.931   6.202
 1224SOL     OW 4570   4.908   4.827   1.842
 1224SOL    HW1 4571   5.004   4.799   1.838
 1224SOL    HW2 4572   4.896   4.911   1.790
 1225SOL     OW 4573   5.061   2.386   0.413
 1225SOL    HW1 4574   5.114   2.380   0.498
 1225SOL    HW2 4575   5.047   2.482   0.389
 1226SOL     OW 4576   5.992   5.867   0.971
 1226SOL    HW1 4577   6.083   5.904   0.987
 1226SOL    HW2 4578   5.993   5.768   0.986
 1227SOL     OW 4579   5.656   3.936   5.655
 1227SOL    HW1 4580   5.614   3.970   5.571
 1227SOL    HW2 4581   5.696   3.846   5.638
 1228SOL     OW 4582   4.040   3.367   3.240
 1228SOL    HW1 4583   4.011   3.462   3.240
 1228SOL    HW2 4584   4.087   3.346   3.155
 1229SOL     OW 4585   2.509   5.551   3.066
 1229SOL    HW1 4586   2.568   5.512   2.996
 1229SOL    HW2 4587   2.565   5.580   3.144
 1230SOL     OW 4588   5.253   4.846   1.470
 1230SOL    HW1 4589   5.159   4.879   1.477
 1230SOL    HW2 4590   5.253   4.746   1.463
 1231SOL     OW 4591   1.413   2.426   6.666
 1231SOL    HW1 4592   1.415   2.518   6.707
 1231SOL    HW2 4593   1.473   2.424   6.586
 1232SOL     OW 4594   3.222   0.597   5.822
 1232SOL    HW1 4595   3.307   0.570   5.866
 1232SOL    HW2 4596   3.237   0.681   5.770
 1233SOL     OW 4597   0.252   5.662   5.300
 1233SOL    HW1 4598   0.297   5.583   5.258
 1233SOL    HW2 4599   0.167   5.632   5.342
 1234SOL     OW 4600   6.602   3.339   0.190
 1234SOL    HW1 4601   6.689   3.373   0.155
 1234SOL    HW2 4602   6.537   3.331   0.115
 1235SOL     OW 4603   6.420   5.044   0.399
 1235SOL    HW1 4604   6.385   5.107   0.467
 1235SOL    HW2 4605   6.447   5.095   0.317
 1236SOL     OW 4606   1.325   1.933   2.005
 1236SOL    HW1 4607   1.298   1.999   1.934
 1236SOL    HW2 4608   1.407   1.884   1.975
 1237SOL     OW 4609   1.030   0.033   4.467
 1237SOL    HW1 4610   1.110   0.001   4.519
 1237SOL    HW2 4611   0.948   0.023   4.523
 1238SOL     OW 4612   6.849   0.548   4.339
 1238SOL    HW1 4613   6.769   0.600   4.310
 1238SOL    HW2 4614   6.825   0.490   4.416
 1239SOL     OW 4615   6.575   4.678   4.693
 1239SOL    HW1 4616   6.551   4.713   4.602
 1239SOL    HW2 4617   6.651   4.613   4.684
 1240SOL     OW 4618   6.296   4.596   3.511
 1240SOL    HW1 4619   6.310   4.616   3.608
 1240SOL    HW2 4620   6.344   4.664   3.455
 1241SOL     OW 4621   4.925   5.049   4.818
 1241SOL    HW1 4622   4.975   5.127   4.780
 1241SOL    HW2 4623   4.968   5.019   4.903
 1242SOL     OW 4624   1.229   4.589   6.779
 1242SOL    HW1 4625   1.237   4.645   6.862
 1242SOL    HW2 4626   1.227   4.648   6.699
 1243SOL     OW 4627   0.873   4.716   5.022
 1243SOL    HW1 4628   0.875   4.744   4.926
 1243SOL    HW2 4629   0.785   4.740   5.062
 1244SOL     OW 4630   5.052   0.211   4.669
 1244SOL    HW1 4631   4.961   0.183   4.637
 1244SOL    HW2 4632   5.111   0.131   4.675
 1245SOL     OW 4633   5.080   6.687   1.452
 1245SOL    HW1 4634   4.998   6.743   1.466
 1245SOL    HW2 4635   5.135   6.726   1.379
 1246SOL     OW 4636   4.679   1.766   0.508
 1246SOL    HW1 4637   4.773   1.736   0.518
 1246SOL    HW2 4638   4.668   1.857   0.548
 1247SOL     OW 4639   0.044   6.764   3.520
 1247SOL    HW1 4640   0.134   6.787   3.557
 1247SOL    HW2 4641   7.001   6.835   3.546
 1248SOL     OW 4642   1.281   6.952   4.615
 1248SOL    HW1 4643   1.321   0.008   4.570
 1248SOL    HW2 4644   1.261   6.881   4.548
 1249SOL     OW 4645   5.591   4.689   6.899
 1249SOL    HW1 4646   5.520   4.753   6.868
 1249SOL    HW2 4647   5.680   4.736   6.897
 1250SOL     OW 4648   6.453   3.397   5.094
 1250SOL    HW1 4649   6.515   3.366   5.022
 1250SOL    HW2 4650   6.505   3.408   5.179
 1251SOL     OW 4651   2.905   0.468   2.988
 1251SOL    HW1 4652   2.991   0.444   3.033
 1251SOL    HW2 4653   2.858   0.537   3.042
 1252SOL     OW 4654   1.641   5.614   0.099
 1252SOL    HW1 4655   1.570   5.548   0.077
 1252SOL    HW2 4656   1.604   5.685   0.159
 1253SOL     OW 4657   3.344   1.278   0.921
 1253SOL    HW1 4658   3.384   1.313   0.837
 1253SOL    HW2 4659   3.245   1.279   0.914
 1254SOL     OW 4660   6.738   1.102   1.472
 1254SOL    HW1 4661   6.823   1.069   1.431
 1254SOL    HW2 4662   6.662   1.085   1.410
 1255SOL     OW 4663   5.448   1.709   5.601
 1255SOL    HW1 4664   5.475   1.614   5.587
 1255SOL    HW2 4665   5.377   1.714   5.671
 1256SOL     OW 4666   0.966   5.719   4.374
 1256SOL    HW1 4667   0.898   5.746   4.306
 1256SOL    HW2 4668   0.922   5.711   4.464
 1257SOL     OW 4669   0.018   5.465   4.032
 1257SOL    HW1 4670   0.011   5.482   3.933
 1257SOL    HW2 4671   0.104   5.504   4.066
 1258SOL     OW 4672   3.915   6.184   4.720
 1258SOL    HW1 4673   3.904   6.151   4.627
 1258SOL    HW2 4674   3.999   6.147   4.759
 1259SOL     OW 4675   5.711   0.531   3.915
 1259SOL    HW1 4676   5.787   0.584   3.953
 1259SOL    HW2 4677   5.680   0.464   3.983
 1260SOL     OW 4678   1.755   0.645   2.530
 1260SOL    HW1 4679   1.718   0.735   2.551
 1260SOL    HW2 4680   1.735   0.622   2.435
 1261SOL     OW 4681   6.112   4.421   6.331
 1261SOL    HW1 4682   6.144   4.329   6.352
 1261SOL    HW2 4683   6.184   4.471   6.283
 1262SOL     OW 4684   4.921   5.157   0.175
 1262SOL    HW1 4685   4.949   5.112   0.260
 1262SOL    HW2 4686   4.833   5.118   0.145
 1263SOL     OW 4687   0.326   2.282   1.543
 1263SOL    HW1 4688   0.312   2.250   1.449
 1263SOL    HW2 4689   0.291   2.375   1.551
 1264SOL     OW 4690   0.139   3.360   3.909
 1264SOL    HW1 4691   0.229   3.398   3.887
 1264SOL    HW2 4692   0.145   3.261   3.918
 1265SOL     OW 4693   6.588   4.294   5.597
 1265SOL    HW1 4694   6.619   4.200   5.612
 1265SOL    HW2 4695   6.665   4.350   5.564
 1266SOL     OW 4696   2.789   1.540   4.823
 1266SOL    HW1 4697   2.884   1.509   4.820
 1266SOL    HW2 4698   2.785   1.634   4.790
 1267SOL     OW 4699   6.982   5.125   2.634
 1267SOL    HW1 4700   7.000   5.042   2.688
 1267SOL    HW2 4701   6.978   5.204   2.695
 1268SOL     OW 4702   5.694   2.579   0.246
 1268SOL    HW1 4703   5.647   2.512   0.189
 1268SOL    HW2 4704   5.646   2.666   0.241
 1269SOL     OW 4705   6.676   5.336   5.579
 1269SOL    HW1 4706   6.739   5.371   5.648
 1269SOL    HW2 4707   6.666   5.237   5.589
 1270SOL     OW 4708   1.930   3.021   4.892
 1270SOL    HW1 4709   2.017   3.046   4.935
 1270SOL    HW2 4710   1.864   2.995   4.962
 1271SOL     OW 4711   3.527   1.411   2.935
 1271SOL    HW1 4712   3.496   1.467   3.012
 1271SOL    HW2 4713   3.501   1.455   2.849
 1272SOL     OW 4714   0.408   5.432   1.460
 1272SOL    HW1 4715   0.452   5.420   1.371
 1272SOL    HW2 4716   0.441   5.517   1.502
 1273SOL     OW 4717   2.734   5.824   6.551
 1273SOL    HW1 4718   2.658   5.864   6.500
 1273SOL    HW2 4719   2.756   5.734   6.513
 1274SOL     OW 4720   6.947   2.485   2.019
 1274SOL    HW1 4721   6.990   2.514   2.104
 1274SOL    HW2 4722   7.011   2.496   1.943
 1275SOL     OW 4723   3.580   1.746   4.561
 1275SOL    HW1 4724   3.487   1.730   4.526
 1275SOL    HW2 4725   3.594   1.688   4.642
 1276SOL     OW 4726   0.650   0.132   2.748
 1276SOL    HW1 4727   0.649   0.051   2.689
 1276SOL    HW2 4728   0.726   0.126   2.812
 1277SOL     OW 4729   0.196   0.259   4.403
 1277SOL    HW1 4730   0.269   0.208   4.356
 1277SOL    HW2 4731   0.197   0.235   4.500
 1278SOL     OW 4732   2.082   1.787   5.990
 1278SOL    HW1 4733   2.160   1.812   6.047
 1278SOL    HW2 4734   2.003   1.770   6.049
 1279SOL     OW 4735   2.846   5.776   0.529
 1279SOL    HW1 4736   2.803   5.832   0.458
 1279SOL    HW2 4737   2.869   5.686   0.492
 1280SOL     OW 4738   2.717   6.948   3.742
 1280SOL    HW1 4739   2.777   6.871   3.720
 1280SOL    HW2 4740   2.624   6.915   3.756
 1281SOL     OW 4741   1.288   5.963   3.111
 1281SOL    HW1 4742   1.274   5.998   3.018
 1281SOL    HW2 4743   1.377   5.920   3.117
 1282SOL     OW 4744   0.925   1.236   1.168
 1282SOL    HW1 4745   0.850   1.286   1.125
 1282SOL    HW2 4746   0.987   1.301   1.213
 1283SOL     OW 4747   5.380   5.208   5.011
 1283SOL    HW1 4748   5.386   5.115   4.975
 1283SOL    HW2 4749   5.338   5.268   4.943
 1284SOL     OW 4750   3.078   2.635   1.764
 1284SOL    HW1 4751   3.075   2.715   1.824
 1284SOL    HW2 4752   3.024   2.561   1.804
 1285SOL     OW 4753   4.732   3.032   5.128
 1285SOL    HW1 4754   4.773   3.121   5.110
 1285SOL    HW2 4755   4.648   3.043   5.181
 1286SOL     OW 4756   5.468   4.050   1.755
 1286SOL    HW1 4757   5.539   4.118   1.743
 1286SOL    HW2 4758   5.418   4.036   1.670
 1287SOL     OW 4759   6.896   6.131   6.523
 1287SOL    HW1 4760   6.841   6.153   6.442
 1287SOL    HW2 4761   6.855   6.174   6.604
 1288SOL     OW 4762   0.011   3.233   0.753
 1288SOL    HW1 4763   6.982   3.256   0.835
 1288SOL    HW2 4764   0.102   3.271   0.758
 1289SOL     OW 4765   6.994   6.184   2.596
 1289SOL    HW1 4766   0.003   6.240   2.519
 1289SOL    HW2 4767   6.895   6.189   2.602
 1290SOL     OW 4768   0.804   6.481   0.298
 1290SOL    HW1 4769   0.872   6.442   0.360
 1290SOL    HW2 4770   0.829   6.575   0.275
 1291SOL     OW 4771   1.665   6.052   6.803
 1291SOL    HW1 4772   1.584   6.048   6.745
 1291SOL    HW2 4773   1.694   5.960   6.827
 1292SOL     OW 4774   0.597   5.004   0.647
 1292SOL    HW1 4775   0.503   5.032   0.625
 1292SOL    HW2 4776   0.650   5.085   0.674
 1293SOL     OW 4777   0.594   2.265   6.649
 1293SOL    HW1 4778   0.651   2.279   6.730
 1293SOL    HW2 4779   0.651   2.262   6.568
 1294SOL     OW 4780   0.008   2.672   2.212
 1294SOL    HW1 4781   6.975   2.749   2.182
 1294SOL    HW2 4782   0.100   2.704   2.234
 1295SOL     OW 4783   5.413   2.405   2.015
 1295SOL    HW1 4784   5.341   2.398   2.084
 1295SOL    HW2 4785   5.414   2.498   1.978
 1296SOL     OW 4786   3.366   1.654   6.705
 1296SOL    HW1 4787   3.444   1.603   6.740
 1296SOL    HW2 4788   3.284   1.629   6.756
 1297SOL     OW 4789   6.963   1.303   5.227
 1297SOL    HW1 4790   6.935   1.335   5.137
 1297SOL    HW2 4791   6.907   1.348   5.298
 1298SOL     OW 4792   6.390   2.741   2.987
 1298SOL    HW1 4793   6.458   2.783   3.047
 1298SOL    HW2 4794   6.433   2.721   2.899
 1299SOL     OW 4795   1.304   4.060   4.471
 1299SOL    HW1 4796   1.398   4.078   4.442
 1299SOL    HW2 4797   1.281   3.965   4.450
 1300SOL     OW 4798   3.687   2.838   2.088
 1300SOL    HW1 4799   3.612   2.855   2.023
 1300SOL    HW2 4800   3.663   2.761   2.147
 1301SOL     OW 4801   1.098   6.576   3.973
 1301SOL    HW1 4802   1.122   6.540   3.884
 1301SOL    HW2 4803   1.121   6.673   3.978
 1302SOL     OW 4804   2.575   6.630   4.940
 1302SOL    HW1 4805   2.537   6.673   4.858
 1302SOL    HW2 4806   2.546   6.535   4.946
 1303SOL     OW 4807   3.344   1.607   1.070
 1303SOL    HW1 4808   3.372   1.666   0.994
 1303SOL    HW2 4809   3.419   1.544   1.091
 1304SOL     OW 4810   2.250   0.331   6.401
 1304SOL    HW1 4811   2.345   0.354   6.420
 1304SOL    HW2 4812   2.190   0.396   6.447
 1305SOL     OW 4813   4.483   0.433   4.871
 1305SOL    HW1 4814   4.544   0.372   4.819
 1305SOL    HW2 4815   4.484   0.406   4.967
 1306SOL     OW 4816   0.682   4.648   4.292
 1306SOL    HW1 4817   0.781   4.644   4.306
 1306SOL    HW2 4818   0.643   4.556   4.298
 1307SOL     OW 4819   1.269   2.333   4.173
 1307SOL    HW1 4820   1.346   2.322   4.235
 1307SOL    HW2 4821   1.186   2.352   4.225
 1308SOL     OW 4822   4.612   6.043   4.080
 1308SOL    HW1 4823   4.539   5.978   4.059
 1308SOL    HW2 4824   4.691   5.994   4.117
 1309SOL     OW 4825   6.200   2.245   4.633
 1309SOL    HW1 4826   6.103   2.233   4.610
 1309SOL    HW2 4827   6.222   2.190   4.714
 1310SOL     OW 4828   5.646   3.768   4.221
 1310SOL    HW1 4829   5.641   3.863   4.252
 1310SOL    HW2 4830   5.713   3.719   4.276
 1311SOL     OW 4831   5.945   6.579   5.082
 1311SOL    HW1 4832   6.021   6.626   5.038
 1311SOL    HW2 4833   5.866   6.577   5.020
 1312SOL     OW 4834   0.487   0.239   0.260
 1312SOL    HW1 4835   0.401   0.277   0.227
 1312SOL    HW2 4836   0.555   0.311   0.268
 1313SOL     OW 4837   3.260   5.348   4.725
 1313SOL    HW1 4838   3.232   5.444   4.719
 1313SOL    HW2 4839   3.191   5.297   4.776
 1314SOL     OW 4840   1.213   1.513   5.204
 1314SOL    HW1 4841   1.251   1.590   5.254
 1314SOL    HW2 4842   1.285   1.469   5.150
 1315SOL     OW 4843   2.412   1.559   1.987
 1315SOL    HW1 4844   2.404   1.463   2.014
 1315SOL    HW2 4845   2.330   1.586   1.937
 1316SOL     OW 4846   2.618   6.809   4.102
 1316SOL    HW1 4847   2.621   6.908   4.092
 1316SOL    HW2 4848   2.530   6.782   4.141
 1317SOL     OW 4849   6.763   5.027   4.518
 1317SOL    HW1 4850   6.681   4.977   4.488
 1317SOL    HW2 4851   6.824   5.041   4.440
 1318SOL     OW 4852   0.142   0.015   0.297
 1318SOL    HW1 4853   0.240   0.005   0.313
 1318SOL    HW2 4854   0.105   0.084   0.359
 1319SOL     OW 4855   6.266   1.228   0.160
 1319SOL    HW1 4856   6.256   1.296   0.086
 1319SOL    HW2 4857   6.361   1.198   0.164
 1320SOL     OW 4858   5.839   4.677   5.737
 1320SOL    HW1 4859   5.756   4.729   5.715
 1320SOL    HW2 4860   5.814   4.588   5.775
 1321SOL     OW 4861   3.832   2.506   0.245
 1321SOL    HW1 4862   3.867   2.435   0.184
 1321SOL    HW2 4863   3.862   2.487   0.339
 1322SOL     OW 4864   6.468   1.458   3.818
 1322SOL    HW1 4865   6.512   1.399   3.886
 1322SOL    HW2 4866   6.389   1.503   3.860
 1323SOL     OW 4867   0.386   1.964   5.078
 1323SOL    HW1 4868   0.330   1.931   5.003
 1323SOL    HW2 4869   0.437   1.888   5.119
 1324SOL     OW 4870   1.439   3.299   1.621
 1324SOL    HW1 4871   1.434   3.284   1.720
 1324SOL    HW2 4872   1.375   3.372   1.595
 1325SOL     OW 4873   2.845   6.264   3.316
 1325SOL    HW1 4874   2.755   6.285   3.279
 1325SOL    HW2 4875   2.862   6.166   3.308
 1326SOL     OW 4876   5.442   2.918   4.245
 1326SOL    HW1 4877   5.461   2.830   4.290
 1326SOL    HW2 4878   5.345   2.942   4.258
 1327SOL     OW 4879   3.994   4.799   3.233
 1327SOL    HW1 4880   4.007   4.777   3.137
 1327SOL    HW2 4881   3.897   4.819   3.250
 1328SOL     OW 4882   1.503   1.838   0.039
 1328SOL    HW1 4883   1.418   1.855   7.011
 1328SOL    HW2 4884   1.558   1.771   7.012
 1329SOL     OW 4885   1.109   1.192   0.585
 1329SOL    HW1 4886   1.078   1.254   0.657
 1329SOL    HW2 4887   1.195   1.149   0.612
 1330SOL     OW 4888   6.834   0.119   0.926
 1330SOL    HW1 4889   6.903   0.087   0.991
 1330SOL    HW2 4890   6.878   0.171   0.853
 1331SOL     OW 4891   5.789   0.244   1.867
 1331SOL    HW1 4892   5.834   0.169   1.916
 1331SOL    HW2 4893   5.723   0.288   1.928
 1332SOL     OW 4894   4.364   1.238   1.455
 1332SOL    HW1 4895   4.419   1.286   1.387
 1332SOL    HW2 4896   4.268   1.261   1.442
 1333SOL     OW 4897   4.074   3.751   5.021
 1333SOL    HW1 4898   4.100   3.718   4.930
 1333SOL    HW2 4899   4.008   3.825   5.012
 1334SOL     OW 4900   0.642   3.862   5.036
 1334SOL    HW1 4901   0.566   3.866   4.971
 1334SOL    HW2 4902   0.620   3.916   5.117
 1335SOL     OW 4903   2.150   5.303   3.140
 1335SOL    HW1 4904   2.198   5.377   3.093
 1335SOL    HW2 4905   2.165   5.310   3.238
 1336SOL     OW 4906   0.750   0.949   5.479
 1336SOL    HW1 4907   0.699   0.866   5.457
 1336SOL    HW2 4908   0.808   0.974   5.402
 1337SOL     OW 4909   1.741   2.372   6.281
 1337SOL    HW1 4910   1.729   2.357   6.183
 1337SOL    HW2 4911   1.788   2.459   6.296
 1338SOL     OW 4912   4.510   5.436   6.500
 1338SOL    HW1 4913   4.548   5.517   6.456
 1338SOL    HW2 4914   4.544   5.354   6.454
 1339SOL     OW 4915   6.653   4.021   5.597
 1339SOL    HW1 4916   6.725   3.993   5.534
 1339SOL    HW2 4917   6.593   3.943   5.616
 1340SOL     OW 4918   1.472   2.389   0.465
 1340SOL    HW1 4919   1.421   2.305   0.451
 1340SOL    HW2 4920   1.409   2.462   0.492
 1341SOL     OW 4921   3.309   1.227   3.600
 1341SOL    HW1 4922   3.353   1.317   3.590
 1341SOL    HW2 4923   3.222   1.238   3.649
 1342SOL     OW 4924   0.669   6.222   0.518
 1342SOL    HW1 4925   0.766   6.220   0.542
 1342SOL    HW2 4926   0.619   6.155   0.574
 1343SOL     OW 4927   3.751   6.001   3.195
 1343SOL    HW1 4928   3.751   5.954   3.283
 1343SOL    HW2 4929   3.807   6.084   3.202
 1344SOL     OW 4930   6.518   0.813   2.510
 1344SOL    HW1 4931   6.596   0.810   2.448
 1344SOL    HW2 4932   6.498   0.722   2.545
 1345SOL     OW 4933   0.532   0.577   2.633
 1345SOL    HW1 4934   0.578   0.657   2.671
 1345SOL    HW2 4935   0.599   0.503   2.619
 1346SOL     OW 4936   6.886   6.955   3.589
 1346SOL    HW1 4937   6.957   7.019   3.560
 1346SOL    HW2 4938   6.840   6.991   3.670
 1347SOL     OW 4939   6.297   6.580   3.495
 1347SOL    HW1 4940   6.304   6.680   3.498
 1347SOL    HW2 4941   6.268   6.551   3.404
 1348SOL     OW 4942   5.874   4.706   4.173
 1348SOL    HW1 4943   5.808   4.640   4.207
 1348SOL    HW2 4944   5.871   4.708   4.073
 1349SOL     OW 4945   3.667   2.966   6.994
 1349SOL    HW1 4946   3.634   2.977   0.065
 1349SOL    HW2 4947   3.598   2.919   6.940
 1350SOL     OW 4948   2.733   0.235   6.810
 1350SOL    HW1 4949   2.754   0.331   6.830
 1350SOL    HW2 4950   2.816   0.180   6.817
 1351SOL     OW 4951   0.371   1.131   3.283
 1351SOL    HW1 4952   0.353   1.073   3.204
 1351SOL    HW2 4953   0.305   1.206   3.285
 1352SOL     OW 4954   0.081   1.039   2.763
 1352SOL    HW1 4955   0.126   1.093   2.691
 1352SOL    HW2 4956   0.015   1.096   2.811
 1353SOL     OW 4957   0.910   4.055   4.576
 1353SOL    HW1 4958   0.929   3.968   4.529
 1353SOL    HW2 4959   0.833   4.042   4.639
 1354SOL     OW 4960   0.608   0.231   2.122
 1354SOL    HW1 4961   0.634   0.134   2.119
 1354SOL    HW2 4962   0.588   0.263   2.029
 1355SOL     OW 4963   4.939   3.317   6.571
 1355SOL    HW1 4964   5.005   3.253   6.533
 1355SOL    HW2 4965   4.956   3.408   6.533
 1356SOL     OW 4966   3.595   3.368   2.694
 1356SOL    HW1 4967   3.589   3.399   2.788
 1356SOL    HW2 4968   3.690   3.371   2.663
 1357SOL     OW 4969   2.782   2.845   5.720
 1357SOL    HW1 4970   2.694   2.870   5.760
 1357SOL    HW2 4971   2.855   2.868   5.785
 1358SOL     OW 4972   2.116   2.583   6.509
 1358SOL    HW1 4973   2.191   2.566   6.573
 1358SOL    HW2 4974   2.136   2.539   6.421
 1359SOL     OW 4975   6.360   2.662   0.046
 1359SOL    HW1 4976   6.368   2.587   0.112
 1359SOL    HW2 4977   6.263   2.680   0.027
 1360SOL     OW 4978   3.455   3.563   3.666
 1360SOL    HW1 4979   3.544   3.517   3.658
 1360SOL    HW2 4980   3.402   3.548   3.583
 1361SOL     OW 4981   0.801   6.028   0.024
 1361SOL    HW1 4982   0.816   5.936   0.060
 1361SOL    HW2 4983   0.881   6.057   6.995
 1362SOL     OW 4984   2.998   3.285   6.014
 1362SOL    HW1 4985   3.089   3.263   6.050
 1362SOL    HW2 4986   2.952   3.348   6.076
 1363SOL     OW 4987   6.496   5.761   2.055
 1363SOL    HW1 4988   6.571   5.774   1.990
 1363SOL    HW2 4989   6.444   5.680   2.030
 1364SOL     OW 4990   6.856   3.049   1.179
 1364SOL    HW1 4991   6.808   3.135   1.160
 1364SOL    HW2 4992   6.954   3.063   1.166
 1365SOL     OW 4993   0.085   3.687   6.781
 1365SOL    HW1 4994   0.132   3.770   6.752
 1365SOL    HW2 4995   0.128   3.607   6.738
 1366SOL     OW 4996   6.885   1.594   0.434
 1366SOL    HW1 4997   6.867   1.683   0.391
 1366SOL    HW2 4998   6.962   1.550   0.387
 1367SOL     OW 4999   6.999   5.811   4.265
 1367SOL    HW1 5000   6.922   5.751   4.242
 1367SOL    HW2 5001   6.996   5.892   4.207
 1368SOL     OW 5002   0.056   6.924   4.335
 1368SOL    HW1 5003   0.045   7.008   4.387
 1368SOL    HW2 5004   0.054   6.944   4.237
 1369SOL     OW 5005   2.918   6.468   2.745
 1369SOL    HW1 5006   2.853   6.397   2.770
 1369SOL    HW2 5007   2.889   6.556   2.784
 1370SOL     OW 5008   6.944   2.432   3.168
 1370SOL    HW1 5009   6.885   2.352   3.154
 1370SOL    HW2 5010   0.016   2.408   3.151
 1371SOL     OW 5011   5.654   1.662   5.190
 1371SOL    HW1 5012   5.595   1.584   5.207
 1371SOL    HW2 5013   5.674   1.668   5.092
 1372SOL     OW 5014   6.340   2.403   6.729
 1372SOL    HW1 5015   6.439   2.415   6.740
 1372SOL    HW2 5016   6.307   2.462   6.655
 1373SOL     OW 5017   4.725   2.722   2.135
 1373SOL    HW1 5018   4.746   2.815   2.106
 1373SOL    HW2 5019   4.662   2.680   2.070
 1374SOL     OW 5020   5.086   4.694   0.323
 1374SOL    HW1 5021   5.143   4.762   0.276
 1374SOL    HW2 5022   5.093   4.606   0.275
 1375SOL     OW 5023   5.906   6.184   4.828
 1375SOL    HW1 5024   5.911   6.099   4.776
 1375SOL    HW2 5025   5.998   6.211   4.856
 1376SOL     OW 5026   2.240   4.666   6.933
 1376SOL    HW1 5027   2.175   4.731   6.973
 1376SOL    HW2 5028   2.248   4.586   6.993
 1377SOL     OW 5029   1.692   1.932   2.804
 1377SOL    HW1 5030   1.628   2.000   2.767
 1377SOL    HW2 5031   1.648   1.883   2.879
 1378SOL     OW 5032   4.831   2.325   4.383
 1378SOL    HW1 5033   4.859   2.406   4.434
 1378SOL    HW2 5034   4.881   2.245   4.417
 1379SOL     OW 5035   5.666   5.229   1.158
 1379SOL    HW1 5036   5.603   5.152   1.150
 1379SOL    HW2 5037   5.658   5.287   1.076
 1380SOL     OW 5038   6.953   5.826   0.994
 1380SOL    HW1 5039   6.858   5.797   0.982
 1380SOL    HW2 5040   6.970   5.907   0.939
 1381SOL     OW 5041   6.000   2.374   5.708
 1381SOL    HW1 5042   5.916   2.398   5.659
 1381SOL    HW2 5043   6.067   2.447   5.697
 1382SOL     OW 5044   4.294   2.951   1.373
 1382SOL    HW1 5045   4.200   2.934   1.345
 1382SOL    HW2 5046   4.295   3.018   1.448
 1383SOL     OW 5047   1.107   0.869   1.906
 1383SOL    HW1 5048   1.066   0.803   1.843
 1383SOL    HW2 5049   1.190   0.907   1.866
 1384SOL     OW 5050   5.164   0.456   0.865
 1384SOL    HW1 5051   5.174   0.438   0.962
 1384SOL    HW2 5052   5.152   0.370   0.816
 1385SOL     OW 5053   1.736   5.281   2.365
 1385SOL    HW1 5054   1.780   5.206   2.316
 1385SOL    HW2 5055   1.674   5.329   2.304
 1386SOL     OW 5056   2.677   5.977   3.769
 1386SOL    HW1 5057   2.618   5.927   3.831
 1386SOL    HW2 5058   2.772   5.971   3.800
 1387SOL     OW 5059   4.137   5.874   1.792
 1387SOL    HW1 5060   4.216   5.933   1.810
 1387SOL    HW2 5061   4.071   5.924   1.735
 1388SOL     OW 5062   0.058   0.378   1.380
 1388SOL    HW1 5063   0.119   0.304   1.352
 1388SOL    HW2 5064   6.992   0.341   1.407
 1389SOL     OW 5065   7.000   0.892   3.053
 1389SOL    HW1 5066   0.076   0.880   3.044
 1389SOL    HW2 5067   6.974   0.983   3.022
 1390SOL     OW 5068   0.296   2.880   5.501
 1390SOL    HW1 5069   0.274   2.822   5.423
 1390SOL    HW2 5070   0.355   2.955   5.470
 1391SOL     OW 5071   6.949   1.729   3.488
 1391SOL    HW1 5072   6.908   1.652   3.439
 1391SOL    HW2 5073   0.008   1.697   3.537
 1392SOL     OW 5074   4.909   5.252   5.189
 1392SOL    HW1 5075   4.983   5.256   5.256
 1392SOL    HW2 5076   4.866   5.342   5.181
 1393SOL     OW 5077   4.823   6.558   6.084
 1393SOL    HW1 5078   4.765   6.640   6.089
 1393SOL    HW2 5079   4.767   6.476   6.094
 1394SOL     OW 5080   2.786   5.715   5.451
 1394SOL    HW1 5081   2.721   5.650   5.490
 1394SOL    HW2 5082   2.789   5.703   5.351
 1395SOL     OW 5083   3.152   4.537   5.709
 1395SOL    HW1 5084   3.169   4.581   5.621
 1395SOL    HW2 5085   3.145   4.438   5.695
 1396SOL     OW 5086   6.642   6.545   4.399
 1396SOL    HW1 5087   6.612   6.630   4.441
 1396SOL    HW2 5088   6.686   6.488   4.468
 1397SOL     OW 5089   5.814   0.310   4.649
 1397SOL    HW1 5090   5.891   0.307   4.585
 1397SOL    HW2 5091   5.849   0.312   4.743
 1398SOL     OW 5092   1.407   1.120   4.966
 1398SOL    HW1 5093   1.361   1.056   4.905
 1398SOL    HW2 5094   1.502   1.132   4.936
 1399SOL     OW 5095   3.315   5.471   1.044
 1399SOL    HW1 5096   3.407   5.510   1.037
 1399SOL    HW2 5097   3.257   5.530   1.100
 1400SOL     OW 5098   6.820   1.102   1.739
 1400SOL    HW1 5099   6.877   1.184   1.737
 1400SOL    HW2 5100   6.785   1.084   1.646
 1401SOL     OW 5101   0.410   2.260   5.367
 1401SOL    HW1 5102   0.440   2.169   5.394
 1401SOL    HW2 5103   0.488   2.311   5.330
 1402SOL     OW 5104   6.979   3.524   0.170
 1402SOL    HW1 5105   6.953   3.443   0.118
 1402SOL    HW2 5106   0.030   3.572   0.122
 1403SOL     OW 5107   2.855   6.838   1.883
 1403SOL    HW1 5108   2.898   6.925   1.857
 1403SOL    HW2 5109   2.869   6.822   1.980
 1404SOL     OW 5110   5.403   0.610   0.344
 1404SOL    HW1 5111   5.397   0.538   0.413
 1404SOL    HW2 5112   5.421   0.698   0.388
 1405SOL     OW 5113   1.814   3.943   1.181
 1405SOL    HW1 5114   1.871   4.026   1.175
 1405SOL    HW2 5115   1.853   3.872   1.122
 1406SOL     OW 5116   1.028   4.543   1.561
 1406SOL    HW1 5117   1.093   4.618   1.555
 1406SOL    HW2 5118   0.969   4.555   1.641
 1407SOL     OW 5119   6.472   1.245   2.143
 1407SOL    HW1 5120   6.520   1.185   2.079
 1407SOL    HW2 5121   6.532   1.265   2.221
 1408SOL     OW 5122   5.593   0.737   6.171
 1408SOL    HW1 5123   5.643   0.686   6.241
 1408SOL    HW2 5124   5.644   0.734   6.085
 1409SOL     OW 5125   0.150   0.540   4.409
 1409SOL    HW1 5126   0.176   0.444   4.419
 1409SOL    HW2 5127   0.054   0.552   4.435
 1410SOL     OW 5128   1.115   3.101   6.530
 1410SOL    HW1 5129   1.093   3.169   6.600
 1410SOL    HW2 5130   1.128   3.146   6.442
 1411SOL     OW 5131   1.994   6.547   2.766
 1411SOL    HW1 5132   2.077   6.539   2.711
 1411SOL    HW2 5133   1.928   6.606   2.719
 1412SOL     OW 5134   1.915   2.955   0.447
 1412SOL    HW1 5135   1.828   2.998   0.470
 1412SOL    HW2 5136   1.961   2.926   0.531
 1413SOL     OW 5137   2.490   0.956   4.482
 1413SOL    HW1 5138   2.402   1.004   4.490
 1413SOL    HW2 5139   2.494   0.883   4.549
 1414SOL     OW 5140   2.611   1.701   1.885
 1414SOL    HW1 5141   2.561   1.788   1.894
 1414SOL    HW2 5142   2.553   1.626   1.919
 1415SOL     OW 5143   3.186   6.314   4.818
 1415SOL    HW1 5144   3.226   6.267   4.897
 1415SOL    HW2 5145   3.119   6.253   4.773
 1416SOL     OW 5146   4.471   4.561   2.764
 1416SOL    HW1 5147   4.382   4.605   2.767
 1416SOL    HW2 5148   4.521   4.591   2.683
 1417SOL     OW 5149   2.722   2.572   6.378
 1417SOL    HW1 5150   2.809   2.533   6.349
 1417SOL    HW2 5151   2.696   2.647   6.316
 1418SOL     OW 5152   3.009   3.846   3.124
 1418SOL    HW1 5153   2.986   3.868   3.030
 1418SOL    HW2 5154   2.961   3.763   3.152
 1419SOL     OW 5155   2.745   6.655   4.638
 1419SOL    HW1 5156   2.804   6.574   4.641
 1419SOL    HW2 5157   2.773   6.718   4.710
 1420SOL     OW 5158   1.399   6.307   2.646
 1420SOL    HW1 5159   1.484   6.355   2.664
 1420SOL    HW2 5160   1.333   6.369   2.603
 1421SOL     OW 5161   1.965   2.843   3.141
 1421SOL    HW1 5162   2.044   2.781   3.148
 1421SOL    HW2 5163   1.980   2.923   3.200
 1422SOL     OW 5164   2.312   4.314   2.100
 1422SOL    HW1 5165   2.386   4.327   2.166
 1422SOL    HW2 5166   2.339   4.247   2.032
 1423SOL     OW 5167   5.970   6.257   1.935
 1423SOL    HW1 5168   5.973   6.320   2.013
 1423SOL    HW2 5169   5.936   6.307   1.855
 1424SOL     OW 5170   5.490   4.932   4.920
 1424SOL    HW1 5171   5.568   4.922   4.857
 1424SOL    HW2 5172   5.407   4.951   4.868
 1425SOL     OW 5173   1.679   6.012   3.934
 1425SOL    HW1 5174   1.724   6.099   3.954
 1425SOL    HW2 5175   1.593   6.007   3.985
 1426SOL     OW 5176   0.827   1.872   5.550
 1426SOL    HW1 5177   0.896   1.921   5.498
 1426SOL    HW2 5178   0.864   1.845   5.639
 1427SOL     OW 5179   6.905   0.185   3.005
 1427SOL    HW1 5180   7.000   0.165   3.030
 1427SOL    HW2 5181   6.864   0.244   3.075
 1428SOL     OW 5182   6.223   2.550   0.309
 1428SOL    HW1 5183   6.126   2.541   0.284
 1428SOL    HW2 5184   6.269   2.463   0.293
 1429SOL     OW 5185   6.303   1.379   0.503
 1429SOL    HW1 5186   6.365   1.308   0.535
 1429SOL    HW2 5187   6.245   1.410   0.578
 1430SOL     OW 5188   1.152   3.915   4.038
 1430SOL    HW1 5189   1.226   3.976   4.066
 1430SOL    HW2 5190   1.175   3.821   4.062
 1431SOL     OW 5191   2.228   1.643   1.810
 1431SOL    HW1 5192   2.225   1.707   1.733
 1431SOL    HW2 5193   2.136   1.612   1.832
 1432SOL     OW 5194   2.467   1.207   3.482
 1432SOL    HW1 5195   2.496   1.278   3.547
 1432SOL    HW2 5196   2.393   1.242   3.425
 1433SOL     OW 5197   4.154   0.947   3.841
 1433SOL    HW1 5198   4.205   0.871   3.800
 1433SOL    HW2 5199   4.056   0.924   3.844
 1434SOL     OW 5200   0.624   1.159   5.244
 1434SOL    HW1 5201   0.630   1.222   5.167
 1434SOL    HW2 5202   0.610   1.066   5.209
 1435SOL     OW 5203   5.646   1.211   2.579
 1435SOL    HW1 5204   5.708   1.183   2.507
 1435SOL    HW2 5205   5.562   1.248   2.539
 1436SOL     OW 5206   4.187   4.259   6.808
 1436SOL    HW1 5207   4.151   4.273   6.900
 1436SOL    HW2 5208   4.272   4.207   6.812
 1437SOL     OW 5209   3.167   1.473   3.755
 1437SOL    HW1 5210   3.226   1.505   3.680
 1437SOL    HW2 5211   3.223   1.448   3.833
 1438SOL     OW 5212   3.759   6.294   1.366
 1438SOL    HW1 5213   3.841   6.323   1.415
 1438SOL    HW2 5214   3.761   6.194   1.353
 1439SOL     OW 5215   0.186   6.184   1.829
 1439SOL    HW1 5216   0.266   6.239   1.853
 1439SOL    HW2 5217   0.133   6.232   1.759
 1440SOL     OW 5218   2.812   4.366   1.422
 1440SOL    HW1 5219   2.817   4.306   1.502
 1440SOL    HW2 5220   2.827   4.461   1.450
 1441SOL     OW 5221   6.816   0.284   1.361
 1441SOL    HW1 5222   6.765   0.254   1.280
 1441SOL    HW2 5223   6.770   0.251   1.443
 1442SOL     OW 5224   6.308   6.203   6.790
 1442SOL    HW1 5225   6.335   6.132   6.855
 1442SOL    HW2 5226   6.260   6.276   6.839
 1443SOL     OW 5227   0.447   2.477   2.520
 1443SOL    HW1 5228   0.403   2.552   2.471
 1443SOL    HW2 5229   0.429   2.486   2.618
 1444SOL     OW 5230   5.237   6.788   0.978
 1444SOL    HW1 5231   5.266   6.702   0.936
 1444SOL    HW2 5232   5.138   6.797   0.970
 1445SOL     OW 5233   0.504   3.554   2.783
 1445SOL    HW1 5234   0.531   3.493   2.857
 1445SOL    HW2 5235   0.421   3.604   2.809
 1446SOL     OW 5236   6.141   0.190   6.546
 1446SOL    HW1 5237   6.127   0.277   6.593
 1446SOL    HW2 5238   6.083   0.185   6.465
 1447SOL     OW 5239   5.304   5.501   3.502
 1447SOL    HW1 5240   5.272   5.417   3.545
 1447SOL    HW2 5241   5.326   5.568   3.573
 1448SOL     OW 5242   0.331   3.046   4.771
 1448SOL    HW1 5243   0.245   3.030   4.722
 1448SOL    HW2 5244   0.346   2.972   4.837
 1449SOL     OW 5245   2.006   4.182   4.860
 1449SOL    HW1 5246   2.020   4.084   4.865
 1449SOL    HW2 5247   2.084   4.225   4.814
 1450SOL     OW 5248   1.138   1.906   5.736
 1450SOL    HW1 5249   1.066   1.905   5.806
 1450SOL    HW2 5250   1.149   1.999   5.702
 1451SOL     OW 5251   1.931   6.399   1.987
 1451SOL    HW1 5252   1.961   6.489   1.955
 1451SOL    HW2 5253   2.000   6.331   1.962
 1452SOL     OW 5254   4.262   3.030   6.013
 1452SOL    HW1 5255   4.185   2.967   6.005
 1452SOL    HW2 5256   4.253   3.084   6.097
 1453SOL     OW 5257   0.882   4.561   5.498
 1453SOL    HW1 5258   0.974   4.527   5.479
 1453SOL    HW2 5259   0.868   4.564   5.597
 1454SOL     OW 5260   2.865   1.804   3.367
 1454SOL    HW1 5261   2.817   1.790   3.280
 1454SOL    HW2 5262   2.894   1.900   3.373
 1455SOL     OW 5263   1.690   6.074   2.976
 1455SOL    HW1 5264   1.613   6.138   2.975
 1455SOL    HW2 5265   1.712   6.047   2.882
 1456SOL     OW 5266   6.607   5.856   6.332
 1456SOL    HW1 5267   6.676   5.887   6.397
 1456SOL    HW2 5268   6.650   5.840   6.242
 1457SOL     OW 5269   0.485   4.191   0.432
 1457SOL    HW1 5270   0.457   4.095   0.441
 1457SOL    HW2 5271   0.407   4.250   0.451
 1458SOL     OW 5272   5.487   5.259   5.865
 1458SOL    HW1 5273   5.442   5.199   5.932
 1458SOL    HW2 5274   5.474   5.354   5.893
 1459SOL     OW 5275   5.010   6.832   5.531
 1459SOL    HW1 5276   5.047   6.825   5.623
 1459SOL    HW2 5277   4.923   6.782   5.526
 1460SOL     OW 5278   1.574   6.645   5.409
 1460SOL    HW1 5279   1.589   6.558   5.456
 1460SOL    HW2 5280   1.496   6.636   5.346
 1461SOL     OW 5281   0.149   3.376   2.302
 1461SOL    HW1 5282   0.240   3.413   2.320
 1461SOL    HW2 5283   0.115   3.330   2.384
 1462SOL     OW 5284   0.842   0.715   0.120
 1462SOL    HW1 5285   0.892   0.754   0.043
 1462SOL    HW2 5286   0.748   0.695   0.093
 1463SOL     OW 5287   1.869   5.620   6.452
 1463SOL    HW1 5288   1.930   5.697   6.435
 1463SOL    HW2 5289   1.780   5.639   6.412
 1464SOL     OW 5290   5.965   4.236   3.473
 1464SOL    HW1 5291   6.008   4.214   3.561
 1464SOL    HW2 5292   5.959   4.336   3.464
 1465SOL     OW 5293   1.962   1.572   3.676
 1465SOL    HW1 5294   2.057   1.599   3.659
 1465SOL    HW2 5295   1.952   1.474   3.659
 1466SOL     OW 5296   3.657   2.645   1.757
 1466SOL    HW1 5297   3.566   2.681   1.776
 1466SOL    HW2 5298   3.661   2.549   1.783
 1467SOL     OW 5299   0.935   0.921   4.078
 1467SOL    HW1 5300   0.970   0.839   4.033
 1467SOL    HW2 5301   0.837   0.909   4.096
 1468SOL     OW 5302   3.195   5.850   1.865
 1468SOL    HW1 5303   3.269   5.789   1.891
 1468SOL    HW2 5304   3.219   5.897   1.780
 1469SOL     OW 5305   6.460   6.251   3.750
 1469SOL    HW1 5306   6.475   6.349   3.736
 1469SOL    HW2 5307   6.457   6.205   3.661
 1470SOL     OW 5308   0.022   2.556   1.042
 1470SOL    HW1 5309   0.105   2.518   1.001
 1470SOL    HW2 5310   7.005   2.624   0.981
 1471SOL     OW 5311   6.772   6.897   0.981
 1471SOL    HW1 5312   6.829   6.905   1.063
 1471SOL    HW2 5313   6.778   6.982   0.928
 1472SOL     OW 5314   2.804   6.840   6.140
 1472SOL    HW1 5315   2.797   6.833   6.040
 1472SOL    HW2 5316   2.828   6.933   6.165
 1473SOL     OW 5317   3.345   4.949   4.823
 1473SOL    HW1 5318   3.313   4.952   4.728
 1473SOL    HW2 5319   3.389   4.862   4.841
 1474SOL     OW 5320   4.547   4.848   1.515
 1474SOL    HW1 5321   4.636   4.809   1.491
 1474SOL    HW2 5322   4.516   4.910   1.443
 1475SOL     OW 5323   5.055   0.724   0.705
 1475SOL    HW1 5324   5.047   0.643   0.763
 1475SOL    HW2 5325   5.018   0.804   0.754
 1476SOL     OW 5326   2.727   1.153   1.197
 1476SOL    HW1 5327   2.686   1.129   1.285
 1476SOL    HW2 5328   2.809   1.208   1.212
 1477SOL     OW 5329   4.340   6.379   1.018
 1477SOL    HW1 5330   4.411   6.333   0.965
 1477SOL    HW2 5331   4.336   6.338   1.110
 1478SOL     OW 5332   5.071   6.487   5.377
 1478SOL    HW1 5333   5.163   6.451   5.392
 1478SOL    HW2 5334   5.077   6.584   5.353
 1479SOL     OW 5335   3.691   4.056   1.899
 1479SOL    HW1 5336   3.662   4.086   1.808
 1479SOL    HW2 5337   3.765   3.989   1.889
 1480SOL     OW 5338   2.539   0.780   5.451
 1480SOL    HW1 5339   2.494   0.869   5.437
 1480SOL    HW2 5340   2.538   0.757   5.548
 1481SOL     OW 5341   5.623   2.768   5.187
 1481SOL    HW1 5342   5.694   2.836   5.166
 1481SOL    HW2 5343   5.605   2.713   5.105
 1482SOL     OW 5344   4.642   0.459   0.561
 1482SOL    HW1 5345   4.600   0.549   0.558
 1482SOL    HW2 5346   4.598   0.404   0.633
 1483SOL     OW 5347   4.297   1.538   5.913
 1483SOL    HW1 5348   4.210   1.511   5.871
 1483SOL    HW2 5349   4.289   1.532   6.013
 1484SOL     OW 5350   3.040   4.845   4.250
 1484SOL    HW1 5351   3.025   4.808   4.342
 1484SOL    HW2 5352   3.138   4.849   4.231
 1485SOL     OW 5353   5.173   1.406   3.106
 1485SOL    HW1 5354   5.265   1.442   3.091
 1485SOL    HW2 5355   5.129   1.390   3.018
 1486SOL     OW 5356   5.622   0.006   3.446
 1486SOL    HW1 5357   5.571   0.091   3.452
 1486SOL    HW2 5358   5.670   7.012   3.533
 1487SOL     OW 5359   0.285   0.669   0.249
 1487SOL    HW1 5360   0.269   0.737   0.178
 1487SOL    HW2 5361   0.227   0.589   0.232
 1488SOL     OW 5362   6.375   0.285   2.773
 1488SOL    HW1 5363   6.457   0.328   2.733
 1488SOL    HW2 5364   6.315   0.356   2.810
 1489SOL     OW 5365   4.042   4.819   6.832
 1489SOL    HW1 5366   3.963   4.781   6.879
 1489SOL    HW2 5367   4.099   4.744   6.798
 1490SOL     OW 5368   0.316   2.659   1.940
 1490SOL    HW1 5369   0.237   2.639   1.883
 1490SOL    HW2 5370   0.286   2.706   2.023
 1491SOL     OW 5371   0.000   3.127   1.606
 1491SOL    HW1 5372   0.071   3.189   1.642
 1491SOL    HW2 5373   0.038   3.074   1.530
 1492SOL     OW 5374   6.306   0.534   2.435
 1492SOL    HW1 5375   6.254   0.550   2.519
 1492SOL    HW2 5376   6.251   0.562   2.356
 1493SOL     OW 5377   4.280   1.315   5.619
 1493SOL    HW1 5378   4.275   1.216   5.606
 1493SOL    HW2 5379   4.205   1.345   5.679
 1494SOL     OW 5380   5.643   2.368   5.979
 1494SOL    HW1 5381   5.604   2.435   6.042
 1494SOL    HW2 5382   5.743   2.374   5.980
 1495SOL     OW 5383   5.707   3.452   3.705
 1495SOL    HW1 5384   5.792   3.501   3.690
 1495SOL    HW2 5385   5.691   3.442   3.804
 1496SOL     OW 5386   0.091   6.275   6.884
 1496SOL    HW1 5387   7.014   6.272   6.883
 1496SOL    HW2 5388   0.126   6.194   6.932
 1497SOL     OW 5389   5.193   2.174   2.968
 1497SOL    HW1 5390   5.194   2.125   2.880
 1497SOL    HW2 5391   5.260   2.248   2.965
 1498SOL     OW 5392   3.024   4.723   1.329
 1498SOL    HW1 5393   3.031   4.737   1.428
 1498SOL    HW2 5394   3.049   4.629   1.306
 1499SOL     OW 5395   0.002   3.825   5.850
 1499SOL    HW1 5396   0.050   3.885   5.785
 1499SOL    HW2 5397   7.022   3.870   5.940
 1500SOL     OW 5398   1.228   5.793   0.505
 1500SOL    HW1 5399   1.145   5.791   0.561
 1500SOL    HW2 5400   1.230   5.879   0.453
 1501SOL     OW 5401   5.929   1.381   6.236
 1501SOL    HW1 5402   5.891   1.474   6.240
 1501SOL    HW2 5403   6.023   1.382   6.268
 1502SOL     OW 5404   7.011   1.381   6.026
 1502SOL    HW1 5405   7.008   1.480   6.037
 1502SOL    HW2 5406   0.034   1.340   6.106
 1503SOL     OW 5407   0.794   4.124   1.911
 1503SOL    HW1 5408   0.844   4.060   1.970
 1503SOL    HW2 5409   0.838   4.127   1.821
 1504SOL     OW 5410   0.687   6.809   3.441
 1504SOL    HW1 5411   0.592   6.785   3.420
 1504SOL    HW2 5412   0.737   6.727   3.469
 1505SOL     OW 5413   5.795   6.765   4.956
 1505SOL    HW1 5414   5.825   6.825   5.030
 1505SOL    HW2 5415   5.739   6.818   4.891
 1506SOL     OW 5416   1.629   0.881   1.037
 1506SOL    HW1 5417   1.693   0.846   0.969
 1506SOL    HW2 5418   1.566   0.946   0.994
 1507SOL     OW 5419   1.045   1.804   4.449
 1507SOL    HW1 5420   1.124   1.761   4.405
 1507SOL    HW2 5421   1.049   1.789   4.547
 1508SOL     OW 5422   0.336   1.362   0.613
 1508SOL    HW1 5423   0.351   1.405   0.702
 1508SOL    HW2 5424   0.424   1.345   0.569
 1509SOL     OW 5425   5.392   1.450   5.002
 1509SOL    HW1 5426   5.359   1.412   4.916
 1509SOL    HW2 5427   5.324   1.513   5.040
 1510SOL     OW 5428   3.495   6.897   3.617
 1510SOL    HW1 5429   3.411   6.889   3.670
 1510SOL    HW2 5430   3.569   6.848   3.665
 1511SOL     OW 5431   3.573   3.745   4.295
 1511SOL    HW1 5432   3.658   3.796   4.279
 1511SOL    HW2 5433   3.508   3.802   4.344
 1512SOL     OW 5434   6.747   6.081   1.305
 1512SOL    HW1 5435   6.653   6.059   1.282
 1512SOL    HW2 5436   6.802   5.998   1.307
 1513SOL     OW 5437   3.027   6.758   5.800
 1513SOL    HW1 5438   3.024   6.693   5.876
 1513SOL    HW2 5439   2.933   6.778   5.769
 1514SOL     OW 5440   3.597   2.408   5.679
 1514SOL    HW1 5441   3.526   2.349   5.643
 1514SOL    HW2 5442   3.680   2.400   5.622
 1515SOL     OW 5443   6.542   1.876   2.637
 1515SOL    HW1 5444   6.510   1.954   2.583
 1515SOL    HW2 5445   6.476   1.801   2.628
 1516SOL     OW 5446   6.581   6.486   4.877
 1516SOL    HW1 5447   6.572   6.395   4.917
 1516SOL    HW2 5448   6.563   6.481   4.779
 1517SOL     OW 5449   3.492   6.493   3.618
 1517SOL    HW1 5450   3.559   6.443   3.673
 1517SOL    HW2 5451   3.409   6.509   3.672
 1518SOL     OW 5452   6.794   2.834   0.050
 1518SOL    HW1 5453   6.862   2.862   0.118
 1518SOL    HW2 5454   6.825   2.750   0.005
 1519SOL     OW 5455   0.029   4.505   0.368
 1519SOL    HW1 5456   6.978   4.473   0.428
 1519SOL    HW2 5457   0.077   4.581   0.412
 1520SOL     OW 5458   1.020   4.890   1.303
 1520SOL    HW1 5459   1.109   4.936   1.304
 1520SOL    HW2 5460   0.953   4.949   1.258
 1521SOL     OW 5461   2.797   4.707   6.915
 1521SOL    HW1 5462   2.739   4.626   6.921
 1521SOL    HW2 5463   2.758   4.780   6.971
 1522SOL     OW 5464   5.342   5.881   5.177
 1522SOL    HW1 5465   5.245   5.868   5.156
 1522SOL    HW2 5466   5.352   5.909   5.273
 1523SOL     OW 5467   3.937   6.959   6.902
 1523SOL    HW1 5468   3.994   7.017   6.844
 1523SOL    HW2 5469   3.986   6.934   6.985
 1524SOL     OW 5470   2.630   2.322   3.120
 1524SOL    HW1 5471   2.727   2.320   3.143
 1524SOL    HW2 5472   2.576   2.292   3.198
 1525SOL     OW 5473   6.213   2.677   0.589
 1525SOL    HW1 5474   6.305   2.709   0.612
 1525SOL    HW2 5475   6.219   2.611   0.514
 1526SOL     OW 5476   0.581   1.605   0.070
 1526SOL    HW1 5477   0.633   1.691   0.066
 1526SOL    HW2 5478   0.644   1.528   0.070
 1527SOL     OW 5479   3.453   1.341   4.929
 1527SOL    HW1 5480   3.430   1.258   4.879
 1527SOL    HW2 5481   3.371   1.397   4.943
 1528SOL     OW 5482   4.539   3.965   0.822
 1528SOL    HW1 5483   4.536   3.872   0.784
 1528SOL    HW2 5484   4.475   4.023   0.772
 1529SOL     OW 5485   5.503   0.918   6.705
 1529SOL    HW1 5486   5.447   0.897   6.625
 1529SOL    HW2 5487   5.501   0.840   6.768
 1530SOL     OW 5488   3.283   6.854   1.321
 1530SOL    HW1 5489   3.344   6.932   1.333
 1530SOL    HW2 5490   3.225   6.869   1.241
 1531SOL     OW 5491   4.222   0.618   4.099
 1531SOL    HW1 5492   4.124   0.624   4.119
 1531SOL    HW2 5493   4.235   0.608   4.001
 1532SOL     OW 5494   3.282   4.780   5.828
 1532SOL    HW1 5495   3.261   4.697   5.776
 1532SOL    HW2 5496   3.263   4.860   5.772
 1533SOL     OW 5497   5.295   5.584   1.274
 1533SOL    HW1 5498   5.214   5.564   1.330
 1533SOL    HW2 5499   5.314   5.506   1.214
 1534SOL     OW 5500   4.107   6.617   0.031
 1534SOL    HW1 5501   4.042   6.560   0.081
 1534SOL    HW2 5502   4.112   6.707   0.073
 1535SOL     OW 5503   6.227   6.901   4.813
 1535SOL    HW1 5504   6.288   6.957   4.757
 1535SOL    HW2 5505   6.209   6.948   4.900
 1536SOL     OW 5506   4.008   4.335   0.044
 1536SOL    HW1 5507   3.935   4.403   0.043
 1536SOL    HW2 5508   4.087   4.373   0.094
 1537SOL     OW 5509   3.515   5.097   4.021
 1537SOL    HW1 5510   3.473   5.188   4.028
 1537SOL    HW2 5511   3.553   5.085   3.929
 1538SOL     OW 5512   3.600   1.412   0.332
 1538SOL    HW1 5513   3.678   1.351   0.341
 1538SOL    HW2 5514   3.517   1.358   0.315
 1539SOL     OW 5515   4.946   3.303   1.459
 1539SOL    HW1 5516   4.884   3.254   1.521
 1539SOL    HW2 5517   4.915   3.293   1.365
 1540SOL     OW 5518   1.762   0.056   4.663
 1540SOL    HW1 5519   1.815   7.019   4.724
 1540SOL    HW2 5520   1.716   0.126   4.717
 1541SOL     OW 5521   3.777   2.992   4.637
 1541SOL    HW1 5522   3.686   2.952   4.650
 1541SOL    HW2 5523   3.835   2.970   4.715
 1542SOL     OW 5524   6.601   6.845   2.180
 1542SOL    HW1 5525   6.617   6.846   2.081
 1542SOL    HW2 5526   6.526   6.782   2.200
 1543SOL     OW 5527   3.128   6.040   6.306
 1543SOL    HW1 5528   3.180   6.043   6.221
 1543SOL    HW2 5529   3.060   5.968   6.301
 1544SOL     OW 5530   3.770   3.682   4.035
 1544SOL    HW1 5531   3.714   3.706   3.955
 1544SOL    HW2 5532   3.739   3.737   4.114
 1545SOL     OW 5533   6.279   0.122   1.822
 1545SOL    HW1 5534   6.306   0.217   1.805
 1545SOL    HW2 5535   6.250   0.112   1.917
 1546SOL     OW 5536   5.232   0.202   5.732
 1546SOL    HW1 5537   5.250   0.105   5.745
 1546SOL    HW2 5538   5.292   0.238   5.660
 1547SOL     OW 5539   1.143   4.064   0.625
 1547SOL    HW1 5540   1.208   4.055   0.549
 1547SOL    HW2 5541   1.105   4.157   0.625
 1548SOL     OW 5542   6.422   3.184   0.470
 1548SOL    HW1 5543   6.492   3.252   0.492
 1548SOL    HW2 5544   6.462   3.111   0.414
 1549SOL     OW 5545   4.020   1.215   4.540
 1549SOL    HW1 5546   4.022   1.314   4.557
 1549SOL    HW2 5547   3.999   1.198   4.444
 1550SOL     OW 5548   3.988   3.398   2.319
 1550SOL    HW1 5549   4.014   3.467   2.252
 1550SOL    HW2 5550   4.022   3.425   2.409
 1551SOL     OW 5551   1.269   5.031   0.152
 1551SOL    HW1 5552   1.207   5.089   0.205
 1551SOL    HW2 5553   1.218   4.986   0.079
 1552SOL     OW 5554   2.876   4.796   0.789
 1552SOL    HW1 5555   2.827   4.716   0.824
 1552SOL    HW2 5556   2.971   4.792   0.818
 1553SOL     OW 5557   0.583   1.864   6.120
 1553SOL    HW1 5558   0.522   1.867   6.199
 1553SOL    HW2 5559   0.644   1.943   6.121
 1554SOL     OW 5560   3.218   1.775   3.612
 1554SOL    HW1 5561   3.141   1.837   3.626
 1554SOL    HW2 5562   3.211   1.734   3.521
 1555SOL     OW 5563   5.695   2.730   5.902
 1555SOL    HW1 5564   5.792   2.720   5.879
 1555SOL    HW2 5565   5.643   2.748   5.819
 1556SOL     OW 5566   1.893   1.230   6.548
 1556SOL    HW1 5567   1.863   1.164   6.478
 1556SOL    HW2 5568   1.815   1.254   6.605
 1557SOL     OW 5569   1.611   3.480   6.128
 1557SOL    HW1 5570   1.586   3.577   6.137
 1557SOL    HW2 5571   1.653   3.465   6.039
 1558SOL     OW 5572   6.595   0.833   4.562
 1558SOL    HW1 5573   6.602   0.912   4.502
 1558SOL    HW2 5574   6.536   0.764   4.521
 1559SOL     OW 5575   0.596   2.644   6.368
 1559SOL    HW1 5576   0.672   2.703   6.343
 1559SOL    HW2 5577   0.575   2.656   6.465
 1560SOL     OW 5578   6.979   1.116   6.343
 1560SOL    HW1 5579   6.924   1.100   6.425
 1560SOL    HW2 5580   0.010   1.200   6.354
 1561SOL     OW 5581   4.476   6.262   2.874
 1561SOL    HW1 5582   4.393   6.306   2.908
 1561SOL    HW2 5583   4.459   6.165   2.859
 1562SOL     OW 5584   4.394   6.799   2.316
 1562SOL    HW1 5585   4.452   6.757   2.386
 1562SOL    HW2 5586   4.451   6.832   2.241
 1563SOL     OW 5587   3.476   0.611   6.407
 1563SOL    HW1 5588   3.508   0.517   6.395
 1563SOL    HW2 5589   3.377   0.612   6.418
 1564SOL     OW 5590   1.626   0.934   1.802
 1564SOL    HW1 5591   1.706   0.957   1.859
 1564SOL    HW2 5592   1.591   1.017   1.760
 1565SOL     OW 5593   4.958   3.838   2.252
 1565SOL    HW1 5594   4.926   3.933   2.255
 1565SOL    HW2 5595   4.934   3.798   2.163
 1566SOL     OW 5596   5.242   4.184   3.342
 1566SOL    HW1 5597   5.239   4.093   3.302
 1566SOL    HW2 5598   5.185   4.246   3.287
 1567SOL     OW 5599   5.871   5.939   6.379
 1567SOL    HW1 5600   5.876   6.036   6.354
 1567SOL    HW2 5601   5.865   5.883   6.296
 1568SOL     OW 5602   1.293   0.537   0.723
 1568SOL    HW1 5603   1.283   0.501   0.631
 1568SOL    HW2 5604   1.225   0.608   0.740
 1569SOL     OW 5605   3.790   6.584   4.566
 1569SOL    HW1 5606   3.730   6.616   4.493
 1569SOL    HW2 5607   3.831   6.663   4.612
 1570SOL     OW 5608   3.096   2.035   1.543
 1570SOL    HW1 5609   3.113   2.123   1.588
 1570SOL    HW2 5610   2.999   2.013   1.548
 1571SOL     OW 5611   6.338   3.200   1.862
 1571SOL    HW1 5612   6.306   3.255   1.785
 1571SOL    HW2 5613   6.268   3.133   1.886
 1572SOL     OW 5614   0.493   0.451   2.276
 1572SOL    HW1 5615   0.437   0.409   2.348
 1572SOL    HW2 5616   0.544   0.381   2.228
 1573SOL     OW 5617   5.433   6.571   1.856
 1573SOL    HW1 5618   5.409   6.503   1.787
 1573SOL    HW2 5619   5.376   6.653   1.842
 1574SOL     OW 5620   0.504   2.178   1.765
 1574SOL    HW1 5621   0.446   2.189   1.684
 1574SOL    HW2 5622   0.503   2.083   1.794
 1575SOL     OW 5623   2.335   2.317   0.476
 1575SOL    HW1 5624   2.318   2.223   0.505
 1575SOL    HW2 5625   2.251   2.370   0.483
 1576SOL     OW 5626   5.872   6.090   3.639
 1576SOL    HW1 5627   5.966   6.115   3.617
 1576SOL    HW2 5628   5.826   6.057   3.556
 1577SOL     OW 5629   2.137   0.926   5.613
 1577SOL    HW1 5630   2.157   0.900   5.707
 1577SOL    HW2 5631   2.039   0.915   5.596
 1578SOL     OW 5632   6.055   3.893   5.568
 1578SOL    HW1 5633   6.069   3.817   5.631
 1578SOL    HW2 5634   6.057   3.859   5.474
 1579SOL     OW 5635   0.480   1.214   2.972
 1579SOL    HW1 5636   0.514   1.195   3.064
 1579SOL    HW2 5637   0.426   1.299   2.973
 1580SOL     OW 5638   2.711   4.425   5.296
 1580SOL    HW1 5639   2.641   4.471   5.241
 1580SOL    HW2 5640   2.801   4.459   5.269
 1581SOL     OW 5641   6.354   4.170   4.272
 1581SOL    HW1 5642   6.283   4.099   4.280
 1581SOL    HW2 5643   6.335   4.227   4.192
 1582SOL     OW 5644   0.245   5.079   4.617
 1582SOL    HW1 5645   0.279   5.081   4.711
 1582SOL    HW2 5646   0.206   4.989   4.598
 1583SOL     OW 5647   2.077   2.880   3.978
 1583SOL    HW1 5648   2.070   2.827   4.063
 1583SOL    HW2 5649   2.001   2.857   3.918
 1584SOL     OW 5650   2.650   6.321   5.335
 1584SOL    HW1 5651   2.580   6.277   5.279
 1584SOL    HW2 5652   2.734   6.268   5.330
 1585SOL     OW 5653   5.276   2.039   3.286
 1585SOL    HW1 5654   5.284   2.131   3.326
 1585SOL    HW2 5655   5.235   2.046   3.195
 1586SOL     OW 5656   3.558   4.020   2.360
 1586SOL    HW1 5657   3.540   4.057   2.269
 1586SOL    HW2 5658   3.633   3.955   2.356
 1587SOL     OW 5659   3.767   6.504   0.185
 1587SOL    HW1 5660   3.670   6.491   0.203
 1587SOL    HW2 5661   3.791   6.600   0.201
 1588SOL     OW 5662   5.620   1.496   2.230
 1588SOL    HW1 5663   5.520   1.506   2.232
 1588SOL    HW2 5664   5.663   1.583   2.253
 1589SOL     OW 5665   5.785   4.985   3.590
 1589SOL    HW1 5666   5.699   4.943   3.619
 1589SOL    HW2 5667   5.767   5.051   3.518
 1590SOL     OW 5668   1.753   6.589   0.228
 1590SOL    HW1 5669   1.767   6.537   0.312
 1590SOL    HW2 5670   1.730   6.683   0.251
 1591SOL     OW 5671   0.949   4.917   2.449
 1591SOL    HW1 5672   0.851   4.900   2.457
 1591SOL    HW2 5673   0.981   4.885   2.359
 1592SOL     OW 5674   3.118   3.121   2.525
 1592SOL    HW1 5675   3.094   3.215   2.499
 1592SOL    HW2 5676   3.140   3.069   2.443
 1593SOL     OW 5677   0.414   6.301   4.252
 1593SOL    HW1 5678   0.372   6.296   4.343
 1593SOL    HW2 5679   0.357   6.357   4.193
 1594SOL     OW 5680   6.654   5.300   2.503
 1594SOL    HW1 5681   6.565   5.328   2.538
 1594SOL    HW2 5682   6.726   5.336   2.563
 1595SOL     OW 5683   0.275   4.594   6.354
 1595SOL    HW1 5684   0.179   4.567   6.351
 1595SOL    HW2 5685   0.330   4.520   6.392
 1596SOL     OW 5686   1.929   5.470   6.117
 1596SOL    HW1 5687   1.863   5.407   6.156
 1596SOL    HW2 5688   1.882   5.554   6.089
 1597SOL     OW 5689   1.875   6.388   2.352
 1597SOL    HW1 5690   1.913   6.317   2.292
 1597SOL    HW2 5691   1.865   6.473   2.300
 1598SOL     OW 5692   6.979   4.366   1.065
 1598SOL    HW1 5693   6.957   4.457   1.030
 1598SOL    HW2 5694   0.027   4.374   1.136
 1599SOL     OW 5695   3.711   4.689   6.675
 1599SOL    HW1 5696   3.736   4.687   6.771
 1599SOL    HW2 5697   3.619   4.653   6.663
 1600SOL     OW 5698   5.110   1.578   5.000
 1600SOL    HW1 5699   5.075   1.530   4.920
 1600SOL    HW2 5700   5.057   1.552   5.081
 1601SOL     OW 5701   1.281   4.555   5.155
 1601SOL    HW1 5702   1.321   4.480   5.103
 1601SOL    HW2 5703   1.347   4.590   5.221
 1602SOL     OW 5704   1.423   5.848   3.410
 1602SOL    HW1 5705   1.373   5.848   3.324
 1602SOL    HW2 5706   1.487   5.772   3.412
 1603SOL     OW 5707   0.697   6.701   1.982
 1603SOL    HW1 5708   0.674   6.686   2.078
 1603SOL    HW2 5709   0.613   6.703   1.928
 1604SOL     OW 5710   0.124   5.366   6.833
 1604SOL    HW1 5711   0.054   5.437   6.831
 1604SOL    HW2 5712   0.121   5.319   6.921
 1605SOL     OW 5713   6.663   6.835   2.877
 1605SOL    HW1 5714   6.617   6.906   2.825
 1605SOL    HW2 5715   6.754   6.867   2.904
 1606SOL     OW 5716   4.876   6.847   5.876
 1606SOL    HW1 5717   4.795   6.798   5.908
 1606SOL    HW2 5718   4.926   6.790   5.811
 1607SOL     OW 5719   4.179   2.500   0.850
 1607SOL    HW1 5720   4.263   2.447   0.839
 1607SOL    HW2 5721   4.163   2.516   0.948
 1608SOL     OW 5722   2.285   6.829   0.239
 1608SOL    HW1 5723   2.226   6.852   0.162
 1608SOL    HW2 5724   2.234   6.773   0.304
 1609SOL     OW 5725   5.128   2.178   5.983
 1609SOL    HW1 5726   5.175   2.219   5.905
 1609SOL    HW2 5727   5.048   2.232   6.007
 1610SOL     OW 5728   6.522   6.438   4.627
 1610SOL    HW1 5729   6.603   6.386   4.599
 1610SOL    HW2 5730   6.446   6.418   4.566
 1611SOL     OW 5731   3.757   3.553   2.000
 1611SOL    HW1 5732   3.710   3.545   1.912
 1611SOL    HW2 5733   3.854   3.531   1.988
 1612SOL     OW 5734   2.328   1.359   4.983
 1612SOL    HW1 5735   2.356   1.309   5.065
 1612SOL    HW2 5736   2.393   1.433   4.965
 1613SOL     OW 5737   1.992   5.675   0.850
 1613SOL    HW1 5738   1.912   5.667   0.908
 1613SOL    HW2 5739   2.003   5.770   0.820
 1614SOL     OW 5740   6.383   2.200   7.022
 1614SOL    HW1 5741   6.345   2.171   6.935
 1614SOL    HW2 5742   6.330   2.276   0.036
 1615SOL     OW 5743   6.729   4.290   6.480
 1615SOL    HW1 5744   6.674   4.366   6.515
 1615SOL    HW2 5745   6.706   4.207   6.532
 1616SOL     OW 5746   3.640   1.757   6.214
 1616SOL    HW1 5747   3.600   1.829   6.157
 1616SOL    HW2 5748   3.569   1.717   6.272
 1617SOL     OW 5749   5.677   0.688   2.557
 1617SOL    HW1 5750   5.618   0.768   2.547
 1617SOL    HW2 5751   5.628   0.606   2.526
 1618SOL     OW 5752   6.638   3.439   1.378
 1618SOL    HW1 5753   6.706   3.494   1.426
 1618SOL    HW2 5754   6.547   3.479   1.390
 1619SOL     OW 5755   1.339   3.279   4.363
 1619SOL    HW1 5756   1.437   3.289   4.348
 1619SOL    HW2 5757   1.301   3.213   4.297
 1620SOL     OW 5758   2.633   6.050   1.687
 1620SOL    HW1 5759   2.559   6.101   1.732
 1620SOL    HW2 5760   2.719   6.101   1.697
 1621SOL     OW 5761   0.949   0.417   0.827
 1621SOL    HW1 5762   1.046   0.393   0.824
 1621SOL    HW2 5763   0.916   0.411   0.922
 1622SOL     OW 5764   1.777   1.990   4.503
 1622SOL    HW1 5765   1.869   2.003   4.539
 1622SOL    HW2 5766   1.748   1.896   4.519
 1623SOL     OW 5767   2.561   2.310   6.570
 1623SOL    HW1 5768   2.621   2.286   6.493
 1623SOL    HW2 5769   2.467   2.282   6.549
 1624SOL     OW 5770   3.419   1.314   6.998
 1624SOL    HW1 5771   3.388   1.289   6.907
 1624SOL    HW2 5772   3.444   1.411   7.000
 1625SOL     OW 5773   0.932   5.279   2.127
 1625SOL    HW1 5774   0.985   5.306   2.209
 1625SOL    HW2 5775   0.952   5.184   2.104
 1626SOL     OW 5776   2.023   2.830   6.476
 1626SOL    HW1 5777   2.101   2.892   6.479
 1626SOL    HW2 5778   2.054   2.736   6.493
 1627SOL     OW 5779   6.741   2.394   3.531
 1627SOL    HW1 5780   6.766   2.480   3.574
 1627SOL    HW2 5781   6.684   2.412   3.451
 1628SOL     OW 5782   3.107   4.772   0.936
 1628SOL    HW1 5783   3.065   4.817   1.015
 1628SOL    HW2 5784   3.200   4.808   0.923
 1629SOL     OW 5785   3.322   2.002   4.485
 1629SOL    HW1 5786   3.334   1.902   4.483
 1629SOL    HW2 5787   3.411   2.046   4.493
 1630SOL     OW 5788   1.062   4.717   5.876
 1630SOL    HW1 5789   0.993   4.671   5.820
 1630SOL    HW2 5790   1.099   4.795   5.825
 1631SOL     OW 5791   0.079   0.082   5.692
 1631SOL    HW1 5792   0.137   0.036   5.760
 1631SOL    HW2 5793   0.023   0.151   5.737
 1632SOL     OW 5794   6.945   0.987   0.385
 1632SOL    HW1 5795   7.016   1.057   0.391
 1632SOL    HW2 5796   6.981   0.900   0.417
 1633SOL     OW 5797   6.142   1.799   3.281
 1633SOL    HW1 5798   6.169   1.741   3.358
 1633SOL    HW2 5799   6.216   1.864   3.261
 1634SOL     OW 5800   2.629   6.429   5.981
 1634SOL    HW1 5801   2.712   6.382   6.011
 1634SOL    HW2 5802   2.635   6.448   5.883
 1635SOL     OW 5803   7.008   5.583   5.103
 1635SOL    HW1 5804   7.016   5.680   5.080
 1635SOL    HW2 5805   0.060   5.532   5.060
 1636SOL     OW 5806   2.638   5.797   1.581
 1636SOL    HW1 5807   2.638   5.896   1.595
 1636SOL    HW2 5808   2.718   5.771   1.527
 1637SOL     OW 5809   0.070   3.608   2.193
 1637SOL    HW1 5810   0.101   3.516   2.217
 1637SOL    HW2 5811   6.999   3.621   2.226
 1638SOL     OW 5812   0.179   3.288   4.291
 1638SOL    HW1 5813   0.097   3.338   4.262
 1638SOL    HW2 5814   0.217   3.331   4.373
 1639SOL     OW 5815   4.699   5.462   2.780
 1639SOL    HW1 5816   4.709   5.541   2.840
 1639SOL    HW2 5817   4.601   5.445   2.764
 1640SOL     OW 5818   6.598   0.872   0.683
 1640SOL    HW1 5819   6.645   0.890   0.596
 1640SOL    HW2 5820   6.513   0.822   0.666
 1641SOL     OW 5821   5.809   3.523   4.664
 1641SOL    HW1 5822   5.722   3.477   4.680
 1641SOL    HW2 5823   5.826   3.591   4.735
 1642SOL     OW 5824   6.557   2.754   0.227
 1642SOL    HW1 5825   6.632   2.780   0.166
 1642SOL    HW2 5826   6.477   2.727   0.172
 1643SOL     OW 5827   3.429   6.350   5.244
 1643SOL    HW1 5828   3.436   6.259   5.202
 1643SOL    HW2 5829   3.480   6.416   5.190
 1644SOL     OW 5830   2.761   1.605   1.296
 1644SOL    HW1 5831   2.842   1.645   1.338
 1644SOL    HW2 5832   2.741   1.517   1.339
 1645SOL     OW 5833   3.065   6.405   6.353
 1645SOL    HW1 5834   3.117   6.482   6.315
 1645SOL    HW2 5835   3.106   6.377   6.440
 1646SOL     OW 5836   1.433   4.094   0.806
 1646SOL    HW1 5837   1.528   4.062   0.800
 1646SOL    HW2 5838   1.400   4.117   0.714
 1647SOL     OW 5839   5.788   3.006   3.631
 1647SOL    HW1 5840   5.804   3.100   3.601
 1647SOL    HW2 5841   5.833   2.943   3.568
 1648SOL     OW 5842   4.677   0.235   1.483
 1648SOL    HW1 5843   4.642   0.146   1.454
 1648SOL    HW2 5844   4.771   0.225   1.516
 1649SOL     OW 5845   2.986   0.512   3.321
 1649SOL    HW1 5846   2.998   0.578   3.247
 1649SOL    HW2 5847   3.007   0.556   3.409
 1650SOL     OW 5848   2.971   0.311   3.626
 1650SOL    HW1 5849   2.902   0.305   3.699
 1650SOL    HW2 5850   2.940   0.258   3.547
 1651SOL     OW 5851   0.678   0.431   0.269
 1651SOL    HW1 5852   0.770   0.405   0.298
 1651SOL    HW2 5853   0.675   0.435   0.169
 1652SOL     OW 5854   2.940   2.598   1.502
 1652SOL    HW1 5855   3.004   2.611   1.577
 1652SOL    HW2 5856   2.858   2.654   1.517
 1653SOL     OW 5857   0.083   5.651   0.630
 1653SOL    HW1 5858   0.149   5.710   0.584
 1653SOL    HW2 5859   0.131   5.577   0.677
 1654SOL     OW 5860   6.795   3.392   2.862
 1654SOL    HW1 5861   6.859   3.466   2.883
 1654SOL    HW2 5862   6.746   3.413   2.777
 1655SOL     OW 5863   5.152   4.178   6.336
 1655SOL    HW1 5864   5.203   4.263   6.323
 1655SOL    HW2 5865   5.211   4.100   6.312
 1656SOL     OW 5866   1.070   5.109   4.120
 1656SOL    HW1 5867   1.060   5.012   4.097
 1656SOL    HW2 5868   1.163   5.139   4.099
 1657SOL     OW 5869   1.396   0.860   5.140
 1657SOL    HW1 5870   1.386   0.953   5.105
 1657SOL    HW2 5871   1.436   0.802   5.069
 1658SOL     OW 5872   6.186   6.124   2.967
 1658SOL    HW1 5873   6.241   6.206   2.985
 1658SOL    HW2 5874   6.114   6.117   3.035
 1659SOL     OW 5875   3.371   2.038   6.516
 1659SOL    HW1 5876   3.326   2.001   6.597
 1659SOL    HW2 5877   3.460   1.995   6.503
 1660SOL     OW 5878   1.377   5.887   3.932
 1660SOL    HW1 5879   1.319   5.858   4.008
 1660SOL    HW2 5880   1.380   5.814   3.863
 1661SOL     OW 5881   3.066   1.244   1.996
 1661SOL    HW1 5882   3.069   1.332   1.950
 1661SOL    HW2 5883   3.104   1.252   2.088
 1662SOL     OW 5884   0.121   1.505   2.934
 1662SOL    HW1 5885   0.128   1.427   2.996
 1662SOL    HW2 5886   0.077   1.475   2.849
 1663SOL     OW 5887   3.451   0.114   2.844
 1663SOL    HW1 5888   3.498   0.034   2.806
 1663SOL    HW2 5889   3.457   0.111   2.944
 1664SOL     OW 5890   1.855   6.201   4.556
 1664SOL    HW1 5891   1.817   6.174   4.645
 1664SOL    HW2 5892   1.831   6.296   4.538
 1665SOL     OW 5893   0.436   1.066   2.618
 1665SOL    HW1 5894   0.341   1.077   2.591
 1665SOL    HW2 5895   0.465   1.145   2.672
 1666SOL     OW 5896   5.577   2.734   5.641
 1666SOL    HW1 5897   5.560   2.820   5.592
 1666SOL    HW2 5898   5.495   2.678   5.638
 1667SOL     OW 5899   6.314   0.037   6.163
 1667SOL    HW1 5900   6.351   6.968   6.181
 1667SOL    HW2 5901   6.281   0.042   6.069
 1668SOL     OW 5902   4.274   0.503   4.738
 1668SOL    HW1 5903   4.234   0.586   4.777
 1668SOL    HW2 5904   4.348   0.471   4.798
 1669SOL     OW 5905   5.647   0.066   6.091
 1669SOL    HW1 5906   5.675   0.127   6.165
 1669SOL    HW2 5907   5.579   0.112   6.034
 1670SOL     OW 5908   5.715   4.838   5.503
 1670SOL    HW1 5909   5.738   4.750   5.462
 1670SOL    HW2 5910   5.642   4.825   5.570
 1671SOL     OW 5911   4.860   3.231   0.470
 1671SOL    HW1 5912   4.843   3.187   0.382
 1671SOL    HW2 5913   4.831   3.327   0.466
 1672SOL     OW 5914   2.028   4.539   2.427
 1672SOL    HW1 5915   2.093   4.471   2.459
 1672SOL    HW2 5916   2.020   4.612   2.495
 1673SOL     OW 5917   6.845   3.927   4.188
 1673SOL    HW1 5918   6.765   3.935   4.128
 1673SOL    HW2 5919   6.858   4.013   4.237
 1674SOL     OW 5920   0.495   3.882   0.521
 1674SOL    HW1 5921   0.500   3.799   0.576
 1674SOL    HW2 5922   0.423   3.872   0.452
 1675SOL     OW 5923   4.927   1.628   6.769
 1675SOL    HW1 5924   4.868   1.615   6.690
 1675SOL    HW2 5925   4.873   1.658   6.847
 1676SOL     OW 5926   2.060   1.052   2.690
 1676SOL    HW1 5927   2.018   1.024   2.777
 1676SOL    HW2 5928   2.079   1.150   2.692
 1677SOL     OW 5929   5.842   1.556   5.342
 1677SOL    HW1 5930   5.805   1.493   5.411
 1677SOL    HW2 5931   5.767   1.588   5.283
 1678SOL     OW 5932   5.181   6.380   2.434
 1678SOL    HW1 5933   5.135   6.459   2.473
 1678SOL    HW2 5934   5.190   6.392   2.335
 1679SOL     OW 5935   0.518   2.908   5.674
 1679SOL    HW1 5936   0.431   2.878   5.636
 1679SOL    HW2 5937   0.558   2.833   5.728
 1680SOL     OW 5938   0.556   1.089   4.021
 1680SOL    HW1 5939   0.595   1.024   4.086
 1680SOL    HW2 5940   0.607   1.085   3.935
 1681SOL     OW 5941   6.383   5.425   0.647
 1681SOL    HW1 5942   6.441   5.344   0.646
 1681SOL    HW2 5943   6.348   5.440   0.739
 1682SOL     OW 5944   0.191   3.404   4.903
 1682SOL    HW1 5945   0.098   3.386   4.872
 1682SOL    HW2 5946   0.202   3.502   4.919
 1683SOL     OW 5947   5.092   6.211   1.321
 1683SOL    HW1 5948   4.993   6.196   1.310
 1683SOL    HW2 5949   5.120   6.182   1.412
 1684SOL     OW 5950   0.281   6.681   5.567
 1684SOL    HW1 5951   0.314   6.761   5.517
 1684SOL    HW2 5952   0.350   6.608   5.563
 1685SOL     OW 5953   1.852   1.273   0.170
 1685SOL    HW1 5954   1.952   1.273   0.165
 1685SOL    HW2 5955   1.814   1.228   0.089
 1686SOL     OW 5956   1.089   5.900   5.591
 1686SOL    HW1 5957   1.135   5.912   5.503
 1686SOL    HW2 5958   1.092   5.986   5.642
 1687SOL     OW 5959   1.711   4.838   2.113
 1687SOL    HW1 5960   1.691   4.754   2.162
 1687SOL    HW2 5961   1.634   4.901   2.120
 1688SOL     OW 5962   1.919   1.867   3.041
 1688SOL    HW1 5963   1.904   1.771   3.019
 1688SOL    HW2 5964   2.012   1.893   3.014
 1689SOL     OW 5965   2.652   1.367   2.538
 1689SOL    HW1 5966   2.649   1.460   2.501
 1689SOL    HW2 5967   2.732   1.319   2.501
 1690SOL     OW 5968   1.671   1.994   1.683
 1690SOL    HW1 5969   1.734   1.917   1.694
 1690SOL    HW2 5970   1.722   2.077   1.664
 1691SOL     OW 5971   5.023   3.414   2.844
 1691SOL    HW1 5972   5.053   3.496   2.795
 1691SOL    HW2 5973   4.981   3.440   2.931
 1692SOL     OW 5974   0.783   0.148   1.842
 1692SOL    HW1 5975   0.832   0.147   1.930
 1692SOL    HW2 5976   0.819   0.222   1.785
 1693SOL     OW 5977   2.544   2.293   3.798
 1693SOL    HW1 5978   2.464   2.325   3.849
 1693SOL    HW2 5979   2.530   2.198   3.770
 1694SOL     OW 5980   4.387   6.070   5.115
 1694SOL    HW1 5981   4.395   6.108   5.022
 1694SOL    HW2 5982   4.447   5.991   5.124
 1695SOL     OW 5983   2.830   2.567   5.384
 1695SOL    HW1 5984   2.813   2.666   5.384
 1695SOL    HW2 5985   2.929   2.551   5.391
 1696SOL     OW 5986   4.862   5.330   0.459
 1696SOL    HW1 5987   4.944   5.272   0.459
 1696SOL    HW2 5988   4.783   5.276   0.430
 1697SOL     OW 5989   1.287   0.937   1.216
 1697SOL    HW1 5990   1.315   0.852   1.171
 1697SOL    HW2 5991   1.191   0.932   1.241
 1698SOL     OW 5992   4.805   2.120   1.882
 1698SOL    HW1 5993   4.883   2.158   1.832
 1698SOL    HW2 5994   4.810   2.020   1.880
 1699SOL     OW 5995   2.305   3.414   1.405
 1699SOL    HW1 5996   2.254   3.329   1.388
 1699SOL    HW2 5997   2.243   3.492   1.396
 1700SOL     OW 5998   0.007   2.761   2.905
 1700SOL    HW1 5999   6.938   2.732   2.933
 1700SOL    HW2 6000   0.035   2.839   2.960
 1701SOL     OW 6001   6.255   3.061   4.116
 1701SOL    HW1 6002   6.272   2.963   4.129
 1701SOL    HW2 6003   6.200   3.075   4.034
 1702SOL     OW 6004   5.623   3.432   1.288
 1702SOL    HW1 6005   5.559   3.365   1.325
 1702SOL    HW2 6006   5.715   3.413   1.323
 1703SOL     OW 6007   2.002   3.627   0.647
 1703SOL    HW1 6008   2.056   3.699   0.688
 1703SOL    HW2 6009   2.061   3.568   0.591
 1704SOL     OW 6010   0.288   0.483   1.485
 1704SOL    HW1 6011   0.206   0.446   1.442
 1704SOL    HW2 6012   0.262   0.551   1.553
 1705SOL     OW 6013   3.657   2.686   1.469
 1705SOL    HW1 6014   3.690   2.712   1.560
 1705SOL    HW2 6015   3.702   2.601   1.441
 1706SOL     OW 6016   3.822   0.943   0.295
 1706SOL    HW1 6017   3.805   0.890   0.212
 1706SOL    HW2 6018   3.775   0.899   0.372
 1707SOL     OW 6019   5.986   1.859   2.829
 1707SOL    HW1 6020   5.913   1.923   2.855
 1707SOL    HW2 6021   6.075   1.898   2.853
 1708SOL     OW 6022   6.566   6.286   2.853
 1708SOL    HW1 6023   6.605   6.352   2.789
 1708SOL    HW2 6024   6.604   6.300   2.944
 1709SOL     OW 6025   3.212   6.502   2.509
 1709SOL    HW1 6026   3.196   6.404   2.517
 1709SOL    HW2 6027   3.149   6.551   2.570
 1710SOL     OW 6028   0.404   4.909   4.259
 1710SOL    HW1 6029   0.463   4.922   4.180
 1710SOL    HW2 6030   0.460   4.894   4.341
 1711SOL     OW 6031   1.487   4.372   5.877
 1711SOL    HW1 6032   1.491   4.294   5.815
 1711SOL    HW2 6033   1.559   4.437   5.854
 1712SOL     OW 6034   6.769   4.106   0.257
 1712SOL    HW1 6035   6.688   4.061   0.218
 1712SOL    HW2 6036   6.814   4.045   0.322
 1713SOL     OW 6037   1.618   2.628   1.430
 1713SOL    HW1 6038   1.665   2.589   1.351
 1713SOL    HW2 6039   1.563   2.706   1.400
 1714SOL     OW 6040   3.441   2.026   0.131
 1714SOL    HW1 6041   3.538   2.052   0.138
 1714SOL    HW2 6042   3.384   2.108   0.137
 1715SOL     OW 6043   0.787   3.261   2.621
 1715SOL    HW1 6044   0.841   3.201   2.681
 1715SOL    HW2 6045   0.706   3.212   2.589
 1716SOL     OW 6046   6.917   6.276   0.502
 1716SOL    HW1 6047   6.964   6.328   0.574
 1716SOL    HW2 6048   6.979   6.206   0.466
 1717SOL     OW 6049   2.811   6.718   6.820
 1717SOL    HW1 6050   2.896   6.676   6.849
 1717SOL    HW2 6051   2.800   6.705   6.721
 1718SOL     OW 6052   2.212   4.293   0.764
 1718SOL    HW1 6053   2.183   4.198   0.774
 1718SOL    HW2 6054   2.138   4.347   0.724
 1719SOL     OW 6055   1.932   3.547   1.474
 1719SOL    HW1 6056   1.978   3.562   1.387
 1719SOL    HW2 6057   1.999   3.514   1.541
 1720SOL     OW 6058   6.718   1.410   0.557
 1720SOL    HW1 6059   6.685   1.480   0.621
 1720SOL    HW2 6060   6.763   1.454   0.479
 1721SOL     OW 6061   1.740   6.457   3.296
 1721SOL    HW1 6062   1.820   6.514   3.316
 1721SOL    HW2 6063   1.771   6.372   3.253
 1722SOL     OW 6064   6.088   0.140   2.318
 1722SOL    HW1 6065   6.159   0.208   2.337
 1722SOL    HW2 6066   6.000   0.187   2.306
 1723SOL     OW 6067   0.019   1.720   3.115
 1723SOL    HW1 6068   0.089   1.717   3.187
 1723SOL    HW2 6069   0.049   1.664   3.037
 1724SOL     OW 6070   4.857   1.157   6.922
 1724SOL    HW1 6071   4.915   1.185   6.999
 1724SOL    HW2 6072   4.863   1.224   6.849
 1725SOL     OW 6073   3.431   4.391   1.341
 1725SOL    HW1 6074   3.403   4.400   1.436
 1725SOL    HW2 6075   3.441   4.293   1.319
 1726SOL     OW 6076   6.854   4.797   5.382
 1726SOL    HW1 6077   6.759   4.823   5.366
 1726SOL    HW2 6078   6.870   4.706   5.344
 1727SOL     OW 6079   4.293   3.219   5.359
 1727SOL    HW1 6080   4.354   3.140   5.357
 1727SOL    HW2 6081   4.320   3.283   5.287
 1728SOL     OW 6082   4.456   4.714   4.140
 1728SOL    HW1 6083   4.553   4.704   4.160
 1728SOL    HW2 6084   4.405   4.722   4.225
 1729SOL     OW 6085   1.141   3.904   2.904
 1729SOL    HW1 6086   1.235   3.937   2.893
 1729SOL    HW2 6087   1.104   3.881   2.814
 1730SOL     OW 6088   6.691   1.818   4.921
 1730SOL    HW1 6089   6.683   1.882   4.845
 1730SOL    HW2 6090   6.605   1.815   4.972
 1731SOL     OW 6091   1.885   5.006   1.028
 1731SOL    HW1 6092   1.849   5.069   1.097
 1731SOL    HW2 6093   1.951   4.944   1.070
 1732SOL     OW 6094   1.899   4.479   0.280
 1732SOL    HW1 6095   1.844   4.561   0.263
 1732SOL    HW2 6096   1.849   4.399   0.245
 1733SOL     OW 6097   1.338   3.902   1.935
 1733SOL    HW1 6098   1.359   3.804   1.940
 1733SOL    HW2 6099   1.242   3.915   1.912
 1734SOL     OW 6100   4.089   2.812   1.019
 1734SOL    HW1 6101   4.054   2.848   0.933
 1734SOL    HW2 6102   4.189   2.813   1.018
 1735SOL     OW 6103   5.795   5.133   1.493
 1735SOL    HW1 6104   5.878   5.079   1.505
 1735SOL    HW2 6105   5.799   5.181   1.404
 1736SOL     OW 6106   3.340   3.336   0.280
 1736SOL    HW1 6107   3.417   3.287   0.239
 1736SOL    HW2 6108   3.353   3.342   0.379
 1737SOL     OW 6109   2.309   0.175   3.904
 1737SOL    HW1 6110   2.394   0.127   3.927
 1737SOL    HW2 6111   2.265   0.207   3.988
 1738SOL     OW 6112   2.141   3.160   2.252
 1738SOL    HW1 6113   2.137   3.062   2.236
 1738SOL    HW2 6114   2.138   3.209   2.165
 1739SOL     OW 6115   4.595   2.203   4.759
 1739SOL    HW1 6116   4.564   2.135   4.825
 1739SOL    HW2 6117   4.659   2.266   4.803
 1740SOL     OW 6118   6.827   1.033   6.112
 1740SOL    HW1 6119   6.873   1.077   6.189
 1740SOL    HW2 6120   6.797   0.942   6.139
 1741SOL     OW 6121   1.619   0.405   2.597
 1741SOL    HW1 6122   1.598   0.365   2.687
 1741SOL    HW2 6123   1.677   0.485   2.608
 1742SOL     OW 6124   6.021   0.596   4.888
 1742SOL    HW1 6125   5.967   0.669   4.929
 1742SOL    HW2 6126   5.976   0.508   4.902
 1743SOL     OW 6127   3.207   1.336   1.436
 1743SOL    HW1 6128   3.229   1.382   1.522
 1743SOL    HW2 6129   3.253   1.382   1.361
 1744SOL     OW 6130   2.400   1.054   2.097
 1744SOL    HW1 6131   2.346   1.006   2.027
 1744SOL    HW2 6132   2.491   1.012   2.103
 1745SOL     OW 6133   6.834   1.885   3.141
 1745SOL    HW1 6134   6.823   1.903   3.238
 1745SOL    HW2 6135   6.919   1.834   3.126
 1746SOL     OW 6136   2.472   0.455   6.513
 1746SOL    HW1 6137   2.451   0.539   6.563
 1746SOL    HW2 6138   2.479   0.476   6.415
 1747SOL     OW 6139   3.837   0.310   1.204
 1747SOL    HW1 6140   3.831   0.374   1.281
 1747SOL    HW2 6141   3.803   0.220   1.233
 1748SOL     OW 6142   6.117   1.707   3.936
 1748SOL    HW1 6143   6.215   1.693   3.946
 1748SOL    HW2 6144   6.082   1.648   3.864
 1749SOL     OW 6145   4.558   6.976   6.688
 1749SOL    HW1 6146   4.535   7.004   6.781
 1749SOL    HW2 6147   4.593   6.882   6.689
 1750SOL     OW 6148   5.005   1.330   2.088
 1750SOL    HW1 6149   4.983   1.312   2.183
 1750SOL    HW2 6150   5.050   1.250   2.048
 1751SOL     OW 6151   1.641   5.304   4.218
 1751SOL    HW1 6152   1.614   5.322   4.123
 1751SOL    HW2 6153   1.691   5.217   4.222
 1752SOL     OW 6154   6.654   1.879   0.957
 1752SOL    HW1 6155   6.573   1.866   1.014
 1752SOL    HW2 6156   6.637   1.842   0.866
 1753SOL     OW 6157   0.844   6.930   0.499
 1753SOL    HW1 6158   0.752   6.958   0.474
 1753SOL    HW2 6159   0.872   6.977   0.582
 1754SOL     OW 6160   3.391   3.413   1.133
 1754SOL    HW1 6161   3.459   3.368   1.191
 1754SOL    HW2 6162   3.385   3.364   1.046
 1755SOL     OW 6163   5.384   4.880   1.710
 1755SOL    HW1 6164   5.331   4.856   1.629
 1755SOL    HW2 6165   5.437   4.963   1.691
 1756SOL     OW 6166   6.661   5.019   3.947
 1756SOL    HW1 6167   6.615   5.108   3.947
 1756SOL    HW2 6168   6.599   4.950   3.909
 1757SOL     OW 6169   2.719   6.338   4.501
 1757SOL    HW1 6170   2.636   6.365   4.550
 1757SOL    HW2 6171   2.797   6.342   4.563
 1758SOL     OW 6172   2.502   0.707   3.592
 1758SOL    HW1 6173   2.588   0.722   3.544
 1758SOL    HW2 6174   2.451   0.793   3.599
 1759SOL     OW 6175   0.128   5.111   5.820
 1759SOL    HW1 6176   0.066   5.190   5.816
 1759SOL    HW2 6177   0.178   5.113   5.906
 1760SOL     OW 6178   6.198   1.446   1.557
 1760SOL    HW1 6179   6.288   1.447   1.600
 1760SOL    HW2 6180   6.195   1.376   1.486
 1761SOL     OW 6181   5.758   0.882   1.020
 1761SOL    HW1 6182   5.719   0.806   1.071
 1761SOL    HW2 6183   5.764   0.857   0.923
 1762SOL     OW 6184   6.420   2.356   5.986
 1762SOL    HW1 6185   6.406   2.364   6.085
 1762SOL    HW2 6186   6.503   2.303   5.968
 1763SOL     OW 6187   1.863   4.159   4.304
 1763SOL    HW1 6188   1.860   4.105   4.388
 1763SOL    HW2 6189   1.887   4.100   4.227
 1764SOL     OW 6190   1.020   2.989   3.203
 1764SOL    HW1 6191   1.047   2.899   3.168
 1764SOL    HW2 6192   1.059   3.002   3.293
 1765SOL     OW 6193   2.801   1.613   0.222
 1765SOL    HW1 6194   2.803   1.556   0.140
 1765SOL    HW2 6195   2.763   1.560   0.298
 1766SOL     OW 6196   5.455   3.195   4.992
 1766SOL    HW1 6197   5.463   3.103   4.953
 1766SOL    HW2 6198   5.387   3.247   4.941
 1767SOL     OW 6199   5.459   3.850   2.233
 1767SOL    HW1 6200   5.430   3.773   2.176
 1767SOL    HW2 6201   5.413   3.933   2.203
 1768SOL     OW 6202   4.302   0.042   3.556
 1768SOL    HW1 6203   4.379   0.008   3.503
 1768SOL    HW2 6204   4.322   0.035   3.654
 1769SOL     OW 6205   3.812   1.598   3.595
 1769SOL    HW1 6206   3.828   1.679   3.651
 1769SOL    HW2 6207   3.823   1.516   3.651
 1770SOL     OW 6208   1.790   5.655   5.445
 1770SOL    HW1 6209   1.814   5.624   5.537
 1770SOL    HW2 6210   1.854   5.726   5.416
 1771SOL     OW 6211   3.618   6.414   6.886
 1771SOL    HW1 6212   3.717   6.425   6.874
 1771SOL    HW2 6213   3.599   6.322   6.919
 1772SOL     OW 6214   3.322   0.052   3.352
 1772SOL    HW1 6215   3.274   6.998   3.396
 1772SOL    HW2 6216   3.403   0.016   3.304
 1773SOL     OW 6217   2.265   4.994   6.360
 1773SOL    HW1 6218   2.350   4.955   6.323
 1773SOL    HW2 6219   2.252   5.086   6.322
 1774SOL     OW 6220   4.445   5.400   1.620
 1774SOL    HW1 6221   4.410   5.390   1.714
 1774SOL    HW2 6222   4.498   5.319   1.596
 1775SOL     OW 6223   0.853   4.204   2.204
 1775SOL    HW1 6224   0.760   4.229   2.176
 1775SOL    HW2 6225   0.914   4.207   2.124
 1776SOL     OW 6226   4.164   6.107   3.885
 1776SOL    HW1 6227   4.084   6.074   3.934
 1776SOL    HW2 6228   4.233   6.137   3.951
 1777SOL     OW 6229   3.881   6.389   6.878
 1777SOL    HW1 6230   3.888   6.386   6.978
 1777SOL    HW2 6231   3.972   6.381   6.838
 1778SOL     OW 6232   4.308   3.262   5.859
 1778SOL    HW1 6233   4.296   3.165   5.880
 1778SOL    HW2 6234   4.341   3.271   5.765
 1779SOL     OW 6235   3.655   0.656   5.215
 1779SOL    HW1 6236   3.631   0.592   5.288
 1779SOL    HW2 6237   3.675   0.746   5.254
 1780SOL     OW 6238   3.519   3.074   6.049
 1780SOL    HW1 6239   3.516   3.045   6.145
 1780SOL    HW2 6240   3.531   2.994   5.990
 1781SOL     OW 6241   4.170   6.501   3.160
 1781SOL    HW1 6242   4.104   6.483   3.233
 1781SOL    HW2 6243   4.161   6.595   3.129
 1782SOL     OW 6244   3.192   1.397   2.934
 1782SOL    HW1 6245   3.228   1.369   3.023
 1782SOL    HW2 6246   3.136   1.323   2.897
 1783SOL     OW 6247   2.366   4.692   6.256
 1783SOL    HW1 6248   2.286   4.677   6.315
 1783SOL    HW2 6249   2.340   4.675   6.161
 1784SOL     OW 6250   3.907   0.941   5.951
 1784SOL    HW1 6251   3.900   0.844   5.975
 1784SOL    HW2 6252   3.903   0.951   5.852
 1785SOL     OW 6253   6.752   3.999   2.475
 1785SOL    HW1 6254   6.815   4.067   2.437
 1785SOL    HW2 6255   6.759   3.999   2.574
 1786SOL     OW 6256   2.175   2.388   0.062
 1786SOL    HW1 6257   2.254   2.328   0.071
 1786SOL    HW2 6258   2.167   2.445   0.143
 1787SOL     OW 6259   3.228   1.580   5.602
 1787SOL    HW1 6260   3.248   1.574   5.504
 1787SOL    HW2 6261   3.140   1.536   5.622
 1788SOL     OW 6262   1.908   4.567   6.209
 1788SOL    HW1 6263   1.841   4.580   6.136
 1788SOL    HW2 6264   1.870   4.507   6.279
 1789SOL     OW 6265   5.524   2.195   1.133
 1789SOL    HW1 6266   5.576   2.138   1.198
 1789SOL    HW2 6267   5.560   2.181   1.041
 1790SOL     OW 6268   4.129   6.592   3.558
 1790SOL    HW1 6269   4.136   6.665   3.490
 1790SOL    HW2 6270   4.150   6.504   3.516
 1791SOL     OW 6271   6.695   0.571   2.367
 1791SOL    HW1 6272   6.781   0.614   2.393
 1791SOL    HW2 6273   6.672   0.596   2.273
 1792SOL     OW 6274   7.011   3.966   5.137
 1792SOL    HW1 6275   6.995   3.886   5.195
 1792SOL    HW2 6276   6.936   3.975   5.072
 1793SOL     OW 6277   6.703   0.331   4.115
 1793SOL    HW1 6278   6.769   0.256   4.126
 1793SOL    HW2 6279   6.752   0.414   4.088
 1794SOL     OW 6280   5.265   5.998   5.890
 1794SOL    HW1 6281   5.198   5.948   5.944
 1794SOL    HW2 6282   5.221   6.078   5.848
 1795SOL     OW 6283   0.571   2.892   1.030
 1795SOL    HW1 6284   0.599   2.870   0.937
 1795SOL    HW2 6285   0.532   2.811   1.073
 1796SOL     OW 6286   2.827   0.957   5.998
 1796SOL    HW1 6287   2.841   0.887   5.928
 1796SOL    HW2 6288   2.736   0.946   6.038
 1797SOL     OW 6289   1.357   0.256   0.545
 1797SOL    HW1 6290   1.353   0.355   0.538
 1797SOL    HW2 6291   1.274   0.222   0.589
 1798SOL     OW 6292   4.486   2.530   4.166
 1798SOL    HW1 6293   4.477   2.514   4.265
 1798SOL    HW2 6294   4.561   2.474   4.130
 1799SOL     OW 6295   6.849   2.918   4.284
 1799SOL    HW1 6296   6.879   2.864   4.205
 1799SOL    HW2 6297   6.816   2.857   4.356
 1800SOL     OW 6298   4.380   4.380   1.465
 1800SOL    HW1 6299   4.334   4.293   1.482
 1800SOL    HW2 6300   4.382   4.434   1.549
 1801SOL     OW 6301   0.280   0.952   2.041
 1801SOL    HW1 6302   0.238   1.018   1.979
 1801SOL    HW2 6303   0.379   0.952   2.028
 1802SOL     OW 6304   5.928   6.128   4.092
 1802SOL    HW1 6305   5.854   6.105   4.029
 1802SOL    HW2 6306   6.005   6.167   4.041
 1803SOL     OW 6307   0.847   5.205   6.473
 1803SOL    HW1 6308   0.785   5.179   6.546
 1803SOL    HW2 6309   0.851   5.131   6.405
 1804SOL     OW 6310   2.443   4.181   5.365
 1804SOL    HW1 6311   2.527   4.188   5.420
 1804SOL    HW2 6312   2.456   4.111   5.295
 1805SOL     OW 6313   4.699   3.629   6.401
 1805SOL    HW1 6314   4.741   3.719   6.385
 1805SOL    HW2 6315   4.613   3.641   6.450
 1806SOL     OW 6316   0.266   0.322   0.135
 1806SOL    HW1 6317   0.265   0.403   0.077
 1806SOL    HW2 6318   0.178   0.312   0.182
 1807SOL     OW 6319   5.691   2.516   4.719
 1807SOL    HW1 6320   5.699   2.424   4.681
 1807SOL    HW2 6321   5.781   2.560   4.717
 1808SOL     OW 6322   6.964   4.977   5.552
 1808SOL    HW1 6323   6.921   4.906   5.496
 1808SOL    HW2 6324   6.953   4.954   5.649
 1809SOL     OW 6325   2.821   1.911   5.576
 1809SOL    HW1 6326   2.794   1.991   5.631
 1809SOL    HW2 6327   2.849   1.837   5.637
 1810SOL     OW 6328   3.227   0.211   3.805
 1810SOL    HW1 6329   3.311   0.204   3.751
 1810SOL    HW2 6330   3.150   0.229   3.745
 1811SOL     OW 6331   5.965   5.836   3.689
 1811SOL    HW1 6332   5.917   5.767   3.743
 1811SOL    HW2 6333   5.913   5.921   3.691
 1812SOL     OW 6334   4.177   6.045   5.291
 1812SOL    HW1 6335   4.265   6.051   5.243
 1812SOL    HW2 6336   4.129   6.133   5.282
 1813SOL     OW 6337   5.368   4.283   0.523
 1813SOL    HW1 6338   5.387   4.352   0.593
 1813SOL    HW2 6339   5.316   4.324   0.449
 1814SOL     OW 6340   4.717   6.859   1.731
 1814SOL    HW1 6341   4.758   6.825   1.816
 1814SOL    HW2 6342   4.617   6.863   1.742
 1815SOL     OW 6343   0.426   1.485   2.452
 1815SOL    HW1 6344   0.436   1.583   2.435
 1815SOL    HW2 6345   0.397   1.439   2.368
 1816SOL     OW 6346   2.587   3.130   1.209
 1816SOL    HW1 6347   2.505   3.114   1.154
 1816SOL    HW2 6348   2.667   3.098   1.158
 1817SOL     OW 6349   1.824   6.661   2.252
 1817SOL    HW1 6350   1.895   6.732   2.251
 1817SOL    HW2 6351   1.750   6.689   2.314
 1818SOL     OW 6352   1.282   0.086   3.632
 1818SOL    HW1 6353   1.191   0.110   3.599
 1818SOL    HW2 6354   1.333   0.170   3.651
 1819SOL     OW 6355   1.209   4.484   1.971
 1819SOL    HW1 6356   1.220   4.529   1.882
 1819SOL    HW2 6357   1.296   4.490   2.022
 1820SOL     OW 6358   4.572   1.318   2.360
 1820SOL    HW1 6359   4.649   1.364   2.403
 1820SOL    HW2 6360   4.492   1.378   2.362
 1821SOL     OW 6361   1.728   1.146   3.002
 1821SOL    HW1 6362   1.740   1.165   2.904
 1821SOL    HW2 6363   1.815   1.120   3.042
 1822SOL     OW 6364   3.432   2.782   1.854
 1822SOL    HW1 6365   3.354   2.769   1.914
 1822SOL    HW2 6366   3.427   2.873   1.812
 1823SOL     OW 6367   3.661   6.347   2.442
 1823SOL    HW1 6368   3.663   6.428   2.501
 1823SOL    HW2 6369   3.595   6.361   2.368
 1824SOL     OW 6370   4.268   2.468   1.370
 1824SOL    HW1 6371   4.351   2.429   1.410
 1824SOL    HW2 6372   4.248   2.556   1.415
 1825SOL     OW 6373   1.525   0.288   1.568
 1825SOL    HW1 6374   1.461   0.363   1.585
 1825SOL    HW2 6375   1.481   0.217   1.514
 1826SOL     OW 6376   3.008   1.759   1.346
 1826SOL    HW1 6377   3.091   1.795   1.303
 1826SOL    HW2 6378   2.946   1.835   1.367
 1827SOL     OW 6379   7.021   4.994   1.860
 1827SOL    HW1 6380   0.033   4.998   1.954
 1827SOL    HW2 6381   0.023   5.078   1.812
 1828SOL     OW 6382   0.944   3.091   0.268
 1828SOL    HW1 6383   1.032   3.137   0.257
 1828SOL    HW2 6384   0.889   3.140   0.335
 1829SOL     OW 6385   5.304   6.306   3.191
 1829SOL    HW1 6386   5.381   6.331   3.132
 1829SOL    HW2 6387   5.340   6.264   3.275
 1830SOL     OW 6388   4.741   0.061   3.953
 1830SOL    HW1 6389   4.665   0.052   3.888
 1830SOL    HW2 6390   4.806   7.009   3.938
 1831SOL     OW 6391   6.032   6.792   2.727
 1831SOL    HW1 6392   6.112   6.743   2.691
 1831SOL    HW2 6393   6.012   6.760   2.819
 1832SOL     OW 6394   4.490   2.366   1.532
 1832SOL    HW1 6395   4.579   2.397   1.566
 1832SOL    HW2 6396   4.428   2.352   1.610
 1833SOL     OW 6397   4.850   0.444   4.514
 1833SOL    HW1 6398   4.759   0.435   4.475
 1833SOL    HW2 6399   4.918   0.410   4.449
 1834SOL     OW 6400   3.012   3.687   0.847
 1834SOL    HW1 6401   3.061   3.751   0.787
 1834SOL    HW2 6402   3.046   3.697   0.941
 1835SOL     OW 6403   1.919   4.590   1.522
 1835SOL    HW1 6404   1.964   4.622   1.605
 1835SOL    HW2 6405   1.913   4.666   1.457
 1836SOL     OW 6406   6.979   1.552   0.706
 1836SOL    HW1 6407   6.928   1.484   0.758
 1836SOL    HW2 6408   6.929   1.576   0.623
 1837SOL     OW 6409   1.090   1.992   4.105
 1837SOL    HW1 6410   1.172   1.937   4.119
 1837SOL    HW2 6411   1.115   2.080   4.065
 1838SOL     OW 6412   0.186   2.714   4.182
 1838SOL    HW1 6413   0.194   2.675   4.274
 1838SOL    HW2 6414   0.090   2.720   4.157
 1839SOL     OW 6415   5.884   3.242   4.733
 1839SOL    HW1 6416   5.925   3.260   4.823
 1839SOL    HW2 6417   5.833   3.322   4.703
 1840SOL     OW 6418   2.744   5.887   1.088
 1840SOL    HW1 6419   2.816   5.820   1.068
 1840SOL    HW2 6420   2.655   5.847   1.066
 1841SOL     OW 6421   2.110   3.734   4.025
 1841SOL    HW1 6422   2.130   3.832   4.032
 1841SOL    HW2 6423   2.164   3.685   4.093
 1842SOL     OW 6424   0.297   4.851   0.786
 1842SOL    HW1 6425   0.316   4.921   0.718
 1842SOL    HW2 6426   0.283   4.894   0.875
 1843SOL     OW 6427   1.903   2.008   5.258
 1843SOL    HW1 6428   1.995   2.043   5.239
 1843SOL    HW2 6429   1.911   1.916   5.297
 1844SOL     OW 6430   3.924   2.187   5.091
 1844SOL    HW1 6431   3.856   2.114   5.090
 1844SOL    HW2 6432   3.950   2.207   5.186
 1845SOL     OW 6433   2.923   0.043   6.668
 1845SOL    HW1 6434   2.938   0.061   6.765
 1845SOL    HW2 6435   2.917   6.967   6.653
 1846SOL     OW 6436   4.036   2.112   6.944
 1846SOL    HW1 6437   3.986   2.047   6.888
 1846SOL    HW2 6438   4.104   2.064   6.999
 1847SOL     OW 6439   1.076   0.239   0.460
 1847SOL    HW1 6440   1.116   0.158   0.502
 1847SOL    HW2 6441   0.983   0.252   0.495
 1848SOL     OW 6442   2.945   6.072   2.665
 1848SOL    HW1 6443   2.983   6.028   2.584
 1848SOL    HW2 6444   3.001   6.049   2.745
 1849SOL     OW 6445   3.827   0.666   0.173
 1849SOL    HW1 6446   3.898   0.597   0.179
 1849SOL    HW2 6447   3.738   0.622   0.158
 1850SOL     OW 6448   6.487   1.652   3.208
 1850SOL    HW1 6449   6.564   1.606   3.164
 1850SOL    HW2 6450   6.424   1.584   3.244
 1851SOL     OW 6451   6.938   1.357   1.707
 1851SOL    HW1 6452   6.894   1.433   1.659
 1851SOL    HW2 6453   6.952   1.382   1.803
 1852SOL     OW 6454   3.888   3.422   0.066
 1852SOL    HW1 6455   3.802   3.412   0.014
 1852SOL    HW2 6456   3.945   3.491   0.022
 1853SOL     OW 6457   1.061   4.134   1.378
 1853SOL    HW1 6458   1.061   4.053   1.320
 1853SOL    HW2 6459   1.093   4.110   1.469
 1854SOL     OW 6460   2.895   6.076   4.094
 1854SOL    HW1 6461   2.880   6.031   4.006
 1854SOL    HW2 6462   2.985   6.053   4.129
 1855SOL     OW 6463   4.856   5.166   0.715
 1855SOL    HW1 6464   4.840   5.214   0.628
 1855SOL    HW2 6465   4.911   5.084   0.698
 1856SOL     OW 6466   5.217   2.391   5.469
 1856SOL    HW1 6467   5.277   2.355   5.398
 1856SOL    HW2 6468   5.128   2.412   5.430
 1857SOL     OW 6469   4.247   0.940   4.736
 1857SOL    HW1 6470   4.330   0.914   4.687
 1857SOL    HW2 6471   4.181   0.980   4.672
 1858SOL     OW 6472   5.625   3.429   3.969
 1858SOL    HW1 6473   5.554   3.366   4.002
 1858SOL    HW2 6474   5.714   3.397   4.000
 1859SOL     OW 6475   4.112   2.221   3.791
 1859SOL    HW1 6476   4.147   2.307   3.829
 1859SOL    HW2 6477   4.151   2.144   3.841
 1860SOL     OW 6478   6.387   1.411   4.161
 1860SOL    HW1 6479   6.381   1.502   4.119
 1860SOL    HW2 6480   6.447   1.353   4.106
 1861SOL     OW 6481   4.906   6.338   2.640
 1861SOL    HW1 6482   4.868   6.305   2.727
 1861SOL    HW2 6483   4.967   6.269   2.603
 1862SOL     OW 6484   1.788   0.794   6.947
 1862SOL    HW1 6485   1.784   0.837   0.014
 1862SOL    HW2 6486   1.766   0.861   6.877
 1863SOL     OW 6487   3.109   2.404   0.897
 1863SOL    HW1 6488   3.126   2.311   0.927
 1863SOL    HW2 6489   3.107   2.407   0.797
 1864SOL     OW 6490   0.519   6.803   4.785
 1864SOL    HW1 6491   0.609   6.777   4.750
 1864SOL    HW2 6492   0.448   6.765   4.726
 1865SOL     OW 6493   3.640   1.612   5.836
 1865SOL    HW1 6494   3.638   1.584   5.740
 1865SOL    HW2 6495   3.548   1.606   5.874
 1866SOL     OW 6496   4.581   4.544   1.989
 1866SOL    HW1 6497   4.567   4.445   1.989
 1866SOL    HW2 6498   4.660   4.567   1.931
 1867SOL     OW 6499   0.425   4.005   0.009
 1867SOL    HW1 6500   0.374   4.037   0.088
 1867SOL    HW2 6501   0.404   4.063   6.952
 1868SOL     OW 6502   5.493   4.513   6.712
 1868SOL    HW1 6503   5.544   4.534   6.629
 1868SOL    HW2 6504   5.515   4.581   6.782
 1869SOL     OW 6505   6.558   1.902   5.359
 1869SOL    HW1 6506   6.636   1.845   5.336
 1869SOL    HW2 6507   6.584   1.966   5.431
 1870SOL     OW 6508   1.641   4.543   5.709
 1870SOL    HW1 6509   1.719   4.496   5.668
 1870SOL    HW2 6510   1.628   4.631   5.664
 1871SOL     OW 6511   2.372   0.030   0.418
 1871SOL    HW1 6512   2.296   0.059   0.477
 1871SOL    HW2 6513   2.339   6.984   0.353
 1872SOL     OW 6514   3.048   4.520   0.444
 1872SOL    HW1 6515   2.982   4.474   0.503
 1872SOL    HW2 6516   3.067   4.611   0.480
 1873SOL     OW 6517   3.946   1.020   5.674
 1873SOL    HW1 6518   3.964   1.111   5.638
 1873SOL    HW2 6519   4.031   0.968   5.678
 1874SOL     OW 6520   2.174   1.992   1.813
 1874SOL    HW1 6521   2.186   2.091   1.821
 1874SOL    HW2 6522   2.224   1.959   1.734
 1875SOL     OW 6523   0.624   0.333   6.128
 1875SOL    HW1 6524   0.584   0.262   6.185
 1875SOL    HW2 6525   0.617   0.307   6.032
 1876SOL     OW 6526   2.934   6.878   4.785
 1876SOL    HW1 6527   2.977   6.955   4.738
 1876SOL    HW2 6528   2.856   6.910   4.839
 1877SOL     OW 6529   0.666   7.009   3.946
 1877SOL    HW1 6530   0.653   0.079   3.909
 1877SOL    HW2 6531   0.670   6.944   3.871
 1878SOL     OW 6532   6.803   1.824   3.977
 1878SOL    HW1 6533   6.827   1.818   4.074
 1878SOL    HW2 6534   6.705   1.843   3.967
 1879SOL     OW 6535   1.400   3.181   4.849
 1879SOL    HW1 6536   1.475   3.242   4.826
 1879SOL    HW2 6537   1.393   3.172   4.949
 1880SOL     OW 6538   6.785   1.749   5.239
 1880SOL    HW1 6539   6.839   1.740   5.323
 1880SOL    HW2 6540   6.842   1.788   5.167
 1881SOL     OW 6541   6.464   1.939   1.155
 1881SOL    HW1 6542   6.501   2.026   1.188
 1881SOL    HW2 6543   6.372   1.953   1.118
 1882SOL     OW 6544   1.405   3.841   6.358
 1882SOL    HW1 6545   1.356   3.754   6.362
 1882SOL    HW2 6546   1.340   3.916   6.347
 1883SOL     OW 6547   6.475   2.306   2.539
 1883SOL    HW1 6548   6.548   2.366   2.507
 1883SOL    HW2 6549   6.394   2.361   2.561
 1884SOL     OW 6550   1.053   1.708   1.234
 1884SOL    HW1 6551   1.119   1.728   1.161
 1884SOL    HW2 6552   1.076   1.761   1.315
 1885SOL     OW 6553   1.824   1.475   5.569
 1885SOL    HW1 6554   1.841   1.542   5.497
 1885SOL    HW2 6555   1.886   1.398   5.559
 1886SOL     OW 6556   2.234   0.110   2.408
 1886SOL    HW1 6557   2.277   0.151   2.328
 1886SOL    HW2 6558   2.135   0.121   2.402
 1887SOL     OW 6559   1.121   5.579   5.938
 1887SOL    HW1 6560   1.066   5.545   5.862
 1887SOL    HW2 6561   1.177   5.505   5.975
 1888SOL     OW 6562   3.225   2.255   0.476
 1888SOL    HW1 6563   3.130   2.240   0.506
 1888SOL    HW2 6564   3.226   2.268   0.376
 1889SOL     OW 6565   0.932   3.458   4.537
 1889SOL    HW1 6566   0.926   3.424   4.630
 1889SOL    HW2 6567   0.852   3.430   4.485
 1890SOL     OW 6568   0.503   5.575   4.139
 1890SOL    HW1 6569   0.548   5.641   4.200
 1890SOL    HW2 6570   0.543   5.484   4.153
 1891SOL     OW 6571   3.786   3.132   1.909
 1891SOL    HW1 6572   3.791   3.034   1.888
 1891SOL    HW2 6573   3.693   3.156   1.935
 1892SOL     OW 6574   0.400   0.421   1.968
 1892SOL    HW1 6575   0.396   0.323   1.948
 1892SOL    HW2 6576   0.351   0.439   2.054
 1893SOL     OW 6577   3.843   3.184   2.760
 1893SOL    HW1 6578   3.833   3.111   2.693
 1893SOL    HW2 6579   3.773   3.174   2.831
 1894SOL     OW 6580   3.503   3.583   4.503
 1894SOL    HW1 6581   3.511   3.645   4.425
 1894SOL    HW2 6582   3.416   3.599   4.550
 1895SOL     OW 6583   4.382   0.370   1.013
 1895SOL    HW1 6584   4.393   0.447   0.950
 1895SOL    HW2 6585   4.472   0.329   1.030
 1896SOL     OW 6586   6.146   1.743   0.891
 1896SOL    HW1 6587   6.112   1.828   0.932
 1896SOL    HW2 6588   6.076   1.672   0.902
 1897SOL     OW 6589   1.283   4.946   2.550
 1897SOL    HW1 6590   1.284   4.958   2.650
 1897SOL    HW2 6591   1.377   4.956   2.515
 1898SOL     OW 6592   1.704   5.310   3.134
 1898SOL    HW1 6593   1.751   5.364   3.064
 1898SOL    HW2 6594   1.614   5.350   3.152
 1899SOL     OW 6595   0.608   0.475   1.798
 1899SOL    HW1 6596   0.531   0.468   1.862
 1899SOL    HW2 6597   0.682   0.527   1.840
 1900SOL     OW 6598   2.871   0.240   0.183
 1900SOL    HW1 6599   2.920   0.286   0.257
 1900SOL    HW2 6600   2.829   0.157   0.219
 1901SOL     OW 6601   2.161   3.172   1.351
 1901SOL    HW1 6602   2.227   3.175   1.276
 1901SOL    HW2 6603   2.076   3.217   1.323
 1902SOL     OW 6604   2.678   0.209   4.821
 1902SOL    HW1 6605   2.671   0.129   4.881
 1902SOL    HW2 6606   2.640   0.186   4.731
 1903SOL     OW 6607   0.732   2.633   4.044
 1903SOL    HW1 6608   0.756   2.619   4.140
 1903SOL    HW2 6609   0.665   2.564   4.017
 1904SOL     OW 6610   5.966   5.147   2.790
 1904SOL    HW1 6611   5.875   5.108   2.773
 1904SOL    HW2 6612   6.033   5.074   2.798
 1905SOL     OW 6613   0.942   0.474   3.467
 1905SOL    HW1 6614   0.906   0.393   3.422
 1905SOL    HW2 6615   0.986   0.533   3.399
 1906SOL     OW 6616   2.587   0.703   5.698
 1906SOL    HW1 6617   2.620   0.614   5.669
 1906SOL    HW2 6618   2.514   0.691   5.765
 1907SOL     OW 6619   5.189   2.411   0.660
 1907SOL    HW1 6620   5.259   2.402   0.731
 1907SOL    HW2 6621   5.134   2.493   0.678
 1908SOL     OW 6622   3.998   0.137   0.271
 1908SOL    HW1 6623   3.961   0.062   0.217
 1908SOL    HW2 6624   3.940   0.218   0.259
 1909SOL     OW 6625   0.071   3.806   4.572
 1909SOL    HW1 6626   0.040   3.899   4.556
 1909SOL    HW2 6627   0.167   3.806   4.600
 1910SOL     OW 6628   6.311   5.729   6.010
 1910SOL    HW1 6629   6.353   5.657   6.065
 1910SOL    HW2 6630   6.240   5.775   6.063
 1911SOL     OW 6631   0.050   4.633   4.140
 1911SOL    HW1 6632   0.133   4.583   4.165
 1911SOL    HW2 6633   0.067   4.732   4.146
 1912SOL     OW 6634   2.748   4.774   2.663
 1912SOL    HW1 6635   2.696   4.720   2.596
 1912SOL    HW2 6636   2.778   4.859   2.620
 1913SOL     OW 6637   2.234   5.231   4.666
 1913SOL    HW1 6638   2.232   5.177   4.750
 1913SOL    HW2 6639   2.323   5.220   4.621
 1914SOL     OW 6640   2.900   4.017   5.975
 1914SOL    HW1 6641   2.899   4.114   5.953
 1914SOL    HW2 6642   2.946   3.967   5.901
 1915SOL     OW 6643   4.531   3.051   5.900
 1915SOL    HW1 6644   4.593   3.127   5.882
 1915SOL    HW2 6645   4.469   3.075   5.975
 1916SOL     OW 6646   3.632   0.107   1.751
 1916SOL    HW1 6647   3.592   0.185   1.799
 1916SOL    HW2 6648   3.716   0.136   1.705
 1917SOL     OW 6649   2.700   4.713   0.588
 1917SOL    HW1 6650   2.743   4.772   0.656
 1917SOL    HW2 6651   2.748   4.625   0.584
 1918SOL     OW 6652   0.808   0.812   4.681
 1918SOL    HW1 6653   0.886   0.814   4.743
 1918SOL    HW2 6654   0.802   0.722   4.637
 1919SOL     OW 6655   1.422   2.480   1.558
 1919SOL    HW1 6656   1.395   2.392   1.519
 1919SOL    HW2 6657   1.513   2.505   1.524
 1920SOL     OW 6658   5.268   2.347   2.230
 1920SOL    HW1 6659   5.168   2.347   2.231
 1920SOL    HW2 6660   5.302   2.327   2.322
 1921SOL     OW 6661   1.305   2.679   0.456
 1921SOL    HW1 6662   1.314   2.636   0.367
 1921SOL    HW2 6663   1.291   2.777   0.445
 1922SOL     OW 6664   3.485   3.157   2.278
 1922SOL    HW1 6665   3.437   3.117   2.356
 1922SOL    HW2 6666   3.582   3.163   2.299
 1923SOL     OW 6667   4.812   0.343   6.187
 1923SOL    HW1 6668   4.904   0.382   6.194
 1923SOL    HW2 6669   4.764   0.387   6.111
 1924SOL     OW 6670   4.480   0.072   1.286
 1924SOL    HW1 6671   4.533   0.151   1.255
 1924SOL    HW2 6672   4.386   0.079   1.253
 1925SOL     OW 6673   1.083   4.456   0.934
 1925SOL    HW1 6674   1.027   4.451   1.016
 1925SOL    HW2 6675   1.154   4.387   0.937
 1926SOL     OW 6676   3.805   0.388   1.503
 1926SOL    HW1 6677   3.771   0.457   1.568
 1926SOL    HW2 6678   3.729   0.329   1.476
 1927SOL     OW 6679   2.501   4.598   1.414
 1927SOL    HW1 6680   2.407   4.631   1.409
 1927SOL    HW2 6681   2.562   4.675   1.434
 1928SOL     OW 6682   4.336   4.655   3.810
 1928SOL    HW1 6683   4.370   4.684   3.899
 1928SOL    HW2 6684   4.257   4.595   3.823
 1929SOL     OW 6685   3.047   1.176   2.866
 1929SOL    HW1 6686   3.132   1.134   2.900
 1929SOL    HW2 6687   2.995   1.108   2.814
 1930SOL     OW 6688   4.788   3.077   6.589
 1930SOL    HW1 6689   4.822   3.172   6.585
 1930SOL    HW2 6690   4.691   3.077   6.614
 1931SOL     OW 6691   1.131   1.670   5.603
 1931SOL    HW1 6692   1.162   1.604   5.671
 1931SOL    HW2 6693   1.119   1.759   5.647
 1932SOL     OW 6694   4.521   2.075   3.491
 1932SOL    HW1 6695   4.538   2.172   3.474
 1932SOL    HW2 6696   4.424   2.055   3.480
 1933SOL     OW 6697   0.429   1.919   0.177
 1933SOL    HW1 6698   0.401   1.824   0.185
 1933SOL    HW2 6699   0.382   1.974   0.247
 1934SOL     OW 6700   0.044   0.453   5.073
 1934SOL    HW1 6701   0.097   0.479   5.154
 1934SOL    HW2 6702   7.007   0.376   5.096
 1935SOL     OW 6703   5.353   5.007   3.493
 1935SOL    HW1 6704   5.437   5.007   3.547
 1935SOL    HW2 6705   5.276   4.982   3.552
 1936SOL     OW 6706   5.383   3.299   4.522
 1936SOL    HW1 6707   5.405   3.397   4.521
 1936SOL    HW2 6708   5.467   3.246   4.510
 1937SOL     OW 6709   5.071   5.235   6.728
 1937SOL    HW1 6710   5.002   5.185   6.675
 1937SOL    HW2 6711   5.027   5.312   6.774
 1938SOL     OW 6712   0.721   2.721   7.019
 1938SOL    HW1 6713   0.628   2.749   6.994
 1938SOL    HW2 6714   0.752   2.775   0.074
 1939SOL     OW 6715   1.008   6.160   5.101
 1939SOL    HW1 6716   1.068   6.121   5.031
 1939SOL    HW2 6717   1.053   6.155   5.190
 1940SOL     OW 6718   5.964   4.900   1.473
 1940SOL    HW1 6719   6.044   4.852   1.509
 1940SOL    HW2 6720   5.881   4.862   1.514
 1941SOL     OW 6721   0.793   2.974   4.269
 1941SOL    HW1 6722   0.857   2.938   4.202
 1941SOL    HW2 6723   0.801   2.922   4.354
 1942SOL     OW 6724   5.427   3.198   2.474
 1942SOL    HW1 6725   5.333   3.164   2.469
 1942SOL    HW2 6726   5.490   3.121   2.469
 1943SOL     OW 6727   1.463   1.423   1.985
 1943SOL    HW1 6728   1.388   1.406   1.921
 1943SOL    HW2 6729   1.467   1.520   2.006
 1944SOL     OW 6730   0.131   2.906   0.961
 1944SOL    HW1 6731   0.039   2.873   0.940
 1944SOL    HW2 6732   0.125   2.983   1.024
 1945SOL     OW 6733   4.228   6.843   1.224
 1945SOL    HW1 6734   4.276   6.757   1.246
 1945SOL    HW2 6735   4.148   6.822   1.169
 1946SOL     OW 6736   6.741   6.303   1.519
 1946SOL    HW1 6737   6.684   6.299   1.601
 1946SOL    HW2 6738   6.738   6.216   1.471
 1947SOL     OW 6739   5.706   3.959   2.862
 1947SOL    HW1 6740   5.623   3.907   2.882
 1947SOL    HW2 6741   5.711   3.977   2.764
 1948SOL     OW 6742   5.475   3.417   3.036
 1948SOL    HW1 6743   5.410   3.342   3.024
 1948SOL    HW2 6744   5.472   3.477   2.956
 1949SOL     OW 6745   3.590   5.235   0.286
 1949SOL    HW1 6746   3.552   5.143   0.292
 1949SOL    HW2 6747   3.516   5.301   0.269
 1950SOL     OW 6748   3.794   3.890   4.224
 1950SOL    HW1 6749   3.744   3.967   4.186
 1950SOL    HW2 6750   3.876   3.923   4.270
 1951SOL     OW 6751   6.335   5.094   5.496
 1951SOL    HW1 6752   6.345   5.193   5.481
 1951SOL    HW2 6753   6.266   5.078   5.566
 1952SOL     OW 6754   5.406   4.117   6.897
 1952SOL    HW1 6755   5.375   4.212   6.899
 1952SOL    HW2 6756   5.487   4.109   6.838
 1953SOL     OW 6757   0.864   1.418   6.300
 1953SOL    HW1 6758   0.828   1.454   6.214
 1953SOL    HW2 6759   0.947   1.365   6.282
 1954SOL     OW 6760   3.398   0.124   1.386
 1954SOL    HW1 6761   3.442   0.193   1.443
 1954SOL    HW2 6762   3.353   0.169   1.309
 1955SOL     OW 6763   0.883   1.700   1.981
 1955SOL    HW1 6764   0.871   1.779   1.920
 1955SOL    HW2 6765   0.965   1.712   2.036
 1956SOL     OW 6766   6.460   0.803   2.102
 1956SOL    HW1 6767   6.412   0.868   2.043
 1956SOL    HW2 6768   6.477   0.845   2.191
 1957SOL     OW 6769   5.296   2.435   3.820
 1957SOL    HW1 6770   5.381   2.391   3.849
 1957SOL    HW2 6771   5.227   2.365   3.800
 1958SOL     OW 6772   4.695   1.733   0.859
 1958SOL    HW1 6773   4.649   1.819   0.881
 1958SOL    HW2 6774   4.652   1.692   0.779
 1959SOL     OW 6775   0.054   6.933   4.034
 1959SOL    HW1 6776   0.053   6.833   4.045
 1959SOL    HW2 6777   0.075   6.955   3.939
 1960SOL     OW 6778   5.778   3.557   2.783
 1960SOL    HW1 6779   5.731   3.522   2.864
 1960SOL    HW2 6780   5.725   3.533   2.702
 1961SOL     OW 6781   6.680   4.114   5.246
 1961SOL    HW1 6782   6.750   4.140   5.313
 1961SOL    HW2 6783   6.683   4.177   5.169
 1962SOL     OW 6784   1.131   6.892   2.978
 1962SOL    HW1 6785   1.081   6.940   2.907
 1962SOL    HW2 6786   1.111   6.794   2.973
 1963SOL     OW 6787   0.882   1.943   1.864
 1963SOL    HW1 6788   0.953   2.010   1.886
 1963SOL    HW2 6789   0.848   1.960   1.771
 1964SOL     OW 6790   5.303   4.432   2.088
 1964SOL    HW1 6791   5.252   4.366   2.033
 1964SOL    HW2 6792   5.389   4.392   2.118
 1965SOL     OW 6793   0.603   4.390   4.205
 1965SOL    HW1 6794   0.590   4.431   4.115
 1965SOL    HW2 6795   0.676   4.322   4.200
 1966SOL     OW 6796   1.671   4.388   0.682
 1966SOL    HW1 6797   1.610   4.331   0.737
 1966SOL    HW2 6798   1.622   4.469   0.651
 1967SOL     OW 6799   6.352   2.581   3.321
 1967SOL    HW1 6800   6.291   2.540   3.389
 1967SOL    HW2 6801   6.369   2.676   3.344
 1968SOL     OW 6802   2.065   1.439   5.369
 1968SOL    HW1 6803   2.012   1.520   5.346
 1968SOL    HW2 6804   2.145   1.465   5.423
 1969SOL     OW 6805   2.728   6.228   0.447
 1969SOL    HW1 6806   2.827   6.219   0.436
 1969SOL    HW2 6807   2.705   6.325   0.462
 1970SOL     OW 6808   6.698   5.766   5.087
 1970SOL    HW1 6809   6.733   5.857   5.065
 1970SOL    HW2 6810   6.746   5.697   5.033
 1971SOL     OW 6811   1.258   6.670   5.512
 1971SOL    HW1 6812   1.251   6.679   5.413
 1971SOL    HW2 6813   1.299   6.581   5.535
 1972SOL     OW 6814   5.804   2.442   1.738
 1972SOL    HW1 6815   5.790   2.452   1.836
 1972SOL    HW2 6816   5.858   2.361   1.720
 1973SOL     OW 6817   1.923   4.140   0.830
 1973SOL    HW1 6818   1.928   4.225   0.778
 1973SOL    HW2 6819   1.862   4.152   0.908
 1974SOL     OW 6820   3.481   6.269   4.824
 1974SOL    HW1 6821   3.433   6.240   4.741
 1974SOL    HW2 6822   3.575   6.295   4.800
 1975SOL     OW 6823   1.405   3.185   2.986
 1975SOL    HW1 6824   1.425   3.217   3.078
 1975SOL    HW2 6825   1.490   3.162   2.939
 1976SOL     OW 6826   0.228   7.009   5.883
 1976SOL    HW1 6827   0.307   6.961   5.845
 1976SOL    HW2 6828   0.220   6.988   5.980
 1977SOL     OW 6829   2.029   3.647   6.260
 1977SOL    HW1 6830   1.995   3.569   6.208
 1977SOL    HW2 6831   1.992   3.644   6.353
 1978SOL     OW 6832   2.420   0.255   2.215
 1978SOL    HW1 6833   2.490   0.198   2.171
 1978SOL    HW2 6834   2.427   0.349   2.180
 1979SOL     OW 6835   6.323   5.621   6.674
 1979SOL    HW1 6836   6.355   5.572   6.592
 1979SOL    HW2 6837   6.388   5.694   6.696
 1980SOL     OW 6838   3.110   1.828   1.725
 1980SOL    HW1 6839   3.133   1.906   1.667
 1980SOL    HW2 6840   3.048   1.857   1.798
 1981SOL     OW 6841   4.326   2.401   3.268
 1981SOL    HW1 6842   4.311   2.381   3.365
 1981SOL    HW2 6843   4.396   2.472   3.260
 1982SOL     OW 6844   6.517   2.732   4.174
 1982SOL    HW1 6845   6.529   2.633   4.171
 1982SOL    HW2 6846   6.430   2.754   4.220
 1983SOL     OW 6847   0.392   0.240   1.087
 1983SOL    HW1 6848   0.435   0.150   1.095
 1983SOL    HW2 6849   0.338   0.257   1.169
 1984SOL     OW 6850   5.718   3.115   5.602
 1984SOL    HW1 6851   5.742   3.173   5.524
 1984SOL    HW2 6852   5.690   3.173   5.679
 1985SOL     OW 6853   6.292   4.534   1.800
 1985SOL    HW1 6854   6.244   4.510   1.715
 1985SOL    HW2 6855   6.352   4.612   1.783
 1986SOL     OW 6856   3.175   1.906   0.813
 1986SOL    HW1 6857   3.164   1.959   0.729
 1986SOL    HW2 6858   3.246   1.837   0.801
 1987SOL     OW 6859   1.916   0.300   3.030
 1987SOL    HW1 6860   1.949   0.368   3.096
 1987SOL    HW2 6861   1.984   0.287   2.959
 1988SOL     OW 6862   0.082   1.734   1.623
 1988SOL    HW1 6863   0.023   1.764   1.548
 1988SOL    HW2 6864   0.031   1.739   1.709
 1989SOL     OW 6865   3.179   4.843   4.998
 1989SOL    HW1 6866   3.101   4.815   4.942
 1989SOL    HW2 6867   3.249   4.885   4.941
 1990SOL     OW 6868   3.926   0.496   0.487
 1990SOL    HW1 6869   4.022   0.524   0.487
 1990SOL    HW2 6870   3.884   0.519   0.574
 1991SOL     OW 6871   3.417   5.560   0.436
 1991SOL    HW1 6872   3.411   5.506   0.351
 1991SOL    HW2 6873   3.477   5.638   0.422
 1992SOL     OW 6874   0.520   6.225   0.823
 1992SOL    HW1 6875   0.614   6.231   0.791
 1992SOL    HW2 6876   0.468   6.303   0.788
 1993SOL     OW 6877   2.021   3.361   4.504
 1993SOL    HW1 6878   1.966   3.406   4.432
 1993SOL    HW2 6879   1.969   3.361   4.589
 1994SOL     OW 6880   3.184   3.627   0.518
 1994SOL    HW1 6881   3.168   3.710   0.570
 1994SOL    HW2 6882   3.152   3.548   0.571
 1995SOL     OW 6883   5.218   2.685   4.545
 1995SOL    HW1 6884   5.175   2.775   4.554
 1995SOL    HW2 6885   5.150   2.620   4.509
 1996SOL     OW 6886   3.737   1.580   0.767
 1996SOL    HW1 6887   3.797   1.659   0.758
 1996SOL    HW2 6888   3.673   1.578   0.690
 1997SOL     OW 6889   3.911   1.398   3.429
 1997SOL    HW1 6890   3.900   1.489   3.469
 1997SOL    HW2 6891   3.996   1.395   3.376
 1998SOL     OW 6892   1.258   3.511   1.628
 1998SOL    HW1 6893   1.195   3.505   1.705
 1998SOL    HW2 6894   1.208   3.532   1.544
 1999SOL     OW 6895   1.294   6.921   5.275
 1999SOL    HW1 6896   1.376   6.881   5.317
 1999SOL    HW2 6897   1.277   6.876   5.187
 2000SOL     OW 6898   3.300   3.659   6.359
 2000SOL    HW1 6899   3.298   3.563   6.386
 2000SOL    HW2 6900   3.395   3.686   6.342
 2001SOL     OW 6901   2.594   1.720   6.544
 2001SOL    HW1 6902   2.567   1.745   6.451
 2001SOL    HW2 6903   2.662   1.785   6.578
 2002SOL     OW 6904   6.792   4.911   0.866
 2002SOL    HW1 6905   6.780   5.009   0.855
 2002SOL    HW2 6906   6.841   4.892   0.951
 2003SOL     OW 6907   6.590   5.382   2.145
 2003SOL    HW1 6908   6.593   5.455   2.077
 2003SOL    HW2 6909   6.503   5.386   2.194
 2004SOL     OW 6910   3.356   0.829   3.263
 2004SOL    HW1 6911   3.336   0.903   3.199
 2004SOL    HW2 6912   3.313   0.849   3.351
 2005SOL     OW 6913   1.211   6.381   0.896
 2005SOL    HW1 6914   1.115   6.410   0.892
 2005SOL    HW2 6915   1.218   6.283   0.879
 2006SOL     OW 6916   5.340   7.015   3.171
 2006SOL    HW1 6917   5.256   0.044   3.189
 2006SOL    HW2 6918   5.411   0.054   3.137
 2007SOL     OW 6919   5.209   4.651   0.575
 2007SOL    HW1 6920   5.145   4.631   0.501
 2007SOL    HW2 6921   5.164   4.708   0.643
 2008SOL     OW 6922   1.799   3.987   3.819
 2008SOL    HW1 6923   1.745   4.046   3.759
 2008SOL    HW2 6924   1.885   3.963   3.775
 2009SOL     OW 6925   6.544   6.187   1.975
 2009SOL    HW1 6926   6.629   6.137   1.995
 2009SOL    HW2 6927   6.493   6.201   2.059
 2010SOL     OW 6928   1.758   2.263   1.620
 2010SOL    HW1 6929   1.669   2.255   1.574
 2010SOL    HW2 6930   1.785   2.359   1.625
 2011SOL     OW 6931   0.195   5.860   5.750
 2011SOL    HW1 6932   0.242   5.783   5.707
 2011SOL    HW2 6933   0.099   5.859   5.724
 2012SOL     OW 6934   1.308   3.172   2.498
 2012SOL    HW1 6935   1.219   3.150   2.538
 2012SOL    HW2 6936   1.335   3.264   2.527
 2013SOL     OW 6937   0.748   3.209   3.048
 2013SOL    HW1 6938   0.751   3.153   3.131
 2013SOL    HW2 6939   0.658   3.252   3.040
 2014SOL     OW 6940   3.293   0.619   3.834
 2014SOL    HW1 6941   3.345   0.558   3.773
 2014SOL    HW2 6942   3.245   0.564   3.903
 2015SOL     OW 6943   3.985   0.904   1.683
 2015SOL    HW1 6944   4.055   0.945   1.625
 2015SOL    HW2 6945   4.002   0.806   1.692
 2016SOL     OW 6946   1.801   0.160   5.682
 2016SOL    HW1 6947   1.835   0.226   5.749
 2016SOL    HW2 6948   1.873   0.094   5.661
 2017SOL     OW 6949   3.850   0.214   2.565
 2017SOL    HW1 6950   3.913   0.226   2.642
 2017SOL    HW2 6951   3.833   0.117   2.551
 2018SOL     OW 6952   0.732   1.315   2.946
 2018SOL    HW1 6953   0.799   1.253   2.987
 2018SOL    HW2 6954   0.645   1.267   2.935
 2019SOL     OW 6955   6.343   4.931   6.429
 2019SOL    HW1 6956   6.439   4.958   6.435
 2019SOL    HW2 6957   6.318   4.919   6.333
 2020SOL     OW 6958   1.760   6.352   6.300
 2020SOL    HW1 6959   1.825   6.424   6.273
 2020SOL    HW2 6960   1.735   6.365   6.396
 2021SOL     OW 6961   6.134   6.187   3.608
 2021SOL    HW1 6962   6.222   6.164   3.567
 2021SOL    HW2 6963   6.128   6.286   3.621
 2022SOL     OW 6964   2.120   4.302   5.247
 2022SOL    HW1 6965   2.179   4.337   5.175
 2022SOL    HW2 6966   2.176   4.254   5.315
 2023SOL     OW 6967   0.267   6.769   6.951
 2023SOL    HW1 6968   0.234   6.836   7.018
 2023SOL    HW2 6969   0.247   6.676   6.983
 2024SOL     OW 6970   0.581   5.749   4.793
 2024SOL    HW1 6971   0.591   5.773   4.889
 2024SOL    HW2 6972   0.486   5.761   4.765
 2025SOL     OW 6973   2.334   0.365   5.110
 2025SOL    HW1 6974   2.304   0.440   5.051
 2025SOL    HW2 6975   2.432   0.376   5.129
 2026SOL     OW 6976   6.294   1.229   6.252
 2026SOL    HW1 6977   6.351   1.306   6.281
 2026SOL    HW2 6978   6.291   1.227   6.152
 2027SOL     OW 6979   0.290   6.218   2.452
 2027SOL    HW1 6980   0.233   6.143   2.417
 2027SOL    HW2 6981   0.232   6.297   2.473
 2028SOL     OW 6982   4.068   5.978   3.193
 2028SOL    HW1 6983   4.162   6.004   3.218
 2028SOL    HW2 6984   4.011   6.060   3.190
 2029SOL     OW 6985   5.946   2.575   6.109
 2029SOL    HW1 6986   5.880   2.635   6.153
 2029SOL    HW2 6987   5.985   2.621   6.029
 2030SOL     OW 6988   2.570   6.062   3.143
 2030SOL    HW1 6989   2.658   6.076   3.098
 2030SOL    HW2 6990   2.513   6.000   3.089
 2031SOL     OW 6991   6.218   5.803   3.569
 2031SOL    HW1 6992   6.203   5.760   3.480
 2031SOL    HW2 6993   6.131   5.838   3.604
 2032SOL     OW 6994   3.342   1.608   5.846
 2032SOL    HW1 6995   3.301   1.689   5.888
 2032SOL    HW2 6996   3.300   1.593   5.756
 2033SOL     OW 6997   1.997   1.604   1.069
 2033SOL    HW1 6998   2.077   1.663   1.078
 2033SOL    HW2 6999   2.001   1.532   1.138
 2034SOL     OW 7000   0.172   4.439   5.903
 2034SOL    HW1 7001   0.129   4.440   5.813
 2034SOL    HW2 7002   0.236   4.516   5.910
 2035SOL     OW 7003   5.713   6.856   2.440
 2035SOL    HW1 7004   5.716   6.864   2.539
 2035SOL    HW2 7005   5.636   6.908   2.404
 2036SOL     OW 7006   1.406   3.985   2.259
 2036SOL    HW1 7007   1.449   4.070   2.291
 2036SOL    HW2 7008   1.459   3.948   2.183
 2037SOL     OW 7009   0.235   3.165   6.593
 2037SOL    HW1 7010   0.241   3.076   6.548
 2037SOL    HW2 7011   0.307   3.173   6.661
 2038SOL     OW 7012   2.490   1.266   7.005
 2038SOL    HW1 7013   2.507   1.262   0.081
 2038SOL    HW2 7014   2.572   1.238   6.956
 2039SOL     OW 7015   6.584   6.038   2.407
 2039SOL    HW1 7016   6.556   5.999   2.319
 2039SOL    HW2 7017   6.623   6.129   2.392
 2040SOL     OW 7018   1.867   2.750   7.000
 2040SOL    HW1 7019   1.793   2.685   7.014
 2040SOL    HW2 7020   1.899   2.744   6.905
 2041SOL     OW 7021   1.558   0.607   6.374
 2041SOL    HW1 7022   1.491   0.584   6.303
 2041SOL    HW2 7023   1.564   0.532   6.440
 2042SOL     OW 7024   5.109   1.224   5.246
 2042SOL    HW1 7025   5.129   1.127   5.259
 2042SOL    HW2 7026   5.102   1.244   5.148
 2043SOL     OW 7027   6.376   3.958   1.066
 2043SOL    HW1 7028   6.374   4.058   1.073
 2043SOL    HW2 7029   6.292   3.920   1.105
 2044SOL     OW 7030   4.900   0.333   0.607
 2044SOL    HW1 7031   4.961   0.393   0.556
 2044SOL    HW2 7032   4.811   0.376   0.617
 2045SOL     OW 7033   2.166   6.172   6.488
 2045SOL    HW1 7034   2.154   6.232   6.409
 2045SOL    HW2 7035   2.255   6.127   6.483
 2046SOL     OW 7036   1.169   2.358   4.697
 2046SOL    HW1 7037   1.119   2.284   4.650
 2046SOL    HW2 7038   1.127   2.375   4.786
 2047SOL     OW 7039   0.119   1.081   0.028
 2047SOL    HW1 7040   0.126   1.177   0.054
 2047SOL    HW2 7041   0.023   1.054   0.029
 2048SOL     OW 7042   0.927   1.426   4.606
 2048SOL    HW1 7043   0.846   1.475   4.640
 2048SOL    HW2 7044   0.899   1.362   4.535
 2049SOL     OW 7045   4.668   1.746   4.952
 2049SOL    HW1 7046   4.764   1.772   4.956
 2049SOL    HW2 7047   4.659   1.659   4.903
 2050SOL     OW 7048   0.499   0.687   3.810
 2050SOL    HW1 7049   0.508   0.754   3.736
 2050SOL    HW2 7050   0.410   0.698   3.854
 2051SOL     OW 7051   3.309   6.157   0.894
 2051SOL    HW1 7052   3.314   6.169   0.993
 2051SOL    HW2 7053   3.227   6.202   0.858
 2052SOL     OW 7054   2.136   3.893   6.717
 2052SOL    HW1 7055   2.091   3.895   6.807
 2052SOL    HW2 7056   2.096   3.964   6.659
 2053SOL     OW 7057   0.817   5.252   4.179
 2053SOL    HW1 7058   0.892   5.186   4.172
 2053SOL    HW2 7059   0.852   5.340   4.211
 2054SOL     OW 7060   3.382   3.260   3.485
 2054SOL    HW1 7061   3.373   3.330   3.414
 2054SOL    HW2 7062   3.325   3.284   3.564
 2055SOL     OW 7063   2.448   2.092   5.960
 2055SOL    HW1 7064   2.365   2.126   5.917
 2055SOL    HW2 7065   2.467   2.143   6.043
 2056SOL     OW 7066   4.219   4.834   1.217
 2056SOL    HW1 7067   4.303   4.792   1.249
 2056SOL    HW2 7068   4.141   4.791   1.263
 2057SOL     OW 7069   6.049   2.301   4.009
 2057SOL    HW1 7070   5.967   2.284   3.955
 2057SOL    HW2 7071   6.073   2.219   4.061
 2058SOL     OW 7072   0.441   5.827   3.023
 2058SOL    HW1 7073   0.352   5.786   3.039
 2058SOL    HW2 7074   0.473   5.804   2.931
 2059SOL     OW 7075   1.397   0.200   6.372
 2059SOL    HW1 7076   1.421   0.218   6.276
 2059SOL    HW2 7077   1.457   0.252   6.432
 2060SOL     OW 7078   1.370   3.276   6.897
 2060SOL    HW1 7079   1.323   3.364   6.908
 2060SOL    HW2 7080   1.335   3.229   6.817
 2061SOL     OW 7081   2.154   2.166   2.877
 2061SOL    HW1 7082   2.195   2.184   2.787
 2061SOL    HW2 7083   2.054   2.166   2.868
 2062SOL     OW 7084   6.721   5.133   4.977
 2062SOL    HW1 7085   6.653   5.080   5.028
 2062SOL    HW2 7086   6.774   5.071   4.919
 2063SOL     OW 7087   1.209   0.533   5.246
 2063SOL    HW1 7088   1.255   0.616   5.214
 2063SOL    HW2 7089   1.235   0.456   5.189
 2064SOL     OW 7090   0.523   3.100   3.711
 2064SOL    HW1 7091   0.613   3.103   3.668
 2064SOL    HW2 7092   0.523   3.031   3.784
 2065SOL     OW 7093   4.502   2.946   5.547
 2065SOL    HW1 7094   4.573   2.987   5.604
 2065SOL    HW2 7095   4.467   2.863   5.592
 2066SOL     OW 7096   6.328   3.108   5.020
 2066SOL    HW1 7097   6.305   3.179   4.953
 2066SOL    HW2 7098   6.359   3.151   5.104
 2067SOL     OW 7099   6.332   4.849   1.089
 2067SOL    HW1 7100   6.269   4.897   1.149
 2067SOL    HW2 7101   6.306   4.863   0.994
 2068SOL     OW 7102   4.071   0.249   4.447
 2068SOL    HW1 7103   4.125   0.331   4.464
 2068SOL    HW2 7104   4.016   0.228   4.528
 2069SOL     OW 7105   0.068   2.379   3.983
 2069SOL    HW1 7106   7.010   2.333   4.020
 2069SOL    HW2 7107   0.040   2.466   3.941
 2070SOL     OW 7108   0.689   4.622   1.184
 2070SOL    HW1 7109   0.652   4.528   1.179
 2070SOL    HW2 7110   0.787   4.620   1.164
 2071SOL     OW 7111   6.929   1.223   5.822
 2071SOL    HW1 7112   6.939   1.292   5.893
 2071SOL    HW2 7113   6.833   1.218   5.794
 2072SOL     OW 7114   4.082   4.461   5.696
 2072SOL    HW1 7115   4.065   4.560   5.687
 2072SOL    HW2 7116   4.111   4.425   5.607
 2073SOL     OW 7117   3.270   6.234   0.191
 2073SOL    HW1 7118   3.193   6.172   0.207
 2073SOL    HW2 7119   3.247   6.325   0.225
 2074SOL     OW 7120   1.206   3.748   5.444
 2074SOL    HW1 7121   1.284   3.724   5.502
 2074SOL    HW2 7122   1.135   3.679   5.455
 2075SOL     OW 7123   6.485   1.969   1.461
 2075SOL    HW1 7124   6.546   2.048   1.455
 2075SOL    HW2 7125   6.538   1.887   1.481
 2076SOL     OW 7126   5.024   6.864   4.881
 2076SOL    HW1 7127   5.081   6.915   4.946
 2076SOL    HW2 7128   5.047   6.767   4.886
 2077SOL     OW 7129   6.623   4.065   0.813
 2077SOL    HW1 7130   6.690   4.132   0.845
 2077SOL    HW2 7131   6.549   4.112   0.765
 2078SOL     OW 7132   0.702   3.052   5.539
 2078SOL    HW1 7133   0.748   3.122   5.594
 2078SOL    HW2 7134   0.644   2.995   5.598
 2079SOL     OW 7135   5.057   2.027   2.580
 2079SOL    HW1 7136   5.022   2.102   2.524
 2079SOL    HW2 7137   5.015   1.941   2.552
 2080SOL     OW 7138   2.433   3.193   5.590
 2080SOL    HW1 7139   2.362   3.262   5.599
 2080SOL    HW2 7140   2.473   3.174   5.680
 2081SOL     OW 7141   6.133   0.092   2.972
 2081SOL    HW1 7142   6.176   0.002   2.973
 2081SOL    HW2 7143   6.114   0.119   2.877
 2082SOL     OW 7144   0.326   6.218   3.073
 2082SOL    HW1 7145   0.307   6.314   3.091
 2082SOL    HW2 7146   0.309   6.164   3.155
 2083SOL     OW 7147   0.385   6.234   3.869
 2083SOL    HW1 7148   0.429   6.171   3.933
 2083SOL    HW2 7149   0.421   6.219   3.777
 2084SOL     OW 7150   0.015   1.989   2.007
 2084SOL    HW1 7151   6.978   2.055   2.053
 2084SOL    HW2 7152   0.078   2.038   1.947
 2085SOL     OW 7153   4.993   5.808   0.726
 2085SOL    HW1 7154   5.076   5.754   0.742
 2085SOL    HW2 7155   4.923   5.781   0.792
 2086SOL     OW 7156   4.504   0.043   6.955
 2086SOL    HW1 7157   4.569   0.109   6.992
 2086SOL    HW2 7158   4.486   6.994   0.000
 2087SOL     OW 7159   4.485   2.375   6.734
 2087SOL    HW1 7160   4.497   2.397   6.637
 2087SOL    HW2 7161   4.414   2.305   6.744
 2088SOL     OW 7162   0.322   5.688   5.573
 2088SOL    HW1 7163   0.392   5.617   5.569
 2088SOL    HW2 7164   0.301   5.720   5.481
 2089SOL     OW 7165   2.962   3.429   6.898
 2089SOL    HW1 7166   2.939   3.486   6.818
 2089SOL    HW2 7167   3.055   3.449   6.928
 2090SOL     OW 7168   4.600   3.394   5.370
 2090SOL    HW1 7169   4.669   3.427   5.305
 2090SOL    HW2 7170   4.620   3.429   5.461
 2091SOL     OW 7171   5.807   5.829   1.388
 2091SOL    HW1 7172   5.715   5.837   1.348
 2091SOL    HW2 7173   5.846   5.920   1.401
 2092SOL     OW 7174   4.738   3.765   1.552
 2092SOL    HW1 7175   4.701   3.843   1.501
 2092SOL    HW2 7176   4.819   3.730   1.505
 2093SOL     OW 7177   3.871   1.748   2.502
 2093SOL    HW1 7178   3.827   1.803   2.573
 2093SOL    HW2 7179   3.914   1.667   2.544
 2094SOL     OW 7180   5.401   2.278   6.641
 2094SOL    HW1 7181   5.336   2.335   6.691
 2094SOL    HW2 7182   5.371   2.269   6.546
 2095SOL     OW 7183   5.051   6.294   3.271
 2095SOL    HW1 7184   5.146   6.290   3.243
 2095SOL    HW2 7185   5.012   6.383   3.244
 2096SOL     OW 7186   5.152   6.688   2.411
 2096SOL    HW1 7187   5.095   6.681   2.328
 2096SOL    HW2 7188   5.097   6.664   2.491
 2097SOL     OW 7189   1.343   4.753   6.576
 2097SOL    HW1 7190   1.316   4.721   6.486
 2097SOL    HW2 7191   1.325   4.851   6.584
 2098SOL     OW 7192   3.243   6.033   3.319
 2098SOL    HW1 7193   3.330   5.992   3.293
 2098SOL    HW2 7194   3.259   6.109   3.381
 2099SOL     OW 7195   5.268   1.045   0.081
 2099SOL    HW1 7196   5.283   1.054   7.005
 2099SOL    HW2 7197   5.249   0.950   0.103
 2100SOL     OW 7198   5.790   0.477   1.179
 2100SOL    HW1 7199   5.865   0.503   1.118
 2100SOL    HW2 7200   5.728   0.555   1.190
 2101SOL     OW 7201   0.139   6.757   1.772
 2101SOL    HW1 7202   0.199   6.703   1.830
 2101SOL    HW2 7203   0.044   6.739   1.798
 2102SOL     OW 7204   3.438   3.334   0.552
 2102SOL    HW1 7205   3.525   3.285   0.543
 2102SOL    HW2 7206   3.456   3.431   0.569
 2103SOL     OW 7207   2.939   5.702   1.038
 2103SOL    HW1 7208   3.012   5.699   1.107
 2103SOL    HW2 7209   2.974   5.669   0.951
 2104SOL     OW 7210   1.295   4.948   2.825
 2104SOL    HW1 7211   1.310   4.864   2.878
 2104SOL    HW2 7212   1.312   5.028   2.883
 2105SOL     OW 7213   5.940   4.048   6.278
 2105SOL    HW1 7214   5.857   4.104   6.274
 2105SOL    HW2 7215   5.985   4.049   6.188
 2106SOL     OW 7216   5.001   4.126   1.499
 2106SOL    HW1 7217   4.907   4.104   1.525
 2106SOL    HW2 7218   5.033   4.061   1.430
 2107SOL     OW 7219   5.230   3.944   5.507
 2107SOL    HW1 7220   5.318   3.962   5.463
 2107SOL    HW2 7221   5.229   3.985   5.598
 2108SOL     OW 7222   5.446   0.487   5.805
 2108SOL    HW1 7223   5.497   0.551   5.748
 2108SOL    HW2 7224   5.404   0.417   5.747
 2109SOL     OW 7225   2.525   6.272   3.313
 2109SOL    HW1 7226   2.560   6.229   3.229
 2109SOL    HW2 7227   2.508   6.202   3.381
 2110SOL     OW 7228   4.115   0.350   6.851
 2110SOL    HW1 7229   4.071   0.405   6.924
 2110SOL    HW2 7230   4.194   0.400   6.816
 2111SOL     OW 7231   1.012   2.357   5.816
 2111SOL    HW1 7232   1.002   2.456   5.816
 2111SOL    HW2 7233   0.990   2.321   5.725
 2112SOL     OW 7234   0.297   0.882   0.064
 2112SOL    HW1 7235   0.363   0.854   7.017
 2112SOL    HW2 7236   0.238   0.954   0.028
 2113SOL     OW 7237   1.142   0.292   4.391
 2113SOL    HW1 7238   1.223   0.263   4.442
 2113SOL    HW2 7239   1.082   0.213   4.376
 2114SOL     OW 7240   1.758   1.771   6.389
 2114SOL    HW1 7241   1.678   1.807   6.436
 2114SOL    HW2 7242   1.831   1.839   6.390
 2115SOL     OW 7243   6.534   5.518   3.167
 2115SOL    HW1 7244   6.535   5.513   3.267
 2115SOL    HW2 7245   6.627   5.528   3.133
 2116SOL     OW 7246   0.234   2.169   0.251
 2116SOL    HW1 7247   0.326   2.145   0.221
 2116SOL    HW2 7248   0.235   2.189   0.349
 2117SOL     OW 7249   6.262   1.487   2.317
 2117SOL    HW1 7250   6.218   1.398   2.331
 2117SOL    HW2 7251   6.357   1.482   2.348
 2118SOL     OW 7252   6.273   2.535   2.352
 2118SOL    HW1 7253   6.248   2.447   2.311
 2118SOL    HW2 7254   6.209   2.605   2.322
 2119SOL     OW 7255   2.967   0.864   0.023
 2119SOL    HW1 7256   3.020   0.864   6.961
 2119SOL    HW2 7257   2.888   0.803   0.013
 2120SOL     OW 7258   5.690   1.470   0.804
 2120SOL    HW1 7259   5.612   1.502   0.751
 2120SOL    HW2 7260   5.667   1.383   0.849
 2121SOL     OW 7261   1.179   0.409   6.499
 2121SOL    HW1 7262   1.181   0.507   6.481
 2121SOL    HW2 7263   1.231   0.361   6.427
 2122SOL     OW 7264   5.929   1.224   4.498
 2122SOL    HW1 7265   6.010   1.252   4.548
 2122SOL    HW2 7266   5.851   1.217   4.561
 2123SOL     OW 7267   1.799   5.743   3.362
 2123SOL    HW1 7268   1.886   5.698   3.342
 2123SOL    HW2 7269   1.807   5.841   3.344
 2124SOL     OW 7270   3.906   3.616   5.920
 2124SOL    HW1 7271   3.877   3.522   5.939
 2124SOL    HW2 7272   3.903   3.633   5.822
 2125SOL     OW 7273   1.452   5.741   3.741
 2125SOL    HW1 7274   1.531   5.756   3.682
 2125SOL    HW2 7275   1.410   5.653   3.718
 2126SOL     OW 7276   3.400   4.417   0.043
 2126SOL    HW1 7277   3.315   4.471   0.049
 2126SOL    HW2 7278   3.406   4.356   0.122
 2127SOL     OW 7279   0.642   2.384   4.374
 2127SOL    HW1 7280   0.625   2.465   4.318
 2127SOL    HW2 7281   0.714   2.329   4.331
 2128SOL     OW 7282   5.058   2.627   1.685
 2128SOL    HW1 7283   5.013   2.589   1.765
 2128SOL    HW2 7284   5.108   2.555   1.637
 2129SOL     OW 7285   5.089   4.481   4.268
 2129SOL    HW1 7286   5.055   4.400   4.220
 2129SOL    HW2 7287   5.176   4.458   4.313
 2130SOL     OW 7288   2.410   0.218   2.888
 2130SOL    HW1 7289   2.473   0.284   2.928
 2130SOL    HW2 7290   2.419   0.220   2.788
 2131SOL     OW 7291   5.763   1.358   5.521
 2131SOL    HW1 7292   5.861   1.340   5.536
 2131SOL    HW2 7293   5.726   1.289   5.459
 2132SOL     OW 7294   2.946   2.422   0.334
 2132SOL    HW1 7295   2.867   2.395   0.280
 2132SOL    HW2 7296   3.020   2.450   0.274
 2133SOL     OW 7297   2.680   2.175   1.977
 2133SOL    HW1 7298   2.765   2.217   2.009
 2133SOL    HW2 7299   2.699   2.119   1.896
 2134SOL     OW 7300   1.108   6.746   4.793
 2134SOL    HW1 7301   1.030   6.793   4.836
 2134SOL    HW2 7302   1.176   6.814   4.766
 2135SOL     OW 7303   0.778   1.175   3.538
 2135SOL    HW1 7304   0.731   1.226   3.466
 2135SOL    HW2 7305   0.877   1.193   3.532
 2136SOL     OW 7306   0.388   4.118   3.171
 2136SOL    HW1 7307   0.300   4.137   3.215
 2136SOL    HW2 7308   0.378   4.042   3.107
 2137SOL     OW 7309   1.396   0.300   5.370
 2137SOL    HW1 7310   1.364   0.255   5.287
 2137SOL    HW2 7311   1.322   0.357   5.407
 2138SOL     OW 7312   0.545   2.924   0.328
 2138SOL    HW1 7313   0.603   2.979   0.389
 2138SOL    HW2 7314   0.564   2.827   0.343
 2139SOL     OW 7315   2.657   1.211   5.649
 2139SOL    HW1 7316   2.734   1.270   5.673
 2139SOL    HW2 7317   2.604   1.254   5.576
 2140SOL     OW 7318   2.470   5.659   2.691
 2140SOL    HW1 7319   2.460   5.758   2.679
 2140SOL    HW2 7320   2.392   5.612   2.651
 2141SOL     OW 7321   5.310   2.051   0.915
 2141SOL    HW1 7322   5.341   2.065   1.009
 2141SOL    HW2 7323   5.299   1.953   0.898
 2142SOL     OW 7324   2.488   1.996   3.242
 2142SOL    HW1 7325   2.469   2.093   3.258
 2142SOL    HW2 7326   2.538   1.958   3.320
 2143SOL     OW 7327   2.949   6.701   0.738
 2143SOL    HW1 7328   3.033   6.697   0.791
 2143SOL    HW2 7329   2.962   6.758   0.657
 2144SOL     OW 7330   0.246   0.942   3.088
 2144SOL    HW1 7331   0.274   0.959   2.993
 2144SOL    HW2 7332   0.298   0.865   3.125
 2145SOL     OW 7333   3.902   5.455   2.960
 2145SOL    HW1 7334   3.860   5.441   2.871
 2145SOL    HW2 7335   3.899   5.552   2.984
 2146SOL     OW 7336   4.122   3.534   2.631
 2146SOL    HW1 7337   4.106   3.436   2.630
 2146SOL    HW2 7338   4.122   3.568   2.725
 2147SOL     OW 7339   1.148   0.621   5.682
 2147SOL    HW1 7340   1.097   0.694   5.637
 2147SOL    HW2 7341   1.132   0.625   5.781
 2148SOL     OW 7342   4.913   3.103   2.980
 2148SOL    HW1 7343   4.993   3.155   2.950
 2148SOL    HW2 7344   4.871   3.058   2.902
 2149SOL     OW 7345   3.436   0.970   2.634
 2149SOL    HW1 7346   3.407   1.058   2.672
 2149SOL    HW2 7347   3.525   0.945   2.671
 2150SOL     OW 7348   3.374   2.126   3.118
 2150SOL    HW1 7349   3.382   2.031   3.090
 2150SOL    HW2 7350   3.372   2.132   3.217
 2151SOL     OW 7351   3.810   2.949   5.751
 2151SOL    HW1 7352   3.817   2.907   5.661
 2151SOL    HW2 7353   3.873   3.026   5.758
 2152SOL     OW 7354   6.026   5.711   1.315
 2152SOL    HW1 7355   6.016   5.681   1.220
 2152SOL    HW2 7356   5.938   5.747   1.347
 2153SOL     OW 7357   4.539   2.599   3.202
 2153SOL    HW1 7358   4.509   2.560   3.115
 2153SOL    HW2 7359   4.551   2.698   3.192
 2154SOL     OW 7360   3.828   6.244   5.493
 2154SOL    HW1 7361   3.921   6.280   5.494
 2154SOL    HW2 7362   3.812   6.190   5.575
 2155SOL     OW 7363   6.583   3.887   0.361
 2155SOL    HW1 7364   6.561   3.982   0.382
 2155SOL    HW2 7365   6.584   3.834   0.446
 2156SOL     OW 7366   1.987   0.774   1.898
 2156SOL    HW1 7367   1.968   0.824   1.814
 2156SOL    HW2 7368   2.015   0.680   1.876
 2157SOL     OW 7369   0.737   1.381   5.062
 2157SOL    HW1 7370   0.710   1.299   5.012
 2157SOL    HW2 7371   0.836   1.394   5.055
 2158SOL     OW 7372   3.496   6.659   1.899
 2158SOL    HW1 7373   3.562   6.712   1.953
 2158SOL    HW2 7374   3.431   6.721   1.855
 2159SOL     OW 7375   1.840   6.417   4.858
 2159SOL    HW1 7376   1.814   6.486   4.926
 2159SOL    HW2 7377   1.900   6.349   4.901
 2160SOL     OW 7378   2.958   4.087   0.953
 2160SOL    HW1 7379   2.929   4.106   1.047
 2160SOL    HW2 7380   2.877   4.074   0.895
 2161SOL     OW 7381   5.291   2.298   3.405
 2161SOL    HW1 7382   5.238   2.375   3.370
 2161SOL    HW2 7383   5.370   2.333   3.456
 2162SOL     OW 7384   1.142   0.605   6.776
 2162SOL    HW1 7385   1.192   0.518   6.776
 2162SOL    HW2 7386   1.153   0.649   6.687
 2163SOL     OW 7387   1.929   1.957   0.750
 2163SOL    HW1 7388   1.923   1.857   0.740
 2163SOL    HW2 7389   1.949   1.979   0.845
 2164SOL     OW 7390   0.974   0.760   1.015
 2164SOL    HW1 7391   0.934   0.792   1.101
 2164SOL    HW2 7392   1.072   0.746   1.027
 2165SOL     OW 7393   2.176   6.973   2.659
 2165SOL    HW1 7394   2.202   0.009   2.582
 2165SOL    HW2 7395   2.258   6.943   2.708
 2166SOL     OW 7396   0.133   2.614   6.452
 2166SOL    HW1 7397   0.221   2.635   6.409
 2166SOL    HW2 7398   0.069   2.581   6.382
 2167SOL     OW 7399   2.754   0.551   2.765
 2167SOL    HW1 7400   2.781   0.493   2.688
 2167SOL    HW2 7401   2.800   0.519   2.848
 2168SOL     OW 7402   5.733   5.521   4.635
 2168SOL    HW1 7403   5.758   5.425   4.620
 2168SOL    HW2 7404   5.743   5.542   4.733
 2169SOL     OW 7405   4.941   1.613   6.085
 2169SOL    HW1 7406   4.875   1.550   6.125
 2169SOL    HW2 7407   5.004   1.563   6.025
 2170SOL     OW 7408   4.089   4.882   4.440
 2170SOL    HW1 7409   3.992   4.869   4.418
 2170SOL    HW2 7410   4.138   4.909   4.358
 2171SOL     OW 7411   0.230   2.401   0.124
 2171SOL    HW1 7412   0.239   2.311   0.167
 2171SOL    HW2 7413   0.249   2.472   0.192
 2172SOL     OW 7414   2.987   0.871   0.807
 2172SOL    HW1 7415   3.050   0.939   0.769
 2172SOL    HW2 7416   3.005   0.861   0.905
 2173SOL     OW 7417   5.487   1.422   5.538
 2173SOL    HW1 7418   5.445   1.383   5.456
 2173SOL    HW2 7419   5.587   1.413   5.531
 2174SOL     OW 7420   0.326   5.743   4.695
 2174SOL    HW1 7421   0.330   5.787   4.606
 2174SOL    HW2 7422   0.278   5.803   4.760
 2175SOL     OW 7423   2.139   6.495   5.036
 2175SOL    HW1 7424   2.075   6.567   5.062
 2175SOL    HW2 7425   2.094   6.406   5.043
 2176SOL     OW 7426   1.553   2.318   2.867
 2176SOL    HW1 7427   1.558   2.409   2.826
 2176SOL    HW2 7428   1.533   2.250   2.796
 2177SOL     OW 7429   0.020   1.926   1.427
 2177SOL    HW1 7430   6.949   1.905   1.455
 2177SOL    HW2 7431   0.053   2.006   1.477
 2178SOL     OW 7432   0.504   4.867   0.010
 2178SOL    HW1 7433   0.563   4.946   0.026
 2178SOL    HW2 7434   0.427   4.894   6.975
 2179SOL     OW 7435   1.601   5.437   3.971
 2179SOL    HW1 7436   1.523   5.427   4.033
 2179SOL    HW2 7437   1.611   5.533   3.945
 2180SOL     OW 7438   4.056   3.273   2.593
 2180SOL    HW1 7439   3.980   3.243   2.651
 2180SOL    HW2 7440   4.063   3.211   2.515
 2181SOL     OW 7441   5.180   5.195   6.126
 2181SOL    HW1 7442   5.198   5.157   6.035
 2181SOL    HW2 7443   5.086   5.228   6.131
 2182SOL     OW 7444   6.161   2.923   6.805
 2182SOL    HW1 7445   6.098   2.857   6.764
 2182SOL    HW2 7446   6.111   2.981   6.869
 2183SOL     OW 7447   3.168   3.472   1.264
 2183SOL    HW1 7448   3.117   3.406   1.318
 2183SOL    HW2 7449   3.237   3.425   1.209
 2184SOL     OW 7450   3.876   2.424   6.319
 2184SOL    HW1 7451   3.952   2.397   6.261
 2184SOL    HW2 7452   3.889   2.519   6.349
 2185SOL     OW 7453   1.755   1.486   1.323
 2185SOL    HW1 7454   1.744   1.585   1.333
 2185SOL    HW2 7455   1.851   1.461   1.338
 2186SOL     OW 7456   0.840   5.895   2.883
 2186SOL    HW1 7457   0.807   5.913   2.976
 2186SOL    HW2 7458   0.832   5.978   2.828
 2187SOL     OW 7459   0.109   1.305   6.462
 2187SOL    HW1 7460   0.120   1.270   6.555
 2187SOL    HW2 7461   0.092   1.403   6.465
 2188SOL     OW 7462   5.324   0.237   2.604
 2188SOL    HW1 7463   5.325   0.201   2.697
 2188SOL    HW2 7464   5.366   0.327   2.602
 2189SOL     OW 7465   2.093   0.239   6.694
 2189SOL    HW1 7466   2.144   0.157   6.671
 2189SOL    HW2 7467   2.077   0.293   6.611
 2190SOL     OW 7468   4.789   1.917   2.179
 2190SOL    HW1 7469   4.811   1.895   2.084
 2190SOL    HW2 7470   4.867   1.963   2.221
 2191SOL     OW 7471   3.270   2.453   6.958
 2191SOL    HW1 7472   3.205   2.499   6.897
 2191SOL    HW2 7473   3.358   2.443   6.911
 2192SOL     OW 7474   5.084   5.796   5.217
 2192SOL    HW1 7475   4.993   5.776   5.254
 2192SOL    HW2 7476   5.152   5.784   5.288
 2193SOL     OW 7477   0.865   4.690   6.086
 2193SOL    HW1 7478   0.927   4.699   6.008
 2193SOL    HW2 7479   0.916   4.708   6.170
 2194SOL     OW 7480   2.715   0.232   1.601
 2194SOL    HW1 7481   2.663   0.203   1.520
 2194SOL    HW2 7482   2.693   0.173   1.678
 2195SOL     OW 7483   1.373   3.995   2.612
 2195SOL    HW1 7484   1.343   3.904   2.638
 2195SOL    HW2 7485   1.316   4.030   2.538
 2196SOL     OW 7486   3.592   2.490   6.252
 2196SOL    HW1 7487   3.527   2.420   6.223
 2196SOL    HW2 7488   3.686   2.454   6.245
 2197SOL     OW 7489   4.594   5.164   0.457
 2197SOL    HW1 7490   4.558   5.199   0.544
 2197SOL    HW2 7491   4.518   5.135   0.399
 2198SOL     OW 7492   5.901   4.132   0.272
 2198SOL    HW1 7493   5.931   4.052   0.325
 2198SOL    HW2 7494   5.818   4.109   0.221
 2199SOL     OW 7495   4.530   0.845   1.561
 2199SOL    HW1 7496   4.560   0.767   1.616
 2199SOL    HW2 7497   4.482   0.812   1.479
 2200SOL     OW 7498   2.975   0.777   4.793
 2200SOL    HW1 7499   2.960   0.696   4.849
 2200SOL    HW2 7500   2.973   0.859   4.851
 2201SOL     OW 7501   5.268   3.719   1.935
 2201SOL    HW1 7502   5.301   3.674   2.018
 2201SOL    HW2 7503   5.286   3.818   1.941
 2202SOL     OW 7504   4.279   6.356   3.733
 2202SOL    HW1 7505   4.354   6.377   3.671
 2202SOL    HW2 7506   4.307   6.377   3.827
 2203SOL     OW 7507   3.445   1.865   3.034
 2203SOL    HW1 7508   3.427   1.788   2.974
 2203SOL    HW2 7509   3.544   1.878   3.044
 2204SOL     OW 7510   2.978   2.696   0.975
 2204SOL    HW1 7511   2.950   2.655   1.062
 2204SOL    HW2 7512   2.950   2.636   0.900
 2205SOL     OW 7513   1.892   0.078   0.333
 2205SOL    HW1 7514   1.813   0.139   0.333
 2205SOL    HW2 7515   1.953   0.103   0.258
 2206SOL     OW 7516   1.858   2.467   6.682
 2206SOL    HW1 7517   1.941   2.441   6.731
 2206SOL    HW2 7518   1.783   2.406   6.708
 2207SOL     OW 7519   0.750   4.229   5.272
 2207SOL    HW1 7520   0.843   4.259   5.254
 2207SOL    HW2 7521   0.749   4.130   5.289
 2208SOL     OW 7522   0.551   4.119   1.520
 2208SOL    HW1 7523   0.466   4.070   1.501
 2208SOL    HW2 7524   0.625   4.054   1.531
 2209SOL     OW 7525   1.334   5.693   0.738
 2209SOL    HW1 7526   1.269   5.700   0.813
 2209SOL    HW2 7527   1.296   5.740   0.657
 2210SOL     OW 7528   0.591   6.114   4.236
 2210SOL    HW1 7529   0.532   6.190   4.263
 2210SOL    HW2 7530   0.571   6.087   4.142
 2211SOL     OW 7531   6.352   1.473   5.688
 2211SOL    HW1 7532   6.436   1.498   5.641
 2211SOL    HW2 7533   6.273   1.496   5.630
 2212SOL     OW 7534   1.494   0.227   6.080
 2212SOL    HW1 7535   1.435   0.290   6.029
 2212SOL    HW2 7536   1.584   0.268   6.091
 2213SOL     OW 7537   3.408   1.483   3.181
 2213SOL    HW1 7538   3.378   1.388   3.193
 2213SOL    HW2 7539   3.366   1.541   3.250
 2214SOL     OW 7540   4.178   7.007   4.728
 2214SOL    HW1 7541   4.241   7.001   4.805
 2214SOL    HW2 7542   4.214   6.955   4.651
 2215SOL     OW 7543   5.466   3.048   5.220
 2215SOL    HW1 7544   5.523   2.977   5.179
 2215SOL    HW2 7545   5.441   3.115   5.150
 2216SOL     OW 7546   2.232   0.248   1.924
 2216SOL    HW1 7547   2.247   0.168   1.983
 2216SOL    HW2 7548   2.157   0.228   1.861
 2217SOL     OW 7549   3.941   0.702   1.405
 2217SOL    HW1 7550   3.949   0.630   1.335
 2217SOL    HW2 7551   4.032   0.719   1.445
 2218SOL     OW 7552   1.067   5.980   1.068
 2218SOL    HW1 7553   1.079   5.883   1.088
 2218SOL    HW2 7554   0.995   5.991   1.000
 2219SOL     OW 7555   1.127   3.182   3.022
 2219SOL    HW1 7556   1.223   3.183   2.991
 2219SOL    HW2 7557   1.116   3.112   3.092
 2220SOL     OW 7558   0.523   0.818   6.899
 2220SOL    HW1 7559   0.558   0.871   6.822
 2220SOL    HW2 7560   0.483   0.732   6.864
 2221SOL     OW 7561   0.010   2.359   0.633
 2221SOL    HW1 7562   6.989   2.365   0.723
 2221SOL    HW2 7563   0.089   2.420   0.630
 2222SOL     OW 7564   5.593   6.274   2.665
 2222SOL    HW1 7565   5.612   6.332   2.586
 2222SOL    HW2 7566   5.497   6.246   2.663
 2223SOL     OW 7567   5.138   5.641   1.988
 2223SOL    HW1 7568   5.056   5.635   2.044
 2223SOL    HW2 7569   5.207   5.577   2.022
 2224SOL     OW 7570   1.059   5.079   1.037
 2224SOL    HW1 7571   0.998   5.018   0.988
 2224SOL    HW2 7572   1.005   5.144   1.092
 2225SOL     OW 7573   6.600   4.870   1.205
 2225SOL    HW1 7574   6.656   4.789   1.221
 2225SOL    HW2 7575   6.518   4.846   1.154
 2226SOL     OW 7576   4.384   3.880   1.223
 2226SOL    HW1 7577   4.335   3.885   1.136
 2226SOL    HW2 7578   4.349   3.951   1.285
 2227SOL     OW 7579   0.678   3.700   4.733
 2227SOL    HW1 7580   0.613   3.636   4.775
 2227SOL    HW2 7581   0.771   3.667   4.747
 2228SOL     OW 7582   2.638   4.738   5.529
 2228SOL    HW1 7583   2.636   4.641   5.553
 2228SOL    HW2 7584   2.671   4.792   5.607
 2229SOL     OW 7585   4.991   0.716   3.399
 2229SOL    HW1 7586   5.045   0.633   3.382
 2229SOL    HW2 7587   4.907   0.691   3.447
 2230SOL     OW 7588   1.596   5.934   0.084
 2230SOL    HW1 7589   1.622   5.880   0.004
 2230SOL    HW2 7590   1.583   6.030   0.057
 2231SOL     OW 7591   3.052   6.751   1.717
 2231SOL    HW1 7592   3.126   6.818   1.721
 2231SOL    HW2 7593   2.978   6.780   1.778
 2232SOL     OW 7594   6.908   3.160   2.794
 2232SOL    HW1 7595   6.902   3.255   2.823
 2232SOL    HW2 7596   6.984   3.115   2.841
 2233SOL     OW 7597   3.765   1.019   6.839
 2233SOL    HW1 7598   3.697   0.949   6.816
 2233SOL    HW2 7599   3.757   1.044   6.935
 2234SOL     OW 7600   2.900   1.876   0.848
 2234SOL    HW1 7601   2.859   1.967   0.846
 2234SOL    HW2 7602   2.999   1.885   0.855
 2235SOL     OW 7603   1.832   0.027   1.580
 2235SOL    HW1 7604   1.884   7.020   1.499
 2235SOL    HW2 7605   1.735   0.005   1.567
 2236SOL     OW 7606   6.270   4.032   0.221
 2236SOL    HW1 7607   6.199   4.024   0.291
 2236SOL    HW2 7608   6.357   4.056   0.264
 2237SOL     OW 7609   6.817   2.437   4.251
 2237SOL    HW1 7610   6.864   2.354   4.221
 2237SOL    HW2 7611   6.720   2.430   4.230
 2238SOL     OW 7612   0.848   6.156   2.352
 2238SOL    HW1 7613   0.924   6.218   2.369
 2238SOL    HW2 7614   0.765   6.192   2.397
 2239SOL     OW 7615   4.838   5.003   3.196
 2239SOL    HW1 7616   4.789   4.932   3.146
 2239SOL    HW2 7617   4.932   4.973   3.212
 2240SOL     OW 7618   5.439   3.424   2.300
 2240SOL    HW1 7619   5.446   3.380   2.389
 2240SOL    HW2 7620   5.387   3.365   2.237
 2241SOL     OW 7621   0.799   0.123   2.410
 2241SOL    HW1 7622   0.776   0.035   2.451
 2241SOL    HW2 7623   0.893   0.147   2.432
 2242SOL     OW 7624   5.273   2.482   2.598
 2242SOL    HW1 7625   5.243   2.547   2.668
 2242SOL    HW2 7626   5.326   2.531   2.529
 2243SOL     OW 7627   2.401   5.686   5.299
 2243SOL    HW1 7628   2.459   5.728   5.230
 2243SOL    HW2 7629   2.357   5.605   5.260
 2244SOL     OW 7630   2.967   0.633   5.201
 2244SOL    HW1 7631   2.986   0.732   5.201
 2244SOL    HW2 7632   2.930   0.606   5.112
 2245SOL     OW 7633   0.844   2.171   1.627
 2245SOL    HW1 7634   0.935   2.212   1.626
 2245SOL    HW2 7635   0.779   2.233   1.670
 2246SOL     OW 7636   1.208   3.638   4.940
 2246SOL    HW1 7637   1.193   3.561   4.878
 2246SOL    HW2 7638   1.294   3.684   4.917
 2247SOL     OW 7639   1.956   1.859   5.761
 2247SOL    HW1 7640   2.010   1.836   5.842
 2247SOL    HW2 7641   1.887   1.789   5.746
 2248SOL     OW 7642   5.461   4.009   5.377
 2248SOL    HW1 7643   5.520   4.089   5.395
 2248SOL    HW2 7644   5.435   4.008   5.281
 2249SOL     OW 7645   4.997   5.767   4.933
 2249SOL    HW1 7646   4.992   5.749   5.031
 2249SOL    HW2 7647   4.905   5.769   4.895
 2250SOL     OW 7648   5.996   5.100   0.507
 2250SOL    HW1 7649   6.030   5.007   0.523
 2250SOL    HW2 7650   5.901   5.095   0.475
 2251SOL     OW 7651   6.758   0.890   6.762
 2251SOL    HW1 7652   6.829   0.836   6.718
 2251SOL    HW2 7653   6.696   0.830   6.813
 2252SOL     OW 7654   3.691   1.350   5.931
 2252SOL    HW1 7655   3.719   1.442   5.902
 2252SOL    HW2 7656   3.772   1.294   5.948
 2253SOL     OW 7657   1.711   2.586   6.479
 2253SOL    HW1 7658   1.762   2.541   6.553
 2253SOL    HW2 7659   1.776   2.619   6.410
 2254SOL     OW 7660   2.085   3.276   6.569
 2254SOL    HW1 7661   2.168   3.327   6.547
 2254SOL    HW2 7662   2.022   3.280   6.491
 2255SOL     OW 7663   5.545   2.174   1.974
 2255SOL    HW1 7664   5.626   2.161   2.032
 2255SOL    HW2 7665   5.493   2.253   2.007
 2256SOL     OW 7666   4.080   4.989   1.778
 2256SOL    HW1 7667   4.042   4.919   1.718
 2256SOL    HW2 7668   4.083   4.955   1.872
 2257SOL     OW 7669   1.621   4.329   3.795
 2257SOL    HW1 7670   1.604   4.248   3.740
 2257SOL    HW2 7671   1.615   4.305   3.892
 2258SOL     OW 7672   1.376   5.318   4.397
 2258SOL    HW1 7673   1.435   5.340   4.320
 2258SOL    HW2 7674   1.340   5.403   4.437
 2259SOL     OW 7675   5.533   2.772   6.545
 2259SOL    HW1 7676   5.573   2.794   6.634
 2259SOL    HW2 7677   5.491   2.681   6.549
 2260SOL     OW 7678   5.303   5.303   1.095
 2260SOL    HW1 7679   5.278   5.226   1.036
 2260SOL    HW2 7680   5.288   5.279   1.190
 2261SOL     OW 7681   4.397   6.323   6.436
 2261SOL    HW1 7682   4.455   6.359   6.363
 2261SOL    HW2 7683   4.373   6.396   6.499
 2262SOL     OW 7684   4.298   1.538   2.791
 2262SOL    HW1 7685   4.374   1.475   2.777
 2262SOL    HW2 7686   4.313   1.621   2.737
 2263SOL     OW 7687   6.926   4.565   6.654
 2263SOL    HW1 7688   6.988   4.489   6.635
 2263SOL    HW2 7689   6.973   4.632   6.711
 2264SOL     OW 7690   3.425   4.148   3.812
 2264SOL    HW1 7691   3.452   4.073   3.751
 2264SOL    HW2 7692   3.417   4.232   3.759
 2265SOL     OW 7693   6.794   0.605   1.853
 2265SOL    HW1 7694   6.713   0.559   1.889
 2265SOL    HW2 7695   6.790   0.607   1.754
 2266SOL     OW 7696   5.858   6.810   0.876
 2266SOL    HW1 7697   5.783   6.874   0.894
 2266SOL    HW2 7698   5.864   6.792   0.777
 2267SOL     OW 7699   5.217   1.698   5.754
 2267SOL    HW1 7700   5.198   1.743   5.841
 2267SOL    HW2 7701   5.168   1.745   5.680
 2268SOL     OW 7702   6.486   5.193   0.174
 2268SOL    HW1 7703   6.497   5.123   0.105
 2268SOL    HW2 7704   6.500   5.283   0.133
 2269SOL     OW 7705   6.942   5.228   5.248
 2269SOL    HW1 7706   0.006   5.252   5.292
 2269SOL    HW2 7707   6.940   5.129   5.231
 2270SOL     OW 7708   4.265   3.410   1.594
 2270SOL    HW1 7709   4.327   3.455   1.658
 2270SOL    HW2 7710   4.269   3.457   1.506
 2271SOL     OW 7711   6.043   4.137   2.949
 2271SOL    HW1 7712   6.051   4.191   3.032
 2271SOL    HW2 7713   6.072   4.192   2.870
 2272SOL     OW 7714   5.493   2.051   6.430
 2272SOL    HW1 7715   5.401   2.085   6.411
 2272SOL    HW2 7716   5.489   1.978   6.498
 2273SOL     OW 7717   1.175   1.525   3.849
 2273SOL    HW1 7718   1.130   1.605   3.809
 2273SOL    HW2 7719   1.118   1.489   3.923
 2274SOL     OW 7720   1.811   3.385   3.539
 2274SOL    HW1 7721   1.763   3.299   3.522
 2274SOL    HW2 7722   1.769   3.431   3.617
 2275SOL     OW 7723   4.805   6.799   3.257
 2275SOL    HW1 7724   4.772   6.802   3.352
 2275SOL    HW2 7725   4.850   6.885   3.235
 2276SOL     OW 7726   4.797   4.770   1.438
 2276SOL    HW1 7727   4.882   4.721   1.460
 2276SOL    HW2 7728   4.815   4.839   1.368
 2277SOL     OW 7729   3.170   3.846   0.657
 2277SOL    HW1 7730   3.247   3.901   0.690
 2277SOL    HW2 7731   3.112   3.902   0.597
 2278SOL     OW 7732   5.488   6.816   1.089
 2278SOL    HW1 7733   5.529   6.727   1.108
 2278SOL    HW2 7734   5.392   6.804   1.063
 2279SOL     OW 7735   5.009   4.489   4.868
 2279SOL    HW1 7736   4.980   4.424   4.938
 2279SOL    HW2 7737   5.079   4.447   4.810
 2280SOL     OW 7738   5.254   6.829   5.984
 2280SOL    HW1 7739   5.223   6.913   6.029
 2280SOL    HW2 7740   5.350   6.813   6.006
 2281SOL     OW 7741   2.802   3.155   0.979
 2281SOL    HW1 7742   2.902   3.165   0.984
 2281SOL    HW2 7743   2.761   3.241   0.949
 2282SOL     OW 7744   3.899   5.162   2.988
 2282SOL    HW1 7745   3.841   5.083   2.970
 2282SOL    HW2 7746   3.875   5.236   2.924
 2283SOL     OW 7747   0.195   3.454   3.195
 2283SOL    HW1 7748   0.193   3.445   3.295
 2283SOL    HW2 7749   0.136   3.384   3.154
 2284SOL     OW 7750   2.304   2.788   2.039
 2284SOL    HW1 7751   2.319   2.831   1.950
 2284SOL    HW2 7752   2.367   2.711   2.050
 2285SOL     OW 7753   2.067   4.371   0.476
 2285SOL    HW1 7754   2.011   4.398   0.398
 2285SOL    HW2 7755   2.068   4.272   0.484
 2286SOL     OW 7756   5.719   6.727   4.433
 2286SOL    HW1 7757   5.744   6.755   4.341
 2286SOL    HW2 7758   5.801   6.723   4.490
 2287SOL     OW 7759   1.816   3.202   1.785
 2287SOL    HW1 7760   1.855   3.206   1.878
 2287SOL    HW2 7761   1.827   3.109   1.749
 2288SOL     OW 7762   0.575   6.196   4.612
 2288SOL    HW1 7763   0.607   6.114   4.565
 2288SOL    HW2 7764   0.651   6.237   4.663
 2289SOL     OW 7765   4.737   2.457   1.580
 2289SOL    HW1 7766   4.779   2.431   1.493
 2289SOL    HW2 7767   4.804   2.447   1.654
 2290SOL     OW 7768   3.282   3.368   2.732
 2290SOL    HW1 7769   3.223   3.307   2.786
 2290SOL    HW2 7770   3.354   3.404   2.791
 2291SOL     OW 7771   1.190   2.447   0.300
 2291SOL    HW1 7772   1.218   2.368   0.245
 2291SOL    HW2 7773   1.127   2.416   0.372
 2292SOL     OW 7774   4.474   2.006   2.824
 2292SOL    HW1 7775   4.376   2.005   2.809
 2292SOL    HW2 7776   4.501   1.923   2.874
 2293SOL     OW 7777   6.781   1.428   6.811
 2293SOL    HW1 7778   6.814   1.343   6.851
 2293SOL    HW2 7779   6.718   1.473   6.874
 2294SOL     OW 7780   0.234   2.069   5.749
 2294SOL    HW1 7781   0.316   2.080   5.805
 2294SOL    HW2 7782   0.161   2.029   5.805
 2295SOL     OW 7783   5.827   6.534   1.196
 2295SOL    HW1 7784   5.733   6.511   1.218
 2295SOL    HW2 7785   5.834   6.560   1.099
 2296SOL     OW 7786   3.313   5.640   4.435
 2296SOL    HW1 7787   3.248   5.574   4.397
 2296SOL    HW2 7788   3.289   5.660   4.530
 2297SOL     OW 7789   4.241   4.294   5.455
 2297SOL    HW1 7790   4.161   4.243   5.424
 2297SOL    HW2 7791   4.300   4.313   5.377
 2298SOL     OW 7792   3.874   3.582   4.761
 2298SOL    HW1 7793   3.972   3.571   4.776
 2298SOL    HW2 7794   3.855   3.584   4.663
 2299SOL     OW 7795   5.743   3.575   4.398
 2299SOL    HW1 7796   5.767   3.571   4.494
 2299SOL    HW2 7797   5.734   3.482   4.362
 2300SOL     OW 7798   4.792   6.536   2.343
 2300SOL    HW1 7799   4.728   6.475   2.296
 2300SOL    HW2 7800   4.854   6.482   2.401
 2301SOL     OW 7801   3.609   3.010   4.222
 2301SOL    HW1 7802   3.664   3.093   4.208
 2301SOL    HW2 7803   3.662   2.944   4.275
 2302SOL     OW 7804   4.666   2.466   0.731
 2302SOL    HW1 7805   4.617   2.540   0.684
 2302SOL    HW2 7806   4.709   2.503   0.813
 2303SOL     OW 7807   3.921   1.902   6.793
 2303SOL    HW1 7808   3.924   1.807   6.824
 2303SOL    HW2 7809   3.847   1.913   6.726
 2304SOL     OW 7810   4.903   6.100   2.244
 2304SOL    HW1 7811   4.975   6.073   2.308
 2304SOL    HW2 7812   4.823   6.131   2.294
 2305SOL     OW 7813   2.406   0.887   5.129
 2305SOL    HW1 7814   2.490   0.914   5.175
 2305SOL    HW2 7815   2.336   0.864   5.197
 2306SOL     OW 7816   1.737   4.875   4.347
 2306SOL    HW1 7817   1.690   4.799   4.393
 2306SOL    HW2 7818   1.720   4.960   4.397
 2307SOL     OW 7819   6.708   3.671   5.981
 2307SOL    HW1 7820   6.686   3.578   5.949
 2307SOL    HW2 7821   6.747   3.666   6.072
 2308SOL     OW 7822   2.092   5.088   1.558
 2308SOL    HW1 7823   2.146   5.086   1.642
 2308SOL    HW2 7824   2.072   5.183   1.534
 2309SOL     OW 7825   2.241   6.121   5.484
 2309SOL    HW1 7826   2.270   6.025   5.473
 2309SOL    HW2 7827   2.233   6.143   5.581
 2310SOL     OW 7828   4.684   6.693   1.352
 2310SOL    HW1 7829   4.670   6.791   1.340
 2310SOL    HW2 7830   4.629   6.643   1.285
 2311SOL     OW 7831   3.225   5.609   1.448
 2311SOL    HW1 7832   3.308   5.562   1.416
 2311SOL    HW2 7833   3.162   5.541   1.484
 2312SOL     OW 7834   3.101   4.869   2.568
 2312SOL    HW1 7835   3.197   4.893   2.556
 2312SOL    HW2 7836   3.086   4.835   2.661
 2313SOL     OW 7837   4.903   5.782   1.279
 2313SOL    HW1 7838   4.924   5.813   1.372
 2313SOL    HW2 7839   4.987   5.771   1.227
 2314SOL     OW 7840   1.983   5.384   4.194
 2314SOL    HW1 7841   1.933   5.418   4.274
 2314SOL    HW2 7842   1.947   5.428   4.112
 2315SOL     OW 7843   4.625   2.778   6.557
 2315SOL    HW1 7844   4.653   2.682   6.553
 2315SOL    HW2 7845   4.696   2.834   6.514
 2316SOL     OW 7846   5.287   3.624   2.184
 2316SOL    HW1 7847   5.191   3.640   2.209
 2316SOL    HW2 7848   5.317   3.537   2.223
 2317SOL     OW 7849   0.670   4.730   4.032
 2317SOL    HW1 7850   0.640   4.825   4.029
 2317SOL    HW2 7851   0.673   4.698   4.127
 2318SOL     OW 7852   0.055   0.899   4.033
 2318SOL    HW1 7853   7.016   0.921   4.109
 2318SOL    HW2 7854   0.130   0.964   4.031
 2319SOL     OW 7855   0.639   3.935   3.748
 2319SOL    HW1 7856   0.671   3.978   3.663
 2319SOL    HW2 7857   0.635   4.004   3.820
 2320SOL     OW 7858   6.259   4.300   4.509
 2320SOL    HW1 7859   6.277   4.397   4.522
 2320SOL    HW2 7860   6.305   4.269   4.426
 2321SOL     OW 7861   2.342   5.418   5.243
 2321SOL    HW1 7862   2.379   5.332   5.276
 2321SOL    HW2 7863   2.342   5.418   5.143
 2322SOL     OW 7864   2.346   0.157   6.194
 2322SOL    HW1 7865   2.390   0.225   6.135
 2322SOL    HW2 7866   2.308   0.203   6.274
 2323SOL     OW 7867   5.169   4.755   1.830
 2323SOL    HW1 7868   5.206   4.682   1.888
 2323SOL    HW2 7869   5.242   4.817   1.802
 2324SOL     OW 7870   6.688   5.180   3.439
 2324SOL    HW1 7871   6.647   5.266   3.410
 2324SOL    HW2 7872   6.764   5.199   3.502
 2325SOL     OW 7873   6.496   2.814   0.532
 2325SOL    HW1 7874   6.573   2.878   0.530
 2325SOL    HW2 7875   6.453   2.811   0.442
 2326SOL     OW 7876   1.782   4.741   0.206
 2326SOL    HW1 7877   1.748   4.835   0.217
 2326SOL    HW2 7878   1.867   4.742   0.154
 2327SOL     OW 7879   5.561   2.236   4.905
 2327SOL    HW1 7880   5.575   2.140   4.928
 2327SOL    HW2 7881   5.464   2.256   4.902
 2328SOL     OW 7882   5.580   6.785   3.328
 2328SOL    HW1 7883   5.591   6.880   3.357
 2328SOL    HW2 7884   5.510   6.780   3.257
 2329SOL     OW 7885   0.030   6.164   3.466
 2329SOL    HW1 7886   0.064   6.073   3.442
 2329SOL    HW2 7887   0.057   6.185   3.560
 2330SOL     OW 7888   0.463   3.631   2.096
 2330SOL    HW1 7889   0.397   3.559   2.116
 2330SOL    HW2 7890   0.425   3.692   2.027
 2331SOL     OW 7891   1.212   4.292   5.607
 2331SOL    HW1 7892   1.227   4.345   5.524
 2331SOL    HW2 7893   1.121   4.310   5.643
 2332SOL     OW 7894   5.825   2.257   4.879
 2332SOL    HW1 7895   5.857   2.320   4.949
 2332SOL    HW2 7896   5.725   2.260   4.874
 2333SOL     OW 7897   1.148   5.113   3.637
 2333SOL    HW1 7898   1.120   5.124   3.541
 2333SOL    HW2 7899   1.218   5.041   3.642
 2334SOL     OW 7900   2.730   0.402   0.454
 2334SOL    HW1 7901   2.656   0.335   0.459
 2334SOL    HW2 7902   2.707   0.482   0.509
 2335SOL     OW 7903   4.612   6.683   3.996
 2335SOL    HW1 7904   4.707   6.695   4.024
 2335SOL    HW2 7905   4.567   6.620   4.058
 2336SOL     OW 7906   4.544   1.905   6.020
 2336SOL    HW1 7907   4.544   1.910   6.120
 2336SOL    HW2 7908   4.631   1.867   5.989
 2337SOL     OW 7909   6.154   0.510   2.811
 2337SOL    HW1 7910   6.111   0.424   2.785
 2337SOL    HW2 7911   6.161   0.570   2.731
 2338SOL     OW 7912   0.905   6.962   6.200
 2338SOL    HW1 7913   0.992   6.995   6.236
 2338SOL    HW2 7914   0.901   6.979   6.101
 2339SOL     OW 7915   3.671   4.490   6.980
 2339SOL    HW1 7916   3.718   4.461   0.041
 2339SOL    HW2 7917   3.572   4.492   6.997
 2340SOL     OW 7918   3.771   5.045   4.429
 2340SOL    HW1 7919   3.728   5.005   4.347
 2340SOL    HW2 7920   3.842   5.109   4.401
 2341SOL     OW 7921   5.997   5.296   0.312
 2341SOL    HW1 7922   5.994   5.216   0.373
 2341SOL    HW2 7923   5.914   5.297   0.256
 2342SOL     OW 7924   6.331   0.319   5.073
 2342SOL    HW1 7925   6.399   0.391   5.091
 2342SOL    HW2 7926   6.375   0.230   5.077
 2343SOL     OW 7927   1.324   6.546   0.376
 2343SOL    HW1 7928   1.339   6.629   0.429
 2343SOL    HW2 7929   1.294   6.570   0.283
 2344SOL     OW 7930   2.188   1.584   2.966
 2344SOL    HW1 7931   2.201   1.560   3.062
 2344SOL    HW2 7932   2.107   1.643   2.958
 2345SOL     OW 7933   2.540   1.247   4.037
 2345SOL    HW1 7934   2.525   1.184   4.114
 2345SOL    HW2 7935   2.543   1.341   4.070
 2346SOL     OW 7936   4.690   3.780   5.788
 2346SOL    HW1 7937   4.742   3.864   5.780
 2346SOL    HW2 7938   4.679   3.756   5.885
 2347SOL     OW 7939   1.313   3.367   1.324
 2347SOL    HW1 7940   1.334   3.358   1.227
 2347SOL    HW2 7941   1.265   3.285   1.356
 2348SOL     OW 7942   2.408   6.567   1.695
 2348SOL    HW1 7943   2.347   6.508   1.747
 2348SOL    HW2 7944   2.457   6.628   1.757
 2349SOL     OW 7945   5.039   5.477   5.939
 2349SOL    HW1 7946   5.032   5.389   5.892
 2349SOL    HW2 7947   4.948   5.518   5.946
 2350SOL     OW 7948   2.761   6.004   5.419
 2350SOL    HW1 7949   2.847   6.014   5.369
 2350SOL    HW2 7950   2.753   5.909   5.451
 2351SOL     OW 7951   2.430   5.437   4.372
 2351SOL    HW1 7952   2.346   5.450   4.319
 2351SOL    HW2 7953   2.509   5.445   4.312
 2352SOL     OW 7954   0.012   3.147   2.183
 2352SOL    HW1 7955   0.042   3.241   2.167
 2352SOL    HW2 7956   7.010   3.137   2.279
 2353SOL     OW 7957   2.546   4.103   6.024
 2353SOL    HW1 7958   2.642   4.120   6.048
 2353SOL    HW2 7959   2.537   4.097   5.925
 2354SOL     OW 7960   3.742   2.952   1.048
 2354SOL    HW1 7961   3.765   2.854   1.050
 2354SOL    HW2 7962   3.644   2.964   1.066
 2355SOL     OW 7963   0.619   0.279   0.890
 2355SOL    HW1 7964   0.539   0.289   0.949
 2355SOL    HW2 7965   0.639   0.367   0.846
 2356SOL     OW 7966   2.703   5.034   3.341
 2356SOL    HW1 7967   2.730   5.050   3.436
 2356SOL    HW2 7968   2.616   5.080   3.323
 2357SOL     OW 7969   6.127   4.532   0.836
 2357SOL    HW1 7970   6.225   4.548   0.833
 2357SOL    HW2 7971   6.106   4.467   0.910
 2358SOL     OW 7972   4.060   1.707   5.673
 2358SOL    HW1 7973   4.127   1.775   5.701
 2358SOL    HW2 7974   3.968   1.741   5.694
 2359SOL     OW 7975   1.513   1.375   5.372
 2359SOL    HW1 7976   1.454   1.311   5.325
 2359SOL    HW2 7977   1.458   1.439   5.425
 2360SOL     OW 7978   4.163   4.115   0.367
 2360SOL    HW1 7979   4.133   4.209   0.349
 2360SOL    HW2 7980   4.163   4.063   0.281
 2361SOL     OW 7981   4.147   5.618   1.677
 2361SOL    HW1 7982   4.155   5.714   1.702
 2361SOL    HW2 7983   4.117   5.565   1.757
 2362SOL     OW 7984   4.163   6.108   3.580
 2362SOL    HW1 7985   4.083   6.052   3.604
 2362SOL    HW2 7986   4.214   6.130   3.664
 2363SOL     OW 7987   2.731   4.065   0.775
 2363SOL    HW1 7988   2.680   4.132   0.830
 2363SOL    HW2 7989   2.692   3.974   0.788
 2364SOL     OW 7990   4.304   1.414   2.391
 2364SOL    HW1 7991   4.259   1.453   2.471
 2364SOL    HW2 7992   4.258   1.445   2.308
 2365SOL     OW 7993   4.909   3.663   3.217
 2365SOL    HW1 7994   4.920   3.579   3.163
 2365SOL    HW2 7995   4.876   3.737   3.158
 2366SOL     OW 7996   2.558   4.549   5.063
 2366SOL    HW1 7997   2.525   4.598   5.144
 2366SOL    HW2 7998   2.650   4.581   5.040
 2367SOL     OW 7999   6.041   4.741   6.168
 2367SOL    HW1 8000   6.128   4.789   6.159
 2367SOL    HW2 8001   6.035   4.701   6.259
 2368SOL     OW 8002   5.354   6.517   4.151
 2368SOL    HW1 8003   5.322   6.432   4.191
 2368SOL    HW2 8004   5.389   6.499   4.059
 2369SOL     OW 8005   3.337   1.722   4.472
 2369SOL    HW1 8006   3.280   1.712   4.390
 2369SOL    HW2 8007   3.285   1.694   4.552
 2370SOL     OW 8008   5.603   2.637   1.771
 2370SOL    HW1 8009   5.644   2.727   1.757
 2370SOL    HW2 8010   5.669   2.566   1.748
 2371SOL     OW 8011   0.864   6.507   2.968
 2371SOL    HW1 8012   0.801   6.431   2.980
 2371SOL    HW2 8013   0.892   6.542   3.058
 2372SOL     OW 8014   6.464   0.575   6.089
 2372SOL    HW1 8015   6.506   0.494   6.048
 2372SOL    HW2 8016   6.397   0.614   6.026
 2373SOL     OW 8017   6.067   5.231   6.904
 2373SOL    HW1 8018   6.167   5.237   6.902
 2373SOL    HW2 8019   6.036   5.210   6.996
 2374SOL     OW 8020   6.231   6.157   2.065
 2374SOL    HW1 8021   6.140   6.117   2.055
 2374SOL    HW2 8022   6.254   6.210   1.984
 2375SOL     OW 8023   0.882   6.715   4.083
 2375SOL    HW1 8024   0.869   6.812   4.065
 2375SOL    HW2 8025   0.933   6.673   4.008
 2376SOL     OW 8026   6.042   1.560   3.733
 2376SOL    HW1 8027   5.955   1.531   3.773
 2376SOL    HW2 8028   6.074   1.490   3.669
 2377SOL     OW 8029   4.174   4.843   5.490
 2377SOL    HW1 8030   4.166   4.942   5.479
 2377SOL    HW2 8031   4.212   4.822   5.580
 2378SOL     OW 8032   6.658   1.049   0.375
 2378SOL    HW1 8033   6.749   1.007   0.378
 2378SOL    HW2 8034   6.591   0.981   0.345
 2379SOL     OW 8035   6.613   4.541   0.983
 2379SOL    HW1 8036   6.574   4.621   0.936
 2379SOL    HW2 8037   6.539   4.483   1.016
 2380SOL     OW 8038   4.534   4.841   4.659
 2380SOL    HW1 8039   4.542   4.815   4.562
 2380SOL    HW2 8040   4.476   4.774   4.706
 2381SOL     OW 8041   2.050   4.616   4.970
 2381SOL    HW1 8042   2.130   4.591   4.916
 2381SOL    HW2 8043   2.018   4.537   5.021
 2382SOL     OW 8044   0.534   6.139   2.496
 2382SOL    HW1 8045   0.438   6.134   2.470
 2382SOL    HW2 8046   0.561   6.235   2.508
 2383SOL     OW 8047   5.878   5.552   5.522
 2383SOL    HW1 8048   5.824   5.475   5.487
 2383SOL    HW2 8049   5.816   5.627   5.546
 2384SOL     OW 8050   0.657   1.673   2.134
 2384SOL    HW1 8051   0.743   1.656   2.086
 2384SOL    HW2 8052   0.660   1.633   2.225
 2385SOL     OW 8053   0.280   2.009   1.096
 2385SOL    HW1 8054   0.368   2.010   1.048
 2385SOL    HW2 8055   0.295   2.004   1.195
 2386SOL     OW 8056   5.213   5.898   3.570
 2386SOL    HW1 8057   5.128   5.895   3.623
 2386SOL    HW2 8058   5.192   5.927   3.476
 2387SOL     OW 8059   2.012   1.955   4.256
 2387SOL    HW1 8060   1.955   2.036   4.268
 2387SOL    HW2 8061   2.012   1.927   4.160
 2388SOL     OW 8062   6.683   2.026   5.587
 2388SOL    HW1 8063   6.598   2.036   5.637
 2388SOL    HW2 8064   6.739   2.109   5.597
 2389SOL     OW 8065   4.876   4.810   5.064
 2389SOL    HW1 8066   4.896   4.769   4.975
 2389SOL    HW2 8067   4.956   4.859   5.097
 2390SOL     OW 8068   4.150   3.824   5.736
 2390SOL    HW1 8069   4.093   3.848   5.657
 2390SOL    HW2 8070   4.235   3.781   5.703
 2391SOL     OW 8071   3.086   4.871   6.042
 2391SOL    HW1 8072   3.147   4.849   5.967
 2391SOL    HW2 8073   3.099   4.806   6.117
 2392SOL     OW 8074   3.632   5.386   5.675
 2392SOL    HW1 8075   3.553   5.442   5.699
 2392SOL    HW2 8076   3.610   5.327   5.598
 2393SOL     OW 8077   3.632   4.931   1.277
 2393SOL    HW1 8078   3.563   4.924   1.350
 2393SOL    HW2 8079   3.622   4.854   1.215
 2394SOL     OW 8080   0.907   2.113   3.425
 2394SOL    HW1 8081   0.829   2.072   3.472
 2394SOL    HW2 8082   0.985   2.119   3.489
 2395SOL     OW 8083   0.026   2.448   4.413
 2395SOL    HW1 8084   0.062   2.541   4.411
 2395SOL    HW2 8085   6.957   2.447   4.372
 2396SOL     OW 8086   6.801   0.734   5.363
 2396SOL    HW1 8087   6.713   0.720   5.408
 2396SOL    HW2 8088   6.875   0.713   5.427
 2397SOL     OW 8089   0.497   4.240   5.749
 2397SOL    HW1 8090   0.572   4.200   5.696
 2397SOL    HW2 8091   0.522   4.333   5.777
 2398SOL     OW 8092   3.683   6.319   3.753
 2398SOL    HW1 8093   3.731   6.241   3.713
 2398SOL    HW2 8094   3.672   6.305   3.851
 2399SOL     OW 8095   3.309   1.981   3.817
 2399SOL    HW1 8096   3.211   1.976   3.799
 2399SOL    HW2 8097   3.354   1.900   3.780
 2400SOL     OW 8098   0.723   4.034   0.495
 2400SOL    HW1 8099   0.718   4.107   0.563
 2400SOL    HW2 8100   0.655   3.964   0.517
 2401SOL     OW 8101   2.583   0.125   5.813
 2401SOL    HW1 8102   2.615   0.146   5.905
 2401SOL    HW2 8103   2.518   0.196   5.783
 2402SOL     OW 8104   1.321   4.303   2.402
 2402SOL    HW1 8105   1.258   4.229   2.423
 2402SOL    HW2 8106   1.313   4.375   2.472
 2403SOL     OW 8107   3.976   3.871   3.001
 2403SOL    HW1 8108   3.950   3.902   3.093
 2403SOL    HW2 8109   3.916   3.914   2.934
 2404SOL     OW 8110   6.397   1.629   0.913
 2404SOL    HW1 8111   6.318   1.684   0.883
 2404SOL    HW2 8112   6.421   1.654   1.007
 2405SOL     OW 8113   1.896   3.285   0.984
 2405SOL    HW1 8114   1.871   3.350   0.912
 2405SOL    HW2 8115   1.813   3.254   1.030
 2406SOL     OW 8116   2.361   5.880   4.516
 2406SOL    HW1 8117   2.436   5.941   4.491
 2406SOL    HW2 8118   2.396   5.787   4.528
 2407SOL     OW 8119   3.344   1.226   4.186
 2407SOL    HW1 8120   3.257   1.182   4.207
 2407SOL    HW2 8121   3.362   1.299   4.252
 2408SOL     OW 8122   2.924   6.203   4.680
 2408SOL    HW1 8123   2.912   6.161   4.590
 2408SOL    HW2 8124   2.937   6.131   4.749
 2409SOL     OW 8125   1.699   3.402   1.655
 2409SOL    HW1 8126   1.604   3.373   1.667
 2409SOL    HW2 8127   1.759   3.338   1.703
 2410SOL     OW 8128   1.081   3.299   5.067
 2410SOL    HW1 8129   1.142   3.370   5.033
 2410SOL    HW2 8130   1.021   3.338   5.137
 2411SOL     OW 8131   3.025   4.008   0.445
 2411SOL    HW1 8132   2.971   3.924   0.442
 2411SOL    HW2 8133   3.047   4.037   0.352
 2412SOL     OW 8134   3.371   1.573   0.021
 2412SOL    HW1 8135   3.427   1.633   0.079
 2412SOL    HW2 8136   3.294   1.625   7.007
 2413SOL     OW 8137   6.845   3.151   6.813
 2413SOL    HW1 8138   6.782   3.094   6.865
 2413SOL    HW2 8139   6.803   3.176   6.725
 2414SOL     OW 8140   6.794   2.309   4.969
 2414SOL    HW1 8141   6.855   2.358   4.906
 2414SOL    HW2 8142   6.743   2.240   4.918
 2415SOL     OW 8143   2.509   5.362   0.474
 2415SOL    HW1 8144   2.540   5.280   0.523
 2415SOL    HW2 8145   2.534   5.443   0.526
 2416SOL     OW 8146   0.106   3.871   2.106
 2416SOL    HW1 8147   0.109   3.776   2.139
 2416SOL    HW2 8148   0.068   3.930   2.177
 2417SOL     OW 8149   2.997   2.958   1.542
 2417SOL    HW1 8150   3.072   2.895   1.522
 2417SOL    HW2 8151   2.926   2.947   1.473
 2418SOL     OW 8152   4.413   4.211   6.095
 2418SOL    HW1 8153   4.424   4.204   6.194
 2418SOL    HW2 8154   4.436   4.122   6.053
 2419SOL     OW 8155   2.062   6.348   3.849
 2419SOL    HW1 8156   2.012   6.406   3.784
 2419SOL    HW2 8157   2.154   6.331   3.813
 2420SOL     OW 8158   1.657   4.006   2.642
 2420SOL    HW1 8159   1.561   3.989   2.620
 2420SOL    HW2 8160   1.714   3.936   2.599
 2421SOL     OW 8161   2.383   6.102   4.117
 2421SOL    HW1 8162   2.412   6.182   4.065
 2421SOL    HW2 8163   2.288   6.115   4.148
 2422SOL     OW 8164   4.688   6.510   0.593
 2422SOL    HW1 8165   4.706   6.547   0.502
 2422SOL    HW2 8166   4.760   6.445   0.618
 2423SOL     OW 8167   2.613   5.173   2.741
 2423SOL    HW1 8168   2.552   5.107   2.698
 2423SOL    HW2 8169   2.624   5.150   2.838
 2424SOL     OW 8170   5.777   0.711   5.963
 2424SOL    HW1 8171   5.784   0.617   5.932
 2424SOL    HW2 8172   5.730   0.766   5.894
 2425SOL     OW 8173   5.266   5.687   5.645
 2425SOL    HW1 8174   5.177   5.729   5.627
 2425SOL    HW2 8175   5.264   5.640   5.733
 2426SOL     OW 8176   2.304   3.958   5.784
 2426SOL    HW1 8177   2.393   3.982   5.744
 2426SOL    HW2 8178   2.317   3.935   5.881
 2427SOL     OW 8179   5.112   0.762   0.426
 2427SOL    HW1 8180   5.138   0.736   0.519
 2427SOL    HW2 8181   5.067   0.851   0.427
 2428SOL     OW 8182   0.523   0.688   3.491
 2428SOL    HW1 8183   0.463   0.609   3.477
 2428SOL    HW2 8184   0.474   0.771   3.465
 2429SOL     OW 8185   5.478   5.256   1.949
 2429SOL    HW1 8186   5.469   5.271   1.850
 2429SOL    HW2 8187   5.462   5.160   1.969
 2430SOL     OW 8188   6.172   1.651   6.517
 2430SOL    HW1 8189   6.189   1.607   6.429
 2430SOL    HW2 8190   6.074   1.660   6.532
 2431SOL     OW 8191   6.613   2.804   1.347
 2431SOL    HW1 8192   6.662   2.717   1.349
 2431SOL    HW2 8193   6.606   2.841   1.439
 2432SOL     OW 8194   3.345   5.298   2.503
 2432SOL    HW1 8195   3.288   5.365   2.552
 2432SOL    HW2 8196   3.298   5.268   2.420
 2433SOL     OW 8197   5.791   4.416   5.816
 2433SOL    HW1 8198   5.860   4.399   5.746
 2433SOL    HW2 8199   5.836   4.440   5.902
 2434SOL     OW 8200   4.773   1.072   3.041
 2434SOL    HW1 8201   4.841   1.010   3.080
 2434SOL    HW2 8202   4.720   1.114   3.115
 2435SOL     OW 8203   5.904   6.676   6.835
 2435SOL    HW1 8204   5.918   6.600   6.771
 2435SOL    HW2 8205   5.927   6.762   6.791
 2436SOL     OW 8206   1.971   1.985   1.988
 2436SOL    HW1 8207   2.049   1.965   1.928
 2436SOL    HW2 8208   1.912   2.052   1.943
 2437SOL     OW 8209   6.997   4.498   2.704
 2437SOL    HW1 8210   6.952   4.547   2.779
 2437SOL    HW2 8211   7.008   4.560   2.626
 2438SOL     OW 8212   3.109   1.456   5.166
 2438SOL    HW1 8213   3.194   1.469   5.218
 2438SOL    HW2 8214   3.075   1.362   5.180
 2439SOL     OW 8215   1.195   6.381   1.185
 2439SOL    HW1 8216   1.208   6.384   1.086
 2439SOL    HW2 8217   1.275   6.420   1.231
 2440SOL     OW 8218   5.691   1.054   5.086
 2440SOL    HW1 8219   5.648   0.964   5.101
 2440SOL    HW2 8220   5.753   1.048   5.008
 2441SOL     OW 8221   5.944   0.068   6.911
 2441SOL    HW1 8222   5.960   0.167   6.907
 2441SOL    HW2 8223   5.893   0.046   6.994
 2442SOL     OW 8224   5.014   3.210   1.812
 2442SOL    HW1 8225   5.008   3.202   1.912
 2442SOL    HW2 8226   4.929   3.247   1.777
 2443SOL     OW 8227   0.715   2.192   1.121
 2443SOL    HW1 8228   0.715   2.223   1.216
 2443SOL    HW2 8229   0.798   2.224   1.075
 2444SOL     OW 8230   3.774   5.820   1.439
 2444SOL    HW1 8231   3.723   5.865   1.512
 2444SOL    HW2 8232   3.798   5.887   1.369
 2445SOL     OW 8233   6.588   2.524   0.446
 2445SOL    HW1 8234   6.612   2.616   0.413
 2445SOL    HW2 8235   6.524   2.531   0.522
 2446SOL     OW 8236   1.868   4.752   1.313
 2446SOL    HW1 8237   1.941   4.799   1.262
 2446SOL    HW2 8238   1.838   4.672   1.260
 2447SOL     OW 8239   2.989   0.012   0.527
 2447SOL    HW1 8240   2.980   0.111   0.531
 2447SOL    HW2 8241   2.898   6.992   0.526
 2448SOL     OW 8242   6.318   1.785   4.202
 2448SOL    HW1 8243   6.256   1.713   4.233
 2448SOL    HW2 8244   6.332   1.852   4.275
 2449SOL     OW 8245   1.612   4.860   1.612
 2449SOL    HW1 8246   1.662   4.787   1.660
 2449SOL    HW2 8247   1.664   4.945   1.617
 2450SOL     OW 8248   1.521   6.252   6.164
 2450SOL    HW1 8249   1.596   6.295   6.214
 2450SOL    HW2 8250   1.472   6.190   6.226
 2451SOL     OW 8251   0.837   6.980   4.647
 2451SOL    HW1 8252   0.831   6.880   4.647
 2451SOL    HW2 8253   0.812   7.015   4.738
 2452SOL     OW 8254   2.855   1.687   4.063
 2452SOL    HW1 8255   2.851   1.587   4.074
 2452SOL    HW2 8256   2.876   1.708   3.967
 2453SOL     OW 8257   1.177   1.573   0.060
 2453SOL    HW1 8258   1.153   1.669   0.064
 2453SOL    HW2 8259   1.168   1.532   0.150
 2454SOL     OW 8260   3.076   5.136   1.075
 2454SOL    HW1 8261   3.079   5.192   1.158
 2454SOL    HW2 8262   3.034   5.048   1.097
 2455SOL     OW 8263   3.555   1.862   0.512
 2455SOL    HW1 8264   3.464   1.904   0.514
 2455SOL    HW2 8265   3.600   1.885   0.426
 2456SOL     OW 8266   0.959   4.644   6.606
 2456SOL    HW1 8267   0.921   4.585   6.677
 2456SOL    HW2 8268   1.008   4.588   6.539
 2457SOL     OW 8269   5.657   2.202   5.524
 2457SOL    HW1 8270   5.630   2.294   5.551
 2457SOL    HW2 8271   5.576   2.151   5.495
 2458SOL     OW 8272   1.498   6.722   1.557
 2458SOL    HW1 8273   1.424   6.694   1.618
 2458SOL    HW2 8274   1.575   6.659   1.567
 2459SOL     OW 8275   2.913   5.972   1.274
 2459SOL    HW1 8276   2.829   5.943   1.228
 2459SOL    HW2 8277   2.964   6.034   1.214
 2460SOL     OW 8278   1.259   0.892   5.399
 2460SOL    HW1 8279   1.284   0.857   5.309
 2460SOL    HW2 8280   1.273   0.991   5.402
 2461SOL     OW 8281   3.758   1.417   4.186
 2461SOL    HW1 8282   3.805   1.496   4.226
 2461SOL    HW2 8283   3.687   1.450   4.123
 2462SOL     OW 8284   6.970   4.470   0.716
 2462SOL    HW1 8285   6.940   4.546   0.774
 2462SOL    HW2 8286   0.045   4.455   0.730
 2463SOL     OW 8287   6.817   1.373   6.511
 2463SOL    HW1 8288   6.805   1.281   6.549
 2463SOL    HW2 8289   6.817   1.440   6.586
 2464SOL     OW 8290   0.415   1.507   3.212
 2464SOL    HW1 8291   0.515   1.498   3.205
 2464SOL    HW2 8292   0.376   1.502   3.120
 2465SOL     OW 8293   0.840   4.629   5.771
 2465SOL    HW1 8294   0.783   4.700   5.730
 2465SOL    HW2 8295   0.783   4.551   5.796
 2466SOL     OW 8296   0.949   2.435   1.803
 2466SOL    HW1 8297   0.861   2.469   1.770
 2466SOL    HW2 8298   0.935   2.385   1.889
 2467SOL     OW 8299   5.025   1.410   5.918
 2467SOL    HW1 8300   5.040   1.429   5.821
 2467SOL    HW2 8301   4.975   1.324   5.928
 2468SOL     OW 8302   3.222   6.667   5.586
 2468SOL    HW1 8303   3.196   6.738   5.521
 2468SOL    HW2 8304   3.167   6.674   5.669
 2469SOL     OW 8305   3.316   2.650   5.594
 2469SOL    HW1 8306   3.331   2.599   5.679
 2469SOL    HW2 8307   3.262   2.732   5.615
 2470SOL     OW 8308   3.461   4.984   6.899
 2470SOL    HW1 8309   3.486   4.963   6.805
 2470SOL    HW2 8310   3.496   5.074   6.925
 2471SOL     OW 8311   4.548   5.606   1.460
 2471SOL    HW1 8312   4.502   5.538   1.517
 2471SOL    HW2 8313   4.619   5.652   1.515
 2472SOL     OW 8314   4.557   1.584   4.275
 2472SOL    HW1 8315   4.594   1.549   4.361
 2472SOL    HW2 8316   4.594   1.675   4.258
 2473SOL     OW 8317   6.938   4.537   5.303
 2473SOL    HW1 8318   0.011   4.519   5.326
 2473SOL    HW2 8319   6.907   4.474   5.232
 2474SOL     OW 8320   1.093   5.747   1.302
 2474SOL    HW1 8321   1.159   5.822   1.292
 2474SOL    HW2 8322   1.138   5.669   1.346
 2475SOL     OW 8323   4.855   0.338   1.023
 2475SOL    HW1 8324   4.808   0.256   0.991
 2475SOL    HW2 8325   4.952   0.319   1.034
 2476SOL     OW 8326   5.863   0.277   0.838
 2476SOL    HW1 8327   5.781   0.228   0.866
 2476SOL    HW2 8328   5.845   0.330   0.756
 2477SOL     OW 8329   3.978   0.526   3.241
 2477SOL    HW1 8330   3.983   0.589   3.318
 2477SOL    HW2 8331   3.993   0.576   3.156
 2478SOL     OW 8332   4.437   1.554   3.083
 2478SOL    HW1 8333   4.339   1.560   3.100
 2478SOL    HW2 8334   4.453   1.547   2.985
 2479SOL     OW 8335   0.555   3.654   0.647
 2479SOL    HW1 8336   0.512   3.605   0.723
 2479SOL    HW2 8337   0.548   3.598   0.564
 2480SOL     OW 8338   3.151   2.435   1.453
 2480SOL    HW1 8339   3.072   2.495   1.458
 2480SOL    HW2 8340   3.235   2.489   1.451
 2481SOL     OW 8341   3.034   0.767   1.088
 2481SOL    HW1 8342   3.058   0.672   1.068
 2481SOL    HW2 8343   2.995   0.774   1.180
 2482SOL     OW 8344   5.109   4.018   6.582
 2482SOL    HW1 8345   5.075   4.104   6.543
 2482SOL    HW2 8346   5.032   3.956   6.599
 2483SOL     OW 8347   0.484   2.279   0.784
 2483SOL    HW1 8348   0.406   2.287   0.722
 2483SOL    HW2 8349   0.488   2.359   0.843
 2484SOL     OW 8350   5.107   1.322   2.473
 2484SOL    HW1 8351   5.149   1.263   2.403
 2484SOL    HW2 8352   5.008   1.319   2.463
 2485SOL     OW 8353   4.850   2.490   6.325
 2485SOL    HW1 8354   4.801   2.564   6.279
 2485SOL    HW2 8355   4.923   2.457   6.266
 2486SOL     OW 8356   0.588   3.990   5.282
 2486SOL    HW1 8357   0.663   3.975   5.346
 2486SOL    HW2 8358   0.537   4.072   5.309
 2487SOL     OW 8359   5.009   5.913   0.103
 2487SOL    HW1 8360   4.911   5.897   0.091
 2487SOL    HW2 8361   5.054   5.825   0.121
 2488SOL     OW 8362   6.751   4.596   1.955
 2488SOL    HW1 8363   6.839   4.590   2.001
 2488SOL    HW2 8364   6.692   4.522   1.985
 2489SOL     OW 8365   0.412   5.846   3.921
 2489SOL    HW1 8366   0.344   5.840   3.994
 2489SOL    HW2 8367   0.434   5.755   3.888
 2490SOL     OW 8368   2.495   6.356   2.355
 2490SOL    HW1 8369   2.556   6.425   2.316
 2490SOL    HW2 8370   2.469   6.290   2.284
 2491SOL     OW 8371   4.500   4.855   1.800
 2491SOL    HW1 8372   4.422   4.796   1.823
 2491SOL    HW2 8373   4.531   4.834   1.708
 2492SOL     OW 8374   5.506   3.918   0.631
 2492SOL    HW1 8375   5.535   3.963   0.547
 2492SOL    HW2 8376   5.585   3.877   0.676
 2493SOL     OW 8377   6.943   6.626   1.560
 2493SOL    HW1 8378   6.881   6.672   1.624
 2493SOL    HW2 8379   6.967   6.537   1.596
 2494SOL     OW 8380   5.958   2.235   1.699
 2494SOL    HW1 8381   5.894   2.183   1.642
 2494SOL    HW2 8382   6.046   2.243   1.652
 2495SOL     OW 8383   5.110   5.639   3.300
 2495SOL    HW1 8384   5.100   5.737   3.317
 2495SOL    HW2 8385   5.176   5.600   3.364
 2496SOL     OW 8386   6.634   4.014   6.561
 2496SOL    HW1 8387   6.563   4.046   6.623
 2496SOL    HW2 8388   6.597   4.009   6.468
 2497SOL     OW 8389   0.504   0.301   1.538
 2497SOL    HW1 8390   0.555   0.299   1.623
 2497SOL    HW2 8391   0.429   0.367   1.544
 2498SOL     OW 8392   2.833   3.093   5.901
 2498SOL    HW1 8393   2.875   3.169   5.951
 2498SOL    HW2 8394   2.824   3.014   5.962
 2499SOL     OW 8395   6.259   3.352   1.603
 2499SOL    HW1 8396   6.307   3.270   1.573
 2499SOL    HW2 8397   6.160   3.337   1.596
 2500SOL     OW 8398   3.695   4.035   6.187
 2500SOL    HW1 8399   3.791   4.026   6.161
 2500SOL    HW2 8400   3.637   4.028   6.105
 2501SOL     OW 8401   5.895   6.080   0.347
 2501SOL    HW1 8402   5.954   6.154   0.316
 2501SOL    HW2 8403   5.946   5.994   0.350
 2502SOL     OW 8404   2.548   5.782   5.077
 2502SOL    HW1 8405   2.624   5.797   5.014
 2502SOL    HW2 8406   2.480   5.723   5.032
 2503SOL     OW 8407   2.648   6.618   5.395
 2503SOL    HW1 8408   2.554   6.585   5.403
 2503SOL    HW2 8409   2.709   6.541   5.378
 2504SOL     OW 8410   3.215   5.728   3.013
 2504SOL    HW1 8411   3.175   5.636   3.018
 2504SOL    HW2 8412   3.290   5.735   3.079
 2505SOL     OW 8413   0.615   5.803   2.779
 2505SOL    HW1 8414   0.707   5.802   2.819
 2505SOL    HW2 8415   0.620   5.773   2.684
 2506SOL     OW 8416   5.871   3.728   6.332
 2506SOL    HW1 8417   5.902   3.802   6.391
 2506SOL    HW2 8418   5.869   3.759   6.237
 2507SOL     OW 8419   6.774   3.136   0.305
 2507SOL    HW1 8420   6.704   3.201   0.276
 2507SOL    HW2 8421   6.842   3.183   0.362
 2508SOL     OW 8422   3.048   2.232   5.322
 2508SOL    HW1 8423   3.101   2.298   5.269
 2508SOL    HW2 8424   2.997   2.280   5.394
 2509SOL     OW 8425   6.286   3.937   6.847
 2509SOL    HW1 8426   6.216   3.978   6.906
 2509SOL    HW2 8427   6.353   3.889   6.903
 2510SOL     OW 8428   3.938   4.212   1.734
 2510SOL    HW1 8429   3.911   4.174   1.822
 2510SOL    HW2 8430   3.895   4.159   1.660
 2511SOL     OW 8431   2.053   0.723   5.116
 2511SOL    HW1 8432   2.113   0.725   5.196
 2511SOL    HW2 8433   2.049   0.814   5.075
 2512SOL     OW 8434   3.716   4.496   5.334
 2512SOL    HW1 8435   3.764   4.558   5.396
 2512SOL    HW2 8436   3.781   4.458   5.268
 2513SOL     OW 8437   2.249   6.450   5.689
 2513SOL    HW1 8438   2.238   6.439   5.591
 2513SOL    HW2 8439   2.168   6.496   5.727
 2514SOL     OW 8440   1.133   3.327   3.539
 2514SOL    HW1 8441   1.214   3.361   3.586
 2514SOL    HW2 8442   1.127   3.370   3.448
 2515SOL     OW 8443   2.025   0.426   1.559
 2515SOL    HW1 8444   2.033   0.335   1.598
 2515SOL    HW2 8445   1.988   0.420   1.467
 2516SOL     OW 8446   4.860   1.392   3.600
 2516SOL    HW1 8447   4.858   1.316   3.665
 2516SOL    HW2 8448   4.770   1.436   3.597
 2517SOL     OW 8449   1.616   0.421   5.254
 2517SOL    HW1 8450   1.537   0.369   5.287
 2517SOL    HW2 8451   1.594   0.463   5.166
 2518SOL     OW 8452   2.421   5.553   1.268
 2518SOL    HW1 8453   2.492   5.520   1.206
 2518SOL    HW2 8454   2.390   5.643   1.238
 2519SOL     OW 8455   2.721   1.373   1.467
 2519SOL    HW1 8456   2.710   1.407   1.561
 2519SOL    HW2 8457   2.723   1.273   1.468
 2520SOL     OW 8458   3.317   1.993   0.573
 2520SOL    HW1 8459   3.253   1.967   0.500
 2520SOL    HW2 8460   3.318   2.092   0.583
 2521SOL     OW 8461   4.007   1.582   5.035
 2521SOL    HW1 8462   3.912   1.554   5.020
 2521SOL    HW2 8463   4.053   1.515   5.094
 2522SOL     OW 8464   1.067   1.806   5.377
 2522SOL    HW1 8465   1.004   1.754   5.318
 2522SOL    HW2 8466   1.098   1.748   5.452
 2523SOL     OW 8467   1.700   4.200   1.012
 2523SOL    HW1 8468   1.638   4.123   1.030
 2523SOL    HW2 8469   1.649   4.274   0.969
 2524SOL     OW 8470   0.305   6.655   4.344
 2524SOL    HW1 8471   0.207   6.647   4.324
 2524SOL    HW2 8472   0.358   6.638   4.261
 2525SOL     OW 8473   1.550   2.707   4.749
 2525SOL    HW1 8474   1.465   2.673   4.710
 2525SOL    HW2 8475   1.627   2.650   4.720
 2526SOL     OW 8476   1.478   4.968   6.769
 2526SOL    HW1 8477   1.386   5.002   6.751
 2526SOL    HW2 8478   1.482   4.869   6.755
 2527SOL     OW 8479   5.523   5.567   5.771
 2527SOL    HW1 8480   5.500   5.572   5.674
 2527SOL    HW2 8481   5.439   5.564   5.826
 2528SOL     OW 8482   5.247   4.107   5.752
 2528SOL    HW1 8483   5.314   4.120   5.824
 2528SOL    HW2 8484   5.173   4.048   5.785
 2529SOL     OW 8485   0.850   0.679   6.477
 2529SOL    HW1 8486   0.904   0.760   6.500
 2529SOL    HW2 8487   0.824   0.682   6.381
 2530SOL     OW 8488   2.357   5.752   5.893
 2530SOL    HW1 8489   2.263   5.785   5.904
 2530SOL    HW2 8490   2.408   5.815   5.835
 2531SOL     OW 8491   5.493   5.814   6.086
 2531SOL    HW1 8492   5.407   5.775   6.054
 2531SOL    HW2 8493   5.569   5.754   6.061
 2532SOL     OW 8494   0.735   6.468   1.174
 2532SOL    HW1 8495   0.792   6.386   1.166
 2532SOL    HW2 8496   0.672   6.473   1.096
 2533SOL     OW 8497   4.826   1.021   3.446
 2533SOL    HW1 8498   4.853   0.974   3.362
 2533SOL    HW2 8499   4.767   0.961   3.501
 2534SOL     OW 8500   4.839   1.856   1.909
 2534SOL    HW1 8501   4.775   1.786   1.876
 2534SOL    HW2 8502   4.929   1.838   1.871
 2535SOL     OW 8503   3.721   2.713   6.701
 2535SOL    HW1 8504   3.733   2.803   6.659
 2535SOL    HW2 8505   3.623   2.695   6.711
 2536SOL     OW 8506   1.631   0.813   6.101
 2536SOL    HW1 8507   1.684   0.748   6.155
 2536SOL    HW2 8508   1.633   0.786   6.004
 2537SOL     OW 8509   3.296   0.366   6.499
 2537SOL    HW1 8510   3.367   0.383   6.567
 2537SOL    HW2 8511   3.299   0.270   6.470
 2538SOL     OW 8512   0.037   4.016   3.960
 2538SOL    HW1 8513   0.085   3.970   3.885
 2538SOL    HW2 8514   7.022   3.948   4.023
 2539SOL     OW 8515   5.971   0.995   3.481
 2539SOL    HW1 8516   6.032   1.071   3.505
 2539SOL    HW2 8517   6.022   0.909   3.487
 2540SOL     OW 8518   3.928   2.034   2.953
 2540SOL    HW1 8519   3.839   2.080   2.958
 2540SOL    HW2 8520   3.968   2.028   3.044
 2541SOL     OW 8521   2.644   0.464   5.604
 2541SOL    HW1 8522   2.654   0.483   5.506
 2541SOL    HW2 8523   2.641   0.366   5.618
 2542SOL     OW 8524   2.600   3.795   6.792
 2542SOL    HW1 8525   2.527   3.862   6.778
 2542SOL    HW2 8526   2.562   3.712   6.834
 2543SOL     OW 8527   1.023   1.159   3.953
 2543SOL    HW1 8528   0.990   1.249   3.982
 2543SOL    HW2 8529   0.977   1.088   4.006
 2544SOL     OW 8530   0.958   5.703   0.886
 2544SOL    HW1 8531   0.931   5.623   0.832
 2544SOL    HW2 8532   1.037   5.679   0.943
 2545SOL     OW 8533   1.642   6.953   2.074
 2545SOL    HW1 8534   1.610   6.862   2.100
 2545SOL    HW2 8535   1.625   7.017   2.149
 2546SOL     OW 8536   6.627   1.634   0.717
 2546SOL    HW1 8537   6.662   1.726   0.700
 2546SOL    HW2 8538   6.527   1.636   0.722
 2547SOL     OW 8539   0.217   4.113   6.484
 2547SOL    HW1 8540   0.297   4.128   6.427
 2547SOL    HW2 8541   0.146   4.068   6.430
 2548SOL     OW 8542   7.019   6.640   4.320
 2548SOL    HW1 8543   6.930   6.629   4.276
 2548SOL    HW2 8544   0.018   6.738   4.327
 2549SOL     OW 8545   0.771   0.650   1.388
 2549SOL    HW1 8546   0.721   0.570   1.355
 2549SOL    HW2 8547   0.731   0.680   1.475
 2550SOL     OW 8548   6.000   0.033   0.605
 2550SOL    HW1 8549   6.010   0.099   0.679
 2550SOL    HW2 8550   6.079   6.994   0.605
 2551SOL     OW 8551   3.077   4.803   0.227
 2551SOL    HW1 8552   3.021   4.791   0.310
 2551SOL    HW2 8553   3.111   4.897   0.224
 2552SOL     OW 8554   2.543   4.975   4.655
 2552SOL    HW1 8555   2.536   5.066   4.614
 2552SOL    HW2 8556   2.454   4.946   4.687
 2553SOL     OW 8557   3.827   3.660   6.176
 2553SOL    HW1 8558   3.864   3.750   6.199
 2553SOL    HW2 8559   3.852   3.636   6.082
 2554SOL     OW 8560   2.452   1.440   0.554
 2554SOL    HW1 8561   2.531   1.498   0.572
 2554SOL    HW2 8562   2.462   1.354   0.605
 2555SOL     OW 8563   4.964   3.022   4.126
 2555SOL    HW1 8564   4.978   2.951   4.057
 2555SOL    HW2 8565   4.900   2.988   4.196
 2556SOL     OW 8566   3.532   6.107   0.477
 2556SOL    HW1 8567   3.615   6.052   0.478
 2556SOL    HW2 8568   3.464   6.065   0.538
 2557SOL     OW 8569   1.942   3.089   6.737
 2557SOL    HW1 8570   2.012   3.054   6.800
 2557SOL    HW2 8571   1.964   3.183   6.712
 2558SOL     OW 8572   4.782   1.003   5.682
 2558SOL    HW1 8573   4.870   1.003   5.635
 2558SOL    HW2 8574   4.757   0.910   5.705
 2559SOL     OW 8575   0.978   4.203   6.118
 2559SOL    HW1 8576   0.938   4.127   6.170
 2559SOL    HW2 8577   1.050   4.169   6.059
 2560SOL     OW 8578   6.685   2.795   6.071
 2560SOL    HW1 8579   6.697   2.750   6.160
 2560SOL    HW2 8580   6.591   2.785   6.041
 2561SOL     OW 8581   3.256   4.970   4.559
 2561SOL    HW1 8582   3.262   5.039   4.488
 2561SOL    HW2 8583   3.184   4.905   4.536
 2562SOL     OW 8584   2.308   3.988   0.816
 2562SOL    HW1 8585   2.367   4.069   0.807
 2562SOL    HW2 8586   2.291   3.970   0.913
 2563SOL     OW 8587   2.814   0.611   0.297
 2563SOL    HW1 8588   2.819   0.688   0.360
 2563SOL    HW2 8589   2.798   0.527   0.348
 2564SOL     OW 8590   1.644   5.279   0.857
 2564SOL    HW1 8591   1.668   5.279   0.954
 2564SOL    HW2 8592   1.545   5.275   0.847
 2565SOL     OW 8593   0.590   0.990   0.813
 2565SOL    HW1 8594   0.687   0.980   0.835
 2565SOL    HW2 8595   0.565   0.923   0.743
 2566SOL     OW 8596   2.182   6.240   1.343
 2566SOL    HW1 8597   2.231   6.249   1.256
 2566SOL    HW2 8598   2.239   6.276   1.417
 2567SOL     OW 8599   1.506   6.868   0.733
 2567SOL    HW1 8600   1.485   6.831   0.824
 2567SOL    HW2 8601   1.591   6.920   0.738
 2568SOL     OW 8602   4.912   2.404   0.041
 2568SOL    HW1 8603   5.006   2.379   0.018
 2568SOL    HW2 8604   4.864   2.324   0.076
 2569SOL     OW 8605   3.407   1.468   3.555
 2569SOL    HW1 8606   3.482   1.529   3.581
 2569SOL    HW2 8607   3.346   1.515   3.491
 2570SOL     OW 8608   5.640   0.870   5.789
 2570SOL    HW1 8609   5.546   0.840   5.804
 2570SOL    HW2 8610   5.651   0.964   5.822
 2571SOL     OW 8611   1.218   4.806   4.318
 2571SOL    HW1 8612   1.299   4.785   4.263
 2571SOL    HW2 8613   1.223   4.902   4.348
 2572SOL     OW 8614   2.585   4.817   2.890
 2572SOL    HW1 8615   2.576   4.730   2.939
 2572SOL    HW2 8616   2.641   4.804   2.809
 2573SOL     OW 8617   0.652   1.633   0.870
 2573SOL    HW1 8618   0.662   1.674   0.960
 2573SOL    HW2 8619   0.557   1.603   0.857
 2574SOL     OW 8620   5.734   2.752   1.151
 2574SOL    HW1 8621   5.805   2.811   1.113
 2574SOL    HW2 8622   5.723   2.672   1.092
 2575SOL     OW 8623   5.971   6.261   7.020
 2575SOL    HW1 8624   5.949   6.182   6.962
 2575SOL    HW2 8625   6.035   6.320   6.972
 2576SOL     OW 8626   4.435   6.515   4.555
 2576SOL    HW1 8627   4.423   6.424   4.597
 2576SOL    HW2 8628   4.363   6.531   4.488
 2577SOL     OW 8629   2.932   4.810   2.150
 2577SOL    HW1 8630   2.871   4.742   2.111
 2577SOL    HW2 8631   3.007   4.828   2.086
 2578SOL     OW 8632   3.761   1.178   4.288
 2578SOL    HW1 8633   3.747   1.273   4.258
 2578SOL    HW2 8634   3.684   1.150   4.344
 2579SOL     OW 8635   0.677   6.348   3.812
 2579SOL    HW1 8636   0.607   6.278   3.795
 2579SOL    HW2 8637   0.646   6.409   3.884
 2580SOL     OW 8638   2.297   4.514   0.390
 2580SOL    HW1 8639   2.383   4.516   0.440
 2580SOL    HW2 8640   2.232   4.453   0.436
 2581SOL     OW 8641   2.878   6.303   6.031
 2581SOL    HW1 8642   2.971   6.338   6.043
 2581SOL    HW2 8643   2.879   6.227   5.966
 2582SOL     OW 8644   6.772   3.765   1.363
 2582SOL    HW1 8645   6.794   3.722   1.450
 2582SOL    HW2 8646   6.814   3.856   1.359
 2583SOL     OW 8647   0.181   6.995   0.775
 2583SOL    HW1 8648   0.158   0.037   0.848
 2583SOL    HW2 8649   0.178   0.019   0.687
 2584SOL     OW 8650   3.855   5.091   5.656
 2584SOL    HW1 8651   3.912   5.030   5.711
 2584SOL    HW2 8652   3.768   5.107   5.704
 2585SOL     OW 8653   3.250   5.221   6.448
 2585SOL    HW1 8654   3.238   5.213   6.349
 2585SOL    HW2 8655   3.182   5.166   6.495
 2586SOL     OW 8656   2.451   1.121   5.818
 2586SOL    HW1 8657   2.515   1.136   5.742
 2586SOL    HW2 8658   2.426   1.210   5.857
 2587SOL     OW 8659   0.855   1.040   3.024
 2587SOL    HW1 8660   0.788   1.061   3.095
 2587SOL    HW2 8661   0.945   1.071   3.053
 2588SOL     OW 8662   4.314   2.221   5.549
 2588SOL    HW1 8663   4.330   2.274   5.465
 2588SOL    HW2 8664   4.216   2.203   5.558
 2589SOL     OW 8665   0.953   6.556   0.005
 2589SOL    HW1 8666   0.878   6.587   0.064
 2589SOL    HW2 8667   0.963   6.618   6.950
 2590SOL     OW 8668   2.851   5.071   0.320
 2590SOL    HW1 8669   2.792   5.143   0.284
 2590SOL    HW2 8670   2.879   5.094   0.413
 2591SOL     OW 8671   6.265   5.370   3.829
 2591SOL    HW1 8672   6.291   5.322   3.913
 2591SOL    HW2 8673   6.229   5.460   3.851
 2592SOL     OW 8674   2.303   4.292   6.751
 2592SOL    HW1 8675   2.309   4.303   6.850
 2592SOL    HW2 8676   2.389   4.254   6.717
 2593SOL     OW 8677   3.323   5.847   0.890
 2593SOL    HW1 8678   3.329   5.749   0.871
 2593SOL    HW2 8679   3.349   5.899   0.808
 2594SOL     OW 8680   1.980   4.025   5.483
 2594SOL    HW1 8681   2.072   4.064   5.479
 2594SOL    HW2 8682   1.921   4.084   5.538
 2595SOL     OW 8683   1.277   1.678   4.371
 2595SOL    HW1 8684   1.311   1.609   4.308
 2595SOL    HW2 8685   1.350   1.743   4.391
 2596SOL     OW 8686   1.801   2.852   1.151
 2596SOL    HW1 8687   1.789   2.930   1.212
 2596SOL    HW2 8688   1.888   2.806   1.172
 2597SOL     OW 8689   0.598   5.269   6.252
 2597SOL    HW1 8690   0.666   5.210   6.296
 2597SOL    HW2 8691   0.512   5.265   6.304
 2598SOL     OW 8692   6.146   1.672   2.160
 2598SOL    HW1 8693   6.065   1.721   2.191
 2598SOL    HW2 8694   6.184   1.618   2.235
 2599SOL     OW 8695   3.199   6.544   1.816
 2599SOL    HW1 8696   3.193   6.480   1.739
 2599SOL    HW2 8697   3.161   6.632   1.789
 2600SOL     OW 8698   6.809   3.943   4.475
 2600SOL    HW1 8699   6.824   3.916   4.380
 2600SOL    HW2 8700   6.873   4.016   4.499
 2601SOL     OW 8701   1.216   1.456   2.209
 2601SOL    HW1 8702   1.214   1.416   2.117
 2601SOL    HW2 8703   1.175   1.547   2.206
 2602SOL     OW 8704   1.716   5.036   4.089
 2602SOL    HW1 8705   1.723   4.959   4.153
 2602SOL    HW2 8706   1.700   5.002   3.997
 2603SOL     OW 8707   2.909   1.117   2.526
 2603SOL    HW1 8708   2.950   1.044   2.581
 2603SOL    HW2 8709   2.839   1.078   2.466
 2604SOL     OW 8710   6.074   1.517   1.813
 2604SOL    HW1 8711   6.050   1.427   1.848
 2604SOL    HW2 8712   6.130   1.507   1.731
 2605SOL     OW 8713   1.535   4.034   1.801
 2605SOL    HW1 8714   1.618   3.982   1.820
 2605SOL    HW2 8715   1.457   3.989   1.844
 2606SOL     OW 8716   5.139   4.340   1.308
 2606SOL    HW1 8717   5.059   4.285   1.288
 2606SOL    HW2 8718   5.196   4.294   1.375
 2607SOL     OW 8719   1.877   2.417   0.898
 2607SOL    HW1 8720   1.841   2.432   0.806
 2607SOL    HW2 8721   1.801   2.405   0.962
 2608SOL     OW 8722   2.409   5.971   6.636
 2608SOL    HW1 8723   2.451   5.976   6.545
 2608SOL    HW2 8724   2.361   5.884   6.645
 2609SOL     OW 8725   0.749   0.867   1.245
 2609SOL    HW1 8726   0.767   0.783   1.297
 2609SOL    HW2 8727   0.668   0.853   1.188
 2610SOL     OW 8728   0.857   4.615   4.665
 2610SOL    HW1 8729   0.919   4.640   4.590
 2610SOL    HW2 8730   0.897   4.541   4.718
 2611SOL     OW 8731   5.132   6.726   6.944
 2611SOL    HW1 8732   5.131   6.766   0.013
 2611SOL    HW2 8733   5.190   6.781   6.884
 2612SOL     OW 8734   5.427   0.466   4.834
 2612SOL    HW1 8735   5.340   0.417   4.840
 2612SOL    HW2 8736   5.471   0.444   4.747
 2613SOL     OW 8737   0.678   5.668   6.425
 2613SOL    HW1 8738   0.606   5.687   6.359
 2613SOL    HW2 8739   0.682   5.742   6.492
 2614SOL     OW 8740   6.210   1.130   5.967
 2614SOL    HW1 8741   6.269   1.056   5.935
 2614SOL    HW2 8742   6.114   1.102   5.960
 2615SOL     OW 8743   1.240   3.627   0.939
 2615SOL    HW1 8744   1.291   3.709   0.966
 2615SOL    HW2 8745   1.172   3.651   0.870
 2616SOL     OW 8746   1.163   0.380   5.536
 2616SOL    HW1 8747   1.185   0.319   5.612
 2616SOL    HW2 8748   1.162   0.474   5.569
 2617SOL     OW 8749   5.553   0.307   0.626
 2617SOL    HW1 8750   5.476   0.370   0.633
 2617SOL    HW2 8751   5.563   0.276   0.532
 2618SOL     OW 8752   1.436   5.911   6.026
 2618SOL    HW1 8753   1.506   5.975   5.995
 2618SOL    HW2 8754   1.371   5.895   5.952
 2619SOL     OW 8755   4.471   1.628   2.072
 2619SOL    HW1 8756   4.386   1.609   2.122
 2619SOL    HW2 8757   4.548   1.630   2.137
 2620SOL     OW 8758   6.947   6.204   1.660
 2620SOL    HW1 8759   6.919   6.110   1.642
 2620SOL    HW2 8760   6.883   6.267   1.616
 2621SOL     OW 8761   1.322   5.776   2.509
 2621SOL    HW1 8762   1.339   5.687   2.466
 2621SOL    HW2 8763   1.227   5.802   2.495
 2622SOL     OW 8764   2.954   3.197   6.319
 2622SOL    HW1 8765   2.934   3.282   6.271
 2622SOL    HW2 8766   2.871   3.142   6.326
 2623SOL     OW 8767   0.882   6.708   3.762
 2623SOL    HW1 8768   0.782   6.717   3.771
 2623SOL    HW2 8769   0.908   6.612   3.769
 2624SOL     OW 8770   0.210   1.916   4.846
 2624SOL    HW1 8771   0.122   1.877   4.874
 2624SOL    HW2 8772   0.196   2.007   4.808
 2625SOL     OW 8773   1.843   5.013   5.543
 2625SOL    HW1 8774   1.932   4.989   5.503
 2625SOL    HW2 8775   1.806   5.093   5.497
 2626SOL     OW 8776   6.245   6.228   5.525
 2626SOL    HW1 8777   6.222   6.322   5.499
 2626SOL    HW2 8778   6.172   6.190   5.581
 2627SOL     OW 8779   0.860   6.911   5.912
 2627SOL    HW1 8780   0.939   6.849   5.912
 2627SOL    HW2 8781   0.778   6.859   5.939
 2628SOL     OW 8782   1.644   3.846   2.943
 2628SOL    HW1 8783   1.658   3.939   2.908
 2628SOL    HW2 8784   1.728   3.813   2.986
 2629SOL     OW 8785   3.167   4.052   3.855
 2629SOL    HW1 8786   3.129   4.025   3.766
 2629SOL    HW2 8787   3.243   4.115   3.841
 2630SOL     OW 8788   3.828   1.386   3.791
 2630SOL    HW1 8789   3.787   1.296   3.777
 2630SOL    HW2 8790   3.903   1.378   3.856
 2631SOL     OW 8791   5.755   0.754   6.949
 2631SOL    HW1 8792   5.833   0.721   6.895
 2631SOL    HW2 8793   5.670   0.729   6.904
 2632SOL     OW 8794   5.890   4.820   2.024
 2632SOL    HW1 8795   5.914   4.735   1.975
 2632SOL    HW2 8796   5.837   4.798   2.105
 2633SOL     OW 8797   6.920   3.181   5.519
 2633SOL    HW1 8798   6.845   3.117   5.536
 2633SOL    HW2 8799   6.911   3.219   5.427
 2634SOL     OW 8800   6.227   0.308   4.824
 2634SOL    HW1 8801   6.263   0.233   4.767
 2634SOL    HW2 8802   6.255   0.295   4.918
 2635SOL     OW 8803   5.087   5.626   3.707
 2635SOL    HW1 8804   5.184   5.647   3.715
 2635SOL    HW2 8805   5.036   5.710   3.690
 2636SOL     OW 8806   3.687   0.130   5.901
 2636SOL    HW1 8807   3.710   0.072   5.979
 2636SOL    HW2 8808   3.759   0.199   5.888
 2637SOL     OW 8809   1.365   1.302   2.916
 2637SOL    HW1 8810   1.411   1.390   2.909
 2637SOL    HW2 8811   1.266   1.316   2.911
 2638SOL     OW 8812   0.928   0.163   4.253
 2638SOL    HW1 8813   0.948   0.097   4.325
 2638SOL    HW2 8814   0.909   0.115   4.167
 2639SOL     OW 8815   4.501   5.292   4.867
 2639SOL    HW1 8816   4.414   5.290   4.819
 2639SOL    HW2 8817   4.551   5.207   4.849
 2640SOL     OW 8818   0.941   6.668   4.365
 2640SOL    HW1 8819   0.966   6.573   4.380
 2640SOL    HW2 8820   0.890   6.676   4.280
 2641SOL     OW 8821   5.593   2.132   0.245
 2641SOL    HW1 8822   5.617   2.051   0.191
 2641SOL    HW2 8823   5.495   2.149   0.240
 2642SOL     OW 8824   0.269   1.069   4.070
 2642SOL    HW1 8825   0.254   1.168   4.072
 2642SOL    HW2 8826   0.363   1.050   4.041
 2643SOL     OW 8827   0.815   4.186   3.209
 2643SOL    HW1 8828   0.836   4.245   3.131
 2643SOL    HW2 8829   0.899   4.140   3.239
 2644SOL     OW 8830   5.350   5.616   5.131
 2644SOL    HW1 8831   5.370   5.569   5.217
 2644SOL    HW2 8832   5.374   5.713   5.140
 2645SOL     OW 8833   4.823   4.703   3.509
 2645SOL    HW1 8834   4.828   4.802   3.500
 2645SOL    HW2 8835   4.727   4.674   3.512
 2646SOL     OW 8836   0.182   3.581   5.848
 2646SOL    HW1 8837   0.252   3.608   5.782
 2646SOL    HW2 8838   0.135   3.663   5.882
 2647SOL     OW 8839   5.022   6.693   1.766
 2647SOL    HW1 8840   5.103   6.731   1.722
 2647SOL    HW2 8841   4.991   6.613   1.716
 2648SOL     OW 8842   0.430   0.168   4.272
 2648SOL    HW1 8843   0.505   0.227   4.302
 2648SOL    HW2 8844   0.457   0.073   4.279
 2649SOL     OW 8845   4.781   2.340   2.039
 2649SOL    HW1 8846   4.708   2.350   2.107
 2649SOL    HW2 8847   4.779   2.248   2.000
 2650SOL     OW 8848   3.639   5.780   5.184
 2650SOL    HW1 8849   3.695   5.830   5.249
 2650SOL    HW2 8850   3.551   5.758   5.226
 2651SOL     OW 8851   4.163   1.904   5.187
 2651SOL    HW1 8852   4.180   1.891   5.089
 2651SOL    HW2 8853   4.180   2.000   5.212
 2652SOL     OW 8854   5.538   3.777   5.146
 2652SOL    HW1 8855   5.488   3.745   5.226
 2652SOL    HW2 8856   5.533   3.877   5.141
 2653SOL     OW 8857   2.978   6.457   6.698
 2653SOL    HW1 8858   2.903   6.450   6.763
 2653SOL    HW2 8859   2.941   6.469   6.606
 2654SOL     OW 8860   5.439   0.853   0.502
 2654SOL    HW1 8861   5.347   0.892   0.503
 2654SOL    HW2 8862   5.495   0.903   0.435
 2655SOL     OW 8863   5.026   6.118   2.851
 2655SOL    HW1 8864   4.974   6.066   2.919
 2655SOL    HW2 8865   5.102   6.063   2.817
 2656SOL     OW 8866   3.681   5.337   3.713
 2656SOL    HW1 8867   3.610   5.266   3.702
 2656SOL    HW2 8868   3.771   5.296   3.701
 2657SOL     OW 8869   2.265   3.313   0.151
 2657SOL    HW1 8870   2.258   3.282   0.246
 2657SOL    HW2 8871   2.350   3.279   0.110
 2658SOL     OW 8872   4.404   5.065   6.074
 2658SOL    HW1 8873   4.476   4.997   6.066
 2658SOL    HW2 8874   4.342   5.039   6.149
 2659SOL     OW 8875   6.708   2.342   4.644
 2659SOL    HW1 8876   6.805   2.318   4.651
 2659SOL    HW2 8877   6.693   2.432   4.686
 2660SOL     OW 8878   0.674   2.201   1.399
 2660SOL    HW1 8879   0.749   2.165   1.455
 2660SOL    HW2 8880   0.635   2.282   1.442
 2661SOL     OW 8881   1.787   1.204   0.979
 2661SOL    HW1 8882   1.725   1.194   0.901
 2661SOL    HW2 8883   1.819   1.114   1.009
 2662SOL     OW 8884   3.117   0.611   2.817
 2662SOL    HW1 8885   3.178   0.582   2.743
 2662SOL    HW2 8886   3.042   0.545   2.826
 2663SOL     OW 8887   4.256   6.816   6.615
 2663SOL    HW1 8888   4.161   6.821   6.648
 2663SOL    HW2 8889   4.307   6.751   6.671
 2664SOL     OW 8890   4.020   2.631   5.861
 2664SOL    HW1 8891   4.021   2.692   5.941
 2664SOL    HW2 8892   3.929   2.633   5.819
 2665SOL     OW 8893   2.251   3.948   5.361
 2665SOL    HW1 8894   2.308   3.962   5.280
 2665SOL    HW2 8895   2.284   4.007   5.435
 2666SOL     OW 8896   2.112   3.941   2.324
 2666SOL    HW1 8897   2.102   4.035   2.293
 2666SOL    HW2 8898   2.085   3.879   2.251
 2667SOL     OW 8899   5.729   4.063   3.975
 2667SOL    HW1 8900   5.667   4.025   3.907
 2667SOL    HW2 8901   5.823   4.059   3.941
 2668SOL     OW 8902   5.903   1.655   4.541
 2668SOL    HW1 8903   5.878   1.614   4.628
 2668SOL    HW2 8904   5.889   1.589   4.467
 2669SOL     OW 8905   2.067   0.705   0.205
 2669SOL    HW1 8906   2.026   0.791   0.176
 2669SOL    HW2 8907   2.041   0.684   0.299
 2670SOL     OW 8908   0.329   1.096   6.108
 2670SOL    HW1 8909   0.279   1.016   6.143
 2670SOL    HW2 8910   0.298   1.117   6.016
 2671SOL     OW 8911   3.931   5.470   5.754
 2671SOL    HW1 8912   3.831   5.474   5.759
 2671SOL    HW2 8913   3.960   5.468   5.658
 2672SOL     OW 8914   3.438   1.203   1.639
 2672SOL    HW1 8915   3.478   1.294   1.645
 2672SOL    HW2 8916   3.508   1.134   1.658
 2673SOL     OW 8917   4.976   0.270   2.327
 2673SOL    HW1 8918   5.002   0.255   2.422
 2673SOL    HW2 8919   4.922   0.193   2.295
 2674SOL     OW 8920   0.718   5.321   2.884
 2674SOL    HW1 8921   0.713   5.420   2.890
 2674SOL    HW2 8922   0.801   5.288   2.929
 2675SOL     OW 8923   6.132   0.083   4.166
 2675SOL    HW1 8924   6.105   0.026   4.088
 2675SOL    HW2 8925   6.129   0.029   4.250
 2676SOL     OW 8926   3.327   3.777   3.061
 2676SOL    HW1 8927   3.274   3.846   3.109
 2676SOL    HW2 8928   3.276   3.744   2.981
 2677SOL     OW 8929   2.455   4.930   1.528
 2677SOL    HW1 8930   2.534   4.895   1.477
 2677SOL    HW2 8931   2.436   4.869   1.606
 2678SOL     OW 8932   5.748   2.484   2.723
 2678SOL    HW1 8933   5.687   2.406   2.734
 2678SOL    HW2 8934   5.695   2.569   2.730
 2679SOL     OW 8935   2.060   4.992   3.351
 2679SOL    HW1 8936   2.156   5.017   3.352
 2679SOL    HW2 8937   2.004   5.072   3.329
 2680SOL     OW 8938   0.864   2.061   6.969
 2680SOL    HW1 8939   0.927   2.127   7.011
 2680SOL    HW2 8940   0.824   2.100   6.887
 2681SOL     OW 8941   1.658   2.370   5.120
 2681SOL    HW1 8942   1.731   2.302   5.120
 2681SOL    HW2 8943   1.677   2.440   5.052
 2682SOL     OW 8944   4.641   4.327   1.327
 2682SOL    HW1 8945   4.733   4.345   1.361
 2682SOL    HW2 8946   4.577   4.326   1.404
 2683SOL     OW 8947   2.205   4.287   2.453
 2683SOL    HW1 8948   2.301   4.312   2.443
 2683SOL    HW2 8949   2.179   4.224   2.380
 2684SOL     OW 8950   5.783   6.306   2.244
 2684SOL    HW1 8951   5.867   6.360   2.240
 2684SOL    HW2 8952   5.805   6.211   2.263
 2685SOL     OW 8953   0.605   5.778   5.098
 2685SOL    HW1 8954   0.684   5.824   5.140
 2685SOL    HW2 8955   0.521   5.826   5.124
 2686SOL     OW 8956   1.197   1.221   4.291
 2686SOL    HW1 8957   1.245   1.246   4.375
 2686SOL    HW2 8958   1.167   1.125   4.298
 2687SOL     OW 8959   3.784   1.485   1.643
 2687SOL    HW1 8960   3.686   1.482   1.658
 2687SOL    HW2 8961   3.828   1.416   1.701
 2688SOL     OW 8962   3.615   3.299   5.879
 2688SOL    HW1 8963   3.615   3.271   5.783
 2688SOL    HW2 8964   3.579   3.226   5.936
 2689SOL     OW 8965   0.835   3.914   3.203
 2689SOL    HW1 8966   0.882   3.880   3.121
 2689SOL    HW2 8967   0.806   4.008   3.189
 2690SOL     OW 8968   3.221   1.171   5.979
 2690SOL    HW1 8969   3.237   1.110   6.057
 2690SOL    HW2 8970   3.307   1.211   5.950
 2691SOL     OW 8971   0.311   4.488   3.545
 2691SOL    HW1 8972   0.338   4.395   3.520
 2691SOL    HW2 8973   0.343   4.553   3.476
 2692SOL     OW 8974   2.917   5.609   2.607
 2692SOL    HW1 8975   2.946   5.534   2.548
 2692SOL    HW2 8976   2.905   5.574   2.700
 2693SOL     OW 8977   1.591   5.335   3.556
 2693SOL    HW1 8978   1.519   5.323   3.487
 2693SOL    HW2 8979   1.639   5.421   3.540
 2694SOL     OW 8980   2.984   6.842   4.124
 2694SOL    HW1 8981   2.920   6.792   4.066
 2694SOL    HW2 8982   3.045   6.777   4.170
 2695SOL     OW 8983   6.869   5.782   3.207
 2695SOL    HW1 8984   6.953   5.837   3.203
 2695SOL    HW2 8985   6.828   5.792   3.297
 2696SOL     OW 8986   4.701   4.208   6.021
 2696SOL    HW1 8987   4.613   4.226   6.065
 2696SOL    HW2 8988   4.746   4.131   6.066
 2697SOL     OW 8989   3.947   2.541   0.717
 2697SOL    HW1 8990   3.957   2.638   0.695
 2697SOL    HW2 8991   4.031   2.508   0.762
 2698SOL     OW 8992   1.505   3.728   5.921
 2698SOL    HW1 8993   1.563   3.791   5.973
 2698SOL    HW2 8994   1.417   3.718   5.966
 2699SOL     OW 8995   3.648   5.836   1.874
 2699SOL    HW1 8996   3.599   5.857   1.958
 2699SOL    HW2 8997   3.719   5.768   1.892
 2700SOL     OW 8998   2.896   2.293   1.661
 2700SOL    HW1 8999   2.995   2.287   1.645
 2700SOL    HW2 9000   2.877   2.367   1.726
 2701SOL     OW 9001   5.066   2.940   4.609
 2701SOL    HW1 9002   5.146   2.982   4.652
 2701SOL    HW2 9003   5.013   3.011   4.562
 2702SOL     OW 9004   2.512   1.792   4.763
 2702SOL    HW1 9005   2.434   1.839   4.807
 2702SOL    HW2 9006   2.487   1.766   4.670
 2703SOL     OW 9007   1.521   6.714   2.141
 2703SOL    HW1 9008   1.450   6.713   2.211
 2703SOL    HW2 9009   1.553   6.621   2.123
 2704SOL     OW 9010   5.874   6.636   3.461
 2704SOL    HW1 9011   5.901   6.542   3.439
 2704SOL    HW2 9012   5.818   6.636   3.544
 2705SOL     OW 9013   7.004   0.066   4.999
 2705SOL    HW1 9014   6.969   0.047   4.907
 2705SOL    HW2 9015   0.064   0.121   4.992
 2706SOL     OW 9016   6.557   4.492   3.974
 2706SOL    HW1 9017   6.626   4.461   3.909
 2706SOL    HW2 9018   6.472   4.440   3.960
 2707SOL     OW 9019   4.047   0.672   2.981
 2707SOL    HW1 9020   4.069   0.766   2.956
 2707SOL    HW2 9021   4.103   0.608   2.927
 2708SOL     OW 9022   5.538   2.537   6.946
 2708SOL    HW1 9023   5.577   2.459   6.995
 2708SOL    HW2 9024   5.505   2.605   7.012
 2709SOL     OW 9025   5.107   0.698   5.118
 2709SOL    HW1 9026   5.036   0.630   5.140
 2709SOL    HW2 9027   5.114   0.706   5.018
 2710SOL     OW 9028   1.344   2.849   3.717
 2710SOL    HW1 9029   1.387   2.784   3.655
 2710SOL    HW2 9030   1.246   2.830   3.722
 2711SOL     OW 9031   3.480   2.100   2.659
 2711SOL    HW1 9032   3.410   2.141   2.717
 2711SOL    HW2 9033   3.437   2.058   2.579
 2712SOL     OW 9034   4.103   5.163   2.357
 2712SOL    HW1 9035   4.019   5.152   2.410
 2712SOL    HW2 9036   4.173   5.101   2.392
 2713SOL     OW 9037   4.006   4.866   6.307
 2713SOL    HW1 9038   3.929   4.803   6.320
 2713SOL    HW2 9039   3.988   4.924   6.227
 2714SOL     OW 9040   3.270   4.184   0.164
 2714SOL    HW1 9041   3.292   4.130   0.245
 2714SOL    HW2 9042   3.219   4.266   0.191
 2715SOL     OW 9043   4.275   0.874   1.164
 2715SOL    HW1 9044   4.281   0.832   1.073
 2715SOL    HW2 9045   4.352   0.936   1.177
 2716SOL     OW 9046   3.639   2.144   2.973
 2716SOL    HW1 9047   3.552   2.123   3.018
 2716SOL    HW2 9048   3.622   2.168   2.877
 2717SOL     OW 9049   0.701   1.369   2.538
 2717SOL    HW1 9050   0.622   1.323   2.579
 2717SOL    HW2 9051   0.753   1.415   2.610
 2718SOL     OW 9052   0.152   0.398   5.961
 2718SOL    HW1 9053   0.237   0.434   6.000
 2718SOL    HW2 9054   0.122   0.320   6.016
 2719SOL     OW 9055   1.863   3.767   2.247
 2719SOL    HW1 9056   1.834   3.863   2.252
 2719SOL    HW2 9057   1.888   3.746   2.153
 2720SOL     OW 9058   1.259   6.365   5.340
 2720SOL    HW1 9059   1.339   6.311   5.365
 2720SOL    HW2 9060   1.194   6.367   5.416
 2721SOL     OW 9061   3.521   5.783   1.632
 2721SOL    HW1 9062   3.478   5.860   1.585
 2721SOL    HW2 9063   3.574   5.817   1.709
 2722SOL     OW 9064   4.526   5.167   7.011
 2722SOL    HW1 9065   4.457   5.096   7.004
 2722SOL    HW2 9066   4.599   5.137   0.050
 2723SOL     OW 9067   3.272   6.677   0.487
 2723SOL    HW1 9068   3.217   6.742   0.434
 2723SOL    HW2 9069   3.230   6.586   0.481
 2724SOL     OW 9070   1.791   5.730   1.018
 2724SOL    HW1 9071   1.694   5.753   1.011
 2724SOL    HW2 9072   1.831   5.779   1.095
 2725SOL     OW 9073   5.757   3.969   4.787
 2725SOL    HW1 9074   5.666   3.996   4.755
 2725SOL    HW2 9075   5.821   4.045   4.773
 2726SOL     OW 9076   0.146   1.486   1.551
 2726SOL    HW1 9077   0.066   1.432   1.577
 2726SOL    HW2 9078   0.136   1.579   1.586
 2727SOL     OW 9079   2.225   4.001   4.317
 2727SOL    HW1 9080   2.148   4.002   4.254
 2727SOL    HW2 9081   2.285   4.079   4.297
 2728SOL     OW 9082   5.242   5.833   6.374
 2728SOL    HW1 9083   5.251   5.735   6.389
 2728SOL    HW2 9084   5.332   5.876   6.374
 2729SOL     OW 9085   5.771   5.694   6.249
 2729SOL    HW1 9086   5.828   5.627   6.202
 2729SOL    HW2 9087   5.756   5.665   6.343
 2730SOL     OW 9088   0.829   5.604   2.163
 2730SOL    HW1 9089   0.788   5.674   2.221
 2730SOL    HW2 9090   0.763   5.576   2.093
 2731SOL     OW 9091   3.248   2.966   3.636
 2731SOL    HW1 9092   3.343   2.946   3.611
 2731SOL    HW2 9093   3.246   3.023   3.718
 2732SOL     OW 9094   5.856   1.278   1.738
 2732SOL    HW1 9095   5.891   1.233   1.657
 2732SOL    HW2 9096   5.877   1.223   1.819
 2733SOL     OW 9097   0.587   0.777   6.171
 2733SOL    HW1 9098   0.494   0.771   6.209
 2733SOL    HW2 9099   0.584   0.827   6.084
 2734SOL     OW 9100   3.721   6.019   1.674
 2734SOL    HW1 9101   3.666   6.102   1.676
 2734SOL    HW2 9102   3.719   5.975   1.764
 2735SOL     OW 9103   0.398   1.608   1.339
 2735SOL    HW1 9104   0.304   1.584   1.362
 2735SOL    HW2 9105   0.446   1.526   1.307
 2736SOL     OW 9106   3.939   5.747   3.148
 2736SOL    HW1 9107   4.007   5.820   3.151
 2736SOL    HW2 9108   3.870   5.769   3.079
 2737SOL     OW 9109   2.146   2.167   6.903
 2737SOL    HW1 9110   2.228   2.133   6.949
 2737SOL    HW2 9111   2.125   2.259   6.937
 2738SOL     OW 9112   5.851   0.426   1.642
 2738SOL    HW1 9113   5.943   0.415   1.603
 2738SOL    HW2 9114   5.838   0.359   1.715
 2739SOL     OW 9115   0.992   5.353   2.374
 2739SOL    HW1 9116   0.977   5.451   2.377
 2739SOL    HW2 9117   1.055   5.326   2.447
 2740SOL     OW 9118   6.698   5.997   3.079
 2740SOL    HW1 9119   6.783   5.946   3.094
 2740SOL    HW2 9120   6.718   6.095   3.083
 2741SOL     OW 9121   1.255   2.059   4.546
 2741SOL    HW1 9122   1.252   1.962   4.571
 2741SOL    HW2 9123   1.162   2.096   4.545
 2742SOL     OW 9124   3.397   4.960   1.751
 2742SOL    HW1 9125   3.381   4.866   1.722
 2742SOL    HW2 9126   3.463   4.962   1.826
 2743SOL     OW 9127   6.248   4.193   2.095
 2743SOL    HW1 9128   6.247   4.290   2.120
 2743SOL    HW2 9129   6.316   4.145   2.150
 2744SOL     OW 9130   3.613   3.788   3.100
 2744SOL    HW1 9131   3.652   3.697   3.090
 2744SOL    HW2 9132   3.516   3.786   3.075
 2745SOL     OW 9133   6.743   0.155   5.819
 2745SOL    HW1 9134   6.826   0.207   5.839
 2745SOL    HW2 9135   6.755   0.060   5.849
 2746SOL     OW 9136   1.493   1.059   3.179
 2746SOL    HW1 9137   1.541   1.132   3.130
 2746SOL    HW2 9138   1.527   0.971   3.148
 2747SOL     OW 9139   3.843   6.263   0.638
 2747SOL    HW1 9140   3.854   6.361   0.623
 2747SOL    HW2 9141   3.755   6.246   0.683
 2748SOL     OW 9142   4.334   6.608   1.301
 2748SOL    HW1 9143   4.399   6.547   1.256
 2748SOL    HW2 9144   4.344   6.599   1.401
 2749SOL     OW 9145   2.156   3.477   0.494
 2749SOL    HW1 9146   2.125   3.389   0.460
 2749SOL    HW2 9147   2.211   3.523   0.424
 2750SOL     OW 9148   2.562   5.282   2.418
 2750SOL    HW1 9149   2.555   5.295   2.517
 2750SOL    HW2 9150   2.588   5.188   2.399
 2751SOL     OW 9151   1.169   3.215   1.512
 2751SOL    HW1 9152   1.081   3.257   1.490
 2751SOL    HW2 9153   1.166   3.176   1.603
 2752SOL     OW 9154   3.859   4.613   6.241
 2752SOL    HW1 9155   3.811   4.688   6.194
 2752SOL    HW2 9156   3.792   4.548   6.277
 2753SOL     OW 9157   6.119   6.007   5.065
 2753SOL    HW1 9158   6.090   6.030   5.158
 2753SOL    HW2 9159   6.103   5.910   5.048
 2754SOL     OW 9160   0.292   6.609   6.348
 2754SOL    HW1 9161   0.309   6.681   6.415
 2754SOL    HW2 9162   0.319   6.520   6.386
 2755SOL     OW 9163   2.798   6.643   3.302
 2755SOL    HW1 9164   2.867   6.583   3.261
 2755SOL    HW2 9165   2.729   6.666   3.233
 2756SOL     OW 9166   5.235   6.267   0.112
 2756SOL    HW1 9167   5.273   6.179   0.143
 2756SOL    HW2 9168   5.271   6.340   0.169
 2757SOL     OW 9169   0.828   5.085   1.211
 2757SOL    HW1 9170   0.815   5.172   1.259
 2757SOL    HW2 9171   0.745   5.061   1.161
 2758SOL     OW 9172   4.876   0.592   6.014
 2758SOL    HW1 9173   4.833   0.515   5.967
 2758SOL    HW2 9174   4.965   0.611   5.973
 2759SOL     OW 9175   5.857   0.008   4.382
 2759SOL    HW1 9176   5.939   6.973   4.379
 2759SOL    HW2 9177   5.810   0.005   4.294
 2760SOL     OW 9178   2.446   5.009   2.631
 2760SOL    HW1 9179   2.409   4.955   2.706
 2760SOL    HW2 9180   2.428   4.961   2.544
 2761SOL     OW 9181   1.773   5.484   2.898
 2761SOL    HW1 9182   1.867   5.519   2.893
 2761SOL    HW2 9183   1.736   5.474   2.806
 2762SOL     OW 9184   0.890   6.758   5.609
 2762SOL    HW1 9185   0.871   6.797   5.519
 2762SOL    HW2 9186   0.981   6.786   5.639
 2763SOL     OW 9187   5.875   2.196   3.610
 2763SOL    HW1 9188   5.966   2.227   3.637
 2763SOL    HW2 9189   5.876   2.097   3.597
 2764SOL     OW 9190   5.144   0.746   1.173
 2764SOL    HW1 9191   5.125   0.839   1.206
 2764SOL    HW2 9192   5.114   0.680   1.241
 2765SOL     OW 9193   6.140   1.278   1.917
 2765SOL    HW1 9194   6.202   1.350   1.945
 2765SOL    HW2 9195   6.185   1.220   1.848
 2766SOL     OW 9196   6.015   1.681   1.450
 2766SOL    HW1 9197   6.060   1.595   1.475
 2766SOL    HW2 9198   6.085   1.751   1.434
 2767SOL     OW 9199   5.601   3.660   6.074
 2767SOL    HW1 9200   5.692   3.698   6.083
 2767SOL    HW2 9201   5.552   3.707   6.000
 2768SOL     OW 9202   5.161   1.532   6.842
 2768SOL    HW1 9203   5.244   1.586   6.860
 2768SOL    HW2 9204   5.083   1.594   6.830
 2769SOL     OW 9205   0.219   4.407   2.052
 2769SOL    HW1 9206   0.261   4.483   2.102
 2769SOL    HW2 9207   0.242   4.320   2.097
 2770SOL     OW 9208   1.221   5.191   1.650
 2770SOL    HW1 9209   1.188   5.103   1.617
 2770SOL    HW2 9210   1.152   5.232   1.710
 2771SOL     OW 9211   5.740   2.123   1.350
 2771SOL    HW1 9212   5.736   2.221   1.328
 2771SOL    HW2 9213   5.658   2.097   1.400
 2772SOL     OW 9214   4.601   2.516   0.170
 2772SOL    HW1 9215   4.664   2.483   0.240
 2772SOL    HW2 9216   4.573   2.441   0.111
 2773SOL     OW 9217   4.351   4.404   6.609
 2773SOL    HW1 9218   4.289   4.483   6.610
 2773SOL    HW2 9219   4.313   4.332   6.666
 2774SOL     OW 9220   5.767   3.125   2.176
 2774SOL    HW1 9221   5.861   3.153   2.152
 2774SOL    HW2 9222   5.735   3.058   2.110
 2775SOL     OW 9223   0.113   5.486   0.849
 2775SOL    HW1 9224   0.205   5.488   0.888
 2775SOL    HW2 9225   0.070   5.575   0.860
 2776SOL     OW 9226   3.907   6.546   5.692
 2776SOL    HW1 9227   3.950   6.527   5.781
 2776SOL    HW2 9228   3.821   6.596   5.707
 2777SOL     OW 9229   3.173   1.503   2.371
 2777SOL    HW1 9230   3.197   1.456   2.286
 2777SOL    HW2 9231   3.165   1.437   2.446
 2778SOL     OW 9232   2.555   1.895   5.799
 2778SOL    HW1 9233   2.653   1.902   5.812
 2778SOL    HW2 9234   2.509   1.968   5.850
 2779SOL     OW 9235   5.353   0.200   6.870
 2779SOL    HW1 9236   5.303   0.142   6.935
 2779SOL    HW2 9237   5.345   0.295   6.898
 2780SOL     OW 9238   4.879   5.117   6.514
 2780SOL    HW1 9239   4.848   5.212   6.515
 2780SOL    HW2 9240   4.799   5.057   6.509
 2781SOL     OW 9241   6.149   4.433   1.569
 2781SOL    HW1 9242   6.074   4.385   1.522
 2781SOL    HW2 9243   6.231   4.431   1.511
 2782SOL     OW 9244   3.408   2.276   6.385
 2782SOL    HW1 9245   3.472   2.331   6.439
 2782SOL    HW2 9246   3.409   2.181   6.418
 2783SOL     OW 9247   7.014   4.452   5.678
 2783SOL    HW1 9248   6.914   4.449   5.682
 2783SOL    HW2 9249   0.019   4.530   5.621
 2784SOL     OW 9250   2.098   2.530   0.992
 2784SOL    HW1 9251   2.058   2.578   1.070
 2784SOL    HW2 9252   2.028   2.472   0.950
 2785SOL     OW 9253   6.534   0.774   0.391
 2785SOL    HW1 9254   6.558   0.678   0.400
 2785SOL    HW2 9255   6.443   0.789   0.429
 2786SOL     OW 9256   3.972   6.185   1.090
 2786SOL    HW1 9257   4.058   6.236   1.093
 2786SOL    HW2 9258   3.898   6.247   1.064
 2787SOL     OW 9259   1.854   2.799   6.049
 2787SOL    HW1 9260   1.826   2.889   6.083
 2787SOL    HW2 9261   1.940   2.808   5.998
 2788SOL     OW 9262   2.855   4.496   0.661
 2788SOL    HW1 9263   2.842   4.397   0.653
 2788SOL    HW2 9264   2.911   4.515   0.741
 2789SOL     OW 9265   1.015   1.423   4.068
 2789SOL    HW1 9266   1.064   1.442   4.154
 2789SOL    HW2 9267   0.920   1.454   4.077
 2790SOL     OW 9268   3.722   4.860   3.256
 2790SOL    HW1 9269   3.710   4.887   3.161
 2790SOL    HW2 9270   3.632   4.851   3.299
 2791SOL     OW 9271   1.718   3.746   4.834
 2791SOL    HW1 9272   1.680   3.825   4.883
 2791SOL    HW2 9273   1.817   3.754   4.831
 2792SOL     OW 9274   0.886   0.835   5.164
 2792SOL    HW1 9275   0.931   0.922   5.184
 2792SOL    HW2 9276   0.805   0.851   5.107
 2793SOL     OW 9277   5.426   1.194   2.421
 2793SOL    HW1 9278   5.395   1.194   2.326
 2793SOL    HW2 9279   5.349   1.214   2.481
 2794SOL     OW 9280   0.070   1.706   0.183
 2794SOL    HW1 9281   0.057   1.700   0.084
 2794SOL    HW2 9282   0.147   1.648   0.211
 2795SOL     OW 9283   2.871   4.095   1.235
 2795SOL    HW1 9284   2.911   4.005   1.249
 2795SOL    HW2 9285   2.779   4.099   1.274
 2796SOL     OW 9286   5.772   4.040   2.599
 2796SOL    HW1 9287   5.864   4.054   2.562
 2796SOL    HW2 9288   5.715   3.995   2.530
 2797SOL     OW 9289   4.897   5.328   4.881
 2797SOL    HW1 9290   4.873   5.270   4.959
 2797SOL    HW2 9291   4.920   5.420   4.914
 2798SOL     OW 9292   1.210   3.794   3.478
 2798SOL    HW1 9293   1.205   3.717   3.415
 2798SOL    HW2 9294   1.214   3.761   3.572
 2799SOL     OW 9295   6.827   5.050   6.040
 2799SOL    HW1 9296   6.817   5.148   6.021
 2799SOL    HW2 9297   6.765   4.999   5.981
 2800SOL     OW 9298   3.832   4.925   6.647
 2800SOL    HW1 9299   3.926   4.905   6.673
 2800SOL    HW2 9300   3.782   4.839   6.632
 2801SOL     OW 9301   5.268   5.260   2.579
 2801SOL    HW1 9302   5.356   5.287   2.541
 2801SOL    HW2 9303   5.230   5.336   2.632
 2802SOL     OW 9304   4.242   1.939   5.598
 2802SOL    HW1 9305   4.265   1.887   5.515
 2802SOL    HW2 9306   4.309   1.919   5.669
 2803SOL     OW 9307   2.473   6.234   6.159
 2803SOL    HW1 9308   2.542   6.269   6.096
 2803SOL    HW2 9309   2.465   6.296   6.238
 2804SOL     OW 9310   6.642   4.722   3.763
 2804SOL    HW1 9311   6.677   4.633   3.794
 2804SOL    HW2 9312   6.707   4.763   3.699
 2805SOL     OW 9313   5.375   2.694   1.254
 2805SOL    HW1 9314   5.377   2.604   1.211
 2805SOL    HW2 9315   5.392   2.684   1.353
 2806SOL     OW 9316   6.091   5.280   3.118
 2806SOL    HW1 9317   6.065   5.367   3.160
 2806SOL    HW2 9318   6.082   5.287   3.019
 2807SOL     OW 9319   3.979   4.844   3.764
 2807SOL    HW1 9320   4.073   4.877   3.766
 2807SOL    HW2 9321   3.949   4.833   3.669
 2808SOL     OW 9322   5.681   1.359   3.479
 2808SOL    HW1 9323   5.590   1.321   3.460
 2808SOL    HW2 9324   5.696   1.363   3.577
 2809SOL     OW 9325   6.173   2.575   0.837
 2809SOL    HW1 9326   6.185   2.625   0.751
 2809SOL    HW2 9327   6.104   2.504   0.824
 2810SOL     OW 9328   2.846   0.151   5.679
 2810SOL    HW1 9329   2.770   0.172   5.741
 2810SOL    HW2 9330   2.920   0.109   5.731
 2811SOL     OW 9331   0.806   1.128   2.683
 2811SOL    HW1 9332   0.835   1.199   2.618
 2811SOL    HW2 9333   0.730   1.076   2.643
 2812SOL     OW 9334   4.910   3.760   2.712
 2812SOL    HW1 9335   4.937   3.703   2.635
 2812SOL    HW2 9336   4.900   3.855   2.681
 2813SOL     OW 9337   5.919   7.013   5.596
 2813SOL    HW1 9338   5.955   6.955   5.669
 2813SOL    HW2 9339   5.966   0.079   5.597
 2814SOL     OW 9340   4.062   4.249   5.848
 2814SOL    HW1 9341   3.978   4.205   5.879
 2814SOL    HW2 9342   4.040   4.321   5.782
 2815SOL     OW 9343   6.739   1.192   4.637
 2815SOL    HW1 9344   6.702   1.285   4.638
 2815SOL    HW2 9345   6.710   1.144   4.719
 2816SOL     OW 9346   6.040   0.109   3.741
 2816SOL    HW1 9347   5.975   0.149   3.676
 2816SOL    HW2 9348   6.076   0.181   3.800
 2817SOL     OW 9349   1.651   1.062   1.285
 2817SOL    HW1 9350   1.711   1.142   1.273
 2817SOL    HW2 9351   1.666   0.998   1.210
 2818SOL     OW 9352   6.872   4.711   6.048
 2818SOL    HW1 9353   6.954   4.768   6.056
 2818SOL    HW2 9354   6.798   4.763   6.006
 2819SOL     OW 9355   0.163   3.257   0.386
 2819SOL    HW1 9356   0.230   3.199   0.431
 2819SOL    HW2 9357   0.075   3.248   0.432
 2820SOL     OW 9358   0.132   2.504   2.797
 2820SOL    HW1 9359   0.082   2.459   2.723
 2820SOL    HW2 9360   0.089   2.592   2.818
 2821SOL     OW 9361   2.041   4.369   5.530
 2821SOL    HW1 9362   1.973   4.329   5.592
 2821SOL    HW2 9363   1.997   4.441   5.476
 2822SOL     OW 9364   5.219   2.333   0.107
 2822SOL    HW1 9365   5.205   2.411   0.169
 2822SOL    HW2 9366   5.247   2.253   0.160
 2823SOL     OW 9367   2.568   6.618   2.791
 2823SOL    HW1 9368   2.646   6.648   2.846
 2823SOL    HW2 9369   2.596   6.542   2.732
 2824SOL     OW 9370   2.253   1.229   5.255
 2824SOL    HW1 9371   2.294   1.173   5.327
 2824SOL    HW2 9372   2.193   1.298   5.297
 2825SOL     OW 9373   0.044   6.462   1.079
 2825SOL    HW1 9374   6.993   6.397   1.064
 2825SOL    HW2 9375   0.059   6.473   1.178
 2826SOL     OW 9376   4.964   2.113   5.350
 2826SOL    HW1 9377   4.909   2.040   5.309
 2826SOL    HW2 9378   5.061   2.094   5.334
 2827SOL     OW 9379   6.498   1.180   5.084
 2827SOL    HW1 9380   6.476   1.126   5.165
 2827SOL    HW2 9381   6.592   1.160   5.056
 2828SOL     OW 9382   4.309   0.882   6.285
 2828SOL    HW1 9383   4.391   0.937   6.304
 2828SOL    HW2 9384   4.228   0.930   6.320
 2829SOL     OW 9385   3.983   5.686   6.335
 2829SOL    HW1 9386   3.969   5.597   6.291
 2829SOL    HW2 9387   4.065   5.684   6.391
 2830SOL     OW 9388   5.091   3.302   6.118
 2830SOL    HW1 9389   5.140   3.255   6.044
 2830SOL    HW2 9390   5.155   3.324   6.192
 2831SOL     OW 9391   5.671   6.401   4.434
 2831SOL    HW1 9392   5.665   6.484   4.490
 2831SOL    HW2 9393   5.651   6.321   4.492
 2832SOL     OW 9394   0.102   1.193   1.261
 2832SOL    HW1 9395   0.089   1.234   1.170
 2832SOL    HW2 9396   0.199   1.191   1.283
 2833SOL     OW 9397   5.975   2.238   1.980
 2833SOL    HW1 9398   6.033   2.319   1.988
 2833SOL    HW2 9399   5.967   2.211   1.885
 2834SOL     OW 9400   3.589   1.445   6.484
 2834SOL    HW1 9401   3.579   1.531   6.434
 2834SOL    HW2 9402   3.634   1.462   6.572
 2835SOL     OW 9403   0.395   6.722   1.916
 2835SOL    HW1 9404   0.398   6.805   1.971
 2835SOL    HW2 9405   0.420   6.744   1.821
 2836SOL     OW 9406   0.199   6.959   1.550
 2836SOL    HW1 9407   0.212   6.910   1.636
 2836SOL    HW2 9408   0.134   0.011   1.564
 2837SOL     OW 9409   5.248   3.480   3.298
 2837SOL    HW1 9410   5.239   3.381   3.299
 2837SOL    HW2 9411   5.260   3.511   3.203
 2838SOL     OW 9412   2.489   4.587   1.959
 2838SOL    HW1 9413   2.460   4.496   1.930
 2838SOL    HW2 9414   2.584   4.602   1.933
 2839SOL     OW 9415   5.785   1.542   1.702
 2839SOL    HW1 9416   5.778   1.601   1.783
 2839SOL    HW2 9417   5.812   1.450   1.730
 2840SOL     OW 9418   0.277   1.274   5.210
 2840SOL    HW1 9419   0.291   1.176   5.220
 2840SOL    HW2 9420   0.254   1.295   5.114
 2841SOL     OW 9421   1.161   6.086   0.703
 2841SOL    HW1 9422   1.224   6.009   0.717
 2841SOL    HW2 9423   1.201   6.149   0.636
 2842SOL     OW 9424   6.836   3.369   3.920
 2842SOL    HW1 9425   6.923   3.406   3.954
 2842SOL    HW2 9426   6.807   3.293   3.979
 2843SOL     OW 9427   3.775   1.046   4.931
 2843SOL    HW1 9428   3.866   1.005   4.926
 2843SOL    HW2 9429   3.750   1.083   4.841
 2844SOL     OW 9430   1.279   3.886   6.978
 2844SOL    HW1 9431   1.344   3.812   6.965
 2844SOL    HW2 9432   1.286   3.950   6.902
 2845SOL     OW 9433   0.710   4.012   0.043
 2845SOL    HW1 9434   0.614   3.994   0.019
 2845SOL    HW2 9435   0.766   3.934   0.015
 2846SOL     OW 9436   5.068   1.213   0.380
 2846SOL    HW1 9437   5.107   1.303   0.399
 2846SOL    HW2 9438   5.049   1.204   0.282
 2847SOL     OW 9439   5.699   4.272   3.668
 2847SOL    HW1 9440   5.708   4.174   3.689
 2847SOL    HW2 9441   5.619   4.286   3.611
 2848SOL     OW 9442   0.302   4.649   5.351
 2848SOL    HW1 9443   0.353   4.623   5.269
 2848SOL    HW2 9444   0.290   4.749   5.352
 2849SOL     OW 9445   3.383   1.300   0.229
 2849SOL    HW1 9446   3.402   1.308   0.132
 2849SOL    HW2 9447   3.395   1.205   0.259
 2850SOL     OW 9448   3.390   0.274   0.911
 2850SOL    HW1 9449   3.404   0.358   0.964
 2850SOL    HW2 9450   3.372   0.297   0.815
 2851SOL     OW 9451   1.140   4.488   5.403
 2851SOL    HW1 9452   1.186   4.561   5.454
 2851SOL    HW2 9453   1.156   4.500   5.305
 2852SOL     OW 9454   6.150   3.375   6.770
 2852SOL    HW1 9455   6.150   3.345   6.866
 2852SOL    HW2 9456   6.143   3.475   6.766
 2853SOL     OW 9457   3.448   2.665   0.738
 2853SOL    HW1 9458   3.499   2.607   0.674
 2853SOL    HW2 9459   3.439   2.618   0.826
 2854SOL     OW 9460   2.567   0.755   4.646
 2854SOL    HW1 9461   2.596   0.671   4.600
 2854SOL    HW2 9462   2.583   0.745   4.745
 2855SOL     OW 9463   1.728   0.706   5.555
 2855SOL    HW1 9464   1.732   0.673   5.460
 2855SOL    HW2 9465   1.640   0.681   5.595
 2856SOL     OW 9466   2.328   2.329   5.345
 2856SOL    HW1 9467   2.413   2.315   5.396
 2856SOL    HW2 9468   2.304   2.426   5.346
 2857SOL     OW 9469   2.826   1.931   1.466
 2857SOL    HW1 9470   2.762   1.883   1.527
 2857SOL    HW2 9471   2.775   1.991   1.405
 2858SOL     OW 9472   6.574   2.888   2.179
 2858SOL    HW1 9473   6.565   2.823   2.255
 2858SOL    HW2 9474   6.644   2.855   2.115
 2859SOL     OW 9475   4.717   0.751   0.769
 2859SOL    HW1 9476   4.738   0.677   0.833
 2859SOL    HW2 9477   4.796   0.811   0.759
 2860SOL     OW 9478   3.969   1.927   1.683
 2860SOL    HW1 9479   3.912   1.851   1.652
 2860SOL    HW2 9480   3.935   1.961   1.771
 2861SOL     OW 9481   4.395   5.786   5.699
 2861SOL    HW1 9482   4.372   5.822   5.608
 2861SOL    HW2 9483   4.343   5.702   5.716
 2862SOL     OW 9484   5.281   1.583   3.744
 2862SOL    HW1 9485   5.187   1.612   3.724
 2862SOL    HW2 9486   5.341   1.612   3.670
 2863SOL     OW 9487   6.421   1.964   0.239
 2863SOL    HW1 9488   6.469   1.914   0.310
 2863SOL    HW2 9489   6.470   2.050   0.220
 2864SOL     OW 9490   3.931   0.723   0.926
 2864SOL    HW1 9491   3.846   0.776   0.920
 2864SOL    HW2 9492   3.945   0.694   1.021
 2865SOL     OW 9493   4.455   4.297   5.277
 2865SOL    HW1 9494   4.394   4.364   5.236
 2865SOL    HW2 9495   4.518   4.343   5.340
 2866SOL     OW 9496   6.661   6.040   6.782
 2866SOL    HW1 9497   6.671   6.138   6.767
 2866SOL    HW2 9498   6.715   5.990   6.714
 2867SOL     OW 9499   6.378   4.790   2.774
 2867SOL    HW1 9500   6.421   4.754   2.857
 2867SOL    HW2 9501   6.428   4.756   2.694
 2868SOL     OW 9502   0.256   3.905   5.307
 2868SOL    HW1 9503   0.317   3.984   5.310
 2868SOL    HW2 9504   0.258   3.866   5.215
 2869SOL     OW 9505   6.321   0.243   2.355
 2869SOL    HW1 9506   6.371   0.185   2.419
 2869SOL    HW2 9507   6.324   0.338   2.387
 2870SOL     OW 9508   6.640   2.003   3.679
 2870SOL    HW1 9509   6.726   2.043   3.647
 2870SOL    HW2 9510   6.584   2.075   3.720
 2871SOL     OW 9511   1.539   1.969   6.487
 2871SOL    HW1 9512   1.606   2.037   6.459
 2871SOL    HW2 9513   1.525   1.974   6.586
 2872SOL     OW 9514   2.582   0.720   4.218
 2872SOL    HW1 9515   2.530   0.659   4.158
 2872SOL    HW2 9516   2.591   0.678   4.308
 2873SOL     OW 9517   0.810   5.906   2.561
 2873SOL    HW1 9518   0.798   5.969   2.638
 2873SOL    HW2 9519   0.877   5.944   2.497
 2874SOL     OW 9520   5.089   3.972   2.461
 2874SOL    HW1 9521   5.055   3.943   2.372
 2874SOL    HW2 9522   5.012   3.999   2.519
 2875SOL     OW 9523   3.911   6.463   5.989
 2875SOL    HW1 9524   3.860   6.379   6.007
 2875SOL    HW2 9525   3.903   6.525   6.067
 2876SOL     OW 9526   0.831   1.581   1.574
 2876SOL    HW1 9527   0.744   1.538   1.601
 2876SOL    HW2 9528   0.819   1.680   1.566
 2877SOL     OW 9529   3.020   2.863   5.298
 2877SOL    HW1 9530   3.001   2.873   5.200
 2877SOL    HW2 9531   2.935   2.845   5.347
 2878SOL     OW 9532   2.556   4.585   4.801
 2878SOL    HW1 9533   2.567   4.531   4.885
 2878SOL    HW2 9534   2.640   4.637   4.784
 2879SOL     OW 9535   5.263   5.226   6.920
 2879SOL    HW1 9536   5.320   5.308   6.922
 2879SOL    HW2 9537   5.207   5.226   6.837
 2880SOL     OW 9538   0.302   6.014   0.872
 2880SOL    HW1 9539   0.343   6.077   0.938
 2880SOL    HW2 9540   0.214   6.052   0.841
 2881SOL     OW 9541   6.245   6.195   1.126
 2881SOL    HW1 9542   6.311   6.185   1.201
 2881SOL    HW2 9543   6.230   6.107   1.082
 2882SOL     OW 9544   0.328   3.084   2.558
 2882SOL    HW1 9545   0.306   3.176   2.592
 2882SOL    HW2 9546   0.268   3.017   2.604
 2883SOL     OW 9547   3.880   6.912   3.255
 2883SOL    HW1 9548   3.882   7.000   3.304
 2883SOL    HW2 9549   3.890   6.929   3.157
 2884SOL     OW 9550   0.800   6.128   2.729
 2884SOL    HW1 9551   0.815   6.195   2.657
 2884SOL    HW2 9552   0.710   6.142   2.769
 2885SOL     OW 9553   0.348   2.216   2.706
 2885SOL    HW1 9554   0.264   2.202   2.653
 2885SOL    HW2 9555   0.427   2.185   2.653
 2886SOL     OW 9556   1.769   2.101   0.278
 2886SOL    HW1 9557   1.672   2.080   0.293
 2886SOL    HW2 9558   1.806   2.039   0.210
 2887SOL     OW 9559   2.625   0.357   5.191
 2887SOL    HW1 9560   2.613   0.291   5.266
 2887SOL    HW2 9561   2.648   0.446   5.229
 2888SOL     OW 9562   6.655   4.466   6.735
 2888SOL    HW1 9563   6.744   4.503   6.710
 2888SOL    HW2 9564   6.667   4.391   6.801
 2889SOL     OW 9565   1.348   0.994   1.831
 2889SOL    HW1 9566   1.383   1.044   1.910
 2889SOL    HW2 9567   1.401   0.910   1.818
 2890SOL     OW 9568   3.342   0.635   1.520
 2890SOL    HW1 9569   3.403   0.677   1.452
 2890SOL    HW2 9570   3.278   0.574   1.473
 2891SOL     OW 9571   1.930   4.746   3.380
 2891SOL    HW1 9572   1.973   4.830   3.350
 2891SOL    HW2 9573   1.998   4.672   3.384
 2892SOL     OW 9574   3.625   4.333   6.548
 2892SOL    HW1 9575   3.627   4.238   6.519
 2892SOL    HW2 9576   3.538   4.352   6.594
 2893SOL     OW 9577   2.165   6.423   5.384
 2893SOL    HW1 9578   2.198   6.344   5.332
 2893SOL    HW2 9579   2.227   6.500   5.371
 2894SOL     OW 9580   2.945   2.754   0.000
 2894SOL    HW1 9581   2.883   2.825   6.989
 2894SOL    HW2 9582   2.895   2.692   0.060
 2895SOL     OW 9583   3.876   2.640   6.486
 2895SOL    HW1 9584   3.975   2.641   6.496
 2895SOL    HW2 9585   3.834   2.682   6.566
 2896SOL     OW 9586   2.378   5.534   0.063
 2896SOL    HW1 9587   2.364   5.631   0.085
 2896SOL    HW2 9588   2.372   5.480   0.147
 2897SOL     OW 9589   2.487   6.502   3.473
 2897SOL    HW1 9590   2.492   6.496   3.572
 2897SOL    HW2 9591   2.522   6.417   3.433
 2898SOL     OW 9592   4.414   5.147   2.722
 2898SOL    HW1 9593   4.428   5.057   2.680
 2898SOL    HW2 9594   4.338   5.142   2.787
 2899SOL     OW 9595   0.098   6.888   6.580
 2899SOL    HW1 9596   0.057   6.908   6.490
 2899SOL    HW2 9597   0.053   6.944   6.649
 2900SOL     OW 9598   1.195   4.904   5.751
 2900SOL    HW1 9599   1.198   5.004   5.751
 2900SOL    HW2 9600   1.280   4.868   5.790
 2901SOL     OW 9601   2.600   0.719   2.548
 2901SOL    HW1 9602   2.604   0.656   2.470
 2901SOL    HW2 9603   2.561   0.806   2.519
 2902SOL     OW 9604   5.375   6.520   0.569
 2902SOL    HW1 9605   5.322   6.602   0.590
 2902SOL    HW2 9606   5.472   6.540   0.578
 2903SOL     OW 9607   2.712   0.916   2.157
 2903SOL    HW1 9608   2.767   0.947   2.079
 2903SOL    HW2 9609   2.761   0.845   2.206
 2904SOL     OW 9610   2.239   3.270   5.307
 2904SOL    HW1 9611   2.277   3.362   5.302
 2904SOL    HW2 9612   2.307   3.204   5.273
 2905SOL     OW 9613   1.371   1.021   2.497
 2905SOL    HW1 9614   1.363   1.096   2.430
 2905SOL    HW2 9615   1.412   1.056   2.581
 2906SOL     OW 9616   5.412   5.010   2.032
 2906SOL    HW1 9617   5.350   4.968   2.099
 2906SOL    HW2 9618   5.480   4.942   2.003
 2907SOL     OW 9619   7.005   2.254   5.402
 2907SOL    HW1 9620   0.047   2.178   5.396
 2907SOL    HW2 9621   6.936   2.245   5.331
 2908SOL     OW 9622   3.957   6.791   4.246
 2908SOL    HW1 9623   3.860   6.801   4.221
 2908SOL    HW2 9624   3.988   6.875   4.291
 2909SOL     OW 9625   0.682   5.062   4.620
 2909SOL    HW1 9626   0.654   4.972   4.655
 2909SOL    HW2 9627   0.768   5.053   4.569
 2910SOL     OW 9628   3.548   6.499   5.027
 2910SOL    HW1 9629   3.586   6.439   4.957
 2910SOL    HW2 9630   3.449   6.488   5.031
 2911SOL     OW 9631   2.319   5.102   3.396
 2911SOL    HW1 9632   2.361   5.049   3.469
 2911SOL    HW2 9633   2.361   5.078   3.308
 2912SOL     OW 9634   3.048   5.997   0.242
 2912SOL    HW1 9635   3.081   5.911   0.280
 2912SOL    HW2 9636   3.037   5.987   0.143
 2913SOL     OW 9637   1.292   3.747   2.374
 2913SOL    HW1 9638   1.321   3.835   2.336
 2913SOL    HW2 9639   1.362   3.714   2.438
 2914SOL     OW 9640   5.195   4.419   5.937
 2914SOL    HW1 9641   5.099   4.391   5.935
 2914SOL    HW2 9642   5.250   4.345   5.975
 2915SOL     OW 9643   4.159   1.037   4.142
 2915SOL    HW1 9644   4.245   0.993   4.167
 2915SOL    HW2 9645   4.154   1.047   4.043
 2916SOL     OW 9646   6.304   4.392   5.264
 2916SOL    HW1 9647   6.308   4.412   5.167
 2916SOL    HW2 9648   6.261   4.303   5.279
 2917SOL     OW 9649   3.876   0.246   0.774
 2917SOL    HW1 9650   3.798   0.192   0.743
 2917SOL    HW2 9651   3.860   0.342   0.753
 2918SOL     OW 9652   0.549   3.435   3.318
 2918SOL    HW1 9653   0.516   3.362   3.377
 2918SOL    HW2 9654   0.534   3.523   3.363
 2919SOL     OW 9655   6.289   6.670   6.905
 2919SOL    HW1 9656   6.348   6.619   6.968
 2919SOL    HW2 9657   6.342   6.695   6.824
 2920SOL     OW 9658   3.739   2.107   2.546
 2920SOL    HW1 9659   3.720   2.141   2.454
 2920SOL    HW2 9660   3.654   2.105   2.599
 2921SOL     OW 9661   6.813   1.215   2.617
 2921SOL    HW1 9662   6.860   1.295   2.653
 2921SOL    HW2 9663   6.735   1.193   2.677
 2922SOL     OW 9664   4.905   0.055   6.002
 2922SOL    HW1 9665   4.862   0.042   6.091
 2922SOL    HW2 9666   4.892   6.995   5.946
 2923SOL     OW 9667   0.062   5.020   2.299
 2923SOL    HW1 9668   0.136   5.020   2.366
 2923SOL    HW2 9669   7.017   4.951   2.323
 2924SOL     OW 9670   0.881   1.540   5.578
 2924SOL    HW1 9671   0.960   1.600   5.565
 2924SOL    HW2 9672   0.822   1.545   5.498
 2925SOL     OW 9673   5.428   2.690   2.060
 2925SOL    HW1 9674   5.342   2.737   2.044
 2925SOL    HW2 9675   5.502   2.739   2.012
 2926SOL     OW 9676   7.012   2.177   5.116
 2926SOL    HW1 9677   0.048   2.161   5.036
 2926SOL    HW2 9678   6.930   2.227   5.088
 2927SOL     OW 9679   1.028   2.568   2.741
 2927SOL    HW1 9680   0.964   2.507   2.693
 2927SOL    HW2 9681   1.102   2.514   2.781
 2928SOL     OW 9682   6.764   0.342   6.606
 2928SOL    HW1 9683   6.690   0.408   6.594
 2928SOL    HW2 9684   6.728   0.257   6.644
 2929SOL     OW 9685   0.549   0.470   6.407
 2929SOL    HW1 9686   0.551   0.467   6.507
 2929SOL    HW2 9687   0.637   0.439   6.371
 2930SOL     OW 9688   5.261   0.353   4.503
 2930SOL    HW1 9689   5.326   0.388   4.570
 2930SOL    HW2 9690   5.182   0.313   4.549
 2931SOL     OW 9691   4.738   6.158   6.806
 2931SOL    HW1 9692   4.835   6.152   6.829
 2931SOL    HW2 9693   4.726   6.148   6.707
 2932SOL     OW 9694   1.236   4.339   1.618
 2932SOL    HW1 9695   1.329   4.367   1.643
 2932SOL    HW2 9696   1.186   4.418   1.584
 2933SOL     OW 9697   5.421   2.845   3.908
 2933SOL    HW1 9698   5.448   2.875   3.999
 2933SOL    HW2 9699   5.444   2.916   3.841
 2934SOL     OW 9700   3.579   0.234   0.319
 2934SOL    HW1 9701   3.534   0.176   0.387
 2934SOL    HW2 9702   3.601   0.179   0.239
 2935SOL     OW 9703   6.260   3.462   1.196
 2935SOL    HW1 9704   6.308   3.397   1.136
 2935SOL    HW2 9705   6.319   3.487   1.272
 2936SOL     OW 9706   4.614   5.701   0.626
 2936SOL    HW1 9707   4.601   5.603   0.638
 2936SOL    HW2 9708   4.637   5.743   0.714
 2937SOL     OW 9709   3.358   5.277   0.714
 2937SOL    HW1 9710   3.413   5.338   0.657
 2937SOL    HW2 9711   3.280   5.326   0.750
 2938SOL     OW 9712   4.712   5.499   5.437
 2938SOL    HW1 9713   4.671   5.419   5.393
 2938SOL    HW2 9714   4.677   5.508   5.530
 2939SOL     OW 9715   5.949   0.175   5.109
 2939SOL    HW1 9716   6.002   0.185   5.194
 2939SOL    HW2 9717   5.851   0.185   5.129
 2940SOL     OW 9718   5.656   0.233   5.120
 2940SOL    HW1 9719   5.585   0.209   5.186
 2940SOL    HW2 9720   5.613   0.258   5.033
 2941SOL     OW 9721   0.880   1.792   4.975
 2941SOL    HW1 9722   0.960   1.748   4.934
 2941SOL    HW2 9723   0.801   1.732   4.966
 2942SOL     OW 9724   3.220   0.362   2.626
 2942SOL    HW1 9725   3.160   0.282   2.625
 2942SOL    HW2 9726   3.194   0.424   2.552
 2943SOL     OW 9727   6.278   3.360   2.577
 2943SOL    HW1 9728   6.282   3.287   2.510
 2943SOL    HW2 9729   6.346   3.344   2.649
 2944SOL     OW 9730   3.329   4.765   5.226
 2944SOL    HW1 9731   3.393   4.839   5.247
 2944SOL    HW2 9732   3.290   4.780   5.135
 2945SOL     OW 9733   4.100   3.444   3.499
 2945SOL    HW1 9734   4.095   3.406   3.406
 2945SOL    HW2 9735   4.108   3.370   3.565
 2946SOL     OW 9736   6.505   5.994   5.836
 2946SOL    HW1 9737   6.458   6.026   5.755
 2946SOL    HW2 9738   6.582   6.055   5.857
 2947SOL     OW 9739   6.597   3.916   6.239
 2947SOL    HW1 9740   6.525   3.986   6.237
 2947SOL    HW2 9741   6.658   3.929   6.161
 2948SOL     OW 9742   6.468   3.945   4.975
 2948SOL    HW1 9743   6.555   3.959   4.929
 2948SOL    HW2 9744   6.464   3.852   5.010
 2949SOL     OW 9745   1.983   6.839   1.034
 2949SOL    HW1 9746   1.904   6.782   1.013
 2949SOL    HW2 9747   2.037   6.853   0.951
 2950SOL     OW 9748   6.018   3.774   4.273
 2950SOL    HW1 9749   5.943   3.794   4.336
 2950SOL    HW2 9750   5.985   3.712   4.201
 2951SOL     OW 9751   6.883   1.853   0.257
 2951SOL    HW1 9752   6.909   1.944   0.227
 2951SOL    HW2 9753   6.955   1.788   0.233
 2952SOL     OW 9754   1.059   4.278   3.016
 2952SOL    HW1 9755   1.075   4.327   3.102
 2952SOL    HW2 9756   1.145   4.271   2.965
 2953SOL     OW 9757   4.916   2.156   2.381
 2953SOL    HW1 9758   4.833   2.197   2.419
 2953SOL    HW2 9759   4.912   2.159   2.281
 2954SOL     OW 9760   0.426   6.198   2.207
 2954SOL    HW1 9761   0.362   6.208   2.284
 2954SOL    HW2 9762   0.443   6.287   2.166
 2955SOL     OW 9763   0.284   3.333   0.760
 2955SOL    HW1 9764   0.299   3.258   0.696
 2955SOL    HW2 9765   0.370   3.356   0.806
 2956SOL     OW 9766   0.254   5.603   3.015
 2956SOL    HW1 9767   0.205   5.610   2.928
 2956SOL    HW2 9768   0.298   5.513   3.021
 2957SOL     OW 9769   6.996   3.901   1.142
 2957SOL    HW1 9770   0.006   3.808   1.159
 2957SOL    HW2 9771   6.952   3.905   1.052
 2958SOL     OW 9772   1.728   4.912   5.976
 2958SOL    HW1 9773   1.764   4.989   5.922
 2958SOL    HW2 9774   1.675   4.948   6.053
 2959SOL     OW 9775   5.106   4.666   6.055
 2959SOL    HW1 9776   5.139   4.581   6.015
 2959SOL    HW2 9777   5.066   4.723   5.983
 2960SOL     OW 9778   2.739   2.166   0.457
 2960SOL    HW1 9779   2.655   2.211   0.425
 2960SOL    HW2 9780   2.720   2.069   0.472
 2961SOL     OW 9781   5.441   3.585   4.514
 2961SOL    HW1 9782   5.447   3.612   4.418
 2961SOL    HW2 9783   5.401   3.660   4.567
 2962SOL     OW 9784   4.390   1.314   3.470
 2962SOL    HW1 9785   4.434   1.272   3.549
 2962SOL    HW2 9786   4.434   1.282   3.386
 2963SOL     OW 9787   1.467   1.318   5.951
 2963SOL    HW1 9788   1.539   1.351   5.890
 2963SOL    HW2 9789   1.383   1.305   5.900
 2964SOL     OW 9790   1.778   6.455   1.236
 2964SOL    HW1 9791   1.738   6.414   1.318
 2964SOL    HW2 9792   1.765   6.554   1.239
 2965SOL     OW 9793   0.207   0.843   5.458
 2965SOL    HW1 9794   0.257   0.869   5.540
 2965SOL    HW2 9795   0.146   0.918   5.431
 2966SOL     OW 9796   5.391   4.682   3.627
 2966SOL    HW1 9797   5.315   4.679   3.562
 2966SOL    HW2 9798   5.430   4.591   3.638
 2967SOL     OW 9799   5.697   2.347   3.452
 2967SOL    HW1 9800   5.762   2.294   3.506
 2967SOL    HW2 9801   5.681   2.301   3.364
 2968SOL     OW 9802   0.995   3.795   4.748
 2968SOL    HW1 9803   1.082   3.843   4.759
 2968SOL    HW2 9804   0.924   3.843   4.800
 2969SOL     OW 9805   5.498   1.765   4.716
 2969SOL    HW1 9806   5.405   1.800   4.706
 2969SOL    HW2 9807   5.535   1.741   4.626
 2970SOL     OW 9808   0.823   4.397   6.644
 2970SOL    HW1 9809   0.843   4.319   6.704
 2970SOL    HW2 9810   0.781   4.364   6.560
 2971SOL     OW 9811   6.186   3.017   3.601
 2971SOL    HW1 9812   6.162   2.938   3.545
 2971SOL    HW2 9813   6.130   3.095   3.576
 2972SOL     OW 9814   6.107   3.286   6.413
 2972SOL    HW1 9815   6.190   3.273   6.466
 2972SOL    HW2 9816   6.082   3.383   6.414
 2973SOL     OW 9817   5.557   0.866   3.718
 2973SOL    HW1 9818   5.482   0.804   3.741
 2973SOL    HW2 9819   5.641   0.813   3.706
 2974SOL     OW 9820   6.511   4.518   2.784
 2974SOL    HW1 9821   6.431   4.477   2.828
 2974SOL    HW2 9822   6.557   4.449   2.729
 2975SOL     OW 9823   0.646   1.502   5.286
 2975SOL    HW1 9824   0.672   1.444   5.208
 2975SOL    HW2 9825   0.548   1.491   5.305
 2976SOL     OW 9826   4.265   1.718   2.514
 2976SOL    HW1 9827   4.204   1.776   2.460
 2976SOL    HW2 9828   4.359   1.751   2.505
 2977SOL     OW 9829   2.857   6.923   4.378
 2977SOL    HW1 9830   2.840   6.904   4.282
 2977SOL    HW2 9831   2.914   7.004   4.387
 2978SOL     OW 9832   4.691   5.005   0.166
 2978SOL    HW1 9833   4.734   4.949   0.237
 2978SOL    HW2 9834   4.592   4.991   0.167
 2979SOL     OW 9835   3.698   0.368   3.141
 2979SOL    HW1 9836   3.624   0.308   3.111
 2979SOL    HW2 9837   3.701   0.370   3.241
 2980SOL     OW 9838   0.729   6.522   4.208
 2980SOL    HW1 9839   0.772   6.582   4.141
 2980SOL    HW2 9840   0.788   6.443   4.224
 2981SOL     OW 9841   1.366   1.020   5.801
 2981SOL    HW1 9842   1.362   0.985   5.895
 2981SOL    HW2 9843   1.389   0.945   5.739
 2982SOL     OW 9844   4.220   6.061   2.634
 2982SOL    HW1 9845   4.274   6.068   2.717
 2982SOL    HW2 9846   4.207   6.152   2.594
 2983SOL     OW 9847   0.419   1.014   4.648
 2983SOL    HW1 9848   0.407   1.041   4.553
 2983SOL    HW2 9849   0.341   0.958   4.677
 2984SOL     OW 9850   6.700   5.292   1.518
 2984SOL    HW1 9851   6.652   5.311   1.603
 2984SOL    HW2 9852   6.691   5.195   1.495
 2985SOL     OW 9853   0.516   1.958   4.514
 2985SOL    HW1 9854   0.581   1.970   4.439
 2985SOL    HW2 9855   0.484   2.048   4.545
 2986SOL     OW 9856   2.029   3.774   5.324
 2986SOL    HW1 9857   2.099   3.846   5.323
 2986SOL    HW2 9858   2.057   3.702   5.388
 2987SOL     OW 9859   4.181   1.444   4.484
 2987SOL    HW1 9860   4.198   1.408   4.576
 2987SOL    HW2 9861   4.194   1.372   4.417
 2988SOL     OW 9862   1.358   0.562   1.565
 2988SOL    HW1 9863   1.260   0.578   1.583
 2988SOL    HW2 9864   1.405   0.650   1.560
 2989SOL     OW 9865   6.722   4.596   1.240
 2989SOL    HW1 9866   6.708   4.554   1.150
 2989SOL    HW2 9867   6.810   4.644   1.241
 2990SOL     OW 9868   3.151   0.504   2.380
 2990SOL    HW1 9869   3.135   0.600   2.403
 2990SOL    HW2 9870   3.180   0.497   2.285
 2991SOL     OW 9871   6.926   3.957   0.411
 2991SOL    HW1 9872   7.020   3.981   0.437
 2991SOL    HW2 9873   6.897   3.877   0.462
 2992SOL     OW 9874   3.247   5.674   6.542
 2992SOL    HW1 9875   3.228   5.675   6.444
 2992SOL    HW2 9876   3.306   5.751   6.565
 2993SOL     OW 9877   2.017   4.826   1.619
 2993SOL    HW1 9878   2.059   4.822   1.710
 2993SOL    HW2 9879   2.020   4.920   1.586
 2994SOL     OW 9880   4.883   0.713   6.980
 2994SOL    HW1 9881   4.918   0.767   0.034
 2994SOL    HW2 9882   4.881   0.616   7.005
 2995SOL     OW 9883   1.024   2.041   0.471
 2995SOL    HW1 9884   1.040   1.954   0.517
 2995SOL    HW2 9885   1.012   2.113   0.539
 2996SOL     OW 9886   2.948   5.201   5.124
 2996SOL    HW1 9887   2.857   5.212   5.165
 2996SOL    HW2 9888   2.986   5.113   5.150
 2997SOL     OW 9889   5.583   6.251   1.365
 2997SOL    HW1 9890   5.488   6.280   1.361
 2997SOL    HW2 9891   5.611   6.217   1.275
 2998SOL     OW 9892   5.763   6.060   3.885
 2998SOL    HW1 9893   5.695   5.986   3.884
 2998SOL    HW2 9894   5.795   6.076   3.792
 2999SOL     OW 9895   3.627   6.462   3.394
 2999SOL    HW1 9896   3.581   6.484   3.480
 2999SOL    HW2 9897   3.708   6.519   3.384
 3000SOL     OW 9898   1.484   3.127   5.620
 3000SOL    HW1 9899   1.395   3.084   5.637
 3000SOL    HW2 9900   1.552   3.085   5.680
 3001SOL     OW 9901   5.072   0.569   5.637
 3001SOL    HW1 9902   5.103   0.662   5.617
 3001SOL    HW2 9903   4.986   0.573   5.690
 3002SOL     OW 9904   4.551   0.174   5.486
 3002SOL    HW1 9905   4.549   0.158   5.585
 3002SOL    HW2 9906   4.463   0.211   5.457
 3003SOL     OW 9907   2.484   5.933   5.501
 3003SOL    HW1 9908   2.531   6.020   5.488
 3003SOL    HW2 9909   2.519   5.866   5.436
 3004SOL     OW 9910   6.102   4.244   3.698
 3004SOL    HW1 9911   6.078   4.287   3.785
 3004SOL    HW2 9912   6.143   4.311   3.636
 3005SOL     OW 9913   3.566   3.219   1.303
 3005SOL    HW1 9914   3.544   3.121   1.298
 3005SOL    HW2 9915   3.545   3.253   1.394
 3006SOL     OW 9916   5.585   1.244   0.959
 3006SOL    HW1 9917   5.548   1.157   0.926
 3006SOL    HW2 9918   5.532   1.274   1.038
 3007SOL     OW 9919   5.810   4.628   2.761
 3007SOL    HW1 9920   5.839   4.578   2.843
 3007SOL    HW2 9921   5.880   4.695   2.736
 3008SOL     OW 9922   3.490   6.944   6.070
 3008SOL    HW1 9923   3.408   7.001   6.072
 3008SOL    HW2 9924   3.521   6.933   5.975
 3009SOL     OW 9925   1.172   0.624   2.178
 3009SOL    HW1 9926   1.186   0.709   2.230
 3009SOL    HW2 9927   1.214   0.633   2.088
 3010SOL     OW 9928   3.960   5.245   3.232
 3010SOL    HW1 9929   3.994   5.339   3.240
 3010SOL    HW2 9930   3.943   5.224   3.135
 3011SOL     OW 9931   6.153   0.446   6.652
 3011SOL    HW1 9932   6.244   0.406   6.656
 3011SOL    HW2 9933   6.158   0.536   6.609
 3012SOL     OW 9934   6.924   3.764   3.808
 3012SOL    HW1 9935   7.016   3.796   3.787
 3012SOL    HW2 9936   6.874   3.749   3.722
 3013SOL     OW 9937   6.141   5.765   2.123
 3013SOL    HW1 9938   6.203   5.827   2.172
 3013SOL    HW2 9939   6.052   5.810   2.111
 3014SOL     OW 9940   4.958   1.589   4.381
 3014SOL    HW1 9941   4.891   1.657   4.349
 3014SOL    HW2 9942   5.020   1.566   4.306
 3015SOL     OW 9943   2.338   1.895   0.781
 3015SOL    HW1 9944   2.434   1.916   0.767
 3015SOL    HW2 9945   2.311   1.818   0.723
 3016SOL     OW 9946   3.541   6.110   3.996
 3016SOL    HW1 9947   3.567   6.017   3.969
 3016SOL    HW2 9948   3.444   6.125   3.973
 3017SOL     OW 9949   1.535   6.090   1.475
 3017SOL    HW1 9950   1.545   6.071   1.378
 3017SOL    HW2 9951   1.511   6.006   1.524
 3018SOL     OW 9952   3.948   0.375   6.620
 3018SOL    HW1 9953   4.014   0.355   6.548
 3018SOL    HW2 9954   3.992   0.365   6.709
 3019SOL     OW 9955   3.308   6.239   1.172
 3019SOL    HW1 9956   3.211   6.234   1.148
 3019SOL    HW2 9957   3.320   6.216   1.268
 3020SOL     OW 9958   3.156   3.785   1.846
 3020SOL    HW1 9959   3.139   3.875   1.887
 3020SOL    HW2 9960   3.132   3.713   1.911
 3021SOL     OW 9961   1.490   1.986   6.755
 3021SOL    HW1 9962   1.456   1.893   6.769
 3021SOL    HW2 9963   1.554   2.009   6.828
 3022SOL     OW 9964   3.940   6.231   3.211
 3022SOL    HW1 9965   4.008   6.257   3.280
 3022SOL    HW2 9966   3.893   6.313   3.179
 3023SOL     OW 9967   3.674   5.613   3.589
 3023SOL    HW1 9968   3.659   5.530   3.643
 3023SOL    HW2 9969   3.739   5.594   3.516
 3024SOL     OW 9970   3.220   1.140   6.782
 3024SOL    HW1 9971   3.180   1.183   6.701
 3024SOL    HW2 9972   3.191   1.189   6.864
 3025SOL     OW 9973   2.844   2.970   1.208
 3025SOL    HW1 9974   2.879   3.010   1.123
 3025SOL    HW2 9975   2.880   2.877   1.217
 3026SOL     OW 9976   1.322   3.376   1.054
 3026SOL    HW1 9977   1.248   3.322   1.013
 3026SOL    HW2 9978   1.339   3.457   0.998
 3027SOL     OW 9979   3.319   1.152   1.882
 3027SOL    HW1 9980   3.336   1.152   1.783
 3027SOL    HW2 9981   3.381   1.216   1.927
 3028SOL     OW 9982   1.698   5.113   6.685
 3028SOL    HW1 9983   1.634   5.052   6.733
 3028SOL    HW2 9984   1.701   5.089   6.588
 3029SOL     OW 9985   6.018   5.400   4.705
 3029SOL    HW1 9986   6.089   5.413   4.635
 3029SOL    HW2 9987   5.987   5.489   4.738
 3030SOL     OW 9988   0.704   1.103   5.712
 3030SOL    HW1 9989   0.645   1.163   5.658
 3030SOL    HW2 9990   0.764   1.052   5.651
 3031SOL     OW 9991   0.690   3.757   6.890
 3031SOL    HW1 9992   0.667   3.735   6.985
 3031SOL    HW2 9993   0.608   3.749   6.833
 3032SOL     OW 9994   5.127   0.524   6.754
 3032SOL    HW1 9995   5.109   0.620   6.733
 3032SOL    HW2 9996   5.073   0.466   6.693
 3033SOL     OW 9997   0.199   3.905   6.697
 3033SOL    HW1 9998   0.219   3.960   6.616
 3033SOL    HW2 9999   0.151   3.961   6.765
 3034SOL     OW10000   2.896   6.315   3.759
 3034SOL    HW110001   2.806   6.324   3.802
 3034SOL    HW210002   2.901   6.376   3.679
 3035SOL     OW10003   6.545   1.144   0.136
 3035SOL    HW110004   6.601   1.176   0.060
 3035SOL    HW210005   6.592   1.163   0.222
 3036SOL     OW10006   1.502   3.644   6.949
 3036SOL    HW110007   1.559   3.641   6.866
 3036SOL    HW210008   1.546   3.590   7.021
 3037SOL     OW10009   6.458   5.991   5.074
 3037SOL    HW110010   6.493   5.911   5.025
 3037SOL    HW210011   6.369   5.970   5.113
 3038SOL     OW10012   5.090   0.414   6.344
 3038SOL    HW110013   5.116   0.497   6.295
 3038SOL    HW210014   5.127   0.334   6.296
 3039SOL     OW10015   0.034   4.648   2.461
 3039SOL    HW110016   7.003   4.717   2.412
 3039SOL    HW210017   0.129   4.654   2.432
 3040SOL     OW10018   3.221   3.515   6.686
 3040SOL    HW110019   3.129   3.549   6.664
 3040SOL    HW210020   3.242   3.436   6.630
 3041SOL     OW10021   1.912   2.345   5.565
 3041SOL    HW110022   1.891   2.365   5.469
 3041SOL    HW210023   1.959   2.257   5.570
 3042SOL     OW10024   5.083   0.040   1.673
 3042SOL    HW110025   5.036   0.126   1.656
 3042SOL    HW210026   5.151   0.024   1.602
 3043SOL     OW10027   0.958   5.491   0.447
 3043SOL    HW110028   1.047   5.450   0.468
 3043SOL    HW210029   0.923   5.451   0.362
 3044SOL     OW10030   3.377   4.153   5.491
 3044SOL    HW110031   3.350   4.166   5.396
 3044SOL    HW210032   3.466   4.198   5.507
 3045SOL     OW10033   4.592   1.634   2.707
 3045SOL    HW110034   4.633   1.543   2.717
 3045SOL    HW210035   4.583   1.656   2.610
 3046SOL     OW10036   1.246   2.992   5.641
 3046SOL    HW110037   1.265   2.894   5.652
 3046SOL    HW210038   1.192   3.024   5.719
 3047SOL     OW10039   6.237   5.334   2.065
 3047SOL    HW110040   6.234   5.234   2.076
 3047SOL    HW210041   6.257   5.376   2.153
 3048SOL     OW10042   4.213   3.635   1.413
 3048SOL    HW110043   4.283   3.679   1.470
 3048SOL    HW210044   4.159   3.706   1.367
 3049SOL     OW10045   0.974   0.213   2.052
 3049SOL    HW110046   1.020   0.165   2.127
 3049SOL    HW210047   0.976   0.312   2.069
 3050SOL     OW10048   3.245   6.242   3.518
 3050SOL    HW110049   3.196   6.298   3.451
 3050SOL    HW210050   3.337   6.279   3.531
 3051SOL     OW10051   2.776   5.209   6.627
 3051SOL    HW110052   2.866   5.198   6.585
 3051SOL    HW210053   2.751   5.306   6.629
 3052SOL     OW10054   3.743   0.433   2.669
 3052SOL    HW110055   3.794   0.351   2.642
 3052SOL    HW210056   3.735   0.436   2.769
 3053SOL     OW10057   6.030   0.591   0.274
 3053SOL    HW110058   6.035   0.665   0.207
 3053SOL    HW210059   5.938   0.586   0.312
 3054SOL     OW10060   6.974   3.520   0.443
 3054SOL    HW110061   6.969   3.509   0.344
 3054SOL    HW210062   0.034   3.571   0.467
 3055SOL     OW10063   5.788   0.179   3.617
 3055SOL    HW110064   5.822   0.269   3.647
 3055SOL    HW210065   5.769   0.182   3.519
 3056SOL     OW10066   0.004   0.427   6.988
 3056SOL    HW110067   0.003   0.371   0.048
 3056SOL    HW210068   6.985   0.516   7.007
 3057SOL     OW10069   6.045   4.834   2.336
 3057SOL    HW110070   5.946   4.838   2.320
 3057SOL    HW210071   6.081   4.748   2.302
 3058SOL     OW10072   6.585   5.988   1.045
 3058SOL    HW110073   6.622   6.081   1.046
 3058SOL    HW210074   6.495   5.988   1.089
 3059SOL     OW10075   0.714   2.815   4.843
 3059SOL    HW110076   0.702   2.841   4.747
 3059SOL    HW210077   0.784   2.872   4.885
 3060SOL     OW10078   0.523   7.017   0.774
 3060SOL    HW110079   0.581   6.947   0.816
 3060SOL    HW210080   0.549   0.084   0.810
 3061SOL     OW10081   0.109   1.095   5.034
 3061SOL    HW110082   0.195   1.051   5.060
 3061SOL    HW210083   0.035   1.059   5.091
 3062SOL     OW10084   2.818   6.502   1.700
 3062SOL    HW110085   2.804   6.492   1.798
 3062SOL    HW210086   2.916   6.514   1.681
 3063SOL     OW10087   2.073   4.990   2.029
 3063SOL    HW110088   2.139   4.930   1.983
 3063SOL    HW210089   2.028   4.940   2.102
 3064SOL     OW10090   6.441   3.571   3.655
 3064SOL    HW110091   6.385   3.643   3.696
 3064SOL    HW210092   6.514   3.545   3.719
 3065SOL     OW10093   1.770   0.581   6.561
 3065SOL    HW110094   1.719   0.588   6.647
 3065SOL    HW210095   1.772   0.670   6.516
 3066SOL     OW10096   5.698   4.544   0.708
 3066SOL    HW110097   5.776   4.544   0.644
 3066SOL    HW210098   5.613   4.555   0.656
 3067SOL     OW10099   4.189   0.578   5.091
 3067SOL    HW110100   4.152   0.626   5.011
 3067SOL    HW210101   4.280   0.615   5.112
 3068SOL     OW10102   6.142   6.331   0.920
 3068SOL    HW110103   6.166   6.268   0.994
 3068SOL    HW210104   6.174   6.423   0.943
 3069SOL     OW10105   0.840   5.742   1.806
 3069SOL    HW110106   0.852   5.736   1.707
 3069SOL    HW210107   0.835   5.838   1.833
 3070SOL     OW10108   1.975   1.301   3.163
 3070SOL    HW110109   2.062   1.285   3.210
 3070SOL    HW210110   1.991   1.312   3.065
 3071SOL     OW10111   6.166   0.276   3.985
 3071SOL    HW110112   6.261   0.283   3.955
 3071SOL    HW210113   6.161   0.209   4.060
 3072SOL     OW10114   0.362   6.496   2.098
 3072SOL    HW110115   0.272   6.454   2.085
 3072SOL    HW210116   0.369   6.577   2.040
 3073SOL     OW10117   0.724   2.883   5.174
 3073SOL    HW110118   0.732   2.841   5.264
 3073SOL    HW210119   0.727   2.812   5.103
 3074SOL     OW10120   4.412   3.148   0.789
 3074SOL    HW110121   4.448   3.234   0.827
 3074SOL    HW210122   4.462   3.126   0.705
 3075SOL     OW10123   1.880   6.215   1.604
 3075SOL    HW110124   1.780   6.223   1.609
 3075SOL    HW210125   1.906   6.173   1.517
 3076SOL     OW10126   6.515   0.701   4.942
 3076SOL    HW110127   6.570   0.759   5.002
 3076SOL    HW210128   6.492   0.752   4.859
 3077SOL     OW10129   6.135   4.546   4.251
 3077SOL    HW110130   6.091   4.634   4.232
 3077SOL    HW210131   6.080   4.494   4.315
 3078SOL     OW10132   1.962   3.767   2.001
 3078SOL    HW110133   2.040   3.810   1.956
 3078SOL    HW210134   1.971   3.667   1.995
 3079SOL     OW10135   0.982   2.752   4.739
 3079SOL    HW110136   0.898   2.740   4.793
 3079SOL    HW210137   1.046   2.810   4.790
 3080SOL     OW10138   5.958   4.774   0.830
 3080SOL    HW110139   6.009   4.690   0.850
 3080SOL    HW210140   5.889   4.788   0.901
 3081SOL     OW10141   0.667   4.197   6.036
 3081SOL    HW110142   0.600   4.122   6.031
 3081SOL    HW210143   0.621   4.284   6.019
 3082SOL     OW10144   3.956   6.972   2.970
 3082SOL    HW110145   3.999   0.031   2.931
 3082SOL    HW210146   3.898   6.929   2.901
 3083SOL     OW10147   3.287   0.529   2.125
 3083SOL    HW110148   3.356   0.578   2.073
 3083SOL    HW210149   3.200   0.532   2.076
 3084SOL     OW10150   4.860   5.195   3.889
 3084SOL    HW110151   4.867   5.129   3.813
 3084SOL    HW210152   4.926   5.170   3.960
 3085SOL     OW10153   6.758   5.491   2.725
 3085SOL    HW110154   6.715   5.582   2.725
 3085SOL    HW210155   6.688   5.421   2.739
 3086SOL     OW10156   4.396   0.794   2.073
 3086SOL    HW110157   4.377   0.881   2.118
 3086SOL    HW210158   4.338   0.723   2.114
 3087SOL     OW10159   6.199   3.769   2.858
 3087SOL    HW110160   6.231   3.678   2.881
 3087SOL    HW210161   6.130   3.763   2.786
 3088SOL     OW10162   2.230   4.605   5.333
 3088SOL    HW110163   2.235   4.511   5.367
 3088SOL    HW210164   2.220   4.604   5.233
 3089SOL     OW10165   0.960   2.523   6.965
 3089SOL    HW110166   1.021   2.527   0.021
 3089SOL    HW210167   0.906   2.607   6.959
 3090SOL     OW10168   2.294   1.851   1.614
 3090SOL    HW110169   2.295   1.903   1.529
 3090SOL    HW210170   2.368   1.785   1.614
 3091SOL     OW10171   2.467   0.246   0.306
 3091SOL    HW110172   2.466   0.151   0.340
 3091SOL    HW210173   2.415   0.252   0.222
 3092SOL     OW10174   5.807   6.765   0.253
 3092SOL    HW110175   5.764   6.760   0.163
 3092SOL    HW210176   5.883   6.829   0.251
 3093SOL     OW10177   6.073   5.280   5.196
 3093SOL    HW110178   6.098   5.334   5.276
 3093SOL    HW210179   6.117   5.190   5.202
 3094SOL     OW10180   2.986   5.460   5.211
 3094SOL    HW110181   2.994   5.463   5.310
 3094SOL    HW210182   2.983   5.364   5.180
 3095SOL     OW10183   2.325   4.261   4.308
 3095SOL    HW110184   2.264   4.339   4.293
 3095SOL    HW210185   2.395   4.286   4.375
 3096SOL     OW10186   6.690   0.133   4.844
 3096SOL    HW110187   6.682   0.220   4.893
 3096SOL    HW210188   6.785   0.119   4.815
 3097SOL     OW10189   0.529   3.136   0.690
 3097SOL    HW110190   0.577   3.116   0.605
 3097SOL    HW210191   0.576   3.209   0.739
 3098SOL     OW10192   2.468   3.649   0.965
 3098SOL    HW110193   2.566   3.638   0.980
 3098SOL    HW210194   2.442   3.744   0.983
 3099SOL     OW10195   0.277   5.881   4.941
 3099SOL    HW110196   0.184   5.863   4.974
 3099SOL    HW210197   0.337   5.898   5.018
 3100SOL     OW10198   6.607   6.353   5.505
 3100SOL    HW110199   6.612   6.325   5.601
 3100SOL    HW210200   6.625   6.274   5.447
 3101SOL     OW10201   4.833   6.092   5.779
 3101SOL    HW110202   4.752   6.036   5.794
 3101SOL    HW210203   4.811   6.189   5.795
 3102SOL     OW10204   1.493   4.163   1.295
 3102SOL    HW110205   1.502   4.112   1.381
 3102SOL    HW210206   1.517   4.259   1.310
 3103SOL     OW10207   3.700   2.475   0.764
 3103SOL    HW110208   3.796   2.501   0.764
 3103SOL    HW210209   3.681   2.416   0.843
 3104SOL     OW10210   5.323   6.272   4.264
 3104SOL    HW110211   5.356   6.241   4.175
 3104SOL    HW210212   5.225   6.292   4.258
 3105SOL     OW10213   5.978   6.064   3.132
 3105SOL    HW110214   5.888   6.096   3.103
 3105SOL    HW210215   5.974   5.966   3.154
 3106SOL     OW10216   6.248   2.442   2.612
 3106SOL    HW110217   6.240   2.491   2.526
 3106SOL    HW210218   6.158   2.414   2.644
 3107SOL     OW10219   3.314   0.885   3.863
 3107SOL    HW110220   3.320   0.786   3.862
 3107SOL    HW210221   3.219   0.913   3.844
 3108SOL     OW10222   2.228   0.591   4.359
 3108SOL    HW110223   2.243   0.677   4.309
 3108SOL    HW210224   2.226   0.515   4.294
 3109SOL     OW10225   5.216   5.983   2.628
 3109SOL    HW110226   5.259   5.980   2.537
 3109SOL    HW210227   5.191   5.890   2.655
 3110SOL     OW10228   0.153   3.117   3.441
 3110SOL    HW110229   0.238   3.073   3.471
 3110SOL    HW210230   0.080   3.048   3.438
 3111SOL     OW10231   6.424   5.020   3.768
 3111SOL    HW110232   6.423   5.110   3.724
 3111SOL    HW210233   6.380   4.953   3.708
 3112SOL     OW10234   4.434   3.390   6.089
 3112SOL    HW110235   4.397   3.480   6.110
 3112SOL    HW210236   4.387   3.353   6.008
 3113SOL     OW10237   2.385   6.693   4.164
 3113SOL    HW110238   2.397   6.690   4.263
 3113SOL    HW210239   2.288   6.680   4.142
 3114SOL     OW10240   4.800   4.112   6.571
 3114SOL    HW110241   4.821   4.068   6.658
 3114SOL    HW210242   4.736   4.188   6.585
 3115SOL     OW10243   3.389   3.983   0.693
 3115SOL    HW110244   3.456   4.052   0.665
 3115SOL    HW210245   3.346   4.012   0.778
 3116SOL     OW10246   6.070   2.437   6.339
 3116SOL    HW110247   5.997   2.485   6.291
 3116SOL    HW210248   6.038   2.347   6.369
 3117SOL     OW10249   4.262   3.545   5.717
 3117SOL    HW110250   4.247   3.532   5.815
 3117SOL    HW210251   4.316   3.469   5.682
 3118SOL     OW10252   6.727   4.838   0.171
 3118SOL    HW110253   6.813   4.875   0.204
 3118SOL    HW210254   6.687   4.900   0.103
 3119SOL     OW10255   1.666   4.375   5.360
 3119SOL    HW110256   1.740   4.439   5.340
 3119SOL    HW210257   1.694   4.313   5.433
 3120SOL     OW10258   2.131   5.515   4.627
 3120SOL    HW110259   2.040   5.507   4.668
 3120SOL    HW210260   2.176   5.425   4.628
 3121SOL     OW10261   0.078   1.420   2.367
 3121SOL    HW110262   0.067   1.491   2.436
 3121SOL    HW210263   7.021   1.420   2.306
 3122SOL     OW10264   2.676   5.278   6.349
 3122SOL    HW110265   2.669   5.181   6.325
 3122SOL    HW210266   2.638   5.292   6.441
 3123SOL     OW10267   3.398   6.545   4.006
 3123SOL    HW110268   3.309   6.513   3.971
 3123SOL    HW210269   3.400   6.645   4.005
 3124SOL     OW10270   4.717   0.468   5.221
 3124SOL    HW110271   4.656   0.546   5.212
 3124SOL    HW210272   4.716   0.415   5.136
 3125SOL     OW10273   6.502   1.784   5.628
 3125SOL    HW110274   6.456   1.825   5.549
 3125SOL    HW210275   6.454   1.812   5.712
 3126SOL     OW10276   4.816   4.931   5.936
 3126SOL    HW110277   4.853   4.840   5.915
 3126SOL    HW210278   4.743   4.922   6.004
 3127SOL     OW10279   1.508   1.716   4.045
 3127SOL    HW110280   1.491   1.686   3.951
 3127SOL    HW210281   1.604   1.700   4.068
 3128SOL     OW10282   2.235   1.206   0.464
 3128SOL    HW110283   2.223   1.118   0.417
 3128SOL    HW210284   2.255   1.189   0.561
 3129SOL     OW10285   0.128   4.527   5.054
 3129SOL    HW110286   0.150   4.475   5.137
 3129SOL    HW210287   0.032   4.514   5.031
 3130SOL     OW10288   2.316   4.671   2.553
 3130SOL    HW110289   2.350   4.582   2.582
 3130SOL    HW210290   2.232   4.693   2.603
 3131SOL     OW10291   0.189   3.687   2.807
 3131SOL    HW110292   0.107   3.630   2.798
 3131SOL    HW210293   0.166   3.781   2.783
 3132SOL     OW10294   5.411   6.106   6.109
 3132SOL    HW110295   5.449   6.043   6.177
 3132SOL    HW210296   5.386   6.054   6.027
 3133SOL     OW10297   2.231   1.483   3.856
 3133SOL    HW110298   2.252   1.524   3.944
 3133SOL    HW210299   2.205   1.387   3.869
 3134SOL     OW10300   4.961   2.853   1.593
 3134SOL    HW110301   5.033   2.923   1.586
 3134SOL    HW210302   5.001   2.768   1.628
 3135SOL     OW10303   4.222   1.963   3.822
 3135SOL    HW110304   4.248   1.962   3.725
 3135SOL    HW210305   4.171   1.879   3.843
 3136SOL     OW10306   5.944   5.516   6.092
 3136SOL    HW110307   5.935   5.417   6.088
 3136SOL    HW210308   6.037   5.541   6.118
 3137SOL     OW10309   5.295   2.273   4.173
 3137SOL    HW110310   5.340   2.363   4.174
 3137SOL    HW210311   5.214   2.278   4.114
 3138SOL     OW10312   6.369   1.709   4.531
 3138SOL    HW110313   6.442   1.651   4.494
 3138SOL    HW210314   6.303   1.653   4.581
 3139SOL     OW10315   5.018   6.039   5.559
 3139SOL    HW110316   4.951   6.063   5.629
 3139SOL    HW210317   5.008   6.100   5.480
 3140SOL     OW10318   6.573   6.600   6.633
 3140SOL    HW110319   6.521   6.524   6.593
 3140SOL    HW210320   6.510   6.669   6.668
 3141SOL     OW10321   0.966   6.298   0.450
 3141SOL    HW110322   1.063   6.299   0.475
 3141SOL    HW210323   0.940   6.206   0.420
 3142SOL     OW10324   5.021   6.435   6.985
 3142SOL    HW110325   4.935   6.385   6.998
 3142SOL    HW210326   5.097   6.376   7.011
 3143SOL     OW10327   7.016   2.357   6.352
 3143SOL    HW110328   0.086   2.391   6.337
 3143SOL    HW210329   6.994   2.289   6.282
 3144SOL     OW10330   1.890   3.712   0.151
 3144SOL    HW110331   1.981   3.676   0.170
 3144SOL    HW210332   1.898   3.794   0.095
 3145SOL     OW10333   2.875   5.534   2.879
 3145SOL    HW110334   2.916   5.513   2.967
 3145SOL    HW210335   2.781   5.500   2.876
 3146SOL     OW10336   1.612   0.457   3.230
 3146SOL    HW110337   1.648   0.526   3.167
 3146SOL    HW210338   1.537   0.496   3.284
 3147SOL     OW10339   4.435   4.088   0.529
 3147SOL    HW110340   4.458   4.165   0.589
 3147SOL    HW210341   4.342   4.101   0.494
 3148SOL     OW10342   4.169   5.238   4.030
 3148SOL    HW110343   4.076   5.226   4.065
 3148SOL    HW210344   4.168   5.236   3.930
 3149SOL     OW10345   2.993   0.490   5.745
 3149SOL    HW110346   2.980   0.480   5.647
 3149SOL    HW210347   3.087   0.518   5.764
 3150SOL     OW10348   5.529   6.838   4.820
 3150SOL    HW110349   5.501   6.915   4.763
 3150SOL    HW210350   5.532   6.755   4.763
 3151SOL     OW10351   4.773   1.599   6.482
 3151SOL    HW110352   4.776   1.529   6.411
 3151SOL    HW210353   4.816   1.683   6.449
 3152SOL     OW10354   0.618   5.806   1.261
 3152SOL    HW110355   0.532   5.792   1.310
 3152SOL    HW210356   0.693   5.812   1.328
 3153SOL     OW10357   6.122   4.142   1.842
 3153SOL    HW110358   6.181   4.152   1.922
 3153SOL    HW210359   6.084   4.049   1.840
 3154SOL     OW10360   6.163   2.616   5.668
 3154SOL    HW110361   6.226   2.662   5.730
 3154SOL    HW210362   6.188   2.637   5.573
 3155SOL     OW10363   6.035   5.396   0.888
 3155SOL    HW110364   5.973   5.333   0.936
 3155SOL    HW210365   6.004   5.408   0.793
 3156SOL     OW10366   3.462   3.840   3.338
 3156SOL    HW110367   3.523   3.817   3.263
 3156SOL    HW210368   3.372   3.863   3.303
 3157SOL     OW10369   1.972   3.764   4.644
 3157SOL    HW110370   1.961   3.737   4.549
 3157SOL    HW210371   1.984   3.683   4.701
 3158SOL     OW10372   4.967   6.452   1.579
 3158SOL    HW110373   4.870   6.459   1.556
 3158SOL    HW210374   5.018   6.523   1.530
 3159SOL     OW10375   4.649   5.731   6.838
 3159SOL    HW110376   4.641   5.655   6.772
 3159SOL    HW210377   4.605   5.812   6.800
 3160SOL     OW10378   4.930   3.909   6.186
 3160SOL    HW110379   4.852   3.964   6.216
 3160SOL    HW210380   4.957   3.846   6.258
 3161SOL     OW10381   1.528   0.646   2.794
 3161SOL    HW110382   1.465   0.593   2.737
 3161SOL    HW210383   1.577   0.585   2.856
 3162SOL     OW10384   0.380   5.243   6.440
 3162SOL    HW110385   0.347   5.337   6.456
 3162SOL    HW210386   0.385   5.194   6.527
 3163SOL     OW10387   3.830   3.098   6.595
 3163SOL    HW110388   3.837   3.099   6.695
 3163SOL    HW210389   3.737   3.122   6.567
 3164SOL     OW10390   4.961   4.083   0.463
 3164SOL    HW110391   4.928   4.159   0.519
 3164SOL    HW210392   4.915   3.999   0.491
 3165SOL     OW10393   0.960   0.491   2.055
 3165SOL    HW110394   0.874   0.489   2.106
 3165SOL    HW210395   1.028   0.543   2.106
 3166SOL     OW10396   4.434   3.664   6.215
 3166SOL    HW110397   4.453   3.654   6.313
 3166SOL    HW210398   4.356   3.725   6.202
 3167SOL     OW10399   0.348   4.413   1.405
 3167SOL    HW110400   0.444   4.389   1.399
 3167SOL    HW210401   0.326   4.481   1.334
 3168SOL     OW10402   5.525   2.982   0.470
 3168SOL    HW110403   5.451   3.028   0.420
 3168SOL    HW210404   5.569   3.048   0.531
 3169SOL     OW10405   1.130   2.403   4.992
 3169SOL    HW110406   1.206   2.427   5.052
 3169SOL    HW210407   1.094   2.313   5.018
 3170SOL     OW10408   4.362   0.736   6.583
 3170SOL    HW110409   4.445   0.749   6.637
 3170SOL    HW210410   4.356   0.806   6.512
 3171SOL     OW10411   6.359   6.845   2.552
 3171SOL    HW110412   6.341   6.812   2.644
 3171SOL    HW210413   6.374   6.767   2.491
 3172SOL     OW10414   5.948   6.653   5.356
 3172SOL    HW110415   5.960   6.609   5.267
 3172SOL    HW210416   6.028   6.634   5.413
 3173SOL     OW10417   2.073   0.532   1.817
 3173SOL    HW110418   2.054   0.479   1.734
 3173SOL    HW210419   2.145   0.488   1.870
 3174SOL     OW10420   2.932   2.883   6.282
 3174SOL    HW110421   3.027   2.904   6.306
 3174SOL    HW210422   2.878   2.873   6.366
 3175SOL     OW10423   1.235   6.270   0.470
 3175SOL    HW110424   1.210   6.349   0.414
 3175SOL    HW210425   1.328   6.280   0.503
 3176SOL     OW10426   1.749   3.843   6.749
 3176SOL    HW110427   1.743   3.902   6.829
 3176SOL    HW210428   1.796   3.892   6.676
 3177SOL     OW10429   5.433   5.473   6.116
 3177SOL    HW110430   5.526   5.495   6.085
 3177SOL    HW210431   5.418   5.512   6.207
 3178SOL     OW10432   0.551   4.457   1.667
 3178SOL    HW110433   0.555   4.408   1.580
 3178SOL    HW210434   0.516   4.396   1.738
 3179SOL     OW10435   1.524   1.901   2.262
 3179SOL    HW110436   1.609   1.919   2.313
 3179SOL    HW210437   1.546   1.878   2.167
 3180SOL     OW10438   5.666   0.164   5.598
 3180SOL    HW110439   5.660   0.136   5.502
 3180SOL    HW210440   5.696   0.086   5.653
 3181SOL     OW10441   0.926   0.330   3.709
 3181SOL    HW110442   0.974   0.347   3.795
 3181SOL    HW210443   0.955   0.397   3.641
 3182SOL     OW10444   0.852   5.752   5.406
 3182SOL    HW110445   0.933   5.716   5.359
 3182SOL    HW210446   0.790   5.677   5.427
 3183SOL     OW10447   4.459   4.429   1.146
 3183SOL    HW110448   4.479   4.520   1.183
 3183SOL    HW210449   4.504   4.360   1.202
 3184SOL     OW10450   2.696   2.004   2.377
 3184SOL    HW110451   2.732   1.934   2.315
 3184SOL    HW210452   2.732   1.988   2.469
 3185SOL     OW10453   6.639   6.882   5.523
 3185SOL    HW110454   6.722   6.936   5.539
 3185SOL    HW210455   6.663   6.785   5.518
 3186SOL     OW10456   3.348   1.235   2.660
 3186SOL    HW110457   3.407   1.316   2.657
 3186SOL    HW210458   3.255   1.261   2.632
 3187SOL     OW10459   3.456   4.979   0.325
 3187SOL    HW110460   3.357   4.985   0.329
 3187SOL    HW210461   3.484   4.883   0.333
 3188SOL     OW10462   3.869   6.058   3.726
 3188SOL    HW110463   3.897   6.022   3.815
 3188SOL    HW210464   3.900   5.997   3.653
 3189SOL     OW10465   1.941   6.923   3.412
 3189SOL    HW110466   2.039   6.935   3.427
 3189SOL    HW210467   1.910   6.989   3.344
 3190SOL     OW10468   1.895   6.212   2.683
 3190SOL    HW110469   1.947   6.203   2.598
 3190SOL    HW210470   1.954   6.252   2.754
 3191SOL     OW10471   3.826   0.538   0.742
 3191SOL    HW110472   3.729   0.529   0.763
 3191SOL    HW210473   3.872   0.588   0.815
 3192SOL     OW10474   0.268   2.789   2.186
 3192SOL    HW110475   0.275   2.887   2.206
 3192SOL    HW210476   0.339   2.740   2.236
 3193SOL     OW10477   4.331   2.586   5.587
 3193SOL    HW110478   4.299   2.669   5.633
 3193SOL    HW210479   4.431   2.588   5.582
 3194SOL     OW10480   1.146   2.996   5.897
 3194SOL    HW110481   1.048   2.985   5.917
 3194SOL    HW210482   1.189   2.906   5.893
 3195SOL     OW10483   0.789   2.764   3.677
 3195SOL    HW110484   0.792   2.667   3.654
 3195SOL    HW210485   0.708   2.783   3.733
 3196SOL     OW10486   6.990   6.869   5.279
 3196SOL    HW110487   6.966   6.875   5.182
 3196SOL    HW210488   0.062   6.898   5.291
 3197SOL     OW10489   1.251   4.355   3.798
 3197SOL    HW110490   1.163   4.372   3.844
 3197SOL    HW210491   1.253   4.260   3.765
 3198SOL     OW10492   0.512   2.403   5.941
 3198SOL    HW110493   0.602   2.412   5.984
 3198SOL    HW210494   0.524   2.394   5.842
 3199SOL     OW10495   4.535   1.994   2.198
 3199SOL    HW110496   4.533   2.091   2.171
 3199SOL    HW210497   4.629   1.962   2.199
 3200SOL     OW10498   6.616   2.338   6.991
 3200SOL    HW110499   6.613   2.361   6.894
 3200SOL    HW210500   6.554   2.262   7.010
 3201SOL     OW10501   5.015   4.599   4.027
 3201SOL    HW110502   4.932   4.546   4.009
 3201SOL    HW210503   5.054   4.570   4.114
 3202SOL     OW10504   1.877   5.069   2.238
 3202SOL    HW110505   1.830   5.011   2.171
 3202SOL    HW210506   1.904   5.013   2.317
 3203SOL     OW10507   6.796   0.584   0.775
 3203SOL    HW110508   6.855   0.504   0.770
 3203SOL    HW210509   6.707   0.557   0.814
 3204SOL     OW10510   6.998   5.696   1.619
 3204SOL    HW110511   0.012   5.714   1.710
 3204SOL    HW210512   0.039   5.637   1.569
 3205SOL     OW10513   0.460   3.710   4.531
 3205SOL    HW110514   0.531   3.684   4.597
 3205SOL    HW210515   0.390   3.639   4.529
 3206SOL     OW10516   0.774   6.636   6.088
 3206SOL    HW110517   0.860   6.654   6.136
 3206SOL    HW210518   0.794   6.600   5.997
 3207SOL     OW10519   0.543   0.903   5.099
 3207SOL    HW110520   0.545   0.910   4.999
 3207SOL    HW210521   0.549   0.807   5.126
 3208SOL     OW10522   4.855   6.363   4.885
 3208SOL    HW110523   4.913   6.295   4.930
 3208SOL    HW210524   4.764   6.360   4.925
 3209SOL     OW10525   2.452   0.530   4.052
 3209SOL    HW110526   2.495   0.443   4.077
 3209SOL    HW210527   2.356   0.529   4.081
 3210SOL     OW10528   6.623   4.548   2.417
 3210SOL    HW110529   6.708   4.541   2.366
 3210SOL    HW210530   6.633   4.614   2.491
 3211SOL     OW10531   1.664   4.709   1.853
 3211SOL    HW110532   1.691   4.776   1.922
 3211SOL    HW210533   1.667   4.618   1.893
 3212SOL     OW10534   5.646   2.076   6.915
 3212SOL    HW110535   5.698   2.015   6.855
 3212SOL    HW210536   5.628   2.162   6.866
 3213SOL     OW10537   5.930   6.018   2.065
 3213SOL    HW110538   5.889   6.028   2.156
 3213SOL    HW210539   5.930   6.107   2.019
 3214SOL     OW10540   3.741   5.476   6.533
 3214SOL    HW110541   3.841   5.482   6.523
 3214SOL    HW210542   3.704   5.568   6.545
 3215SOL     OW10543   5.713   1.840   6.758
 3215SOL    HW110544   5.778   1.783   6.808
 3215SOL    HW210545   5.668   1.785   6.687
 3216SOL     OW10546   5.789   6.850   3.105
 3216SOL    HW110547   5.760   6.838   3.200
 3216SOL    HW210548   5.828   6.941   3.093
 3217SOL     OW10549   6.846   4.366   1.811
 3217SOL    HW110550   6.944   4.383   1.815
 3217SOL    HW210551   6.803   4.396   1.896
 3218SOL     OW10552   3.706   1.139   3.812
 3218SOL    HW110553   3.632   1.114   3.874
 3218SOL    HW210554   3.686   1.105   3.720
 3219SOL     OW10555   6.684   0.962   3.559
 3219SOL    HW110556   6.669   1.055   3.526
 3219SOL    HW210557   6.779   0.935   3.539
 3220SOL     OW10558   6.754   4.526   5.515
 3220SOL    HW110559   6.773   4.603   5.576
 3220SOL    HW210560   6.804   4.537   5.430
 3221SOL     OW10561   2.863   6.751   3.569
 3221SOL    HW110562   2.824   6.731   3.479
 3221SOL    HW210563   2.927   6.828   3.561
 3222SOL     OW10564   5.996   2.537   3.011
 3222SOL    HW110565   5.917   2.592   2.984
 3222SOL    HW210566   5.965   2.464   3.073
 3223SOL     OW10567   1.933   4.737   5.690
 3223SOL    HW110568   2.007   4.681   5.726
 3223SOL    HW210569   1.868   4.758   5.763
 3224SOL     OW10570   4.305   4.866   0.496
 3224SOL    HW110571   4.217   4.843   0.455
 3224SOL    HW210572   4.337   4.790   0.552
 3225SOL     OW10573   2.394   3.605   0.327
 3225SOL    HW110574   2.421   3.599   0.423
 3225SOL    HW210575   2.476   3.615   0.271
 3226SOL     OW10576   1.065   0.711   3.943
 3226SOL    HW110577   1.052   0.635   3.879
 3226SOL    HW210578   1.149   0.760   3.920
 3227SOL     OW10579   3.420   1.313   5.590
 3227SOL    HW110580   3.412   1.314   5.689
 3227SOL    HW210581   3.490   1.379   5.561
 3228SOL     OW10582   5.746   4.064   4.252
 3228SOL    HW110583   5.736   4.050   4.153
 3228SOL    HW210584   5.844   4.063   4.275
 3229SOL     OW10585   4.060   1.516   5.482
 3229SOL    HW110586   4.066   1.580   5.558
 3229SOL    HW210587   4.025   1.563   5.401
 3230SOL     OW10588   1.318   0.132   3.911
 3230SOL    HW110589   1.406   0.179   3.911
 3230SOL    HW210590   1.299   0.096   3.820
 3231SOL     OW10591   5.624   6.028   0.848
 3231SOL    HW110592   5.629   5.935   0.884
 3231SOL    HW210593   5.711   6.050   0.804
 3232SOL     OW10594   2.598   4.770   4.095
 3232SOL    HW110595   2.549   4.753   4.010
 3232SOL    HW210596   2.653   4.853   4.086
 3233SOL     OW10597   0.810   4.020   1.569
 3233SOL    HW110598   0.879   3.947   1.570
 3233SOL    HW210599   0.853   4.106   1.595
 3234SOL     OW10600   0.593   1.908   5.834
 3234SOL    HW110601   0.594   2.001   5.797
 3234SOL    HW210602   0.545   1.907   5.922
 3235SOL     OW10603   5.360   6.727   2.849
 3235SOL    HW110604   5.460   6.738   2.845
 3235SOL    HW210605   5.335   6.636   2.818
 3236SOL     OW10606   0.435   2.992   1.994
 3236SOL    HW110607   0.524   2.968   2.033
 3236SOL    HW210608   0.381   3.040   2.062
 3237SOL     OW10609   3.043   0.097   4.397
 3237SOL    HW110610   3.100   0.179   4.398
 3237SOL    HW210611   3.098   0.017   4.372
 3238SOL     OW10612   0.189   6.062   6.188
 3238SOL    HW110613   0.197   6.147   6.240
 3238SOL    HW210614   0.279   6.034   6.155
 3239SOL     OW10615   6.172   6.909   5.512
 3239SOL    HW110616   6.186   6.814   5.485
 3239SOL    HW210617   6.081   6.919   5.551
 3240SOL     OW10618   1.672   0.445   4.390
 3240SOL    HW110619   1.724   0.427   4.306
 3240SOL    HW210620   1.611   0.369   4.409
 3241SOL     OW10621   5.135   0.874   3.593
 3241SOL    HW110622   5.081   0.823   3.526
 3241SOL    HW210623   5.214   0.915   3.547
 3242SOL     OW10624   3.864   6.955   0.155
 3242SOL    HW110625   3.860   6.869   0.206
 3242SOL    HW210626   3.773   6.995   0.151
 3243SOL     OW10627   3.834   5.041   0.713
 3243SOL    HW110628   3.770   5.042   0.636
 3243SOL    HW210629   3.804   5.107   0.781
 3244SOL     OW10630   3.151   6.198   6.535
 3244SOL    HW110631   3.136   6.126   6.467
 3244SOL    HW210632   3.096   6.178   6.616
 3245SOL     OW10633   3.591   2.288   6.598
 3245SOL    HW110634   3.538   2.253   6.675
 3245SOL    HW210635   3.684   2.310   6.628
 3246SOL     OW10636   5.488   6.316   2.986
 3246SOL    HW110637   5.435   6.241   2.946
 3246SOL    HW210638   5.576   6.322   2.940
 3247SOL     OW10639   1.046   2.418   4.318
 3247SOL    HW110640   0.959   2.370   4.305
 3247SOL    HW210641   1.051   2.454   4.411
 3248SOL     OW10642   6.407   3.220   2.121
 3248SOL    HW110643   6.381   3.193   2.028
 3248SOL    HW210644   6.356   3.302   2.147
 3249SOL     OW10645   1.953   4.367   5.067
 3249SOL    HW110646   1.977   4.341   5.160
 3249SOL    HW210647   1.948   4.286   5.009
 3250SOL     OW10648   4.971   6.682   2.212
 3250SOL    HW110649   4.943   6.712   2.120
 3250SOL    HW210650   4.889   6.662   2.267
 3251SOL     OW10651   3.496   1.095   3.165
 3251SOL    HW110652   3.572   1.131   3.220
 3251SOL    HW210653   3.532   1.056   3.080
 3252SOL     OW10654   2.886   1.499   2.289
 3252SOL    HW110655   2.894   1.543   2.199
 3252SOL    HW210656   2.976   1.497   2.332
 3253SOL     OW10657   5.223   3.083   0.988
 3253SOL    HW110658   5.304   3.082   0.929
 3253SOL    HW210659   5.165   3.005   0.967
 3254SOL     OW10660   5.054   4.022   2.935
 3254SOL    HW110661   5.041   4.036   3.034
 3254SOL    HW210662   5.151   4.017   2.915
 3255SOL     OW10663   4.390   5.315   0.383
 3255SOL    HW110664   4.396   5.294   0.481
 3255SOL    HW210665   4.304   5.281   0.346
 3256SOL     OW10666   5.859   6.318   5.523
 3256SOL    HW110667   5.807   6.232   5.522
 3256SOL    HW210668   5.856   6.359   5.432
 3257SOL     OW10669   1.633   2.764   0.984
 3257SOL    HW110670   1.687   2.746   0.902
 3257SOL    HW210671   1.693   2.772   1.063
 3258SOL     OW10672   5.536   6.734   2.038
 3258SOL    HW110673   5.497   6.675   1.967
 3258SOL    HW210674   5.524   6.691   2.128
 3259SOL     OW10675   4.312   6.901   4.083
 3259SOL    HW110676   4.303   6.804   4.061
 3259SOL    HW210677   4.337   6.952   4.000
 3260SOL     OW10678   1.689   2.354   0.300
 3260SOL    HW110679   1.712   2.257   0.303
 3260SOL    HW210680   1.605   2.370   0.352
 3261SOL     OW10681   4.155   6.989   1.672
 3261SOL    HW110682   4.169   7.013   1.576
 3261SOL    HW210683   4.175   0.045   1.730
 3262SOL     OW10684   4.109   1.650   3.136
 3262SOL    HW110685   4.023   1.612   3.101
 3262SOL    HW210686   4.120   1.743   3.101
 3263SOL     OW10687   3.853   6.769   1.326
 3263SOL    HW110688   3.944   6.749   1.363
 3263SOL    HW210689   3.786   6.768   1.401
 3264SOL     OW10690   5.449   5.025   6.576
 3264SOL    HW110691   5.431   4.968   6.496
 3264SOL    HW210692   5.391   5.107   6.573
 3265SOL     OW10693   4.783   0.699   6.278
 3265SOL    HW110694   4.727   0.676   6.199
 3265SOL    HW210695   4.732   0.760   6.338
 3266SOL     OW10696   1.198   1.707   6.557
 3266SOL    HW110697   1.297   1.707   6.547
 3266SOL    HW210698   1.160   1.621   6.521
 3267SOL     OW10699   3.300   2.608   0.965
 3267SOL    HW110700   3.257   2.676   1.024
 3267SOL    HW210701   3.234   2.536   0.943
 3268SOL     OW10702   0.861   4.348   6.335
 3268SOL    HW110703   0.934   4.390   6.389
 3268SOL    HW210704   0.901   4.295   6.261
 3269SOL     OW10705   4.022   3.783   1.280
 3269SOL    HW110706   3.982   3.875   1.276
 3269SOL    HW210707   3.995   3.731   1.198
 3270SOL     OW10708   1.012   6.118   4.497
 3270SOL    HW110709   1.092   6.063   4.472
 3270SOL    HW210710   1.042   6.209   4.527
 3271SOL     OW10711   6.034   1.852   1.173
 3271SOL    HW110712   6.048   1.946   1.141
 3271SOL    HW210713   6.121   1.815   1.206
 3272SOL     OW10714   5.010   0.176   0.193
 3272SOL    HW110715   5.069   0.200   0.270
 3272SOL    HW210716   4.933   0.122   0.226
 3273SOL     OW10717   0.035   6.631   2.629
 3273SOL    HW110718   0.007   6.667   2.718
 3273SOL    HW210719   6.993   6.662   2.559
 3274SOL     OW10720   2.881   1.990   5.929
 3274SOL    HW110721   2.800   2.042   5.903
 3274SOL    HW210722   2.882   1.903   5.880
 3275SOL     OW10723   2.821   1.199   6.194
 3275SOL    HW110724   2.903   1.143   6.183
 3275SOL    HW210725   2.745   1.142   6.226
 3276SOL     OW10726   3.243   6.499   0.204
 3276SOL    HW110727   3.290   6.536   0.284
 3276SOL    HW210728   3.286   6.533   0.121
 3277SOL     OW10729   0.246   6.386   5.189
 3277SOL    HW110730   0.308   6.406   5.113
 3277SOL    HW210731   0.271   6.299   5.231
 3278SOL     OW10732   1.285   0.630   6.200
 3278SOL    HW110733   1.210   0.564   6.201
 3278SOL    HW210734   1.293   0.669   6.108
 3279SOL     OW10735   1.498   7.015   1.220
 3279SOL    HW110736   1.426   0.031   1.277
 3279SOL    HW210737   1.557   0.066   1.187
 3280SOL     OW10738   2.073   4.203   6.274
 3280SOL    HW110739   2.096   4.238   6.184
 3280SOL    HW210740   2.153   4.208   6.334
 3281SOL     OW10741   2.485   5.504   0.824
 3281SOL    HW110742   2.492   5.545   0.733
 3281SOL    HW210743   2.396   5.527   0.863
 3282SOL     OW10744   1.979   5.183   2.956
 3282SOL    HW110745   2.001   5.269   3.002
 3282SOL    HW210746   1.918   5.128   3.014
 3283SOL     OW10747   2.162   0.693   3.493
 3283SOL    HW110748   2.085   0.640   3.457
 3283SOL    HW210749   2.248   0.654   3.460
 3284SOL     OW10750   6.764   4.027   6.811
 3284SOL    HW110751   6.780   3.934   6.843
 3284SOL    HW210752   6.750   4.025   6.711
 3285SOL     OW10753   0.818   1.368   3.813
 3285SOL    HW110754   0.788   1.273   3.810
 3285SOL    HW210755   0.794   1.407   3.902
 3286SOL     OW10756   3.464   3.600   5.074
 3286SOL    HW110757   3.517   3.683   5.090
 3286SOL    HW210758   3.370   3.613   5.104
 3287SOL     OW10759   1.271   5.477   1.025
 3287SOL    HW110760   1.350   5.466   0.965
 3287SOL    HW210761   1.289   5.431   1.112
 3288SOL     OW10762   0.075   6.281   6.449
 3288SOL    HW110763   0.031   6.363   6.412
 3288SOL    HW210764   0.008   6.227   6.499
 3289SOL     OW10765   1.839   6.002   4.379
 3289SOL    HW110766   1.858   6.076   4.444
 3289SOL    HW210767   1.806   5.922   4.428
 3290SOL     OW10768   6.694   5.050   1.438
 3290SOL    HW110769   6.661   4.983   1.372
 3290SOL    HW210770   6.756   5.005   1.502
 3291SOL     OW10771   2.090   6.260   0.909
 3291SOL    HW110772   2.095   6.182   0.848
 3291SOL    HW210773   2.178   6.271   0.957
 3292SOL     OW10774   0.420   6.248   6.244
 3292SOL    HW110775   0.397   6.316   6.174
 3292SOL    HW210776   0.390   6.282   6.333
 3293SOL     OW10777   0.208   1.175   2.523
 3293SOL    HW110778   0.201   1.275   2.530
 3293SOL    HW210779   0.183   1.146   2.431
 3294SOL     OW10780   0.922   1.011   0.622
 3294SOL    HW110781   0.986   1.087   0.612
 3294SOL    HW210782   0.866   1.003   0.539
 3295SOL     OW10783   1.192   2.758   6.972
 3295SOL    HW110784   1.166   2.722   0.039
 3295SOL    HW210785   1.116   2.746   6.908
 3296SOL     OW10786   1.308   6.665   2.591
 3296SOL    HW110787   1.350   6.752   2.565
 3296SOL    HW210788   1.340   6.639   2.682
 3297SOL     OW10789   3.241   2.319   6.667
 3297SOL    HW110790   3.312   2.317   6.738
 3297SOL    HW210791   3.252   2.241   6.607
 3298SOL     OW10792   6.340   3.519   2.918
 3298SOL    HW110793   6.425   3.494   2.965
 3298SOL    HW210794   6.328   3.460   2.838
 3299SOL     OW10795   1.938   6.508   5.534
 3299SOL    HW110796   1.905   6.434   5.593
 3299SOL    HW210797   2.000   6.471   5.466
 3300SOL     OW10798   6.704   6.923   5.228
 3300SOL    HW110799   6.756   6.937   5.313
 3300SOL    HW210800   6.764   6.940   5.150
 3301SOL     OW10801   0.618   3.807   3.410
 3301SOL    HW110802   0.684   3.800   3.335
 3301SOL    HW210803   0.651   3.754   3.488
 3302SOL     OW10804   1.003   4.152   4.000
 3302SOL    HW110805   0.973   4.141   3.905
 3302SOL    HW210806   1.061   4.075   4.026
 3303SOL     OW10807   3.824   3.954   2.768
 3303SOL    HW110808   3.860   3.971   2.676
 3303SOL    HW210809   3.753   4.022   2.789
 3304SOL     OW10810   0.206   6.292   4.453
 3304SOL    HW110811   0.109   6.269   4.450
 3304SOL    HW210812   0.248   6.250   4.533
 3305SOL     OW10813   1.883   0.985   2.423
 3305SOL    HW110814   1.947   0.923   2.378
 3305SOL    HW210815   1.902   0.987   2.521
 3306SOL     OW10816   1.263   4.246   3.447
 3306SOL    HW110817   1.319   4.329   3.443
 3306SOL    HW210818   1.277   4.202   3.536
 3307SOL     OW10819   0.353   5.768   6.554
 3307SOL    HW110820   0.285   5.804   6.618
 3307SOL    HW210821   0.374   5.837   6.485
 3308SOL     OW10822   4.633   6.124   0.401
 3308SOL    HW110823   4.539   6.129   0.367
 3308SOL    HW210824   4.644   6.189   0.476
 3309SOL     OW10825   6.735   5.093   3.065
 3309SOL    HW110826   6.658   5.067   3.123
 3309SOL    HW210827   6.719   5.062   2.972
 3310SOL     OW10828   1.216   5.766   1.774
 3310SOL    HW110829   1.153   5.794   1.846
 3310SOL    HW210830   1.298   5.824   1.777
 3311SOL     OW10831   4.589   6.483   1.167
 3311SOL    HW110832   4.586   6.559   1.103
 3311SOL    HW210833   4.657   6.415   1.136
 3312SOL     OW10834   3.168   4.174   6.944
 3312SOL    HW110835   3.104   4.250   6.946
 3312SOL    HW210836   3.208   4.163   0.013
 3313SOL     OW10837   6.597   5.811   3.667
 3313SOL    HW110838   6.590   5.729   3.725
 3313SOL    HW210839   6.590   5.893   3.725
 3314SOL     OW10840   1.332   3.438   5.074
 3314SOL    HW110841   1.286   3.526   5.061
 3314SOL    HW210842   1.430   3.450   5.065
 3315SOL     OW10843   0.128   1.678   3.683
 3315SOL    HW110844   0.122   1.710   3.778
 3315SOL    HW210845   0.135   1.579   3.682
 3316SOL     OW10846   4.769   1.533   0.337
 3316SOL    HW110847   4.692   1.597   0.333
 3316SOL    HW210848   4.745   1.449   0.288
 3317SOL     OW10849   4.067   2.863   1.279
 3317SOL    HW110850   3.977   2.872   1.320
 3317SOL    HW210851   4.058   2.852   1.180
 3318SOL     OW10852   2.119   5.738   5.739
 3318SOL    HW110853   2.044   5.804   5.748
 3318SOL    HW210854   2.170   5.756   5.655
 3319SOL     OW10855   0.708   5.330   5.158
 3319SOL    HW110856   0.733   5.246   5.110
 3319SOL    HW210857   0.712   5.407   5.094
 3320SOL     OW10858   0.159   0.953   6.253
 3320SOL    HW110859   0.084   1.017   6.271
 3320SOL    HW210860   0.122   0.865   6.226
 3321SOL     OW10861   3.247   3.989   3.241
 3321SOL    HW110862   3.246   4.041   3.155
 3321SOL    HW210863   3.156   3.954   3.260
 3322SOL     OW10864   4.296   1.782   0.642
 3322SOL    HW110865   4.305   1.683   0.644
 3322SOL    HW210866   4.309   1.816   0.549
 3323SOL     OW10867   2.576   4.743   0.145
 3323SOL    HW110868   2.589   4.824   0.089
 3323SOL    HW210869   2.650   4.737   0.213
 3324SOL     OW10870   0.533   2.038   0.967
 3324SOL    HW110871   0.486   2.111   0.917
 3324SOL    HW210872   0.586   2.078   1.042
 3325SOL     OW10873   1.731   3.075   0.591
 3325SOL    HW110874   1.704   3.170   0.579
 3325SOL    HW210875   1.651   3.016   0.579
 3326SOL     OW10876   6.198   1.539   1.144
 3326SOL    HW110877   6.099   1.553   1.136
 3326SOL    HW210878   6.235   1.514   1.054
 3327SOL     OW10879   3.463   6.622   2.547
 3327SOL    HW110880   3.381   6.570   2.523
 3327SOL    HW210881   3.503   6.662   2.465
 3328SOL     OW10882   4.717   0.963   2.563
 3328SOL    HW110883   4.645   0.987   2.498
 3328SOL    HW210884   4.779   0.897   2.520
 3329SOL     OW10885   4.932   0.068   5.341
 3329SOL    HW110886   5.023   0.041   5.308
 3329SOL    HW210887   4.941   0.136   5.414
 3330SOL     OW10888   0.070   5.574   2.276
 3330SOL    HW110889   0.149   5.523   2.310
 3330SOL    HW210890   7.008   5.528   2.305
 3331SOL     OW10891   2.120   3.641   2.986
 3331SOL    HW110892   2.091   3.597   2.901
 3331SOL    HW210893   2.156   3.571   3.048
 3332SOL     OW10894   3.992   5.558   1.263
 3332SOL    HW110895   3.955   5.557   1.356
 3332SOL    HW210896   4.081   5.603   1.263
 3333SOL     OW10897   2.817   3.325   1.917
 3333SOL    HW110898   2.820   3.240   1.863
 3333SOL    HW210899   2.849   3.306   2.009
 3334SOL     OW10900   1.898   2.324   2.659
 3334SOL    HW110901   1.817   2.353   2.710
 3334SOL    HW210902   1.875   2.244   2.603
 3335SOL     OW10903   3.874   4.673   5.463
 3335SOL    HW110904   3.954   4.634   5.417
 3335SOL    HW210905   3.903   4.721   5.546
 3336SOL     OW10906   5.216   5.919   4.106
 3336SOL    HW110907   5.222   5.890   4.202
 3336SOL    HW210908   5.306   5.912   4.063
 3337SOL     OW10909   3.645   3.263   3.350
 3337SOL    HW110910   3.707   3.258   3.428
 3337SOL    HW210911   3.554   3.231   3.378
 3338SOL     OW10912   2.667   2.164   1.385
 3338SOL    HW110913   2.620   2.183   1.471
 3338SOL    HW210914   2.750   2.220   1.379
 3339SOL     OW10915   1.667   6.861   6.169
 3339SOL    HW110916   1.616   6.802   6.107
 3339SOL    HW210917   1.746   6.900   6.120
 3340SOL     OW10918   4.038   0.670   4.426
 3340SOL    HW110919   4.077   0.751   4.469
 3340SOL    HW210920   4.062   0.668   4.329
 3341SOL     OW10921   1.770   4.125   2.930
 3341SOL    HW110922   1.846   4.080   2.977
 3341SOL    HW210923   1.766   4.093   2.835
 3342SOL     OW10924   0.172   0.670   2.316
 3342SOL    HW110925   0.236   0.674   2.392
 3342SOL    HW210926   0.190   0.588   2.262
 3343SOL     OW10927   4.818   5.084   5.717
 3343SOL    HW110928   4.798   5.031   5.799
 3343SOL    HW210929   4.733   5.116   5.675
 3344SOL     OW10930   0.474   3.240   2.796
 3344SOL    HW110931   0.498   3.143   2.802
 3344SOL    HW210932   0.441   3.272   2.885
 3345SOL     OW10933   6.207   4.202   0.020
 3345SOL    HW110934   6.253   4.288   0.039
 3345SOL    HW210935   6.211   4.143   0.100
 3346SOL     OW10936   1.952   1.079   6.921
 3346SOL    HW110937   1.872   1.036   6.879
 3346SOL    HW210938   2.020   1.100   6.851
 3347SOL     OW10939   6.900   3.623   6.574
 3347SOL    HW110940   6.963   3.657   6.642
 3347SOL    HW210941   6.948   3.561   6.511
 3348SOL     OW10942   3.573   3.652   6.351
 3348SOL    HW110943   3.591   3.685   6.444
 3348SOL    HW210944   3.618   3.712   6.285
 3349SOL     OW10945   1.939   4.739   3.729
 3349SOL    HW110946   1.954   4.836   3.745
 3349SOL    HW210947   1.983   4.712   3.644
 3350SOL     OW10948   0.847   4.252   4.856
 3350SOL    HW110949   0.847   4.153   4.868
 3350SOL    HW210950   0.930   4.281   4.810
 3351SOL     OW10951   4.774   1.238   1.418
 3351SOL    HW110952   4.839   1.256   1.345
 3351SOL    HW210953   4.764   1.321   1.474
 3352SOL     OW10954   6.329   1.641   6.739
 3352SOL    HW110955   6.281   1.660   6.824
 3352SOL    HW210956   6.264   1.613   6.669
 3353SOL     OW10957   2.723   0.325   1.151
 3353SOL    HW110958   2.815   0.286   1.145
 3353SOL    HW210959   2.660   0.267   1.100
 3354SOL     OW10960   3.211   4.118   6.190
 3354SOL    HW110961   3.174   4.109   6.282
 3354SOL    HW210962   3.223   4.027   6.150
 3355SOL     OW10963   2.203   0.552   4.915
 3355SOL    HW110964   2.210   0.578   4.819
 3355SOL    HW210965   2.110   0.570   4.947
 3356SOL     OW10966   1.705   6.964   5.846
 3356SOL    HW110967   1.738   0.024   5.801
 3356SOL    HW210968   1.616   6.983   5.889
 3357SOL     OW10969   3.135   3.044   2.050
 3357SOL    HW110970   3.179   3.023   2.138
 3357SOL    HW210971   3.037   3.027   2.057
 3358SOL     OW10972   7.012   0.896   1.612
 3358SOL    HW110973   6.949   0.933   1.680
 3358SOL    HW210974   6.985   0.926   1.521
 3359SOL     OW10975   6.644   6.408   4.165
 3359SOL    HW110976   6.633   6.465   4.247
 3359SOL    HW210977   6.612   6.459   4.085
 3360SOL     OW10978   0.749   3.615   5.038
 3360SOL    HW110979   0.740   3.714   5.033
 3360SOL    HW210980   0.660   3.575   5.061
 3361SOL     OW10981   6.701   0.415   4.934
 3361SOL    HW110982   6.713   0.512   4.914
 3361SOL    HW210983   6.655   0.405   5.023
 3362SOL     OW10984   3.678   0.836   4.026
 3362SOL    HW110985   3.754   0.880   4.073
 3362SOL    HW210986   3.607   0.903   4.008
 3363SOL     OW10987   5.476   3.902   0.231
 3363SOL    HW110988   5.499   3.980   0.288
 3363SOL    HW210989   5.546   3.832   0.240
 3364SOL     OW10990   1.751   3.551   3.755
 3364SOL    HW110991   1.706   3.630   3.798
 3364SOL    HW210992   1.851   3.560   3.765
 3365SOL     OW10993   2.129   4.004   4.067
 3365SOL    HW110994   2.163   4.077   4.008
 3365SOL    HW210995   2.031   4.016   4.082
 3366SOL     OW10996   5.871   3.790   3.842
 3366SOL    HW110997   5.906   3.881   3.821
 3366SOL    HW210998   5.903   3.725   3.773
 3367SOL     OW10999   3.401   3.377   3.914
 3367SOL    HW111000   3.422   3.420   4.001
 3367SOL    HW211001   3.429   3.437   3.839
 3368SOL     OW11002   1.677   6.481   1.480
 3368SOL    HW111003   1.661   6.405   1.543
 3368SOL    HW211004   1.738   6.548   1.524
 3369SOL     OW11005   4.732   3.048   1.179
 3369SOL    HW111006   4.695   3.003   1.261
 3369SOL    HW211007   4.661   3.055   1.110
 3370SOL     OW11008   1.133   5.812   2.865
 3370SOL    HW111009   1.035   5.831   2.868
 3370SOL    HW211010   1.179   5.883   2.812
 3371SOL     OW11011   1.797   2.686   2.937
 3371SOL    HW111012   1.843   2.759   2.987
 3371SOL    HW211013   1.796   2.603   2.993
 3372SOL     OW11014   5.892   4.001   2.017
 3372SOL    HW111015   5.976   3.956   2.046
 3372SOL    HW211016   5.817   3.935   2.015
 3373SOL     OW11017   6.336   3.071   1.484
 3373SOL    HW111018   6.294   3.086   1.395
 3373SOL    HW211019   6.435   3.068   1.475
 3374SOL     OW11020   0.332   0.034   3.797
 3374SOL    HW111021   0.385   0.064   3.717
 3374SOL    HW211022   0.393   7.012   3.862
 3375SOL     OW11023   6.413   4.984   5.803
 3375SOL    HW111024   6.394   4.893   5.839
 3375SOL    HW211025   6.328   5.026   5.771
 3376SOL     OW11026   3.025   4.028   4.808
 3376SOL    HW111027   3.094   4.049   4.738
 3376SOL    HW211028   2.935   4.059   4.776
 3377SOL     OW11029   6.145   4.964   3.446
 3377SOL    HW111030   6.109   5.034   3.507
 3377SOL    HW211031   6.207   5.006   3.379
 3378SOL     OW11032   1.492   6.265   1.009
 3378SOL    HW111033   1.581   6.248   0.968
 3378SOL    HW211034   1.447   6.340   0.961
 3379SOL     OW11035   6.428   4.131   3.388
 3379SOL    HW111036   6.515   4.103   3.429
 3379SOL    HW211037   6.387   4.053   3.340
 3380SOL     OW11038   3.242   4.978   6.710
 3380SOL    HW111039   3.242   4.968   6.810
 3380SOL    HW211040   3.335   4.997   6.678
 3381SOL     OW11041   1.650   3.304   6.908
 3381SOL    HW111042   1.551   3.287   6.906
 3381SOL    HW211043   1.667   3.401   6.887
 3382SOL     OW11044   6.744   2.721   1.100
 3382SOL    HW111045   6.647   2.709   1.080
 3382SOL    HW211046   6.755   2.748   1.196
 3383SOL     OW11047   5.155   5.328   0.149
 3383SOL    HW111048   5.074   5.270   0.133
 3383SOL    HW211049   5.232   5.293   0.096
 3384SOL     OW11050   2.341   4.257   7.008
 3384SOL    HW111051   2.437   4.232   0.000
 3384SOL    HW211052   2.282   4.191   0.030
 3385SOL     OW11053   0.270   2.047   4.317
 3385SOL    HW111054   0.335   1.990   4.367
 3385SOL    HW211055   0.215   1.990   4.256
 3386SOL     OW11056   0.257   4.280   5.589
 3386SOL    HW111057   0.182   4.317   5.644
 3386SOL    HW211058   0.330   4.249   5.650
 3387SOL     OW11059   6.619   0.542   2.825
 3387SOL    HW111060   6.638   0.466   2.763
 3387SOL    HW211061   6.693   0.609   2.820
 3388SOL     OW11062   6.664   3.266   1.151
 3388SOL    HW111063   6.591   3.205   1.123
 3388SOL    HW211064   6.650   3.294   1.246
 3389SOL     OW11065   5.874   6.237   0.847
 3389SOL    HW111066   5.869   6.162   0.780
 3389SOL    HW211067   5.969   6.262   0.863
 3390SOL     OW11068   3.649   6.617   5.729
 3390SOL    HW111069   3.617   6.707   5.758
 3390SOL    HW211070   3.637   6.551   5.803
 3391SOL     OW11071   6.000   3.138   4.216
 3391SOL    HW111072   5.935   3.069   4.184
 3391SOL    HW211073   6.093   3.108   4.194
 3392SOL     OW11074   4.473   6.296   5.620
 3392SOL    HW111075   4.433   6.286   5.711
 3392SOL    HW211076   4.407   6.340   5.559
 3393SOL     OW11077   5.089   5.743   1.079
 3393SOL    HW111078   5.007   5.705   1.036
 3393SOL    HW211079   5.122   5.820   1.026
 3394SOL     OW11080   2.782   5.531   1.380
 3394SOL    HW111081   2.822   5.622   1.395
 3394SOL    HW211082   2.733   5.531   1.292
 3395SOL     OW11083   2.561   0.069   4.032
 3395SOL    HW111084   2.638   0.097   3.974
 3395SOL    HW211085   2.541   0.140   4.099
 3396SOL     OW11086   4.886   1.783   4.619
 3396SOL    HW111087   4.793   1.807   4.594
 3396SOL    HW211088   4.947   1.802   4.542
 3397SOL     OW11089   2.018   6.557   6.974
 3397SOL    HW111090   2.011   6.629   0.020
 3397SOL    HW211091   2.033   6.469   7.019
 3398SOL     OW11092   6.877   1.678   4.465
 3398SOL    HW111093   6.907   1.771   4.486
 3398SOL    HW211094   6.863   1.669   4.367
 3399SOL     OW11095   6.687   5.847   1.753
 3399SOL    HW111096   6.753   5.912   1.715
 3399SOL    HW211097   6.598   5.860   1.711
 3400SOL     OW11098   5.121   1.633   6.293
 3400SOL    HW111099   5.172   1.551   6.321
 3400SOL    HW211100   5.039   1.605   6.243
 3401SOL     OW11101   6.439   3.407   5.677
 3401SOL    HW111102   6.393   3.320   5.667
 3401SOL    HW211103   6.385   3.479   5.634
 3402SOL     OW11104   6.003   3.315   1.634
 3402SOL    HW111105   5.986   3.355   1.544
 3402SOL    HW211106   5.917   3.280   1.671
 3403SOL     OW11107   5.025   6.710   6.651
 3403SOL    HW111108   4.939   6.679   6.609
 3403SOL    HW211109   5.063   6.785   6.596
 3404SOL     OW11110   5.003   4.326   5.103
 3404SOL    HW111111   5.072   4.380   5.150
 3404SOL    HW211112   4.926   4.309   5.164
 3405SOL     OW11113   4.970   5.853   6.415
 3405SOL    HW111114   5.066   5.849   6.387
 3405SOL    HW211115   4.936   5.947   6.406
 3406SOL     OW11116   2.689   4.849   1.372
 3406SOL    HW111117   2.683   4.938   1.327
 3406SOL    HW211118   2.765   4.849   1.437
 3407SOL     OW11119   1.206   3.630   0.081
 3407SOL    HW111120   1.140   3.556   0.064
 3407SOL    HW211121   1.276   3.630   0.010
 3408SOL     OW11122   4.952   1.922   3.552
 3408SOL    HW111123   4.929   2.004   3.501
 3408SOL    HW211124   4.869   1.884   3.593
 3409SOL     OW11125   4.276   0.065   0.614
 3409SOL    HW111126   4.238   0.153   0.588
 3409SOL    HW211127   4.202   0.005   0.644
 3410SOL     OW11128   5.820   0.515   3.075
 3410SOL    HW111129   5.919   0.522   3.087
 3410SOL    HW211130   5.798   0.432   3.023
 3411SOL     OW11131   6.146   2.171   0.220
 3411SOL    HW111132   6.109   2.095   0.273
 3411SOL    HW211133   6.238   2.148   0.187
 3412SOL     OW11134   5.899   2.877   1.866
 3412SOL    HW111135   5.956   2.914   1.792
 3412SOL    HW211136   5.958   2.838   1.937
 3413SOL     OW11137   6.751   3.047   6.384
 3413SOL    HW111138   6.706   3.110   6.321
 3413SOL    HW211139   6.834   3.011   6.342
 3414SOL     OW11140   2.976   4.544   0.903
 3414SOL    HW111141   2.979   4.473   0.974
 3414SOL    HW211142   3.020   4.627   0.937
 3415SOL     OW11143   1.809   2.036   6.184
 3415SOL    HW111144   1.905   2.044   6.156
 3415SOL    HW211145   1.772   2.127   6.200
 3416SOL     OW11146   5.957   0.337   6.853
 3416SOL    HW111147   5.974   0.349   6.951
 3416SOL    HW211148   6.020   0.394   6.801
 3417SOL     OW11149   5.908   6.363   3.424
 3417SOL    HW111150   5.887   6.342   3.328
 3417SOL    HW211151   5.833   6.329   3.482
 3418SOL     OW11152   4.914   5.118   0.996
 3418SOL    HW111153   4.887   5.165   0.912
 3418SOL    HW211154   5.013   5.126   1.008
 3419SOL     OW11155   2.268   5.778   5.527
 3419SOL    HW111156   2.292   5.717   5.452
 3419SOL    HW211157   2.340   5.845   5.540
 3420SOL     OW11158   4.411   2.430   2.663
 3420SOL    HW111159   4.388   2.504   2.727
 3420SOL    HW211160   4.498   2.452   2.618
 3421SOL     OW11161   6.672   2.685   3.402
 3421SOL    HW111162   6.644   2.630   3.323
 3421SOL    HW211163   6.770   2.704   3.396
 3422SOL     OW11164   2.287   6.447   0.578
 3422SOL    HW111165   2.218   6.466   0.648
 3422SOL    HW211166   2.372   6.420   0.621
 3423SOL     OW11167   1.632   4.340   6.396
 3423SOL    HW111168   1.575   4.420   6.376
 3423SOL    HW211169   1.728   4.369   6.403
 3424SOL     OW11170   4.423   0.628   1.871
 3424SOL    HW111171   4.333   0.606   1.834
 3424SOL    HW211172   4.415   0.704   1.936
 3425SOL     OW11173   5.382   3.635   0.441
 3425SOL    HW111174   5.419   3.701   0.507
 3425SOL    HW211175   5.320   3.572   0.488
 3426SOL     OW11176   5.369   2.933   6.692
 3426SOL    HW111177   5.285   2.895   6.654
 3426SOL    HW211178   5.445   2.915   6.629
 3427SOL     OW11179   1.385   2.422   1.083
 3427SOL    HW111180   1.418   2.502   1.132
 3427SOL    HW211181   1.381   2.441   0.985
 3428SOL     OW11182   4.936   6.390   5.672
 3428SOL    HW111183   4.996   6.462   5.637
 3428SOL    HW211184   4.842   6.424   5.678
 3429SOL     OW11185   6.251   0.416   1.073
 3429SOL    HW111186   6.169   0.378   1.116
 3429SOL    HW211187   6.328   0.355   1.087
 3430SOL     OW11188   1.926   4.542   5.336
 3430SOL    HW111189   1.953   4.559   5.242
 3430SOL    HW211190   1.880   4.623   5.373
 3431SOL     OW11191   0.842   5.083   3.181
 3431SOL    HW111192   0.746   5.054   3.189
 3431SOL    HW211193   0.852   5.138   3.098
 3432SOL     OW11194   1.617   3.783   0.362
 3432SOL    HW111195   1.652   3.735   0.443
 3432SOL    HW211196   1.524   3.751   0.342
 3433SOL     OW11197   2.322   1.735   6.826
 3433SOL    HW111198   2.336   1.718   6.729
 3433SOL    HW211199   2.349   1.654   6.878
 3434SOL     OW11200   3.205   2.762   1.531
 3434SOL    HW111201   3.288   2.725   1.490
 3434SOL    HW211202   3.196   2.727   1.625
 3435SOL     OW11203   2.118   1.310   1.092
 3435SOL    HW111204   2.178   1.367   1.148
 3435SOL    HW211205   2.140   1.325   0.995
 3436SOL     OW11206   3.227   6.790   6.654
 3436SOL    HW111207   3.173   6.780   6.570
 3436SOL    HW211208   3.214   6.709   6.711
 3437SOL     OW11209   1.035   0.505   6.152
 3437SOL    HW111210   0.956   0.515   6.213
 3437SOL    HW211211   1.004   0.486   6.059
 3438SOL     OW11212   1.567   4.045   1.514
 3438SOL    HW111213   1.533   3.955   1.487
 3438SOL    HW211214   1.554   4.056   1.613
 3439SOL     OW11215   2.714   5.159   1.782
 3439SOL    HW111216   2.808   5.180   1.809
 3439SOL    HW211217   2.707   5.156   1.683
 3440SOL     OW11218   4.178   3.594   4.800
 3440SOL    HW111219   4.237   3.557   4.871
 3440SOL    HW211220   4.174   3.529   4.723
 3441SOL     OW11221   5.565   4.735   5.679
 3441SOL    HW111222   5.491   4.667   5.686
 3441SOL    HW211223   5.530   4.825   5.704
 3442SOL     OW11224   3.057   3.274   1.454
 3442SOL    HW111225   2.959   3.264   1.435
 3442SOL    HW211226   3.070   3.307   1.547
 3443SOL     OW11227   0.992   5.998   2.184
 3443SOL    HW111228   0.928   6.063   2.225
 3443SOL    HW211229   1.072   6.047   2.151
 3444SOL     OW11230   6.188   3.648   6.805
 3444SOL    HW111231   6.213   3.675   6.712
 3444SOL    HW211232   6.269   3.650   6.863
 3445SOL     OW11233   6.419   4.700   3.055
 3445SOL    HW111234   6.452   4.696   3.149
 3445SOL    HW211235   6.319   4.709   3.056
 3446SOL     OW11236   4.773   0.833   1.147
 3446SOL    HW111237   4.754   0.887   1.229
 3446SOL    HW211238   4.857   0.868   1.104
 3447SOL     OW11239   5.283   1.056   6.826
 3447SOL    HW111240   5.368   1.024   6.783
 3447SOL    HW211241   5.271   1.154   6.807
 3448SOL     OW11242   1.711   6.036   5.011
 3448SOL    HW111243   1.650   6.073   4.941
 3448SOL    HW211244   1.798   6.012   4.970
 3449SOL     OW11245   6.338   4.178   5.608
 3449SOL    HW111246   6.417   4.236   5.586
 3449SOL    HW211247   6.307   4.198   5.701
 3450SOL     OW11248   2.246   6.890   1.755
 3450SOL    HW111249   2.337   6.861   1.784
 3450SOL    HW211250   2.210   6.958   1.819
 3451SOL     OW11251   2.036   1.405   1.416
 3451SOL    HW111252   2.048   1.504   1.424
 3451SOL    HW211253   1.979   1.371   1.490
 3452SOL     OW11254   4.804   0.800   5.218
 3452SOL    HW111255   4.761   0.884   5.251
 3452SOL    HW211256   4.828   0.742   5.296
 3453SOL     OW11257   4.465   6.543   6.034
 3453SOL    HW111258   4.533   6.608   5.999
 3453SOL    HW211259   4.398   6.592   6.091
 3454SOL     OW11260   0.880   3.033   1.412
 3454SOL    HW111261   0.888   3.108   1.346
 3454SOL    HW211262   0.839   2.954   1.367
 3455SOL     OW11263   0.926   2.944   4.989
 3455SOL    HW111264   0.879   2.964   5.075
 3455SOL    HW211265   0.988   3.020   4.968
 3456SOL     OW11266   5.566   4.944   3.150
 3456SOL    HW111267   5.467   4.944   3.136
 3456SOL    HW211268   5.609   4.880   3.086
 3457SOL     OW11269   3.476   4.651   5.970
 3457SOL    HW111270   3.399   4.696   5.926
 3457SOL    HW211271   3.496   4.565   5.924
 3458SOL     OW11272   4.273   1.033   2.186
 3458SOL    HW111273   4.223   1.059   2.269
 3458SOL    HW211274   4.240   1.088   2.109
 3459SOL     OW11275   4.515   6.548   3.209
 3459SOL    HW111276   4.502   6.631   3.263
 3459SOL    HW211277   4.523   6.572   3.113
 3460SOL     OW11278   4.175   1.741   4.892
 3460SOL    HW111279   4.170   1.694   4.804
 3460SOL    HW211280   4.107   1.703   4.954
 3461SOL     OW11281   6.103   5.452   4.978
 3461SOL    HW111282   6.116   5.375   5.040
 3461SOL    HW211283   6.089   5.418   4.885
 3462SOL     OW11284   1.413   3.586   6.456
 3462SOL    HW111285   1.498   3.537   6.472
 3462SOL    HW211286   1.343   3.523   6.422
 3463SOL     OW11287   5.837   4.058   1.223
 3463SOL    HW111288   5.922   4.012   1.249
 3463SOL    HW211289   5.854   4.117   1.145
 3464SOL     OW11290   0.422   4.679   5.650
 3464SOL    HW111291   0.345   4.734   5.681
 3464SOL    HW211292   0.426   4.681   5.550
 3465SOL     OW11293   1.420   1.290   0.654
 3465SOL    HW111294   1.427   1.194   0.681
 3465SOL    HW211295   1.365   1.339   0.721
 3466SOL     OW11296   6.470   3.803   5.854
 3466SOL    HW111297   6.553   3.766   5.895
 3466SOL    HW211298   6.480   3.805   5.754
 3467SOL     OW11299   1.714   2.073   6.911
 3467SOL    HW111300   1.776   2.079   6.833
 3467SOL    HW211301   1.762   2.034   6.989
 3468SOL     OW11302   3.211   6.844   3.736
 3468SOL    HW111303   3.186   6.909   3.808
 3468SOL    HW211304   3.252   6.763   3.777
 3469SOL     OW11305   5.405   2.718   3.023
 3469SOL    HW111306   5.451   2.734   3.110
 3469SOL    HW211307   5.415   2.798   2.964
 3470SOL     OW11308   0.018   5.123   1.069
 3470SOL    HW111309   0.047   5.215   1.096
 3470SOL    HW211310   6.983   5.129   0.988
 3471SOL     OW11311   3.829   6.394   5.053
 3471SOL    HW111312   3.886   6.476   5.058
 3471SOL    HW211313   3.797   6.381   4.959
 3472SOL     OW11314   3.407   1.268   5.301
 3472SOL    HW111315   3.504   1.285   5.285
 3472SOL    HW211316   3.395   1.231   5.393
 3473SOL     OW11317   5.074   0.995   5.640
 3473SOL    HW111318   5.072   0.913   5.697
 3473SOL    HW211319   5.089   1.075   5.698
 3474SOL     OW11320   4.677   4.563   0.714
 3474SOL    HW111321   4.687   4.662   0.709
 3474SOL    HW211322   4.732   4.520   0.642
 3475SOL     OW11323   1.559   5.651   4.873
 3475SOL    HW111324   1.626   5.577   4.877
 3475SOL    HW211325   1.596   5.727   4.820
 3476SOL     OW11326   5.021   0.730   4.189
 3476SOL    HW111327   5.049   0.817   4.151
 3476SOL    HW211328   5.023   0.660   4.118
 3477SOL     OW11329   4.297   6.118   1.549
 3477SOL    HW111330   4.386   6.106   1.504
 3477SOL    HW211331   4.237   6.041   1.526
 3478SOL     OW11332   3.893   4.145   0.195
 3478SOL    HW111333   3.931   4.212   0.131
 3478SOL    HW211334   3.893   4.054   0.153
 3479SOL     OW11335   1.046   0.511   1.778
 3479SOL    HW111336   1.137   0.473   1.762
 3479SOL    HW211337   1.017   0.488   1.871
 3480SOL     OW11338   1.194   1.107   3.721
 3480SOL    HW111339   1.289   1.088   3.744
 3480SOL    HW211340   1.137   1.094   3.802
 3481SOL     OW11341   2.406   6.806   6.697
 3481SOL    HW111342   2.316   6.766   6.687
 3481SOL    HW211343   2.456   6.800   6.610
 3482SOL     OW11344   0.324   1.937   0.438
 3482SOL    HW111345   0.370   1.890   0.514
 3482SOL    HW211346   0.263   1.873   0.392
 3483SOL     OW11347   3.457   6.989   0.884
 3483SOL    HW111348   3.528   6.992   0.954
 3483SOL    HW211349   3.399   0.048   0.893
 3484SOL     OW11350   3.621   3.761   3.835
 3484SOL    HW111351   3.668   3.729   3.752
 3484SOL    HW211352   3.522   3.756   3.821
 3485SOL     OW11353   0.824   2.065   4.782
 3485SOL    HW111354   0.783   2.144   4.736
 3485SOL    HW211355   0.760   2.030   4.850
 3486SOL     OW11356   4.567   1.742   2.454
 3486SOL    HW111357   4.543   1.833   2.420
 3486SOL    HW211358   4.602   1.686   2.378
 3487SOL     OW11359   6.943   0.716   6.673
 3487SOL    HW111360   6.919   0.729   6.577
 3487SOL    HW211361   0.014   0.682   6.680
 3488SOL     OW11362   5.941   3.624   4.074
 3488SOL    HW111363   5.898   3.689   4.011
 3488SOL    HW211364   5.902   3.533   4.059
 3489SOL     OW11365   2.729   0.098   0.775
 3489SOL    HW111366   2.674   0.141   0.703
 3489SOL    HW211367   2.696   0.128   0.864
 3490SOL     OW11368   3.826   3.509   0.494
 3490SOL    HW111369   3.808   3.593   0.443
 3490SOL    HW211370   3.903   3.461   0.453
 3491SOL     OW11371   0.590   2.994   4.628
 3491SOL    HW111372   0.658   3.062   4.655
 3491SOL    HW211373   0.502   3.017   4.668
 3492SOL     OW11374   6.026   4.954   6.761
 3492SOL    HW111375   6.057   4.876   6.708
 3492SOL    HW211376   6.067   5.038   6.724
 3493SOL     OW11377   6.470   4.718   0.304
 3493SOL    HW111378   6.559   4.761   0.321
 3493SOL    HW211379   6.442   4.737   0.210
 3494SOL     OW11380   3.383   0.372   0.646
 3494SOL    HW111381   3.294   0.419   0.641
 3494SOL    HW211382   3.449   0.422   0.590
 3495SOL     OW11383   4.826   4.860   0.347
 3495SOL    HW111384   4.891   4.787   0.371
 3495SOL    HW211385   4.744   4.852   0.403
 3496SOL     OW11386   1.727   3.742   0.627
 3496SOL    HW111387   1.716   3.818   0.690
 3496SOL    HW211388   1.819   3.705   0.635
 3497SOL     OW11389   5.130   6.970   3.483
 3497SOL    HW111390   5.138   6.871   3.482
 3497SOL    HW211391   5.152   7.007   3.393
 3498SOL     OW11392   2.716   1.309   2.168
 3498SOL    HW111393   2.752   1.284   2.078
 3498SOL    HW211394   2.772   1.381   2.208
 3499SOL     OW11395   6.777   3.292   3.659
 3499SOL    HW111396   6.756   3.199   3.690
 3499SOL    HW211397   6.782   3.352   3.739
 3500SOL     OW11398   6.607   3.501   0.674
 3500SOL    HW111399   6.661   3.520   0.756
 3500SOL    HW211400   6.626   3.407   0.643
 3501SOL     OW11401   1.266   4.613   4.028
 3501SOL    HW111402   1.213   4.530   4.045
 3501SOL    HW211403   1.346   4.591   3.972
 3502SOL     OW11404   0.444   3.454   1.790
 3502SOL    HW111405   0.523   3.506   1.755
 3502SOL    HW211406   0.396   3.509   1.858
 3503SOL     OW11407   4.746   6.466   4.236
 3503SOL    HW111408   4.654   6.455   4.197
 3503SOL    HW211409   4.740   6.459   4.335
 3504SOL     OW11410   2.133   3.502   2.215
 3504SOL    HW111411   2.157   3.511   2.119
 3504SOL    HW211412   2.144   3.406   2.243
 3505SOL     OW11413   5.058   5.510   5.082
 3505SOL    HW111414   5.138   5.567   5.066
 3505SOL    HW211415   5.082   5.436   5.145
 3506SOL     OW11416   5.396   4.882   2.547
 3506SOL    HW111417   5.318   4.910   2.490
 3506SOL    HW211418   5.363   4.820   2.619
 3507SOL     OW11419   0.951   0.459   5.874
 3507SOL    HW111420   0.908   0.376   5.837
 3507SOL    HW211421   0.930   0.536   5.814
 3508SOL     OW11422   5.918   3.137   6.824
 3508SOL    HW111423   5.883   3.149   6.731
 3508SOL    HW211424   6.015   3.160   6.827
 3509SOL     OW11425   6.679   6.251   0.993
 3509SOL    HW111426   6.735   6.263   0.911
 3509SOL    HW211427   6.703   6.321   1.061
 3510SOL     OW11428   1.705   3.167   2.550
 3510SOL    HW111429   1.614   3.209   2.544
 3510SOL    HW211430   1.771   3.222   2.500
 3511SOL     OW11431   0.538   1.196   5.489
 3511SOL    HW111432   0.482   1.278   5.475
 3511SOL    HW211433   0.580   1.169   5.402
 3512SOL     OW11434   3.069   3.880   1.276
 3512SOL    HW111435   3.108   3.810   1.216
 3512SOL    HW211436   3.050   3.840   1.366
 3513SOL     OW11437   5.772   4.773   1.039
 3513SOL    HW111438   5.762   4.697   1.104
 3513SOL    HW211439   5.714   4.849   1.067
 3514SOL     OW11440   1.613   6.272   1.636
 3514SOL    HW111441   1.542   6.310   1.695
 3514SOL    HW211442   1.577   6.191   1.590
 3515SOL     OW11443   2.900   5.992   3.400
 3515SOL    HW111444   2.958   6.073   3.410
 3515SOL    HW211445   2.954   5.917   3.364
 3516SOL     OW11446   2.720   1.202   0.583
 3516SOL    HW111447   2.664   1.120   0.600
 3516SOL    HW211448   2.747   1.243   0.670
 3517SOL     OW11449   1.301   1.236   6.444
 3517SOL    HW111450   1.262   1.188   6.523
 3517SOL    HW211451   1.397   1.258   6.463
 3518SOL     OW11452   4.396   2.820   5.774
 3518SOL    HW111453   4.419   2.888   5.844
 3518SOL    HW211454   4.302   2.833   5.743
 3519SOL     OW11455   2.310   6.223   1.088
 3519SOL    HW111456   2.328   6.320   1.068
 3519SOL    HW211457   2.397   6.174   1.096
 3520SOL     OW11458   4.338   5.607   0.914
 3520SOL    HW111459   4.338   5.634   1.010
 3520SOL    HW211460   4.340   5.688   0.856
 3521SOL     OW11461   5.667   2.490   0.773
 3521SOL    HW111462   5.631   2.582   0.757
 3521SOL    HW211463   5.729   2.465   0.698
 3522SOL     OW11464   3.255   4.924   2.297
 3522SOL    HW111465   3.250   5.023   2.314
 3522SOL    HW211466   3.172   4.880   2.332
 3523SOL     OW11467   2.308   4.646   5.985
 3523SOL    HW111468   2.243   4.650   5.909
 3523SOL    HW211469   2.386   4.590   5.959
 3524SOL     OW11470   2.344   0.099   1.155
 3524SOL    HW111471   2.377   0.016   1.200
 3524SOL    HW211472   2.262   0.131   1.202
 3525SOL     OW11473   1.230   2.936   2.851
 3525SOL    HW111474   1.291   3.006   2.890
 3525SOL    HW211475   1.192   2.970   2.765
 3526SOL     OW11476   2.388   0.652   2.791
 3526SOL    HW111477   2.380   0.751   2.784
 3526SOL    HW211478   2.468   0.621   2.739
 3527SOL     OW11479   4.901   3.295   5.622
 3527SOL    HW111480   4.970   3.230   5.589
 3527SOL    HW211481   4.911   3.307   5.721
 3528SOL     OW11482   0.198   6.901   4.662
 3528SOL    HW111483   0.241   6.819   4.624
 3528SOL    HW211484   0.183   6.888   4.760
 3529SOL     OW11485   3.624   6.509   6.427
 3529SOL    HW111486   3.576   6.463   6.502
 3529SOL    HW211487   3.585   6.600   6.414
 3530SOL     OW11488   2.375   5.909   2.604
 3530SOL    HW111489   2.323   5.940   2.684
 3530SOL    HW211490   2.312   5.871   2.536
 3531SOL     OW11491   3.960   3.609   6.852
 3531SOL    HW111492   4.046   3.558   6.856
 3531SOL    HW211493   3.979   3.707   6.858
 3532SOL     OW11494   1.719   6.668   0.692
 3532SOL    HW111495   1.627   6.704   0.709
 3532SOL    HW211496   1.763   6.722   0.620
 3533SOL     OW11497   1.339   1.504   3.397
 3533SOL    HW111498   1.264   1.508   3.332
 3533SOL    HW211499   1.392   1.588   3.392
 3534SOL     OW11500   5.073   1.282   4.455
 3534SOL    HW111501   5.118   1.371   4.451
 3534SOL    HW211502   5.062   1.246   4.363
 3535SOL     OW11503   4.815   5.711   6.592
 3535SOL    HW111504   4.884   5.745   6.528
 3535SOL    HW211505   4.829   5.753   6.682
 3536SOL     OW11506   0.881   4.300   3.587
 3536SOL    HW111507   0.807   4.293   3.520
 3536SOL    HW211508   0.954   4.237   3.563
 3537SOL     OW11509   2.310   4.769   0.516
 3537SOL    HW111510   2.331   4.700   0.585
 3537SOL    HW211511   2.290   4.856   0.561
 3538SOL     OW11512   2.663   0.950   4.942
 3538SOL    HW111513   2.607   1.028   4.913
 3538SOL    HW211514   2.609   0.889   5.000
 3539SOL     OW11515   5.514   5.940   6.340
 3539SOL    HW111516   5.552   5.861   6.292
 3539SOL    HW211517   5.551   5.944   6.433
 3540SOL     OW11518   2.708   3.962   6.568
 3540SOL    HW111519   2.671   3.943   6.478
 3540SOL    HW211520   2.678   3.891   6.632
 3541SOL     OW11521   2.226   2.789   1.353
 3541SOL    HW111522   2.271   2.878   1.349
 3541SOL    HW211523   2.264   2.735   1.427
 3542SOL     OW11524   5.482   1.629   6.240
 3542SOL    HW111525   5.419   1.598   6.312
 3542SOL    HW211526   5.524   1.715   6.267
 3543SOL     OW11527   0.368   2.197   3.201
 3543SOL    HW111528   0.422   2.238   3.128
 3543SOL    HW211529   0.294   2.142   3.161
 3544SOL     OW11530   2.716   4.314   6.406
 3544SOL    HW111531   2.755   4.326   6.497
 3544SOL    HW211532   2.681   4.401   6.373
 3545SOL     OW11533   3.059   6.444   1.566
 3545SOL    HW111534   3.118   6.516   1.529
 3545SOL    HW211535   2.997   6.412   1.495
 3546SOL     OW11536   0.127   4.138   3.283
 3546SOL    HW111537   0.045   4.182   3.321
 3546SOL    HW211538   0.103   4.049   3.245
 3547SOL     OW11539   1.158   3.960   5.290
 3547SOL    HW111540   1.102   4.010   5.357
 3547SOL    HW211541   1.189   3.874   5.330
 3548SOL     OW11542   5.307   0.714   5.288
 3548SOL    HW111543   5.373   0.672   5.226
 3548SOL    HW211544   5.215   0.707   5.249
 3549SOL     OW11545   2.599   6.514   6.983
 3549SOL    HW111546   2.598   6.612   6.963
 3549SOL    HW211547   2.506   6.482   7.000
 3550SOL     OW11548   5.400   0.967   5.303
 3550SOL    HW111549   5.352   0.880   5.290
 3550SOL    HW211550   5.357   1.018   5.377
 3551SOL     OW11551   4.700   2.315   4.155
 3551SOL    HW111552   4.724   2.330   4.251
 3551SOL    HW211553   4.657   2.225   4.145
 3552SOL     OW11554   0.638   6.767   2.935
 3552SOL    HW111555   0.627   6.736   3.029
 3552SOL    HW211556   0.734   6.755   2.907
 3553SOL     OW11557   5.333   5.784   0.097
 3553SOL    HW111558   5.273   5.742   0.165
 3553SOL    HW211559   5.317   5.883   0.095
 3554SOL     OW11560   5.447   2.661   0.916
 3554SOL    HW111561   5.497   2.715   0.848
 3554SOL    HW211562   5.433   2.716   0.998
 3555SOL     OW11563   3.050   2.130   4.911
 3555SOL    HW111564   2.972   2.134   4.974
 3555SOL    HW211565   3.121   2.193   4.942
 3556SOL     OW11566   5.374   1.081   5.562
 3556SOL    HW111567   5.433   1.066   5.641
 3556SOL    HW211568   5.299   1.141   5.587
 3557SOL     OW11569   6.000   0.776   0.798
 3557SOL    HW111570   6.066   0.706   0.770
 3557SOL    HW211571   6.043   0.866   0.796
 3558SOL     OW11572   3.833   6.324   2.048
 3558SOL    HW111573   3.823   6.227   2.027
 3558SOL    HW211574   3.746   6.371   2.029
 3559SOL     OW11575   4.731   6.318   5.935
 3559SOL    HW111576   4.720   6.392   5.868
 3559SOL    HW211577   4.826   6.315   5.966
 3560SOL     OW11578   2.025   5.115   4.155
 3560SOL    HW111579   1.952   5.066   4.109
 3560SOL    HW211580   2.000   5.212   4.164
 3561SOL     OW11581   4.736   3.686   5.409
 3561SOL    HW111582   4.725   3.619   5.335
 3561SOL    HW211583   4.697   3.774   5.380
 3562SOL     OW11584   1.769   1.656   5.773
 3562SOL    HW111585   1.780   1.588   5.701
 3562SOL    HW211586   1.682   1.641   5.820
 3563SOL     OW11587   6.077   2.984   5.004
 3563SOL    HW111588   6.059   2.886   4.995
 3563SOL    HW211589   6.169   2.998   5.042
 3564SOL     OW11590   6.127   3.837   1.813
 3564SOL    HW111591   6.108   3.830   1.911
 3564SOL    HW211592   6.079   3.764   1.764
 3565SOL     OW11593   3.655   5.842   3.399
 3565SOL    HW111594   3.628   5.752   3.433
 3565SOL    HW211595   3.670   5.904   3.476
 3566SOL     OW11596   1.036   0.280   5.324
 3566SOL    HW111597   1.084   0.314   5.404
 3566SOL    HW211598   1.039   0.180   5.322
 3567SOL     OW11599   6.589   3.635   6.621
 3567SOL    HW111600   6.683   3.654   6.651
 3567SOL    HW211601   6.584   3.644   6.521
 3568SOL     OW11602   5.654   3.927   5.915
 3568SOL    HW111603   5.676   3.952   5.820
 3568SOL    HW211604   5.612   4.005   5.960
 3569SOL     OW11605   2.081   1.047   4.734
 3569SOL    HW111606   2.156   1.062   4.798
 3569SOL    HW211607   2.060   0.949   4.728
 3570SOL     OW11608   6.572   2.050   3.378
 3570SOL    HW111609   6.536   2.059   3.471
 3570SOL    HW211610   6.667   2.017   3.383
 3571SOL     OW11611   6.613   6.358   5.779
 3571SOL    HW111612   6.676   6.320   5.847
 3571SOL    HW211613   6.599   6.455   5.796
 3572SOL     OW11614   6.246   5.837   4.619
 3572SOL    HW111615   6.264   5.758   4.678
 3572SOL    HW211616   6.311   5.910   4.638
 3573SOL     OW11617   1.020   2.756   3.475
 3573SOL    HW111618   0.970   2.790   3.555
 3573SOL    HW211619   1.035   2.831   3.411
 3574SOL     OW11620   6.775   3.554   0.860
 3574SOL    HW111621   6.763   3.540   0.958
 3574SOL    HW211622   6.869   3.584   0.842
 3575SOL     OW11623   6.525   4.934   1.666
 3575SOL    HW111624   6.618   4.902   1.681
 3575SOL    HW211625   6.526   5.031   1.641
 3576SOL     OW11626   0.889   1.872   5.858
 3576SOL    HW111627   0.921   1.833   5.944
 3576SOL    HW211628   0.789   1.878   5.860
 3577SOL     OW11629   1.355   3.119   6.668
 3577SOL    HW111630   1.263   3.099   6.634
 3577SOL    HW211631   1.414   3.040   6.651
 3578SOL     OW11632   3.768   5.306   0.802
 3578SOL    HW111633   3.860   5.342   0.790
 3578SOL    HW211634   3.715   5.322   0.720
 3579SOL     OW11635   0.306   4.603   4.652
 3579SOL    HW111636   0.278   4.552   4.570
 3579SOL    HW211637   0.293   4.700   4.636
 3580SOL     OW11638   6.162   2.308   2.272
 3580SOL    HW111639   6.066   2.328   2.252
 3580SOL    HW211640   6.169   2.215   2.308
 3581SOL     OW11641   0.002   0.539   2.857
 3581SOL    HW111642   6.962   0.467   2.887
 3581SOL    HW211643   6.972   0.617   2.824
 3582SOL     OW11644   1.070   1.082   6.235
 3582SOL    HW111645   1.144   1.128   6.284
 3582SOL    HW211646   1.068   1.113   6.140
 3583SOL     OW11647   1.562   5.252   0.513
 3583SOL    HW111648   1.500   5.275   0.438
 3583SOL    HW211649   1.543   5.311   0.591
 3584SOL     OW11650   4.625   5.991   6.263
 3584SOL    HW111651   4.541   5.941   6.280
 3584SOL    HW211652   4.688   5.934   6.209
 3585SOL     OW11653   2.849   4.803   3.792
 3585SOL    HW111654   2.875   4.759   3.878
 3585SOL    HW211655   2.918   4.869   3.766
 3586SOL     OW11656   6.449   2.730   6.314
 3586SOL    HW111657   6.482   2.723   6.408
 3586SOL    HW211658   6.405   2.818   6.301
 3587SOL     OW11659   4.307   0.046   6.554
 3587SOL    HW111660   4.381   0.058   6.620
 3587SOL    HW211661   4.287   6.971   6.543
 3588SOL     OW11662   1.699   1.876   5.436
 3588SOL    HW111663   1.622   1.858   5.497
 3588SOL    HW211664   1.698   1.972   5.408
 3589SOL     OW11665   3.083   0.870   5.474
 3589SOL    HW111666   3.144   0.832   5.543
 3589SOL    HW211667   3.007   0.916   5.519
 3590SOL     OW11668   1.945   5.441   6.934
 3590SOL    HW111669   1.924   5.478   6.844
 3590SOL    HW211670   2.040   5.410   6.936
 3591SOL     OW11671   4.979   2.462   5.766
 3591SOL    HW111672   4.975   2.553   5.726
 3591SOL    HW211673   4.969   2.393   5.694
 3592SOL     OW11674   4.811   3.000   2.309
 3592SOL    HW111675   4.764   2.995   2.221
 3592SOL    HW211676   4.850   2.910   2.332
 3593SOL     OW11677   1.706   5.849   3.721
 3593SOL    HW111678   1.691   5.889   3.811
 3593SOL    HW211679   1.726   5.922   3.655
 3594SOL     OW11680   3.052   1.332   3.984
 3594SOL    HW111681   3.053   1.277   3.901
 3594SOL    HW211682   2.960   1.369   3.999
 3595SOL     OW11683   2.949   6.139   5.829
 3595SOL    HW111684   2.870   6.118   5.772
 3595SOL    HW211685   2.999   6.054   5.849
 3596SOL     OW11686   6.586   2.267   3.050
 3596SOL    HW111687   6.666   2.214   3.024
 3596SOL    HW211688   6.536   2.294   2.967
 3597SOL     OW11689   3.597   5.468   3.938
 3597SOL    HW111690   3.652   5.405   3.885
 3597SOL    HW211691   3.518   5.498   3.884
 3598SOL     OW11692   1.236   0.338   6.761
 3598SOL    HW111693   1.335   0.334   6.771
 3598SOL    HW211694   1.213   0.353   6.665
 3599SOL     OW11695   0.366   1.232   4.465
 3599SOL    HW111696   0.291   1.238   4.531
 3599SOL    HW211697   0.355   1.150   4.410
 3600SOL     OW11698   6.040   1.839   0.637
 3600SOL    HW111699   6.088   1.786   0.708
 3600SOL    HW211700   5.942   1.839   0.657
 3601SOL     OW11701   6.535   3.671   6.342
 3601SOL    HW111702   6.490   3.641   6.258
 3601SOL    HW211703   6.554   3.769   6.337
 3602SOL     OW11704   1.942   0.958   0.137
 3602SOL    HW111705   1.844   0.978   0.144
 3602SOL    HW211706   1.977   0.995   0.051
 3603SOL     OW11707   4.155   5.005   4.189
 3603SOL    HW111708   4.229   4.967   4.134
 3603SOL    HW211709   4.136   5.099   4.161
 3604SOL     OW11710   0.384   2.606   2.850
 3604SOL    HW111711   0.407   2.591   2.947
 3604SOL    HW211712   0.317   2.539   2.821
 3605SOL     OW11713   5.357   3.495   6.778
 3605SOL    HW111714   5.358   3.429   6.853
 3605SOL    HW211715   5.345   3.447   6.691
 3606SOL     OW11716   0.990   4.306   5.216
 3606SOL    HW111717   1.041   4.365   5.278
 3606SOL    HW211718   1.051   4.274   5.143
 3607SOL     OW11719   5.450   6.836   0.041
 3607SOL    HW111720   5.533   6.868   0.086
 3607SOL    HW211721   5.474   6.787   6.980
 3608SOL     OW11722   0.660   2.311   2.141
 3608SOL    HW111723   0.578   2.361   2.115
 3608SOL    HW211724   0.643   2.213   2.131
 3609SOL     OW11725   6.511   0.372   4.300
 3609SOL    HW111726   6.578   0.362   4.226
 3609SOL    HW211727   6.439   0.435   4.271
 3610SOL     OW11728   1.214   6.532   5.957
 3610SOL    HW111729   1.189   6.450   6.009
 3610SOL    HW211730   1.296   6.513   5.904
 3611SOL     OW11731   3.468   4.969   5.465
 3611SOL    HW111732   3.528   4.918   5.527
 3611SOL    HW211733   3.376   4.972   5.503
 3612SOL     OW11734   1.068   6.887   1.160
 3612SOL    HW111735   1.063   6.979   1.197
 3612SOL    HW211736   0.988   6.834   1.191
 3613SOL     OW11737   5.634   5.397   6.755
 3613SOL    HW111738   5.635   5.451   6.671
 3613SOL    HW211739   5.668   5.305   6.735
 3614SOL     OW11740   3.776   2.898   3.093
 3614SOL    HW111741   3.844   2.892   3.020
 3614SOL    HW211742   3.819   2.934   3.176
 3615SOL     OW11743   6.065   5.966   6.100
 3615SOL    HW111744   6.052   6.045   6.161
 3615SOL    HW211745   6.077   5.883   6.155
 3616SOL     OW11746   7.013   2.596   5.002
 3616SOL    HW111747   6.996   2.510   4.954
 3616SOL    HW211748   6.940   2.613   5.068
 3617SOL     OW11749   0.129   1.580   6.472
 3617SOL    HW111750   0.142   1.652   6.404
 3617SOL    HW211751   0.170   1.607   6.559
 3618SOL     OW11752   1.948   2.082   6.760
 3618SOL    HW111753   2.024   2.135   6.798
 3618SOL    HW211754   1.965   1.985   6.775
 3619SOL     OW11755   5.914   2.050   4.189
 3619SOL    HW111756   5.857   2.006   4.119
 3619SOL    HW211757   6.010   2.027   4.172
 3620SOL     OW11758   6.175   7.008   5.081
 3620SOL    HW111759   6.122   6.944   5.137
 3620SOL    HW211760   6.122   0.069   5.067
 3621SOL     OW11761   2.636   3.476   5.754
 3621SOL    HW111762   2.567   3.534   5.710
 3621SOL    HW211763   2.593   3.391   5.785
 3622SOL     OW11764   1.135   2.622   1.800
 3622SOL    HW111765   1.061   2.559   1.825
 3622SOL    HW211766   1.127   2.645   1.703
 3623SOL     OW11767   5.249   5.124   3.278
 3623SOL    HW111768   5.300   5.103   3.361
 3623SOL    HW211769   5.173   5.060   3.268
 3624SOL     OW11770   2.230   6.468   2.657
 3624SOL    HW111771   2.304   6.500   2.599
 3624SOL    HW211772   2.268   6.428   2.741
 3625SOL     OW11773   6.213   3.470   4.982
 3625SOL    HW111774   6.300   3.459   5.029
 3625SOL    HW211775   6.175   3.380   4.960
 3626SOL     OW11776   2.257   3.720   5.162
 3626SOL    HW111777   2.312   3.803   5.159
 3626SOL    HW211778   2.160   3.744   5.158
 3627SOL     OW11779   2.983   3.847   3.640
 3627SOL    HW111780   2.883   3.846   3.636
 3627SOL    HW211781   3.016   3.759   3.674
 3628SOL     OW11782   2.735   5.365   2.216
 3628SOL    HW111783   2.696   5.357   2.124
 3628SOL    HW211784   2.666   5.340   2.284
 3629SOL     OW11785   6.054   1.729   5.263
 3629SOL    HW111786   6.048   1.829   5.270
 3629SOL    HW211787   5.965   1.688   5.283
 3630SOL     OW11788   6.651   2.007   4.739
 3630SOL    HW111789   6.739   2.038   4.704
 3630SOL    HW211790   6.582   2.077   4.720
 3631SOL     OW11791   2.451   0.650   5.024
 3631SOL    HW111792   2.367   0.644   4.969
 3631SOL    HW211793   2.439   0.718   5.096
 3632SOL     OW11794   5.036   0.498   0.375
 3632SOL    HW111795   5.073   0.591   0.378
 3632SOL    HW211796   4.937   0.502   0.358
 3633SOL     OW11797   2.620   2.717   6.147
 3633SOL    HW111798   2.608   2.637   6.088
 3633SOL    HW211799   2.692   2.776   6.110
 3634SOL     OW11800   1.895   5.590   5.099
 3634SOL    HW111801   1.864   5.511   5.046
 3634SOL    HW211802   1.817   5.637   5.139
 3635SOL     OW11803   2.662   1.557   5.642
 3635SOL    HW111804   2.747   1.517   5.608
 3635SOL    HW211805   2.604   1.584   5.565
 3636SOL     OW11806   0.584   5.249   5.786
 3636SOL    HW111807   0.535   5.310   5.849
 3636SOL    HW211808   0.673   5.227   5.824
 3637SOL     OW11809   5.444   1.288   1.299
 3637SOL    HW111810   5.505   1.339   1.359
 3637SOL    HW211811   5.486   1.200   1.276
 3638SOL     OW11812   6.984   4.433   3.688
 3638SOL    HW111813   6.989   4.516   3.743
 3638SOL    HW211814   7.010   4.355   3.744
 3639SOL     OW11815   2.069   4.856   1.152
 3639SOL    HW111816   2.125   4.803   1.216
 3639SOL    HW211817   2.086   4.824   1.059
 3640SOL     OW11818   3.392   5.866   1.170
 3640SOL    HW111819   3.382   5.893   1.074
 3640SOL    HW211820   3.472   5.806   1.179
 3641SOL     OW11821   2.923   1.002   4.903
 3641SOL    HW111822   2.917   1.100   4.882
 3641SOL    HW211823   2.832   0.966   4.920
 3642SOL     OW11824   5.426   0.735   4.051
 3642SOL    HW111825   5.468   0.705   3.965
 3642SOL    HW211826   5.477   0.814   4.087
 3643SOL     OW11827   2.759   5.046   4.837
 3643SOL    HW111828   2.688   4.997   4.786
 3643SOL    HW211829   2.768   5.006   4.928
 3644SOL     OW11830   6.777   1.472   0.937
 3644SOL    HW111831   6.760   1.511   1.028
 3644SOL    HW211832   6.703   1.499   0.875
 3645SOL     OW11833   4.517   1.737   3.701
 3645SOL    HW111834   4.509   1.655   3.758
 3645SOL    HW211835   4.426   1.764   3.669
 3646SOL     OW11836   0.274   4.893   5.728
 3646SOL    HW111837   0.197   4.956   5.728
 3646SOL    HW211838   0.356   4.942   5.697
 3647SOL     OW11839   1.497   3.004   0.981
 3647SOL    HW111840   1.524   2.918   1.025
 3647SOL    HW211841   1.566   3.073   0.999
 3648SOL     OW11842   3.802   5.635   1.924
 3648SOL    HW111843   3.721   5.583   1.897
 3648SOL    HW211844   3.883   5.595   1.881
 3649SOL     OW11845   4.282   3.553   0.928
 3649SOL    HW111846   4.348   3.478   0.924
 3649SOL    HW211847   4.190   3.517   0.944
 3650SOL     OW11848   0.626   6.194   1.334
 3650SOL    HW111849   0.594   6.099   1.325
 3650SOL    HW211850   0.725   6.193   1.350
 3651SOL     OW11851   0.701   5.805   2.313
 3651SOL    HW111852   0.748   5.827   2.399
 3651SOL    HW211853   0.704   5.884   2.252
 3652SOL     OW11854   4.686   6.314   3.572
 3652SOL    HW111855   4.782   6.288   3.570
 3652SOL    HW211856   4.632   6.241   3.615
 3653SOL     OW11857   6.827   1.522   3.127
 3653SOL    HW111858   6.909   1.578   3.115
 3653SOL    HW211859   6.780   1.550   3.210
 3654SOL     OW11860   1.822   6.369   0.967
 3654SOL    HW111861   1.828   6.416   1.055
 3654SOL    HW211862   1.913   6.335   0.941
 3655SOL     OW11863   1.982   0.113   4.499
 3655SOL    HW111864   1.896   0.093   4.546
 3655SOL    HW211865   1.995   0.212   4.495
 3656SOL     OW11866   1.824   2.579   2.260
 3656SOL    HW111867   1.780   2.669   2.262
 3656SOL    HW211868   1.879   2.567   2.342
 3657SOL     OW11869   3.589   5.530   1.070
 3657SOL    HW111870   3.609   5.588   1.149
 3657SOL    HW211871   3.671   5.477   1.047
 3658SOL     OW11872   1.034   6.270   5.533
 3658SOL    HW111873   1.020   6.183   5.485
 3658SOL    HW211874   0.953   6.327   5.523
 3659SOL     OW11875   2.554   4.496   0.039
 3659SOL    HW111876   2.586   4.581   0.081
 3659SOL    HW211877   2.457   4.504   0.018
 3660SOL     OW11878   4.782   5.544   1.881
 3660SOL    HW111879   4.747   5.477   1.946
 3660SOL    HW211880   4.713   5.615   1.865
 3661SOL     OW11881   4.756   1.187   0.739
 3661SOL    HW111882   4.684   1.237   0.788
 3661SOL    HW211883   4.815   1.252   0.691
 3662SOL     OW11884   3.380   0.659   5.381
 3662SOL    HW111885   3.298   0.632   5.430
 3662SOL    HW211886   3.386   0.758   5.377
 3663SOL     OW11887   1.278   2.181   0.189
 3663SOL    HW111888   1.241   2.128   0.265
 3663SOL    HW211889   1.371   2.152   0.169
 3664SOL     OW11890   5.374   1.679   1.042
 3664SOL    HW111891   5.410   1.720   0.958
 3664SOL    HW211892   5.445   1.678   1.112
 3665SOL     OW11893   0.785   0.071   5.104
 3665SOL    HW111894   0.752   0.092   5.012
 3665SOL    HW211895   0.738   0.129   5.170
 3666SOL     OW11896   1.482   3.663   4.275
 3666SOL    HW111897   1.418   3.733   4.308
 3666SOL    HW211898   1.507   3.603   4.351
 3667SOL     OW11899   6.485   0.948   6.207
 3667SOL    HW111900   6.478   1.047   6.214
 3667SOL    HW211901   6.410   0.913   6.150
 3668SOL     OW11902   1.656   0.077   2.743
 3668SOL    HW111903   1.644   0.159   2.799
 3668SOL    HW211904   1.596   0.082   2.663
 3669SOL     OW11905   6.836   2.102   3.873
 3669SOL    HW111906   6.842   2.149   3.785
 3669SOL    HW211907   6.760   2.037   3.871
 3670SOL     OW11908   2.166   5.904   6.153
 3670SOL    HW111909   2.148   5.881   6.248
 3670SOL    HW211910   2.082   5.892   6.099
 3671SOL     OW11911   1.124   0.220   3.267
 3671SOL    HW111912   1.024   0.213   3.278
 3671SOL    HW211913   1.164   0.129   3.277
 3672SOL     OW11914   6.637   1.526   0.010
 3672SOL    HW111915   6.583   1.468   0.071
 3672SOL    HW211916   6.679   1.600   0.063
 3673SOL     OW11917   4.878   1.372   6.728
 3673SOL    HW111918   4.919   1.462   6.745
 3673SOL    HW211919   4.808   1.381   6.656
 3674SOL     OW11920   0.830   6.896   0.093
 3674SOL    HW111921   0.849   6.857   0.184
 3674SOL    HW211922   0.736   6.874   0.068
 3675SOL     OW11923   1.877   2.455   5.327
 3675SOL    HW111924   1.950   2.462   5.259
 3675SOL    HW211925   1.791   2.429   5.282
 3676SOL     OW11926   3.264   5.134   4.344
 3676SOL    HW111927   3.325   5.200   4.389
 3676SOL    HW211928   3.175   5.177   4.328
 3677SOL     OW11929   7.002   6.364   3.300
 3677SOL    HW111930   0.012   6.331   3.212
 3677SOL    HW211931   0.016   6.307   3.373
 3678SOL     OW11932   1.107   2.256   3.994
 3678SOL    HW111933   1.074   2.342   3.954
 3678SOL    HW211934   1.186   2.275   4.052
 3679SOL     OW11935   0.562   1.200   1.678
 3679SOL    HW111936   0.622   1.175   1.602
 3679SOL    HW211937   0.470   1.218   1.643
 3680SOL     OW11938   6.741   3.008   3.704
 3680SOL    HW111939   6.646   3.015   3.733
 3680SOL    HW211940   6.745   2.988   3.607
 3681SOL     OW11941   0.519   0.303   5.866
 3681SOL    HW111942   0.487   0.369   5.934
 3681SOL    HW211943   0.494   0.335   5.775
 3682SOL     OW11944   6.641   2.217   5.942
 3682SOL    HW111945   6.642   2.135   6.000
 3682SOL    HW211946   6.729   2.224   5.894
 3683SOL     OW11947   6.198   6.426   4.737
 3683SOL    HW111948   6.185   6.328   4.722
 3683SOL    HW211949   6.156   6.477   4.662
 3684SOL     OW11950   1.563   3.467   2.237
 3684SOL    HW111951   1.637   3.463   2.303
 3684SOL    HW211952   1.600   3.481   2.145
 3685SOL     OW11953   6.302   6.121   6.341
 3685SOL    HW111954   6.337   6.069   6.419
 3685SOL    HW211955   6.378   6.157   6.287
 3686SOL     OW11956   6.442   4.716   1.547
 3686SOL    HW111957   6.474   4.797   1.596
 3686SOL    HW211958   6.520   4.665   1.511
 3687SOL     OW11959   2.920   0.139   6.368
 3687SOL    HW111960   2.827   0.149   6.332
 3687SOL    HW211961   2.917   0.144   6.468
 3688SOL     OW11962   1.087   3.311   6.695
 3688SOL    HW111963   1.135   3.388   6.736
 3688SOL    HW211964   1.010   3.285   6.753
 3689SOL     OW11965   2.080   1.446   5.013
 3689SOL    HW111966   2.023   1.383   5.066
 3689SOL    HW211967   2.166   1.401   4.989
 3690SOL     OW11968   5.386   0.532   6.206
 3690SOL    HW111969   5.339   0.541   6.118
 3690SOL    HW211970   5.450   0.609   6.217
 3691SOL     OW11971   3.039   3.808   0.098
 3691SOL    HW111972   3.022   3.903   0.125
 3691SOL    HW211973   2.956   3.769   0.059
 3692SOL     OW11974   1.365   6.587   5.236
 3692SOL    HW111975   1.313   6.505   5.260
 3692SOL    HW211976   1.350   6.609   5.140
 3693SOL     OW11977   2.929   2.064   3.390
 3693SOL    HW111978   3.010   2.101   3.345
 3693SOL    HW211979   2.880   2.138   3.437
 3694SOL     OW11980   1.342   6.228   3.555
 3694SOL    HW111981   1.356   6.203   3.459
 3694SOL    HW211982   1.260   6.184   3.589
 3695SOL     OW11983   2.029   1.512   2.421
 3695SOL    HW111984   1.983   1.559   2.346
 3695SOL    HW211985   2.128   1.522   2.412
 3696SOL     OW11986   4.474   6.869   5.852
 3696SOL    HW111987   4.501   6.912   5.766
 3696SOL    HW211988   4.449   6.939   5.918
 3697SOL     OW11989   0.086   6.842   3.233
 3697SOL    HW111990   0.015   6.855   3.302
 3697SOL    HW211991   0.081   6.749   3.198
 3698SOL     OW11992   2.998   0.211   6.000
 3698SOL    HW111993   3.032   0.302   5.979
 3698SOL    HW211994   3.014   0.151   5.922
 3699SOL     OW11995   6.623   3.941   2.991
 3699SOL    HW111996   6.614   4.040   2.997
 3699SOL    HW211997   6.716   3.917   2.963
 3700SOL     OW11998   6.202   0.828   4.437
 3700SOL    HW111999   6.285   0.776   4.416
 3700SOL    HW212000   6.160   0.792   4.520
 3701SOL     OW12001   6.899   0.979   4.499
 3701SOL    HW112002   6.879   1.062   4.552
 3701SOL    HW212003   6.956   0.918   4.553
 3702SOL     OW12004   3.554   0.179   1.115
 3702SOL    HW112005   3.490   0.195   1.039
 3702SOL    HW212006   3.598   0.266   1.139
 3703SOL     OW12007   3.917   4.945   6.042
 3703SOL    HW112008   3.940   4.849   6.025
 3703SOL    HW212009   3.823   4.951   6.074
 3704SOL     OW12010   2.515   1.130   2.568
 3704SOL    HW112011   2.560   1.219   2.555
 3704SOL    HW212012   2.562   1.061   2.513
 3705SOL     OW12013   4.811   0.428   3.319
 3705SOL    HW112014   4.780   0.498   3.255
 3705SOL    HW212015   4.809   0.464   3.412
 3706SOL     OW12016   1.674   2.831   4.251
 3706SOL    HW112017   1.687   2.929   4.231
 3706SOL    HW212018   1.682   2.816   4.350
 3707SOL     OW12019   4.760   2.270   5.985
 3707SOL    HW112020   4.809   2.356   6.001
 3707SOL    HW212021   4.750   2.256   5.887
 3708SOL     OW12022   5.972   0.502   6.439
 3708SOL    HW112023   6.058   0.553   6.445
 3708SOL    HW212024   5.969   0.451   6.353
 3709SOL     OW12025   3.898   0.848   6.235
 3709SOL    HW112026   3.859   0.757   6.251
 3709SOL    HW212027   3.839   0.900   6.175
 3710SOL     OW12028   6.736   5.117   0.377
 3710SOL    HW112029   6.732   5.018   0.382
 3710SOL    HW212030   6.645   5.154   0.357
 3711SOL     OW12031   0.173   5.907   1.789
 3711SOL    HW112032   0.261   5.893   1.835
 3711SOL    HW212033   0.150   6.004   1.788
 3712SOL     OW12034   0.654   6.642   0.022
 3712SOL    HW112035   0.581   6.576   0.040
 3712SOL    HW212036   0.661   6.657   6.946
 3713SOL     OW12037   3.280   5.963   5.312
 3713SOL    HW112038   3.228   5.902   5.372
 3713SOL    HW212039   3.245   6.056   5.318
 3714SOL     OW12040   4.365   0.078   4.937
 3714SOL    HW112041   4.428   0.001   4.951
 3714SOL    HW212042   4.364   0.135   5.019
 3715SOL     OW12043   5.095   5.450   4.424
 3715SOL    HW112044   5.004   5.446   4.465
 3715SOL    HW212045   5.111   5.367   4.371
 3716SOL     OW12046   6.968   0.047   4.690
 3716SOL    HW112047   6.942   6.979   4.658
 3716SOL    HW212048   0.037   0.069   4.658
 3717SOL     OW12049   6.396   5.759   0.853
 3717SOL    HW112050   6.411   5.748   0.755
 3717SOL    HW212051   6.345   5.680   0.888
 3718SOL     OW12052   1.008   6.307   6.947
 3718SOL    HW112053   1.045   6.315   0.017
 3718SOL    HW212054   0.967   6.394   6.920
 3719SOL     OW12055   4.427   5.026   0.255
 3719SOL    HW112056   4.374   4.949   0.290
 3719SOL    HW212057   4.367   5.103   0.235
 3720SOL     OW12058   6.635   1.823   6.405
 3720SOL    HW112059   6.637   1.724   6.392
 3720SOL    HW212060   6.614   1.843   6.501
 3721SOL     OW12061   5.248   5.094   0.572
 3721SOL    HW112062   5.245   5.191   0.548
 3721SOL    HW212063   5.322   5.049   0.522
 3722SOL     OW12064   0.166   6.323   2.753
 3722SOL    HW112065   0.207   6.236   2.781
 3722SOL    HW212066   0.095   6.306   2.684
 3723SOL     OW12067   5.439   6.969   1.628
 3723SOL    HW112068   5.381   0.018   1.591
 3723SOL    HW212069   5.533   7.003   1.635
 3724SOL     OW12070   1.386   5.341   0.315
 3724SOL    HW112071   1.369   5.289   0.232
 3724SOL    HW212072   1.319   5.318   0.384
 3725SOL     OW12073   6.993   5.977   6.806
 3725SOL    HW112074   0.026   6.031   6.870
 3725SOL    HW212075   0.029   5.945   6.731
 3726SOL     OW12076   5.775   3.701   1.841
 3726SOL    HW112077   5.683   3.693   1.802
 3726SOL    HW212078   5.775   3.772   1.911
 3727SOL     OW12079   1.519   2.667   5.199
 3727SOL    HW112080   1.558   2.743   5.251
 3727SOL    HW212081   1.590   2.625   5.143
 3728SOL     OW12082   2.278   2.840   0.130
 3728SOL    HW112083   2.245   2.747   0.147
 3728SOL    HW212084   2.234   2.876   0.048
 3729SOL     OW12085   0.699   1.686   3.424
 3729SOL    HW112086   0.795   1.703   3.443
 3729SOL    HW212087   0.669   1.744   3.348
 3730SOL     OW12088   2.999   1.402   6.767
 3730SOL    HW112089   2.922   1.344   6.739
 3730SOL    HW212090   3.026   1.379   6.860
 3731SOL     OW12091   4.377   0.587   0.837
 3731SOL    HW112092   4.445   0.609   0.767
 3731SOL    HW212093   4.289   0.628   0.813
 3732SOL     OW12094   2.210   3.235   5.870
 3732SOL    HW112095   2.266   3.317   5.874
 3732SOL    HW212096   2.144   3.243   5.795
 3733SOL     OW12097   2.592   4.240   1.629
 3733SOL    HW112098   2.611   4.198   1.540
 3733SOL    HW212099   2.552   4.172   1.690
 3734SOL     OW12100   4.406   1.108   2.470
 3734SOL    HW112101   4.307   1.124   2.473
 3734SOL    HW212102   4.453   1.191   2.439
 3735SOL     OW12103   2.187   2.337   2.637
 3735SOL    HW112104   2.090   2.316   2.625
 3735SOL    HW212105   2.197   2.407   2.708
 3736SOL     OW12106   6.439   2.437   0.724
 3736SOL    HW112107   6.476   2.358   0.773
 3736SOL    HW212108   6.388   2.406   0.644
 3737SOL     OW12109   5.078   0.213   3.006
 3737SOL    HW112110   5.067   0.312   3.020
 3737SOL    HW212111   5.008   0.180   2.943
 3738SOL     OW12112   6.158   6.604   3.833
 3738SOL    HW112113   6.142   6.698   3.806
 3738SOL    HW212114   6.106   6.542   3.773
 3739SOL     OW12115   0.710   3.988   2.504
 3739SOL    HW112116   0.738   3.893   2.520
 3739SOL    HW212117   0.746   4.018   2.415
 3740SOL     OW12118   5.228   1.293   6.700
 3740SOL    HW112119   5.299   1.326   6.638
 3740SOL    HW212120   5.183   1.371   6.744
 3741SOL     OW12121   4.505   3.377   0.930
 3741SOL    HW112122   4.591   3.426   0.929
 3741SOL    HW212123   4.489   3.339   1.021
 3742SOL     OW12124   3.787   2.320   5.920
 3742SOL    HW112125   3.733   2.324   5.836
 3742SOL    HW212126   3.884   2.334   5.898
 3743SOL     OW12127   6.717   4.823   6.861
 3743SOL    HW112128   6.738   4.744   6.920
 3743SOL    HW212129   6.791   4.835   6.794
 3744SOL     OW12130   0.120   5.062   3.990
 3744SOL    HW112131   0.156   5.154   4.004
 3744SOL    HW212132   0.171   5.016   3.917
 3745SOL     OW12133   3.668   5.679   2.259
 3745SOL    HW112134   3.754   5.637   2.231
 3745SOL    HW212135   3.671   5.777   2.241
 3746SOL     OW12136   4.502   2.139   1.922
 3746SOL    HW112137   4.467   2.046   1.931
 3746SOL    HW212138   4.596   2.136   1.887
 3747SOL     OW12139   3.352   0.347   6.983
 3747SOL    HW112140   3.440   0.300   6.990
 3747SOL    HW212141   3.278   0.280   6.978
 3748SOL     OW12142   6.024   0.469   1.926
 3748SOL    HW112143   6.016   0.370   1.914
 3748SOL    HW212144   6.106   0.502   1.880
 3749SOL     OW12145   1.417   6.595   4.564
 3749SOL    HW112146   1.493   6.622   4.505
 3749SOL    HW212147   1.332   6.636   4.530
 3750SOL     OW12148   0.181   3.580   0.793
 3750SOL    HW112149   0.187   3.493   0.744
 3750SOL    HW212150   0.141   3.649   0.733
 3751SOL     OW12151   0.373   4.482   3.137
 3751SOL    HW112152   0.278   4.462   3.115
 3751SOL    HW212153   0.433   4.435   3.072
 3752SOL     OW12154   6.393   0.971   5.822
 3752SOL    HW112155   6.366   1.002   5.730
 3752SOL    HW212156   6.487   0.999   5.841
 3753SOL     OW12157   6.537   0.783   3.739
 3753SOL    HW112158   6.585   0.844   3.676
 3753SOL    HW212159   6.591   0.700   3.753
 3754SOL     OW12160   1.767   1.761   1.354
 3754SOL    HW112161   1.848   1.778   1.410
 3754SOL    HW212162   1.786   1.786   1.259
 3755SOL     OW12163   2.462   4.644   4.531
 3755SOL    HW112164   2.383   4.617   4.477
 3755SOL    HW212165   2.455   4.605   4.623
 3756SOL     OW12166   2.802   6.319   6.299
 3756SOL    HW112167   2.887   6.353   6.339
 3756SOL    HW212168   2.813   6.312   6.200
 3757SOL     OW12169   6.270   4.578   1.163
 3757SOL    HW112170   6.181   4.564   1.206
 3757SOL    HW212171   6.281   4.675   1.140
 3758SOL     OW12172   2.297   0.072   3.393
 3758SOL    HW112173   2.223   0.120   3.345
 3758SOL    HW212174   2.348   0.016   3.329
 3759SOL     OW12175   5.426   0.628   4.296
 3759SOL    HW112176   5.416   0.673   4.208
 3759SOL    HW212177   5.343   0.642   4.350
 3760SOL     OW12178   6.934   0.746   3.590
 3760SOL    HW112179   0.001   0.783   3.565
 3760SOL    HW212180   6.896   0.799   3.666
 3761SOL     OW12181   5.310   1.168   4.024
 3761SOL    HW112182   5.313   1.224   3.941
 3761SOL    HW212183   5.392   1.184   4.078
 3762SOL     OW12184   0.680   3.512   2.573
 3762SOL    HW112185   0.698   3.414   2.581
 3762SOL    HW212186   0.630   3.543   2.653
 3763SOL     OW12187   0.043   4.546   0.076
 3763SOL    HW112188   6.981   4.524   0.028
 3763SOL    HW212189   0.025   4.552   0.175
 3764SOL     OW12190   1.974   6.810   2.597
 3764SOL    HW112191   2.011   6.743   2.531
 3764SOL    HW212192   2.046   6.873   2.624
 3765SOL     OW12193   6.135   2.026   2.069
 3765SOL    HW112194   6.118   1.950   2.006
 3765SOL    HW212195   6.076   2.103   2.044
 3766SOL     OW12196   1.048   4.072   3.415
 3766SOL    HW112197   1.089   3.983   3.433
 3766SOL    HW212198   1.121   4.140   3.402
 3767SOL     OW12199   2.107   4.863   6.129
 3767SOL    HW112200   2.155   4.847   6.215
 3767SOL    HW212201   2.037   4.794   6.116
 3768SOL     OW12202   1.613   0.188   4.927
 3768SOL    HW112203   1.591   0.145   5.014
 3768SOL    HW212204   1.693   0.246   4.938
 3769SOL     OW12205   5.073   6.125   4.663
 3769SOL    HW112206   5.060   6.073   4.748
 3769SOL    HW212207   5.123   6.209   4.683
 3770SOL     OW12208   1.085   0.759   0.760
 3770SOL    HW112209   1.014   0.743   0.829
 3770SOL    HW212210   1.046   0.750   0.669
 3771SOL     OW12211   0.378   4.861   0.257
 3771SOL    HW112212   0.431   4.791   0.305
 3771SOL    HW212213   0.400   4.858   0.159
 3772SOL     OW12214   1.794   5.862   0.587
 3772SOL    HW112215   1.878   5.913   0.567
 3772SOL    HW212216   1.753   5.832   0.501
 3773SOL     OW12217   5.756   3.316   5.791
 3773SOL    HW112218   5.690   3.335   5.864
 3773SOL    HW212219   5.833   3.380   5.798
 3774SOL     OW12220   5.845   6.040   1.167
 3774SOL    HW112221   5.866   5.988   1.084
 3774SOL    HW212222   5.885   6.131   1.161
 3775SOL     OW12223   4.472   5.168   3.683
 3775SOL    HW112224   4.545   5.100   3.688
 3775SOL    HW212225   4.494   5.246   3.741
 3776SOL     OW12226   3.433   2.690   6.640
 3776SOL    HW112227   3.353   2.635   6.663
 3776SOL    HW212228   3.442   2.697   6.541
 3777SOL     OW12229   2.727   6.285   4.101
 3777SOL    HW112230   2.773   6.371   4.122
 3777SOL    HW212231   2.792   6.210   4.109
 3778SOL     OW12232   2.848   5.498   4.891
 3778SOL    HW112233   2.916   5.430   4.864
 3778SOL    HW212234   2.807   5.472   4.979
 3779SOL     OW12235   7.011   5.162   6.619
 3779SOL    HW112236   0.026   5.165   6.526
 3779SOL    HW212237   0.047   5.215   6.680
 3780SOL     OW12238   6.251   3.803   1.388
 3780SOL    HW112239   6.302   3.864   1.447
 3780SOL    HW212240   6.314   3.742   1.339
 3781SOL     OW12241   2.358   5.966   5.061
 3781SOL    HW112242   2.419   5.887   5.072
 3781SOL    HW212243   2.335   5.978   4.965
 3782SOL     OW12244   5.098   5.862   1.860
 3782SOL    HW112245   5.099   5.776   1.910
 3782SOL    HW212246   5.184   5.872   1.808
 3783SOL     OW12247   5.151   5.319   5.287
 3783SOL    HW112248   5.229   5.257   5.281
 3783SOL    HW212249   5.179   5.405   5.328
 3784SOL     OW12250   5.812   2.664   3.948
 3784SOL    HW112251   5.846   2.749   3.907
 3784SOL    HW212252   5.869   2.587   3.918
 3785SOL     OW12253   1.246   3.781   4.366
 3785SOL    HW112254   1.188   3.825   4.298
 3785SOL    HW212255   1.205   3.694   4.394
 3786SOL     OW12256   2.580   2.435   4.479
 3786SOL    HW112257   2.574   2.527   4.516
 3786SOL    HW212258   2.543   2.434   4.386
 3787SOL     OW12259   4.592   6.794   3.045
 3787SOL    HW112260   4.640   6.800   3.132
 3787SOL    HW212261   4.617   6.709   2.998
 3788SOL     OW12262   6.958   3.418   5.641
 3788SOL    HW112263   6.967   3.332   5.591
 3788SOL    HW212264   6.956   3.399   5.739
 3789SOL     OW12265   1.877   2.934   2.578
 3789SOL    HW112266   1.823   3.017   2.586
 3789SOL    HW212267   1.966   2.947   2.622
 3790SOL     OW12268   0.587   6.495   0.965
 3790SOL    HW112269   0.506   6.521   1.018
 3790SOL    HW212270   0.576   6.527   0.871
 3791SOL     OW12271   5.660   0.998   6.103
 3791SOL    HW112272   5.642   0.904   6.134
 3791SOL    HW212273   5.574   1.042   6.076
 3792SOL     OW12274   0.665   0.857   4.126
 3792SOL    HW112275   0.687   0.773   4.076
 3792SOL    HW212276   0.604   0.835   4.203
 3793SOL     OW12277   5.606   5.782   0.212
 3793SOL    HW112278   5.678   5.760   0.146
 3793SOL    HW212279   5.521   5.802   0.164
 3794SOL     OW12280   2.030   3.561   6.806
 3794SOL    HW112281   2.086   3.628   6.854
 3794SOL    HW212282   2.061   3.469   6.828
 3795SOL     OW12283   2.863   5.760   1.449
 3795SOL    HW112284   2.916   5.757   1.534
 3795SOL    HW212285   2.893   5.838   1.394
 3796SOL     OW12286   3.889   2.309   6.567
 3796SOL    HW112287   3.882   2.336   6.471
 3796SOL    HW212288   3.915   2.213   6.572
 3797SOL     OW12289   1.079   4.404   3.288
 3797SOL    HW112290   1.138   4.328   3.317
 3797SOL    HW212291   1.103   4.486   3.339
 3798SOL     OW12292   2.016   6.594   3.057
 3798SOL    HW112293   1.959   6.652   3.116
 3798SOL    HW212294   1.964   6.567   2.976
 3799SOL     OW12295   6.948   2.313   2.750
 3799SOL    HW112296   6.911   2.258   2.825
 3799SOL    HW212297   7.018   2.261   2.702
 3800SOL     OW12298   5.655   2.046   2.519
 3800SOL    HW112299   5.750   2.046   2.487
 3800SOL    HW212300   5.615   1.955   2.504
 3801SOL     OW12301   5.412   0.368   1.674
 3801SOL    HW112302   5.396   0.315   1.758
 3801SOL    HW212303   5.374   0.459   1.684
 3802SOL     OW12304   6.183   2.047   2.325
 3802SOL    HW112305   6.116   2.004   2.385
 3802SOL    HW212306   6.167   2.019   2.231
 3803SOL     OW12307   3.117   3.872   4.441
 3803SOL    HW112308   3.067   3.848   4.525
 3803SOL    HW212309   3.055   3.865   4.363
 3804SOL     OW12310   3.300   6.448   4.260
 3804SOL    HW112311   3.358   6.467   4.181
 3804SOL    HW212312   3.357   6.439   4.342
 3805SOL     OW12313   2.179   2.624   0.257
 3805SOL    HW112314   2.093   2.675   0.251
 3805SOL    HW212315   2.183   2.578   0.346
 3806SOL     OW12316   3.673   3.989   0.441
 3806SOL    HW112317   3.770   3.987   0.414
 3806SOL    HW212318   3.633   3.899   0.425
 3807SOL     OW12319   1.459   4.738   4.229
 3807SOL    HW112320   1.510   4.737   4.143
 3807SOL    HW212321   1.522   4.726   4.306
 3808SOL     OW12322   3.927   6.752   6.430
 3808SOL    HW112323   3.966   6.689   6.498
 3808SOL    HW212324   3.847   6.798   6.470
 3809SOL     OW12325   5.117   2.279   1.368
 3809SOL    HW112326   5.025   2.258   1.402
 3809SOL    HW212327   5.110   2.329   1.282
 3810SOL     OW12328   6.726   2.514   2.172
 3810SOL    HW112329   6.690   2.607   2.167
 3810SOL    HW212330   6.800   2.503   2.105
 3811SOL     OW12331   7.016   6.021   4.576
 3811SOL    HW112332   0.041   5.937   4.552
 3811SOL    HW212333   7.010   6.080   4.495
 3812SOL     OW12334   4.445   6.884   0.153
 3812SOL    HW112335   4.446   6.843   0.245
 3812SOL    HW212336   4.512   6.838   0.096
 3813SOL     OW12337   6.253   3.839   0.620
 3813SOL    HW112338   6.249   3.755   0.674
 3813SOL    HW212339   6.161   3.871   0.600
 3814SOL     OW12340   6.629   6.806   4.470
 3814SOL    HW112341   6.686   6.801   4.552
 3814SOL    HW212342   6.652   6.888   4.418
 3815SOL     OW12343   4.959   3.475   0.016
 3815SOL    HW112344   4.990   3.522   6.956
 3815SOL    HW212345   4.978   3.377   0.007
 3816SOL     OW12346   0.698   5.658   5.903
 3816SOL    HW112347   0.676   5.594   5.976
 3816SOL    HW212348   0.613   5.695   5.864
 3817SOL     OW12349   4.879   3.274   2.313
 3817SOL    HW112350   4.903   3.302   2.406
 3817SOL    HW212351   4.832   3.186   2.317
 3818SOL     OW12352   0.500   0.731   2.221
 3818SOL    HW112353   0.586   0.779   2.238
 3818SOL    HW212354   0.504   0.638   2.257
 3819SOL     OW12355   6.521   4.705   4.178
 3819SOL    HW112356   6.529   4.619   4.128
 3819SOL    HW212357   6.468   4.690   4.261
 3820SOL     OW12358   5.348   6.883   4.437
 3820SOL    HW112359   5.354   6.976   4.402
 3820SOL    HW212360   5.398   6.821   4.375
 3821SOL     OW12361   1.371   0.234   0.244
 3821SOL    HW112362   1.352   0.206   0.338
 3821SOL    HW212363   1.289   0.222   0.188
 3822SOL     OW12364   4.402   1.432   0.430
 3822SOL    HW112365   4.399   1.433   0.330
 3822SOL    HW212366   4.432   1.341   0.461
 3823SOL     OW12367   4.929   4.714   5.777
 3823SOL    HW112368   4.832   4.691   5.773
 3823SOL    HW212369   4.964   4.726   5.684
 3824SOL     OW12370   2.054   3.036   0.144
 3824SOL    HW112371   1.977   3.094   0.171
 3824SOL    HW212372   2.107   3.011   0.225
 3825SOL     OW12373   1.716   3.721   6.332
 3825SOL    HW112374   1.624   3.719   6.371
 3825SOL    HW212375   1.780   3.681   6.397
 3826SOL     OW12376   5.674   4.292   2.661
 3826SOL    HW112377   5.717   4.202   2.660
 3826SOL    HW212378   5.741   4.361   2.633
 3827SOL     OW12379   1.335   1.327   1.493
 3827SOL    HW112380   1.345   1.298   1.398
 3827SOL    HW212381   1.270   1.266   1.539
 3828SOL     OW12382   3.999   3.846   4.663
 3828SOL    HW112383   3.929   3.824   4.731
 3828SOL    HW212384   4.089   3.825   4.700
 3829SOL     OW12385   0.620   3.996   2.982
 3829SOL    HW112386   0.713   4.024   3.005
 3829SOL    HW212387   0.593   3.918   3.038
 3830SOL     OW12388   0.312   0.693   4.927
 3830SOL    HW112389   0.394   0.747   4.946
 3830SOL    HW212390   0.243   0.712   4.997
 3831SOL     OW12391   4.718   1.746   3.289
 3831SOL    HW112392   4.750   1.747   3.384
 3831SOL    HW212393   4.633   1.798   3.283
 3832SOL     OW12394   0.901   0.823   2.461
 3832SOL    HW112395   0.807   0.849   2.487
 3832SOL    HW212396   0.932   0.881   2.386
 3833SOL     OW12397   0.976   6.994   6.656
 3833SOL    HW112398   0.928   0.059   6.652
 3833SOL    HW212399   1.069   7.006   6.619
 3834SOL     OW12400   4.703   4.023   1.054
 3834SOL    HW112401   4.645   3.991   0.979
 3834SOL    HW212402   4.683   3.971   1.137
 3835SOL     OW12403   3.916   5.821   5.327
 3835SOL    HW112404   3.953   5.728   5.323
 3835SOL    HW212405   3.938   5.869   5.242
 3836SOL     OW12406   7.022   5.489   6.476
 3836SOL    HW112407   6.963   5.480   6.556
 3836SOL    HW212408   6.965   5.494   6.394
 3837SOL     OW12409   4.316   4.822   4.884
 3837SOL    HW112410   4.268   4.880   4.818
 3837SOL    HW212411   4.358   4.745   4.836
 3838SOL     OW12412   1.759   1.486   3.284
 3838SOL    HW112413   1.850   1.446   3.278
 3838SOL    HW212414   1.751   1.538   3.369
 3839SOL     OW12415   4.213   0.455   2.931
 3839SOL    HW112416   4.229   0.384   2.861
 3839SOL    HW212417   4.201   0.411   3.020
 3840SOL     OW12418   2.343   0.602   0.301
 3840SOL    HW112419   2.298   0.690   0.281
 3840SOL    HW212420   2.381   0.565   0.217
 3841SOL     OW12421   6.354   4.701   3.772
 3841SOL    HW112422   6.320   4.728   3.862
 3841SOL    HW212423   6.452   4.719   3.766
 3842SOL     OW12424   2.220   2.935   5.300
 3842SOL    HW112425   2.144   2.999   5.304
 3842SOL    HW212426   2.294   2.974   5.244
 3843SOL     OW12427   5.356   2.376   0.892
 3843SOL    HW112428   5.318   2.334   0.974
 3843SOL    HW212429   5.399   2.463   0.916
 3844SOL     OW12430   1.515   4.925   0.151
 3844SOL    HW112431   1.432   4.980   0.159
 3844SOL    HW212432   1.498   4.847   0.091
 3845SOL     OW12433   2.354   6.444   0.301
 3845SOL    HW112434   2.418   6.520   0.284
 3845SOL    HW212435   2.316   6.452   0.393
 3846SOL     OW12436   0.943   3.194   3.743
 3846SOL    HW112437   0.977   3.274   3.692
 3846SOL    HW212438   0.996   3.183   3.827
 3847SOL     OW12439   6.225   1.252   5.414
 3847SOL    HW112440   6.202   1.215   5.324
 3847SOL    HW212441   6.301   1.317   5.405
 3848SOL     OW12442   5.180   3.355   2.233
 3848SOL    HW112443   5.098   3.400   2.197
 3848SOL    HW212444   5.179   3.258   2.207
 3849SOL     OW12445   0.016   5.791   6.341
 3849SOL    HW112446   6.998   5.818   6.253
 3849SOL    HW212447   7.021   5.693   6.356
 3850SOL     OW12448   2.673   1.977   1.059
 3850SOL    HW112449   2.762   2.022   1.056
 3850SOL    HW212450   2.602   2.044   1.084
 3851SOL     OW12451   7.017   5.532   3.762
 3851SOL    HW112452   6.934   5.493   3.722
 3851SOL    HW212453   0.031   5.602   3.702
 3852SOL     OW12454   2.963   6.473   4.680
 3852SOL    HW112455   3.054   6.498   4.649
 3852SOL    HW212456   2.950   6.374   4.668
 3853SOL     OW12457   1.859   1.313   3.624
 3853SOL    HW112458   1.900   1.252   3.692
 3853SOL    HW212459   1.809   1.259   3.557
 3854SOL     OW12460   1.236   2.408   2.811
 3854SOL    HW112461   1.286   2.402   2.724
 3854SOL    HW212462   1.282   2.352   2.880
 3855SOL     OW12463   4.441   6.723   0.363
 3855SOL    HW112464   4.351   6.767   0.369
 3855SOL    HW212465   4.504   6.768   0.426
 3856SOL     OW12466   0.215   2.144   6.166
 3856SOL    HW112467   0.225   2.189   6.255
 3856SOL    HW212468   0.123   2.161   6.131
 3857SOL     OW12469   1.989   0.720   6.058
 3857SOL    HW112470   2.034   0.809   6.063
 3857SOL    HW212471   1.926   0.710   6.135
 3858SOL     OW12472   3.315   1.546   5.333
 3858SOL    HW112473   3.357   1.455   5.329
 3858SOL    HW212474   3.386   1.614   5.351
 3859SOL     OW12475   5.589   0.398   1.448
 3859SOL    HW112476   5.680   0.430   1.475
 3859SOL    HW212477   5.537   0.373   1.529
 3860SOL     OW12478   2.023   0.384   4.479
 3860SOL    HW112479   1.946   0.413   4.536
 3860SOL    HW212480   2.047   0.457   4.415
 3861SOL     OW12481   4.421   5.268   2.240
 3861SOL    HW112482   4.458   5.189   2.288
 3861SOL    HW212483   4.447   5.352   2.288
 3862SOL     OW12484   0.480   6.649   4.101
 3862SOL    HW112485   0.415   6.602   4.040
 3862SOL    HW212486   0.554   6.586   4.124
 3863SOL     OW12487   4.469   0.800   0.360
 3863SOL    HW112488   4.405   0.878   0.357
 3863SOL    HW212489   4.562   0.834   0.347
 3864SOL     OW12490   2.294   0.634   4.637
 3864SOL    HW112491   2.370   0.699   4.642
 3864SOL    HW212492   2.299   0.584   4.550
 3865SOL     OW12493   4.395   0.834   7.011
 3865SOL    HW112494   4.305   0.849   6.969
 3865SOL    HW212495   4.458   0.798   6.942
 3866SOL     OW12496   3.266   2.226   0.173
 3866SOL    HW112497   3.247   2.323   0.190
 3866SOL    HW212498   3.227   2.200   0.085
 3867SOL     OW12499   1.294   4.277   2.820
 3867SOL    HW112500   1.225   4.298   2.751
 3867SOL    HW212501   1.351   4.202   2.787
 3868SOL     OW12502   3.318   0.597   6.789
 3868SOL    HW112503   3.388   0.529   6.769
 3868SOL    HW212504   3.345   0.650   6.870
 3869SOL     OW12505   0.033   3.412   3.631
 3869SOL    HW112506   0.055   3.428   3.727
 3869SOL    HW212507   6.979   3.348   3.624
 3870SOL     OW12508   6.706   0.128   3.245
 3870SOL    HW112509   6.673   0.215   3.208
 3870SOL    HW212510   6.631   0.062   3.247
 3871SOL     OW12511   3.283   6.140   3.903
 3871SOL    HW112512   3.220   6.217   3.913
 3871SOL    HW212513   3.266   6.094   3.815
 3872SOL     OW12514   3.353   3.280   4.422
 3872SOL    HW112515   3.405   3.323   4.348
 3872SOL    HW212516   3.285   3.344   4.457
 3873SOL     OW12517   5.254   3.346   0.151
 3873SOL    HW112518   5.199   3.320   0.230
 3873SOL    HW212519   5.284   3.441   0.161
 3874SOL     OW12520   4.313   6.690   0.920
 3874SOL    HW112521   4.255   6.627   0.971
 3874SOL    HW212522   4.291   6.684   0.823
 3875SOL     OW12523   1.995   2.605   4.514
 3875SOL    HW112524   2.010   2.507   4.501
 3875SOL    HW212525   2.051   2.638   4.590
 3876SOL     OW12526   4.237   6.653   0.661
 3876SOL    HW112527   4.250   6.698   0.573
 3876SOL    HW212528   4.277   6.561   0.657
 3877SOL     OW12529   6.659   2.254   0.526
 3877SOL    HW112530   6.636   2.337   0.475
 3877SOL    HW212531   6.578   2.222   0.576
 3878SOL     OW12532   4.954   0.325   4.290
 3878SOL    HW112533   4.902   0.243   4.316
 3878SOL    HW212534   5.051   0.301   4.280
 3879SOL     OW12535   5.584   5.029   6.957
 3879SOL    HW112536   5.588   4.963   6.881
 3879SOL    HW212537   5.500   5.015   7.009
 3880SOL     OW12538   5.386   4.801   5.396
 3880SOL    HW112539   5.343   4.835   5.480
 3880SOL    HW212540   5.368   4.704   5.386
 3881SOL     OW12541   1.095   3.403   0.836
 3881SOL    HW112542   1.152   3.471   0.883
 3881SOL    HW212543   0.999   3.421   0.854
 3882SOL     OW12544   1.326   1.090   0.256
 3882SOL    HW112545   1.408   1.144   0.279
 3882SOL    HW212546   1.271   1.141   0.190
 3883SOL     OW12547   4.765   0.374   2.946
 3883SOL    HW112548   4.773   0.426   2.862
 3883SOL    HW212549   4.764   0.437   3.024
 3884SOL     OW12550   0.591   6.027   3.115
 3884SOL    HW112551   0.642   5.974   3.182
 3884SOL    HW212552   0.531   5.966   3.063
 3885SOL     OW12553   5.990   6.691   2.969
 3885SOL    HW112554   6.006   6.595   2.990
 3885SOL    HW212555   5.918   6.727   3.029
 3886SOL     OW12556   4.487   6.072   6.042
 3886SOL    HW112557   4.546   6.054   6.120
 3886SOL    HW212558   4.523   6.025   5.961
 3887SOL     OW12559   0.920   6.687   0.719
 3887SOL    HW112560   0.959   6.601   0.751
 3887SOL    HW212561   0.885   6.674   0.626
 3888SOL     OW12562   5.433   6.489   4.792
 3888SOL    HW112563   5.441   6.397   4.754
 3888SOL    HW212564   5.465   6.555   4.724
 3889SOL     OW12565   5.894   2.368   6.747
 3889SOL    HW112566   5.930   2.451   6.790
 3889SOL    HW212567   5.797   2.358   6.770
 3890SOL     OW12568   5.679   4.542   4.270
 3890SOL    HW112569   5.610   4.578   4.208
 3890SOL    HW212570   5.663   4.445   4.286
 3891SOL     OW12571   4.977   4.442   3.557
 3891SOL    HW112572   4.904   4.486   3.610
 3891SOL    HW212573   4.946   4.426   3.464
 3892SOL     OW12574   0.384   2.895   1.274
 3892SOL    HW112575   0.464   2.924   1.327
 3892SOL    HW212576   0.401   2.911   1.176
 3893SOL     OW12577   4.578   3.364   1.418
 3893SOL    HW112578   4.567   3.334   1.323
 3893SOL    HW212579   4.627   3.295   1.470
 3894SOL     OW12580   5.124   0.797   6.807
 3894SOL    HW112581   5.191   0.863   6.840
 3894SOL    HW212582   5.081   0.752   6.885
 3895SOL     OW12583   1.555   0.086   5.189
 3895SOL    HW112584   1.517   0.003   5.232
 3895SOL    HW212585   1.618   0.129   5.253
 3896SOL     OW12586   0.831   0.900   6.717
 3896SOL    HW112587   0.766   0.825   6.725
 3896SOL    HW212588   0.883   0.907   6.802
 3897SOL     OW12589   4.395   5.866   2.532
 3897SOL    HW112590   4.332   5.926   2.583
 3897SOL    HW212591   4.345   5.824   2.456
 3898SOL     OW12592   3.868   2.696   0.042
 3898SOL    HW112593   3.790   2.748   0.006
 3898SOL    HW212594   3.840   2.648   0.125
 3899SOL     OW12595   4.508   6.644   6.421
 3899SOL    HW112596   4.546   6.573   6.361
 3899SOL    HW212597   4.409   6.640   6.419
 3900SOL     OW12598   5.395   3.208   3.881
 3900SOL    HW112599   5.453   3.200   3.962
 3900SOL    HW212600   5.437   3.159   3.805
 3901SOL     OW12601   3.544   0.779   5.969
 3901SOL    HW112602   3.483   0.702   5.992
 3901SOL    HW212603   3.494   0.865   5.980
 3902SOL     OW12604   6.029   3.164   2.080
 3902SOL    HW112605   6.051   3.227   2.005
 3902SOL    HW212606   6.090   3.085   2.075
 3903SOL     OW12607   3.934   6.549   0.690
 3903SOL    HW112608   3.993   6.615   0.643
 3903SOL    HW212609   3.990   6.495   0.753
 3904SOL     OW12610   1.580   0.362   6.493
 3904SOL    HW112611   1.546   0.327   6.581
 3904SOL    HW212612   1.673   0.396   6.505
 3905SOL     OW12613   6.987   0.214   6.448
 3905SOL    HW112614   6.943   0.276   6.383
 3905SOL    HW212615   7.020   0.266   6.527
 3906SOL     OW12616   5.783   6.742   5.904
 3906SOL    HW112617   5.803   6.711   5.811
 3906SOL    HW212618   5.857   6.715   5.965
 3907SOL     OW12619   5.883   0.977   4.075
 3907SOL    HW112620   5.932   1.026   4.002
 3907SOL    HW212621   5.919   1.005   4.163
 3908SOL     OW12622   0.844   2.814   0.270
 3908SOL    HW112623   0.809   2.751   0.339
 3908SOL    HW212624   0.871   2.900   0.314
 3909SOL     OW12625   5.471   6.102   4.425
 3909SOL    HW112626   5.396   6.167   4.415
 3909SOL    HW212627   5.531   6.108   4.345
 3910SOL     OW12628   3.456   3.975   2.629
 3910SOL    HW112629   3.519   4.012   2.698
 3910SOL    HW212630   3.481   4.010   2.539
 3911SOL     OW12631   5.991   1.996   5.238
 3911SOL    HW112632   6.060   2.024   5.172
 3911SOL    HW212633   5.904   1.980   5.191
 3912SOL     OW12634   5.256   1.329   4.787
 3912SOL    HW112635   5.304   1.269   4.723
 3912SOL    HW212636   5.174   1.283   4.822
 3913SOL     OW12637   1.990   7.015   6.483
 3913SOL    HW112638   1.927   6.960   6.538
 3913SOL    HW212639   2.082   7.009   6.520
 3914SOL     OW12640   3.100   0.487   1.076
 3914SOL    HW112641   3.180   0.430   1.096
 3914SOL    HW212642   3.066   0.465   0.984
 3915SOL     OW12643   5.386   5.955   0.944
 3915SOL    HW112644   5.340   6.010   1.013
 3915SOL    HW212645   5.465   6.005   0.908
 3916SOL     OW12646   1.396   6.864   3.367
 3916SOL    HW112647   1.352   6.953   3.379
 3916SOL    HW212648   1.485   6.876   3.324
 3917SOL     OW12649   0.142   6.492   7.020
 3917SOL    HW112650   0.226   6.482   0.050
 3917SOL    HW212651   0.135   6.418   6.953
 3918SOL     OW12652   5.554   5.607   1.788
 3918SOL    HW112653   5.654   5.597   1.782
 3918SOL    HW212654   5.525   5.680   1.727
 3919SOL     OW12655   4.480   0.107   0.353
 3919SOL    HW112656   4.446   0.147   0.268
 3919SOL    HW212657   4.415   0.124   0.427
 3920SOL     OW12658   2.732   3.659   0.653
 3920SOL    HW112659   2.780   3.687   0.570
 3920SOL    HW212660   2.790   3.678   0.733
 3921SOL     OW12661   0.066   3.642   1.232
 3921SOL    HW112662   0.049   3.594   1.319
 3921SOL    HW212663   0.041   3.583   1.156
 3922SOL     OW12664   6.831   3.819   1.763
 3922SOL    HW112665   6.799   3.725   1.757
 3922SOL    HW212666   6.809   3.868   1.678
 3923SOL     OW12667   6.934   0.597   0.252
 3923SOL    HW112668   6.875   0.657   0.198
 3923SOL    HW212669   6.904   0.599   0.348
 3924SOL     OW12670   5.746   5.314   4.028
 3924SOL    HW112671   5.801   5.327   3.946
 3924SOL    HW212672   5.657   5.360   4.016
 3925SOL     OW12673   1.512   4.945   1.238
 3925SOL    HW112674   1.443   4.948   1.166
 3925SOL    HW212675   1.523   4.851   1.270
 3926SOL     OW12676   4.938   4.689   2.687
 3926SOL    HW112677   4.937   4.723   2.781
 3926SOL    HW212678   4.916   4.763   2.624
 3927SOL     OW12679   6.290   2.755   5.079
 3927SOL    HW112680   6.355   2.706   5.021
 3927SOL    HW212681   6.341   2.811   5.145
 3928SOL     OW12682   4.281   6.402   6.986
 3928SOL    HW112683   4.365   6.420   6.935
 3928SOL    HW212684   4.229   6.487   6.996
 3929SOL     OW12685   0.367   0.370   4.670
 3929SOL    HW112686   0.377   0.388   4.768
 3929SOL    HW212687   0.431   0.428   4.619
 3930SOL     OW12688   2.859   2.164   4.694
 3930SOL    HW112689   2.941   2.176   4.750
 3930SOL    HW212690   2.798   2.098   4.737
 3931SOL     OW12691   1.487   1.726   1.914
 3931SOL    HW112692   1.524   1.681   1.833
 3931SOL    HW212693   1.558   1.731   1.984
 3932SOL     OW12694   0.956   4.007   3.765
 3932SOL    HW112695   0.976   3.910   3.778
 3932SOL    HW212696   0.895   4.018   3.686
 3933SOL     OW12697   1.851   6.606   6.266
 3933SOL    HW112698   1.928   6.668   6.255
 3933SOL    HW212699   1.778   6.651   6.318
 3934SOL     OW12700   6.592   0.567   6.564
 3934SOL    HW112701   6.671   0.624   6.542
 3934SOL    HW212702   6.521   0.624   6.606
 3935SOL     OW12703   2.939   0.123   6.926
 3935SOL    HW112704   2.920   0.195   6.993
 3935SOL    HW212705   2.979   0.044   6.972
 3936SOL     OW12706   6.662   5.194   5.315
 3936SOL    HW112707   6.637   5.097   5.307
 3936SOL    HW212708   6.762   5.202   5.318
 3937SOL     OW12709   0.405   1.509   2.939
 3937SOL    HW112710   0.306   1.516   2.923
 3937SOL    HW212711   0.454   1.559   2.868
 3938SOL     OW12712   1.180   1.869   3.291
 3938SOL    HW112713   1.136   1.803   3.229
 3938SOL    HW212714   1.112   1.936   3.321
 3939SOL     OW12715   2.032   2.625   2.793
 3939SOL    HW112716   2.084   2.573   2.860
 3939SOL    HW212717   1.952   2.666   2.837
 3940SOL     OW12718   4.409   4.540   0.899
 3940SOL    HW112719   4.503   4.528   0.867
 3940SOL    HW212720   4.399   4.500   0.990
 3941SOL     OW12721   5.417   3.653   5.345
 3941SOL    HW112722   5.453   3.603   5.423
 3941SOL    HW212723   5.320   3.630   5.333
 3942SOL     OW12724   0.401   6.390   0.068
 3942SOL    HW112725   0.485   6.335   0.069
 3942SOL    HW212726   0.340   6.358   0.140
 3943SOL     OW12727   0.321   2.806   3.946
 3943SOL    HW112728   0.277   2.742   4.009
 3943SOL    HW212729   0.299   2.782   3.852
 3944SOL     OW12730   4.899   2.765   5.171
 3944SOL    HW112731   4.861   2.845   5.123
 3944SOL    HW212732   4.839   2.686   5.156
 3945SOL     OW12733   6.690   2.048   0.008
 3945SOL    HW112734   6.657   2.028   6.938
 3945SOL    HW212735   6.729   2.140   0.011
 3946SOL     OW12736   5.178   4.340   4.709
 3946SOL    HW112737   5.243   4.394   4.655
 3946SOL    HW212738   5.193   4.243   4.692
 3947SOL     OW12739   5.004   6.117   6.882
 3947SOL    HW112740   4.996   6.062   6.965
 3947SOL    HW212741   5.091   6.097   6.838
 3948SOL     OW12742   0.306   4.746   1.711
 3948SOL    HW112743   0.292   4.844   1.703
 3948SOL    HW212744   0.381   4.728   1.775
 3949SOL     OW12745   5.191   6.678   3.370
 3949SOL    HW112746   5.240   6.719   3.294
 3949SOL    HW212747   5.108   6.633   3.337
 3950SOL     OW12748   1.362   4.470   0.585
 3950SOL    HW112749   1.433   4.529   0.545
 3950SOL    HW212750   1.274   4.517   0.578
 3951SOL     OW12751   4.492   6.979   1.539
 3951SOL    HW112752   4.406   7.020   1.569
 3951SOL    HW212753   4.507   7.001   1.443
 3952SOL     OW12754   0.107   2.527   1.806
 3952SOL    HW112755   0.148   2.509   1.717
 3952SOL    HW212756   0.069   2.620   1.808
 3953SOL     OW12757   4.005   4.729   1.370
 3953SOL    HW112758   3.935   4.705   1.303
 3953SOL    HW212759   4.034   4.647   1.419
 3954SOL     OW12760   3.988   5.256   5.976
 3954SOL    HW112761   3.911   5.236   6.035
 3954SOL    HW212762   3.955   5.296   5.890
 3955SOL     OW12763   2.876   0.798   6.238
 3955SOL    HW112764   2.812   0.724   6.216
 3955SOL    HW212765   2.883   0.861   6.161
 3956SOL     OW12766   1.253   0.815   2.354
 3956SOL    HW112767   1.280   0.871   2.432
 3956SOL    HW212768   1.326   0.816   2.285
 3957SOL     OW12769   4.043   7.018   4.389
 3957SOL    HW112770   4.067   0.092   4.388
 3957SOL    HW212771   4.123   6.964   4.414
 3958SOL     OW12772   5.742   1.515   4.345
 3958SOL    HW112773   5.765   1.421   4.319
 3958SOL    HW212774   5.735   1.571   4.263
 3959SOL     OW12775   5.329   6.042   0.196
 3959SOL    HW112776   5.257   5.994   0.245
 3959SOL    HW212777   5.402   6.066   0.260
 3960SOL     OW12778   5.092   1.053   6.326
 3960SOL    HW112779   5.059   1.129   6.382
 3960SOL    HW212780   5.120   0.977   6.385
 3961SOL     OW12781   4.507   0.871   2.789
 3961SOL    HW112782   4.575   0.855   2.717
 3961SOL    HW212783   4.462   0.785   2.813
 3962SOL     OW12784   2.015   5.024   6.515
 3962SOL    HW112785   2.029   5.103   6.574
 3962SOL    HW212786   2.099   5.004   6.464
 3963SOL     OW12787   4.521   5.041   2.384
 3963SOL    HW112788   4.526   4.952   2.340
 3963SOL    HW212789   4.603   5.058   2.438
 3964SOL     OW12790   4.790   4.694   3.777
 3964SOL    HW112791   4.851   4.724   3.704
 3964SOL    HW212792   4.752   4.605   3.753
 3965SOL     OW12793   4.916   3.357   4.182
 3965SOL    HW112794   4.975   3.277   4.173
 3965SOL    HW212795   4.915   3.407   4.095
 3966SOL     OW12796   4.260   6.102   6.406
 3966SOL    HW112797   4.331   6.041   6.368
 3966SOL    HW212798   4.298   6.194   6.415
 3967SOL     OW12799   1.908   4.350   2.086
 3967SOL    HW112800   1.860   4.380   2.168
 3967SOL    HW212801   1.844   4.307   2.023
 3968SOL     OW12802   4.151   0.699   0.746
 3968SOL    HW112803   4.135   0.734   0.654
 3968SOL    HW212804   4.067   0.705   0.799
 3969SOL     OW12805   1.272   5.100   2.276
 3969SOL    HW112806   1.236   5.024   2.222
 3969SOL    HW212807   1.238   5.092   2.370
 3970SOL     OW12808   4.597   5.962   3.218
 3970SOL    HW112809   4.547   5.890   3.265
 3970SOL    HW212810   4.548   6.049   3.226
 3971SOL     OW12811   3.206   5.461   4.220
 3971SOL    HW112812   3.297   5.421   4.212
 3971SOL    HW212813   3.205   5.551   4.176
 3972SOL     OW12814   1.736   4.061   6.950
 3972SOL    HW112815   1.704   4.018   0.011
 3972SOL    HW212816   1.836   4.063   6.949
 3973SOL     OW12817   1.388   5.616   0.298
 3973SOL    HW112818   1.389   5.516   0.309
 3973SOL    HW212819   1.339   5.657   0.375
 3974SOL     OW12820   1.918   6.920   6.028
 3974SOL    HW112821   1.859   6.948   5.953
 3974SOL    HW212822   2.000   6.977   6.030
 3975SOL     OW12823   5.391   1.086   6.396
 3975SOL    HW112824   5.401   1.165   6.457
 3975SOL    HW212825   5.407   1.115   6.302
 3976SOL     OW12826   2.258   5.781   3.088
 3976SOL    HW112827   2.343   5.787   3.037
 3976SOL    HW212828   2.273   5.809   3.183
 3977SOL     OW12829   1.483   2.883   6.538
 3977SOL    HW112830   1.576   2.915   6.554
 3977SOL    HW212831   1.477   2.844   6.446
 3978SOL     OW12832   5.502   5.353   3.334
 3978SOL    HW112833   5.532   5.267   3.374
 3978SOL    HW212834   5.422   5.387   3.383
 3979SOL     OW12835   3.578   0.859   6.445
 3979SOL    HW112836   3.531   0.783   6.401
 3979SOL    HW212837   3.676   0.840   6.450
 3980SOL     OW12838   5.236   6.891   6.515
 3980SOL    HW112839   5.293   6.945   6.453
 3980SOL    HW212840   5.193   6.951   6.582
 3981SOL     OW12841   4.263   5.815   0.423
 3981SOL    HW112842   4.254   5.773   0.513
 3981SOL    HW212843   4.344   5.778   0.378
 3982SOL     OW12844   2.398   6.554   2.995
 3982SOL    HW112845   2.419   6.617   3.070
 3982SOL    HW212846   2.459   6.572   2.919
 3983SOL     OW12847   5.035   5.153   4.087
 3983SOL    HW112848   4.996   5.062   4.099
 3983SOL    HW212849   5.116   5.162   4.144
 3984SOL     OW12850   6.501   0.716   1.633
 3984SOL    HW112851   6.490   0.622   1.664
 3984SOL    HW212852   6.590   0.727   1.590
 3985SOL     OW12853   3.184   5.631   0.050
 3985SOL    HW112854   3.127   5.668   6.999
 3985SOL    HW212855   3.270   5.598   0.012
 3986SOL     OW12856   5.202   1.568   2.571
 3986SOL    HW112857   5.246   1.596   2.656
 3986SOL    HW212858   5.191   1.468   2.570
 3987SOL     OW12859   3.278   4.939   4.147
 3987SOL    HW112860   3.374   4.914   4.159
 3987SOL    HW212861   3.257   5.019   4.204
 3988SOL     OW12862   3.637   5.313   6.810
 3988SOL    HW112863   3.700   5.383   6.779
 3988SOL    HW212864   3.546   5.330   6.770
 3989SOL     OW12865   6.959   2.261   6.809
 3989SOL    HW112866   6.918   2.320   6.878
 3989SOL    HW212867   0.035   2.277   6.807
 3990SOL     OW12868   4.960   2.788   2.484
 3990SOL    HW112869   5.029   2.764   2.416
 3990SOL    HW212870   5.004   2.797   2.574
 3991SOL     OW12871   6.837   1.563   1.544
 3991SOL    HW112872   6.745   1.525   1.554
 3991SOL    HW212873   6.882   1.521   1.465
 3992SOL     OW12874   2.955   2.608   0.634
 3992SOL    HW112875   3.042   2.561   0.643
 3992SOL    HW212876   2.969   2.707   0.644
 3993SOL     OW12877   1.443   2.872   2.497
 3993SOL    HW112878   1.427   2.970   2.502
 3993SOL    HW212879   1.357   2.823   2.510
 3994SOL     OW12880   2.775   0.489   5.900
 3994SOL    HW112881   2.791   0.405   5.952
 3994SOL    HW212882   2.845   0.498   5.829
 3995SOL     OW12883   1.967   3.440   5.798
 3995SOL    HW112884   1.929   3.482   5.715
 3995SOL    HW212885   1.916   3.471   5.877
 3996SOL     OW12886   0.035   6.344   5.450
 3996SOL    HW112887   7.011   6.371   5.535
 3996SOL    HW212888   0.040   6.423   5.388
 3997SOL     OW12889   5.417   1.719   3.519
 3997SOL    HW112890   5.431   1.657   3.441
 3997SOL    HW212891   5.440   1.812   3.492
 3998SOL     OW12892   3.712   0.950   4.487
 3998SOL    HW112893   3.637   0.938   4.422
 3998SOL    HW212894   3.674   0.961   4.579
 3999SOL     OW12895   6.164   1.981   4.098
 3999SOL    HW112896   6.249   2.032   4.086
 3999SOL    HW212897   6.179   1.884   4.079
 4000SOL     OW12898   2.812   6.510   4.306
 4000SOL    HW112899   2.831   6.586   4.368
 4000SOL    HW212900   2.744   6.449   4.346
 4001SOL     OW12901   2.885   1.878   4.562
 4001SOL    HW112902   2.954   1.950   4.575
 4001SOL    HW212903   2.878   1.855   4.465
 4002SOL     OW12904   2.883   3.626   1.887
 4002SOL    HW112905   2.861   3.646   1.791
 4002SOL    HW212906   2.848   3.536   1.911
 4003SOL     OW12907   3.259   0.389   4.005
 4003SOL    HW112908   3.341   0.404   4.062
 4003SOL    HW212909   3.277   0.315   3.941
 4004SOL     OW12910   6.433   2.092   4.270
 4004SOL    HW112911   6.351   2.055   4.314
 4004SOL    HW212912   6.429   2.192   4.273
 4005SOL     OW12913   4.761   5.413   5.932
 4005SOL    HW112914   4.691   5.363   5.983
 4005SOL    HW212915   4.724   5.442   5.843
 4006SOL     OW12916   3.915   5.168   1.989
 4006SOL    HW112917   3.822   5.135   1.977
 4006SOL    HW212918   3.947   5.211   1.905
 4007SOL     OW12919   0.210   2.797   6.889
 4007SOL    HW112920   0.180   2.715   6.840
 4007SOL    HW212921   0.174   2.878   6.844
 4008SOL     OW12922   2.670   2.328   4.977
 4008SOL    HW112923   2.666   2.308   4.879
 4008SOL    HW212924   2.756   2.294   5.015
 4009SOL     OW12925   4.002   3.131   2.091
 4009SOL    HW112926   3.936   3.164   2.024
 4009SOL    HW212927   4.028   3.206   2.152
 4010SOL     OW12928   2.466   3.114   1.722
 4010SOL    HW112929   2.531   3.186   1.748
 4010SOL    HW212930   2.494   3.074   1.634
 4011SOL     OW12931   1.136   2.314   2.254
 4011SOL    HW112932   1.212   2.251   2.237
 4011SOL    HW212933   1.112   2.313   2.351
 4012SOL     OW12934   6.884   4.239   2.445
 4012SOL    HW112935   6.853   4.323   2.401
 4012SOL    HW212936   6.978   4.251   2.476
 4013SOL     OW12937   3.836   2.069   4.603
 4013SOL    HW112938   3.887   2.129   4.664
 4013SOL    HW212939   3.859   2.091   4.508
 4014SOL     OW12940   6.327   6.598   2.425
 4014SOL    HW112941   6.239   6.635   2.455
 4014SOL    HW212942   6.328   6.499   2.439
 4015SOL     OW12943   4.460   4.261   6.398
 4015SOL    HW112944   4.545   4.315   6.390
 4015SOL    HW212945   4.418   4.281   6.486
 4016SOL     OW12946   2.547   5.997   5.847
 4016SOL    HW112947   2.605   6.042   5.779
 4016SOL    HW212948   2.601   5.928   5.896
 4017SOL     OW12949   6.872   5.567   0.518
 4017SOL    HW112950   6.783   5.600   0.550
 4017SOL    HW212951   6.944   5.600   0.579
 4018SOL     OW12952   4.513   5.689   1.876
 4018SOL    HW112953   4.450   5.728   1.943
 4018SOL    HW212954   4.503   5.589   1.875
 4019SOL     OW12955   5.204   4.235   2.440
 4019SOL    HW112956   5.121   4.287   2.422
 4019SOL    HW212957   5.182   4.155   2.496
 4020SOL     OW12958   4.695   2.605   5.115
 4020SOL    HW112959   4.659   2.542   5.184
 4020SOL    HW212960   4.635   2.604   5.035
 4021SOL     OW12961   3.052   5.370   6.165
 4021SOL    HW112962   3.049   5.418   6.078
 4021SOL    HW212963   3.089   5.278   6.152
 4022SOL     OW12964   5.129   1.489   0.456
 4022SOL    HW112965   5.088   1.572   0.418
 4022SOL    HW212966   5.166   1.509   0.547
 4023SOL     OW12967   6.422   2.110   5.185
 4023SOL    HW112968   6.466   2.029   5.223
 4023SOL    HW212969   6.327   2.088   5.160
 4024SOL     OW12970   3.842   5.472   4.079
 4024SOL    HW112971   3.892   5.472   3.993
 4024SOL    HW212972   3.744   5.480   4.061
 4025SOL     OW12973   0.463   3.391   3.960
 4025SOL    HW112974   0.555   3.355   3.946
 4025SOL    HW212975   0.410   3.327   4.016
 4026SOL     OW12976   4.864   6.153   3.825
 4026SOL    HW112977   4.817   6.216   3.886
 4026SOL    HW212978   4.958   6.139   3.856
 4027SOL     OW12979   4.084   4.548   1.630
 4027SOL    HW112980   4.029   4.487   1.572
 4027SOL    HW212981   4.168   4.501   1.657
 4028SOL     OW12982   2.204   1.689   3.672
 4028SOL    HW112983   2.256   1.722   3.594
 4028SOL    HW212984   2.243   1.601   3.703
 4029SOL     OW12985   1.733   4.055   5.828
 4029SOL    HW112986   1.670   4.039   5.904
 4029SOL    HW212987   1.827   4.057   5.863
 4030SOL     OW12988   0.819   1.912   5.192
 4030SOL    HW112989   0.879   1.887   5.117
 4030SOL    HW212990   0.772   1.830   5.226
 4031SOL     OW12991   4.003   6.002   4.324
 4031SOL    HW112992   4.078   5.973   4.383
 4031SOL    HW212993   4.036   6.070   4.259
 4032SOL     OW12994   5.519   0.097   4.020
 4032SOL    HW112995   5.430   0.112   4.063
 4032SOL    HW212996   5.525   0.151   3.937
 4033SOL     OW12997   3.090   3.101   4.920
 4033SOL    HW112998   3.149   3.020   4.916
 4033SOL    HW212999   3.126   3.164   4.989
 4034SOL     OW13000   6.914   2.207   4.116
 4034SOL    HW113001   6.874   2.171   4.031
 4034SOL    HW213002   6.983   2.143   4.149
 4035SOL     OW13003   0.553   4.324   6.969
 4035SOL    HW113004   0.632   4.343   0.005
 4035SOL    HW213005   0.556   4.384   6.889
 4036SOL     OW13006   6.285   6.855   2.926
 4036SOL    HW113007   6.292   6.838   3.025
 4036SOL    HW213008   6.265   6.770   2.879
 4037SOL     OW13009   0.678   3.397   6.849
 4037SOL    HW113010   0.583   3.428   6.843
 4037SOL    HW213011   0.737   3.457   6.796
 4038SOL     OW13012   5.172   4.606   3.459
 4038SOL    HW113013   5.228   4.544   3.403
 4038SOL    HW213014   5.090   4.557   3.490
 4039SOL     OW13015   5.485   6.540   0.035
 4039SOL    HW113016   5.388   6.533   0.058
 4039SOL    HW213017   5.513   6.459   7.006
 4040SOL     OW13018   3.211   6.626   1.448
 4040SOL    HW113019   3.215   6.719   1.412
 4040SOL    HW213020   3.293   6.575   1.418
 4041SOL     OW13021   1.388   6.143   3.892
 4041SOL    HW113022   1.445   6.159   3.812
 4041SOL    HW213023   1.378   6.044   3.906
 4042SOL     OW13024   6.235   4.947   1.743
 4042SOL    HW113025   6.330   4.953   1.774
 4042SOL    HW213026   6.232   4.908   1.652
 4043SOL     OW13027   6.107   2.358   0.574
 4043SOL    HW113028   6.072   2.361   0.668
 4043SOL    HW213029   6.030   2.361   0.510
 4044SOL     OW13030   5.712   0.292   3.357
 4044SOL    HW113031   5.637   0.244   3.312
 4044SOL    HW213032   5.688   0.388   3.367
 4045SOL     OW13033   2.488   5.583   6.332
 4045SOL    HW113034   2.425   5.557   6.405
 4045SOL    HW213035   2.446   5.564   6.243
 4046SOL     OW13036   0.889   3.248   1.704
 4046SOL    HW113037   0.876   3.315   1.777
 4046SOL    HW213038   0.831   3.270   1.627
 4047SOL     OW13039   2.603   3.930   1.666
 4047SOL    HW113040   2.600   3.854   1.601
 4047SOL    HW213041   2.699   3.951   1.688
 4048SOL     OW13042   4.957   0.121   0.756
 4048SOL    HW113043   4.895   0.113   0.834
 4048SOL    HW213044   4.929   0.199   0.699
 4049SOL     OW13045   5.156   6.975   4.664
 4049SOL    HW113046   5.103   6.929   4.735
 4049SOL    HW213047   5.177   6.911   4.590
 4050SOL     OW13048   2.214   0.089   0.896
 4050SOL    HW113049   2.136   0.142   0.927
 4050SOL    HW213050   2.288   0.096   0.963
 4051SOL     OW13051   3.606   4.170   1.665
 4051SOL    HW113052   3.585   4.268   1.658
 4051SOL    HW213053   3.610   4.131   1.573
 4052SOL     OW13054   0.560   0.541   0.777
 4052SOL    HW113055   0.528   0.632   0.750
 4052SOL    HW213056   0.634   0.513   0.716
 4053SOL     OW13057   3.734   4.988   3.601
 4053SOL    HW113058   3.785   4.962   3.519
 4053SOL    HW213059   3.680   5.070   3.583
 4054SOL     OW13060   4.123   2.539   1.136
 4054SOL    HW113061   4.179   2.493   1.205
 4054SOL    HW213062   4.111   2.635   1.162
 4055SOL     OW13063   3.962   1.481   6.262
 4055SOL    HW113064   3.916   1.395   6.240
 4055SOL    HW213065   3.912   1.557   6.221
 4056SOL     OW13066   3.810   3.421   0.944
 4056SOL    HW113067   3.768   3.474   0.871
 4056SOL    HW213068   3.739   3.381   1.002
 4057SOL     OW13069   5.286   2.530   6.810
 4057SOL    HW113070   5.355   2.504   6.876
 4057SOL    HW213071   5.248   2.620   6.833
 4058SOL     OW13072   1.654   0.944   5.314
 4058SOL    HW113073   1.595   0.956   5.233
 4058SOL    HW213074   1.696   1.031   5.338
 4059SOL     OW13075   0.289   1.492   4.452
 4059SOL    HW113076   0.359   1.556   4.483
 4059SOL    HW213077   0.326   1.400   4.448
 4060SOL     OW13078   4.396   5.188   4.200
 4060SOL    HW113079   4.460   5.263   4.220
 4060SOL    HW213080   4.359   5.199   4.108
 4061SOL     OW13081   3.300   3.025   1.539
 4061SOL    HW113082   3.205   3.034   1.509
 4061SOL    HW213083   3.303   3.012   1.638
 4062SOL     OW13084   2.694   0.504   3.358
 4062SOL    HW113085   2.648   0.420   3.386
 4062SOL    HW213086   2.789   0.484   3.334
 4063SOL     OW13087   3.030   5.031   6.540
 4063SOL    HW113088   2.962   4.986   6.598
 4063SOL    HW213089   3.116   5.040   6.591
 4064SOL     OW13090   6.767   0.583   3.711
 4064SOL    HW113091   6.736   0.494   3.677
 4064SOL    HW213092   6.841   0.616   3.652
 4065SOL     OW13093   5.817   5.761   0.024
 4065SOL    HW113094   5.813   5.725   6.954
 4065SOL    HW213095   5.902   5.813   0.035
 4066SOL     OW13096   6.093   4.016   1.340
 4066SOL    HW113097   6.098   4.074   1.421
 4066SOL    HW213098   6.144   3.931   1.356
 4067SOL     OW13099   6.243   0.903   1.957
 4067SOL    HW113100   6.230   0.817   1.907
 4067SOL    HW213101   6.180   0.906   2.035
 4068SOL     OW13102   6.333   0.483   3.863
 4068SOL    HW113103   6.244   0.516   3.897
 4068SOL    HW213104   6.318   0.426   3.782
 4069SOL     OW13105   6.398   5.202   1.009
 4069SOL    HW113106   6.475   5.215   1.071
 4069SOL    HW213107   6.316   5.177   1.062
 4070SOL     OW13108   1.358   3.389   2.780
 4070SOL    HW113109   1.352   3.457   2.854
 4070SOL    HW213110   1.342   3.298   2.818
 4071SOL     OW13111   1.824   6.256   3.962
 4071SOL    HW113112   1.805   6.300   4.050
 4071SOL    HW213113   1.893   6.308   3.913
 4072SOL     OW13114   1.385   0.188   4.538
 4072SOL    HW113115   1.405   0.235   4.624
 4072SOL    HW213116   1.470   0.168   4.490
 4073SOL     OW13117   2.255   5.424   6.548
 4073SOL    HW113118   2.224   5.427   6.453
 4073SOL    HW213119   2.228   5.508   6.595
 4074SOL     OW13120   1.791   3.431   0.418
 4074SOL    HW113121   1.851   3.509   0.435
 4074SOL    HW213122   1.717   3.430   0.486
 4075SOL     OW13123   4.587   1.495   3.554
 4075SOL    HW113124   4.522   1.446   3.496
 4075SOL    HW213125   4.556   1.590   3.567
 4076SOL     OW13126   1.587   3.106   4.017
 4076SOL    HW113127   1.515   3.042   3.992
 4076SOL    HW213128   1.626   3.080   4.105
 4077SOL     OW13129   3.092   1.569   0.576
 4077SOL    HW113130   3.131   1.484   0.543
 4077SOL    HW213131   3.138   1.647   0.533
 4078SOL     OW13132   6.013   3.596   1.728
 4078SOL    HW113133   5.923   3.635   1.747
 4078SOL    HW213134   6.003   3.498   1.709
 4079SOL     OW13135   0.759   0.663   3.942
 4079SOL    HW113136   0.832   0.710   3.892
 4079SOL    HW213137   0.678   0.657   3.883
 4080SOL     OW13138   2.858   3.116   1.754
 4080SOL    HW113139   2.793   3.141   1.682
 4080SOL    HW213140   2.926   3.052   1.717
 4081SOL     OW13141   1.906   2.302   6.057
 4081SOL    HW113142   1.823   2.347   6.024
 4081SOL    HW213143   1.971   2.291   5.982
 4082SOL     OW13144   1.430   2.230   4.388
 4082SOL    HW113145   1.369   2.180   4.450
 4082SOL    HW213146   1.495   2.284   4.442
 4083SOL     OW13147   5.813   5.180   3.025
 4083SOL    HW113148   5.886   5.168   2.958
 4083SOL    HW213149   5.751   5.252   2.994
 4084SOL     OW13150   4.812   0.778   3.752
 4084SOL    HW113151   4.841   0.873   3.755
 4084SOL    HW213152   4.814   0.739   3.844
 4085SOL     OW13153   3.714   4.934   2.645
 4085SOL    HW113154   3.669   5.013   2.686
 4085SOL    HW213155   3.653   4.894   2.576
 4086SOL     OW13156   6.244   5.329   5.938
 4086SOL    HW113157   6.316   5.313   5.870
 4086SOL    HW213158   6.223   5.243   5.985
 4087SOL     OW13159   2.394   6.915   2.796
 4087SOL    HW113160   2.360   6.882   2.884
 4087SOL    HW213161   2.438   6.840   2.747
 4088SOL     OW13162   0.444   2.001   5.432
 4088SOL    HW113163   0.505   1.925   5.412
 4088SOL    HW213164   0.360   1.967   5.472
 4089SOL     OW13165   0.836   0.293   3.294
 4089SOL    HW113166   0.814   0.320   3.201
 4089SOL    HW213167   0.759   0.244   3.334
 4090SOL     OW13168   3.050   1.328   6.102
 4090SOL    HW113169   3.120   1.261   6.077
 4090SOL    HW213170   2.966   1.281   6.128
 4091SOL     OW13171   2.854   6.344   1.967
 4091SOL    HW113172   2.766   6.353   2.015
 4091SOL    HW213173   2.843   6.283   1.889
 4092SOL     OW13174   5.498   3.157   4.140
 4092SOL    HW113175   5.568   3.196   4.200
 4092SOL    HW213176   5.475   3.065   4.171
 4093SOL     OW13177   4.822   4.999   3.454
 4093SOL    HW113178   4.811   4.996   3.354
 4093SOL    HW213179   4.873   5.080   3.480
 4094SOL     OW13180   6.850   5.512   6.687
 4094SOL    HW113181   6.806   5.431   6.726
 4094SOL    HW213182   6.847   5.587   6.754
 4095SOL     OW13183   0.887   5.123   6.895
 4095SOL    HW113184   0.796   5.110   6.934
 4095SOL    HW213185   0.899   5.062   6.817
 4096SOL     OW13186   1.208   1.250   0.037
 4096SOL    HW113187   1.196   1.305   0.120
 4096SOL    HW213188   1.153   1.290   6.986
 4097SOL     OW13189   0.082   4.689   5.533
 4097SOL    HW113190   0.154   4.633   5.491
 4097SOL    HW213191   0.088   4.782   5.497
 4098SOL     OW13192   2.319   4.650   3.167
 4098SOL    HW113193   2.230   4.668   3.126
 4098SOL    HW213194   2.308   4.583   3.241
 4099SOL     OW13195   4.283   4.606   5.921
 4099SOL    HW113196   4.290   4.515   5.880
 4099SOL    HW213197   4.233   4.600   6.007
 4100SOL     OW13198   1.635   0.045   3.808
 4100SOL    HW113199   1.605   6.972   3.807
 4100SOL    HW213200   1.662   0.072   3.716
 4101SOL     OW13201   6.195   6.394   6.952
 4101SOL    HW113202   6.212   6.396   0.028
 4101SOL    HW213203   6.176   6.487   6.920
 4102SOL     OW13204   1.548   0.829   0.538
 4102SOL    HW113205   1.539   0.747   0.482
 4102SOL    HW213206   1.587   0.903   0.483
 4103SOL     OW13207   1.521   6.295   2.988
 4103SOL    HW113208   1.569   6.334   2.909
 4103SOL    HW213209   1.501   6.368   3.053
 4104SOL     OW13210   1.528   5.928   4.479
 4104SOL    HW113211   1.497   6.016   4.444
 4104SOL    HW213212   1.453   5.883   4.527
 4105SOL     OW13213   4.862   1.257   0.995
 4105SOL    HW113214   4.792   1.326   1.014
 4105SOL    HW213215   4.846   1.219   0.904
 4106SOL     OW13216   0.934   1.729   3.184
 4106SOL    HW113217   0.950   1.683   3.271
 4106SOL    HW213218   0.859   1.794   3.193
 4107SOL     OW13219   0.658   6.305   0.124
 4107SOL    HW113220   0.700   6.214   0.121
 4107SOL    HW213221   0.697   6.358   0.199
 4108SOL     OW13222   6.671   6.029   4.556
 4108SOL    HW113223   6.600   5.987   4.499
 4108SOL    HW213224   6.693   5.967   4.632
 4109SOL     OW13225   6.312   6.402   2.955
 4109SOL    HW113226   6.403   6.375   2.925
 4109SOL    HW213227   6.315   6.428   3.051
 4110SOL     OW13228   4.810   2.761   0.494
 4110SOL    HW113229   4.899   2.802   0.516
 4110SOL    HW213230   4.767   2.814   0.421
 4111SOL     OW13231   6.845   4.188   4.277
 4111SOL    HW113232   6.765   4.182   4.337
 4111SOL    HW213233   6.834   4.265   4.214
 4112SOL     OW13234   4.730   6.735   5.498
 4112SOL    HW113235   4.700   6.683   5.418
 4112SOL    HW213236   4.703   6.831   5.486
 4113SOL     OW13237   3.964   5.263   5.258
 4113SOL    HW113238   3.988   5.358   5.237
 4113SOL    HW213239   3.968   5.209   5.174
 4114SOL     OW13240   0.132   1.829   2.217
 4114SOL    HW113241   0.231   1.832   2.234
 4114SOL    HW213242   0.110   1.889   2.141
 4115SOL     OW13243   4.848   6.020   4.194
 4115SOL    HW113244   4.864   6.011   4.292
 4115SOL    HW213245   4.923   6.073   4.153
 4116SOL     OW13246   5.266   3.304   3.669
 4116SOL    HW113247   5.301   3.281   3.759
 4116SOL    HW213248   5.316   3.384   3.634
 4117SOL     OW13249   1.388   1.962   3.123
 4117SOL    HW113250   1.450   1.891   3.089
 4117SOL    HW213251   1.335   1.926   3.200
 4118SOL     OW13252   0.479   5.991   6.131
 4118SOL    HW113253   0.467   6.065   6.197
 4118SOL    HW213254   0.535   6.023   6.055
 4119SOL     OW13255   0.809   0.857   3.724
 4119SOL    HW113256   0.908   0.863   3.733
 4119SOL    HW213257   0.783   0.770   3.682
 4120SOL     OW13258   1.857   1.326   6.218
 4120SOL    HW113259   1.817   1.256   6.159
 4120SOL    HW213260   1.789   1.397   6.236
 4121SOL     OW13261   6.375   6.532   1.879
 4121SOL    HW113262   6.314   6.611   1.869
 4121SOL    HW213263   6.324   6.449   1.858
 4122SOL     OW13264   6.455   4.378   3.270
 4122SOL    HW113265   6.503   4.428   3.342
 4122SOL    HW213266   6.436   4.285   3.302
 4123SOL     OW13267   4.363   5.078   1.705
 4123SOL    HW113268   4.268   5.067   1.733
 4123SOL    HW213269   4.414   4.995   1.729
 4124SOL     OW13270   6.243   5.635   0.057
 4124SOL    HW113271   6.165   5.662   0.000
 4124SOL    HW213272   6.210   5.606   0.147
 4125SOL     OW13273   6.196   2.085   1.559
 4125SOL    HW113274   6.269   2.030   1.520
 4125SOL    HW213275   6.114   2.078   1.502
 4126SOL     OW13276   1.923   3.303   2.419
 4126SOL    HW113277   2.000   3.243   2.445
 4126SOL    HW213278   1.898   3.286   2.324
 4127SOL     OW13279   3.845   1.637   4.315
 4127SOL    HW113280   3.908   1.634   4.393
 4127SOL    HW213281   3.782   1.714   4.326
 4128SOL     OW13282   0.570   3.299   0.273
 4128SOL    HW113283   0.497   3.254   0.222
 4128SOL    HW213284   0.628   3.229   0.315
 4129SOL     OW13285   2.125   2.674   0.756
 4129SOL    HW113286   2.053   2.733   0.719
 4129SOL    HW213287   2.092   2.628   0.838
 4130SOL     OW13288   5.652   2.857   0.809
 4130SOL    HW113289   5.735   2.848   0.864
 4130SOL    HW213290   5.605   2.941   0.833
 4131SOL     OW13291   4.702   6.943   2.777
 4131SOL    HW113292   4.692   6.894   2.864
 4131SOL    HW213293   4.626   7.006   2.766
 4132SOL     OW13294   0.578   5.005   4.094
 4132SOL    HW113295   0.673   5.038   4.089
 4132SOL    HW213296   0.525   5.046   4.020
 4133SOL     OW13297   5.783   0.307   2.867
 4133SOL    HW113298   5.789   0.253   2.782
 4133SOL    HW213299   5.724   0.386   2.852
 4134SOL     OW13300   1.585   3.456   1.342
 4134SOL    HW113301   1.499   3.407   1.358
 4134SOL    HW213302   1.610   3.449   1.245
 4135SOL     OW13303   0.267   1.527   1.960
 4135SOL    HW113304   0.306   1.531   1.869
 4135SOL    HW213305   0.173   1.562   1.958
 4136SOL     OW13306   1.356   4.677   1.770
 4136SOL    HW113307   1.397   4.762   1.802
 4136SOL    HW213308   1.326   4.688   1.675
 4137SOL     OW13309   1.186   2.519   0.631
 4137SOL    HW113310   1.146   2.453   0.567
 4137SOL    HW213311   1.217   2.600   0.581
 4138SOL     OW13312   4.793   6.936   0.666
 4138SOL    HW113313   4.705   6.974   0.693
 4138SOL    HW213314   4.866   6.996   0.697
 4139SOL     OW13315   1.786   3.545   2.419
 4139SOL    HW113316   1.848   3.468   2.430
 4139SOL    HW213317   1.835   3.622   2.377
 4140SOL     OW13318   2.120   1.601   5.720
 4140SOL    HW113319   2.214   1.636   5.726
 4140SOL    HW213320   2.066   1.639   5.795
 4141SOL     OW13321   4.716   0.310   6.440
 4141SOL    HW113322   4.678   0.391   6.484
 4141SOL    HW213323   4.743   0.333   6.346
 4142SOL     OW13324   6.815   4.303   2.784
 4142SOL    HW113325   6.746   4.326   2.714
 4142SOL    HW213326   6.902   4.345   2.759
 4143SOL     OW13327   5.374   3.123   0.674
 4143SOL    HW113328   5.361   3.030   0.638
 4143SOL    HW213329   5.405   3.117   0.769
 4144SOL     OW13330   6.372   1.565   0.319
 4144SOL    HW113331   6.460   1.609   0.341
 4144SOL    HW213332   6.355   1.491   0.383
 4145SOL     OW13333   0.197   6.974   1.203
 4145SOL    HW113334   0.286   6.963   1.159
 4145SOL    HW213335   0.179   6.894   1.261
 4146SOL     OW13336   4.565   6.497   3.743
 4146SOL    HW113337   4.611   6.483   3.831
 4146SOL    HW213338   4.603   6.435   3.675
 4147SOL     OW13339   4.437   4.280   5.640
 4147SOL    HW113340   4.372   4.294   5.565
 4147SOL    HW213341   4.392   4.297   5.727
 4148SOL     OW13342   2.375   1.867   6.117
 4148SOL    HW113343   2.340   1.918   6.195
 4148SOL    HW213344   2.392   1.930   6.041
 4149SOL     OW13345   2.470   2.611   6.918
 4149SOL    HW113346   2.470   2.511   6.921
 4149SOL    HW213347   2.376   2.644   6.917
 4150SOL     OW13348   5.465   1.951   5.991
 4150SOL    HW113349   5.538   1.884   5.976
 4150SOL    HW213350   5.497   2.042   5.965
 4151SOL     OW13351   2.284   6.202   4.518
 4151SOL    HW113352   2.320   6.127   4.463
 4151SOL    HW213353   2.359   6.265   4.542
 4152SOL     OW13354   2.886   5.330   0.946
 4152SOL    HW113355   2.794   5.293   0.956
 4152SOL    HW213356   2.951   5.272   0.995
 4153SOL     OW13357   0.129   5.360   1.197
 4153SOL    HW113358   0.106   5.352   1.294
 4153SOL    HW213359   0.124   5.456   1.169
 4154SOL     OW13360   1.064   6.147   3.543
 4154SOL    HW113361   1.111   6.210   3.482
 4154SOL    HW213362   0.965   6.161   3.536
 4155SOL     OW13363   0.459   1.463   0.849
 4155SOL    HW113364   0.538   1.404   0.828
 4155SOL    HW213365   0.413   1.428   0.930
 4156SOL     OW13366   6.712   5.832   6.084
 4156SOL    HW113367   6.803   5.842   6.043
 4156SOL    HW213368   6.646   5.881   6.028
 4157SOL     OW13369   6.741   6.011   2.038
 4157SOL    HW113370   6.785   5.922   2.030
 4157SOL    HW213371   6.794   6.080   1.988
 4158SOL     OW13372   1.274   3.212   1.968
 4158SOL    HW113373   1.234   3.148   1.903
 4158SOL    HW213374   1.203   3.273   2.003
 4159SOL     OW13375   3.632   1.512   3.971
 4159SOL    HW113376   3.712   1.495   3.913
 4159SOL    HW213377   3.550   1.476   3.926
 4160SOL     OW13378   6.052   6.542   6.545
 4160SOL    HW113379   6.100   6.619   6.588
 4160SOL    HW213380   6.097   6.456   6.572
 4161SOL     OW13381   3.459   2.900   1.093
 4161SOL    HW113382   3.441   2.877   1.188
 4161SOL    HW213383   3.378   2.944   1.053
 4162SOL     OW13384   4.833   5.949   1.803
 4162SOL    HW113385   4.775   5.983   1.877
 4162SOL    HW213386   4.922   5.922   1.840
 4163SOL     OW13387   3.574   6.928   1.147
 4163SOL    HW113388   3.563   0.004   1.156
 4163SOL    HW213389   3.645   6.896   1.209
 4164SOL     OW13390   6.532   0.515   5.133
 4164SOL    HW113391   6.539   0.574   5.053
 4164SOL    HW213392   6.530   0.571   5.216
 4165SOL     OW13393   4.032   1.167   5.262
 4165SOL    HW113394   4.069   1.258   5.248
 4165SOL    HW213395   4.105   1.104   5.289
 4166SOL     OW13396   5.854   0.696   1.894
 4166SOL    HW113397   5.889   0.723   1.804
 4166SOL    HW213398   5.900   0.613   1.925
 4167SOL     OW13399   4.020   5.108   4.908
 4167SOL    HW113400   3.946   5.042   4.907
 4167SOL    HW213401   4.077   5.094   4.989
 4168SOL     OW13402   4.664   4.349   6.901
 4168SOL    HW113403   4.688   4.414   6.828
 4168SOL    HW213404   4.639   4.400   6.983
 4169SOL     OW13405   4.965   3.642   4.793
 4169SOL    HW113406   4.924   3.638   4.701
 4169SOL    HW213407   4.893   3.660   4.860
 4170SOL     OW13408   6.592   3.507   3.867
 4170SOL    HW113409   6.573   3.491   3.964
 4170SOL    HW213410   6.688   3.484   3.847
 4171SOL     OW13411   0.869   3.249   1.191
 4171SOL    HW113412   0.780   3.206   1.176
 4171SOL    HW213413   0.938   3.204   1.134
 4172SOL     OW13414   2.792   4.781   0.310
 4172SOL    HW113415   2.765   4.752   0.402
 4172SOL    HW213416   2.810   4.880   0.311
 4173SOL     OW13417   5.224   3.018   4.943
 4173SOL    HW113418   5.247   2.921   4.946
 4173SOL    HW213419   5.200   3.044   4.850
 4174SOL     OW13420   4.159   0.289   5.116
 4174SOL    HW113421   4.181   0.386   5.105
 4174SOL    HW213422   4.125   0.252   5.029
 4175SOL     OW13423   1.660   4.194   6.726
 4175SOL    HW113424   1.684   4.130   6.799
 4175SOL    HW213425   1.693   4.158   6.639
 4176SOL     OW13426   5.107   0.209   6.130
 4176SOL    HW113427   5.015   0.183   6.099
 4176SOL    HW213428   5.161   0.126   6.146
 4177SOL     OW13429   4.547   4.622   3.517
 4177SOL    HW113430   4.491   4.622   3.599
 4177SOL    HW213431   4.488   4.623   3.436
 4178SOL     OW13432   4.413   5.399   1.882
 4178SOL    HW113433   4.498   5.363   1.920
 4178SOL    HW213434   4.337   5.372   1.941
 4179SOL     OW13435   5.240   3.103   4.687
 4179SOL    HW113436   5.336   3.128   4.687
 4179SOL    HW213437   5.185   3.179   4.653
 4180SOL     OW13438   4.889   4.065   6.853
 4180SOL    HW113439   4.906   4.014   6.937
 4180SOL    HW213440   4.922   4.159   6.863
 4181SOL     OW13441   4.714   0.394   5.495
 4181SOL    HW113442   4.723   0.295   5.494
 4181SOL    HW213443   4.700   0.427   5.402
 4182SOL     OW13444   6.865   6.694   3.922
 4182SOL    HW113445   6.806   6.658   3.849
 4182SOL    HW213446   6.812   6.700   4.006
 4183SOL     OW13447   3.753   2.056   1.360
 4183SOL    HW113448   3.655   2.061   1.341
 4183SOL    HW213449   3.771   2.088   1.453
 4184SOL     OW13450   3.147   5.117   3.493
 4184SOL    HW113451   3.188   5.192   3.544
 4184SOL    HW213452   3.215   5.076   3.432
 4185SOL     OW13453   6.476   3.928   2.516
 4185SOL    HW113454   6.557   3.980   2.489
 4185SOL    HW213455   6.458   3.943   2.614
 4186SOL     OW13456   2.012   6.380   0.327
 4186SOL    HW113457   1.932   6.320   0.328
 4186SOL    HW213458   2.059   6.373   0.239
 4187SOL     OW13459   1.754   3.586   6.795
 4187SOL    HW113460   1.756   3.684   6.779
 4187SOL    HW213461   1.845   3.548   6.780
 4188SOL     OW13462   5.162   0.059   0.012
 4188SOL    HW113463   5.174   6.988   0.044
 4188SOL    HW213464   5.087   0.102   0.062
 4189SOL     OW13465   4.784   5.297   3.171
 4189SOL    HW113466   4.726   5.251   3.104
 4189SOL    HW213467   4.864   5.241   3.191
 4190SOL     OW13468   0.291   6.421   0.733
 4190SOL    HW113469   0.225   6.439   0.660
 4190SOL    HW213470   0.349   6.501   0.746
 4191SOL     OW13471   4.274   4.833   5.748
 4191SOL    HW113472   4.269   4.743   5.792
 4191SOL    HW213473   4.202   4.892   5.784
 4192SOL     OW13474   1.118   3.081   1.760
 4192SOL    HW113475   1.096   3.005   1.822
 4192SOL    HW213476   1.033   3.119   1.723
 4193SOL     OW13477   6.754   0.328   0.376
 4193SOL    HW113478   6.801   0.363   0.295
 4193SOL    HW213479   6.722   0.235   0.359
 4194SOL     OW13480   4.450   0.629   5.114
 4194SOL    HW113481   4.512   0.661   5.042
 4194SOL    HW213482   4.468   0.680   5.198
 4195SOL     OW13483   4.326   5.662   1.205
 4195SOL    HW113484   4.315   5.626   1.297
 4195SOL    HW213485   4.286   5.754   1.200
 4196SOL     OW13486   6.834   2.137   2.967
 4196SOL    HW113487   6.915   2.139   3.026
 4196SOL    HW213488   6.814   2.042   2.942
 4197SOL     OW13489   3.559   6.453   6.039
 4197SOL    HW113490   3.491   6.395   6.084
 4197SOL    HW213491   3.640   6.399   6.015
 4198SOL     OW13492   6.091   1.273   2.336
 4198SOL    HW113493   6.144   1.203   2.288
 4198SOL    HW213494   5.996   1.270   2.305
 4199SOL     OW13495   0.816   3.641   6.264
 4199SOL    HW113496   0.835   3.543   6.277
 4199SOL    HW213497   0.903   3.689   6.250
 4200SOL     OW13498   4.517   1.254   3.702
 4200SOL    HW113499   4.614   1.237   3.721
 4200SOL    HW213500   4.497   1.350   3.720
 4201SOL     OW13501   5.564   0.118   3.056
 4201SOL    HW113502   5.545   0.216   3.062
 4201SOL    HW213503   5.662   0.102   3.066
 4202SOL     OW13504   4.323   5.045   0.733
 4202SOL    HW113505   4.315   5.001   0.644
 4202SOL    HW213506   4.285   4.986   0.804
 4203SOL     OW13507   6.312   5.332   6.950
 4203SOL    HW113508   6.408   5.305   6.949
 4203SOL    HW213509   6.300   5.411   7.009
 4204SOL     OW13510   3.140   3.441   5.821
 4204SOL    HW113511   3.194   3.478   5.896
 4204SOL    HW213512   3.104   3.351   5.846
 4205SOL     OW13513   3.917   5.484   4.928
 4205SOL    HW113514   3.837   5.541   4.950
 4205SOL    HW213515   3.887   5.392   4.904
 4206SOL     OW13516   1.784   2.154   4.276
 4206SOL    HW113517   1.780   2.113   4.368
 4206SOL    HW213518   1.698   2.137   4.228
 4207SOL     OW13519   1.549   3.068   1.541
 4207SOL    HW113520   1.492   3.147   1.562
 4207SOL    HW213521   1.589   3.032   1.625
 4208SOL     OW13522   2.201   3.457   5.048
 4208SOL    HW113523   2.256   3.536   5.077
 4208SOL    HW213524   2.117   3.454   5.101
 4209SOL     OW13525   0.026   6.282   3.051
 4209SOL    HW113526   0.072   6.262   2.964
 4209SOL    HW213527   6.988   6.360   3.039
 4210SOL     OW13528   4.197   3.509   5.109
 4210SOL    HW113529   4.266   3.519   5.181
 4210SOL    HW213530   4.139   3.590   5.106
 4211SOL     OW13531   4.020   2.334   5.334
 4211SOL    HW113532   4.064   2.393   5.266
 4211SOL    HW213533   4.031   2.375   5.425
 4212SOL     OW13534   0.279   1.781   3.239
 4212SOL    HW113535   0.325   1.693   3.252
 4212SOL    HW213536   0.261   1.823   3.328
 4213SOL     OW13537   3.532   0.670   2.891
 4213SOL    HW113538   3.621   0.625   2.901
 4213SOL    HW213539   3.463   0.620   2.943
 4214SOL     OW13540   0.914   4.970   4.531
 4214SOL    HW113541   0.978   5.013   4.467
 4214SOL    HW213542   0.914   4.871   4.517
 4215SOL     OW13543   4.677   6.527   5.715
 4215SOL    HW113544   4.682   6.594   5.641
 4215SOL    HW213545   4.611   6.456   5.691
 4216SOL     OW13546   2.560   6.373   2.641
 4216SOL    HW113547   2.631   6.303   2.637
 4216SOL    HW213548   2.522   6.387   2.549
 4217SOL     OW13549   1.436   0.750   1.892
 4217SOL    HW113550   1.520   0.776   1.844
 4217SOL    HW213551   1.431   0.651   1.898
 4218SOL     OW13552   2.689   1.090   1.486
 4218SOL    HW113553   2.608   1.112   1.540
 4218SOL    HW213554   2.752   1.035   1.541
 4219SOL     OW13555   3.870   6.501   3.972
 4219SOL    HW113556   3.856   6.553   3.887
 4219SOL    HW213557   3.902   6.409   3.950
 4220SOL     OW13558   4.767   1.897   1.561
 4220SOL    HW113559   4.674   1.872   1.534
 4220SOL    HW213560   4.816   1.814   1.590
 4221SOL     OW13561   0.290   5.500   6.488
 4221SOL    HW113562   0.307   5.595   6.516
 4221SOL    HW213563   0.191   5.484   6.484
 4222SOL     OW13564   4.647   2.127   3.162
 4222SOL    HW113565   4.595   2.170   3.088
 4222SOL    HW213566   4.600   2.142   3.249
 4223SOL     OW13567   4.176   3.688   1.726
 4223SOL    HW113568   4.243   3.736   1.668
 4223SOL    HW213569   4.088   3.684   1.679
 4224SOL     OW13570   4.885   3.664   4.541
 4224SOL    HW113571   4.876   3.719   4.458
 4224SOL    HW213572   4.871   3.568   4.520
 4225SOL     OW13573   0.159   3.244   5.121
 4225SOL    HW113574   0.166   3.321   5.185
 4225SOL    HW213575   0.157   3.279   5.027
 4226SOL     OW13576   0.470   5.240   4.603
 4226SOL    HW113577   0.544   5.173   4.606
 4226SOL    HW213578   0.382   5.194   4.596
 4227SOL     OW13579   5.478   5.400   2.234
 4227SOL    HW113580   5.395   5.374   2.184
 4227SOL    HW213581   5.537   5.454   2.174
 4228SOL     OW13582   1.104   5.437   4.016
 4228SOL    HW113583   1.061   5.377   3.949
 4228SOL    HW213584   1.089   5.533   3.990
 4229SOL     OW13585   5.943   5.200   5.771
 4229SOL    HW113586   5.889   5.171   5.850
 4229SOL    HW213587   5.888   5.192   5.688
 4230SOL     OW13588   1.414   0.867   2.138
 4230SOL    HW113589   1.404   0.963   2.114
 4230SOL    HW213590   1.427   0.813   2.055
 4231SOL     OW13591   5.194   1.156   5.826
 4231SOL    HW113592   5.180   1.147   5.924
 4231SOL    HW213593   5.267   1.222   5.809
 4232SOL     OW13594   2.429   5.307   3.986
 4232SOL    HW113595   2.409   5.227   4.043
 4232SOL    HW213596   2.391   5.389   4.029
 4233SOL     OW13597   5.547   6.464   3.886
 4233SOL    HW113598   5.620   6.396   3.881
 4233SOL    HW213599   5.509   6.479   3.795
 4234SOL     OW13600   1.585   5.430   5.811
 4234SOL    HW113601   1.539   5.369   5.875
 4234SOL    HW213602   1.676   5.394   5.789
 4235SOL     OW13603   0.040   4.893   6.075
 4235SOL    HW113604   6.983   4.954   6.077
 4235SOL    HW213605   0.123   4.947   6.066
 4236SOL     OW13606   0.751   5.320   1.370
 4236SOL    HW113607   0.658   5.350   1.350
 4236SOL    HW213608   0.759   5.297   1.467
 4237SOL     OW13609   6.567   4.127   3.728
 4237SOL    HW113610   6.534   4.217   3.701
 4237SOL    HW213611   6.667   4.130   3.739
 4238SOL     OW13612   2.358   0.546   3.054
 4238SOL    HW113613   2.364   0.617   2.983
 4238SOL    HW213614   2.268   0.503   3.052
 4239SOL     OW13615   3.629   1.343   2.565
 4239SOL    HW113616   3.606   1.413   2.632
 4239SOL    HW213617   3.556   1.335   2.497
 4240SOL     OW13618   1.178   5.275   0.489
 4240SOL    HW113619   1.183   5.257   0.587
 4240SOL    HW213620   1.135   5.197   0.443
 4241SOL     OW13621   6.575   2.037   6.782
 4241SOL    HW113622   6.589   1.940   6.761
 4241SOL    HW213623   6.551   2.086   6.698
 4242SOL     OW13624   2.302   2.261   4.043
 4242SOL    HW113625   2.207   2.237   4.023
 4242SOL    HW213626   2.306   2.311   4.130
 4243SOL     OW13627   5.667   0.960   2.814
 4243SOL    HW113628   5.741   0.900   2.785
 4243SOL    HW213629   5.691   1.055   2.795
 4244SOL     OW13630   3.602   3.630   2.510
 4244SOL    HW113631   3.604   3.655   2.606
 4244SOL    HW213632   3.658   3.694   2.457
 4245SOL     OW13633   5.975   2.754   5.257
 4245SOL    HW113634   6.016   2.728   5.170
 4245SOL    HW213635   5.906   2.686   5.283
 4246SOL     OW13636   0.254   4.179   2.224
 4246SOL    HW113637   0.260   4.088   2.182
 4246SOL    HW213638   0.229   4.169   2.320
 4247SOL     OW13639   6.589   6.044   5.302
 4247SOL    HW113640   6.555   6.031   5.209
 4247SOL    HW213641   6.681   6.084   5.298
 4248SOL     OW13642   1.404   2.515   5.787
 4248SOL    HW113643   1.368   2.428   5.821
 4248SOL    HW213644   1.440   2.502   5.694
 4249SOL     OW13645   5.525   2.958   5.488
 4249SOL    HW113646   5.522   2.990   5.394
 4249SOL    HW213647   5.597   3.007   5.538
 4250SOL     OW13648   6.379   5.240   3.626
 4250SOL    HW113649   6.332   5.306   3.686
 4250SOL    HW213650   6.410   5.287   3.543
 4251SOL     OW13651   5.774   4.256   0.539
 4251SOL    HW113652   5.868   4.229   0.519
 4251SOL    HW213653   5.749   4.336   0.486
 4252SOL     OW13654   0.026   5.557   5.394
 4252SOL    HW113655   0.065   5.469   5.420
 4252SOL    HW213656   7.018   5.553   5.298
 4253SOL     OW13657   4.260   0.984   1.585
 4253SOL    HW113658   4.296   1.077   1.575
 4253SOL    HW213659   4.323   0.930   1.641
 4254SOL     OW13660   1.714   3.718   1.277
 4254SOL    HW113661   1.750   3.659   1.205
 4254SOL    HW213662   1.750   3.811   1.265
 4255SOL     OW13663   6.351   3.319   4.232
 4255SOL    HW113664   6.322   3.227   4.203
 4255SOL    HW213665   6.274   3.365   4.276
 4256SOL     OW13666   2.025   6.925   1.423
 4256SOL    HW113667   2.012   6.850   1.488
 4256SOL    HW213668   2.079   6.893   1.345
 4257SOL     OW13669   3.464   1.655   5.008
 4257SOL    HW113670   3.429   1.748   5.026
 4257SOL    HW213671   3.548   1.641   5.060
 4258SOL     OW13672   5.997   6.451   2.162
 4258SOL    HW113673   5.960   6.543   2.147
 4258SOL    HW213674   6.096   6.456   2.167
 4259SOL     OW13675   2.635   2.162   7.009
 4259SOL    HW113676   2.627   2.064   0.004
 4259SOL    HW213677   2.696   2.176   6.931
 4260SOL     OW13678   4.553   6.093   3.664
 4260SOL    HW113679   4.494   6.052   3.595
 4260SOL    HW213680   4.569   6.027   3.738
 4261SOL     OW13681   2.316   6.401   2.074
 4261SOL    HW113682   2.262   6.414   1.991
 4261SOL    HW213683   2.256   6.373   2.149
 4262SOL     OW13684   1.862   4.851   6.659
 4262SOL    HW113685   1.770   4.839   6.623
 4262SOL    HW213686   1.905   4.931   6.616
 4263SOL     OW13687   2.488   4.703   5.284
 4263SOL    HW113688   2.525   4.737   5.370
 4263SOL    HW213689   2.389   4.690   5.293
 4264SOL     OW13690   0.334   1.621   6.976
 4264SOL    HW113691   0.417   1.609   0.007
 4264SOL    HW213692   0.348   1.585   6.884
 4265SOL     OW13693   6.609   2.143   0.269
 4265SOL    HW113694   6.679   2.123   0.201
 4265SOL    HW213695   6.653   2.167   0.356
 4266SOL     OW13696   2.333   5.380   0.283
 4266SOL    HW113697   2.237   5.387   0.307
 4266SOL    HW213698   2.389   5.379   0.366
 4267SOL     OW13699   1.961   3.534   5.172
 4267SOL    HW113700   1.913   3.458   5.215
 4267SOL    HW213701   1.974   3.608   5.238
 4268SOL     OW13702   1.961   1.004   0.535
 4268SOL    HW113703   2.044   0.974   0.489
 4268SOL    HW213704   1.945   1.100   0.516
 4269SOL     OW13705   3.270   2.940   0.436
 4269SOL    HW113706   3.324   2.930   0.520
 4269SOL    HW213707   3.206   2.864   0.429
 4270SOL     OW13708   3.704   2.795   5.220
 4270SOL    HW113709   3.792   2.756   5.247
 4270SOL    HW213710   3.711   2.895   5.219
 4271SOL     OW13711   0.265   6.575   5.834
 4271SOL    HW113712   0.350   6.602   5.879
 4271SOL    HW213713   0.274   6.588   5.736
 4272SOL     OW13714   6.553   4.547   5.332
 4272SOL    HW113715   6.474   4.486   5.335
 4272SOL    HW213716   6.611   4.528   5.412
 4273SOL     OW13717   4.672   6.993   5.362
 4273SOL    HW113718   4.762   7.014   5.323
 4273SOL    HW213719   4.635   0.051   5.407
 4274SOL     OW13720   1.947   6.438   3.599
 4274SOL    HW113721   2.009   6.497   3.548
 4274SOL    HW213722   1.856   6.480   3.602
 4275SOL     OW13723   0.009   0.642   5.553
 4275SOL    HW113724   0.042   0.634   5.647
 4275SOL    HW213725   0.082   0.679   5.495
 4276SOL     OW13726   2.433   4.986   3.173
 4276SOL    HW113727   2.397   4.892   3.181
 4276SOL    HW213728   2.399   5.027   3.088
 4277SOL     OW13729   6.946   5.150   3.566
 4277SOL    HW113730   0.010   5.200   3.569
 4277SOL    HW213731   6.932   5.101   3.652
 4278SOL     OW13732   6.804   6.077   5.037
 4278SOL    HW113733   6.855   6.162   5.050
 4278SOL    HW213734   6.742   6.087   4.959
 4279SOL     OW13735   2.981   6.527   5.229
 4279SOL    HW113736   2.907   6.583   5.191
 4279SOL    HW213737   3.068   6.576   5.221
 4280SOL     OW13738   6.839   2.249   5.648
 4280SOL    HW113739   6.888   2.260   5.561
 4280SOL    HW213740   6.811   2.339   5.681
 4281SOL     OW13741   1.822   4.775   5.408
 4281SOL    HW113742   1.861   4.853   5.457
 4281SOL    HW213743   1.837   4.787   5.310
 4282SOL     OW13744   2.292   3.109   0.729
 4282SOL    HW113745   2.303   3.015   0.696
 4282SOL    HW213746   2.206   3.117   0.780
 4283SOL     OW13747   2.117   0.169   4.250
 4283SOL    HW113748   2.048   0.165   4.323
 4283SOL    HW213749   2.170   0.085   4.249
 4284SOL     OW13750   5.620   1.141   1.945
 4284SOL    HW113751   5.551   1.106   2.007
 4284SOL    HW213752   5.695   1.075   1.936
 4285SOL     OW13753   0.516   0.194   5.569
 4285SOL    HW113754   0.465   0.280   5.566
 4285SOL    HW213755   0.521   0.161   5.663
 4286SOL     OW13756   4.798   5.429   0.082
 4286SOL    HW113757   4.726   5.471   0.137
 4286SOL    HW213758   4.860   5.379   0.142
 4287SOL     OW13759   5.401   0.174   4.944
 4287SOL    HW113760   5.428   0.131   4.858
 4287SOL    HW213761   5.311   0.215   4.934
 4288SOL     OW13762   1.311   6.643   3.503
 4288SOL    HW113763   1.359   6.560   3.476
 4288SOL    HW213764   1.325   6.714   3.433
 4289SOL     OW13765   5.547   2.477   1.426
 4289SOL    HW113766   5.478   2.463   1.354
 4289SOL    HW213767   5.504   2.464   1.515
 4290SOL     OW13768   2.221   0.471   2.544
 4290SOL    HW113769   2.183   0.430   2.461
 4290SOL    HW213770   2.263   0.559   2.521
 4291SOL     OW13771   5.361   2.809   0.614
 4291SOL    HW113772   5.444   2.856   0.586
 4291SOL    HW213773   5.327   2.752   0.539
 4292SOL     OW13774   6.113   4.160   5.447
 4292SOL    HW113775   6.058   4.077   5.454
 4292SOL    HW213776   6.194   4.152   5.506
 4293SOL     OW13777   6.328   3.273   6.602
 4293SOL    HW113778   6.248   3.300   6.657
 4293SOL    HW213779   6.410   3.314   6.641
 4294SOL     OW13780   4.391   2.446   6.066
 4294SOL    HW113781   4.302   2.414   6.098
 4294SOL    HW213782   4.392   2.447   5.966
 4295SOL     OW13783   3.494   0.167   4.382
 4295SOL    HW113784   3.463   0.147   4.474
 4295SOL    HW213785   3.592   0.150   4.375
 4296SOL     OW13786   2.371   1.490   0.916
 4296SOL    HW113787   2.299   1.546   0.876
 4296SOL    HW213788   2.352   1.476   1.013
 4297SOL     OW13789   5.156   6.947   5.101
 4297SOL    HW113790   5.249   6.919   5.078
 4297SOL    HW213791   5.122   6.892   5.176
 4298SOL     OW13792   2.350   5.816   1.223
 4298SOL    HW113793   2.280   5.869   1.175
 4298SOL    HW213794   2.370   5.861   1.311
 4299SOL     OW13795   0.584   3.666   6.053
 4299SOL    HW113796   0.499   3.699   6.094
 4299SOL    HW213797   0.649   3.642   6.125
 4300SOL     OW13798   2.989   1.105   6.586
 4300SOL    HW113799   2.923   1.174   6.557
 4300SOL    HW213800   2.952   1.014   6.566
 4301SOL     OW13801   2.097   1.712   0.398
 4301SOL    HW113802   2.065   1.702   0.492
 4301SOL    HW213803   2.197   1.716   0.397
 4302SOL     OW13804   1.033   6.031   6.917
 4302SOL    HW113805   1.050   6.130   6.915
 4302SOL    HW213806   1.118   5.982   6.897
 4303SOL     OW13807   6.583   4.206   2.934
 4303SOL    HW113808   6.520   4.282   2.950
 4303SOL    HW213809   6.662   4.239   2.882
 4304SOL     OW13810   3.232   3.354   4.159
 4304SOL    HW113811   3.148   3.326   4.205
 4304SOL    HW213812   3.272   3.274   4.113
 4305SOL     OW13813   6.262   1.090   3.509
 4305SOL    HW113814   6.277   1.071   3.606
 4305SOL    HW213815   6.301   1.016   3.454
 4306SOL     OW13816   6.969   4.265   6.325
 4306SOL    HW113817   7.003   4.171   6.317
 4306SOL    HW213818   6.879   4.265   6.370
 4307SOL     OW13819   4.532   4.046   5.538
 4307SOL    HW113820   4.487   4.132   5.561
 4307SOL    HW213821   4.468   3.970   5.552
 4308SOL     OW13822   5.579   6.255   5.225
 4308SOL    HW113823   5.648   6.324   5.243
 4308SOL    HW213824   5.623   6.170   5.194
 4309SOL     OW13825   1.656   1.044   0.384
 4309SOL    HW113826   1.598   1.122   0.357
 4309SOL    HW213827   1.745   1.078   0.413
 4310SOL     OW13828   1.815   2.229   2.962
 4310SOL    HW113829   1.810   2.178   3.048
 4310SOL    HW213830   1.723   2.244   2.927
 4311SOL     OW13831   1.146   5.864   3.631
 4311SOL    HW113832   1.238   5.880   3.668
 4311SOL    HW213833   1.115   5.947   3.584
 4312SOL     OW13834   2.104   6.182   1.958
 4312SOL    HW113835   2.156   6.111   1.911
 4312SOL    HW213836   2.120   6.177   2.056
 4313SOL     OW13837   5.310   1.100   1.612
 4313SOL    HW113838   5.385   1.162   1.636
 4313SOL    HW213839   5.337   1.043   1.535
 4314SOL     OW13840   4.738   2.824   3.113
 4314SOL    HW113841   4.765   2.896   3.177
 4314SOL    HW213842   4.706   2.865   3.028
 4315SOL     OW13843   2.364   0.449   2.009
 4315SOL    HW113844   2.316   0.368   1.975
 4315SOL    HW213845   2.449   0.462   1.958
 4316SOL     OW13846   5.381   0.342   1.253
 4316SOL    HW113847   5.439   0.351   1.334
 4316SOL    HW213848   5.437   0.342   1.171
 4317SOL     OW13849   3.520   1.266   4.608
 4317SOL    HW113850   3.537   1.364   4.598
 4317SOL    HW213851   3.427   1.244   4.578
 4318SOL     OW13852   0.961   3.729   3.809
 4318SOL    HW113853   0.917   3.684   3.886
 4318SOL    HW213854   0.964   3.666   3.731
 4319SOL     OW13855   2.568   3.065   6.654
 4319SOL    HW113856   2.656   3.109   6.676
 4319SOL    HW213857   2.494   3.129   6.674
 4320SOL     OW13858   1.037   6.591   2.603
 4320SOL    HW113859   1.002   6.614   2.512
 4320SOL    HW213860   1.137   6.582   2.599
 4321SOL     OW13861   6.324   0.817   5.286
 4321SOL    HW113862   6.229   0.839   5.306
 4321SOL    HW213863   6.329   0.768   5.199
 4322SOL     OW13864   6.826   1.085   6.571
 4322SOL    HW113865   6.869   1.053   6.656
 4322SOL    HW213866   6.727   1.073   6.578
 4323SOL     OW13867   5.687   2.767   2.737
 4323SOL    HW113868   5.610   2.800   2.682
 4323SOL    HW213869   5.772   2.805   2.702
 4324SOL     OW13870   5.656   4.146   6.367
 4324SOL    HW113871   5.720   4.223   6.375
 4324SOL    HW213872   5.598   4.143   6.448
 4325SOL     OW13873   2.101   1.103   6.697
 4325SOL    HW113874   2.061   1.182   6.650
 4325SOL    HW213875   2.057   1.020   6.663
 4326SOL     OW13876   6.245   3.279   5.285
 4326SOL    HW113877   6.295   3.333   5.218
 4326SOL    HW213878   6.194   3.340   5.346
 4327SOL     OW13879   5.323   5.549   2.652
 4327SOL    HW113880   5.364   5.562   2.742
 4327SOL    HW213881   5.387   5.498   2.593
 4328SOL     OW13882   4.804   4.539   6.104
 4328SOL    HW113883   4.885   4.486   6.077
 4328SOL    HW213884   4.755   4.568   6.022
 4329SOL     OW13885   3.977   1.725   5.303
 4329SOL    HW113886   4.047   1.787   5.266
 4329SOL    HW213887   3.938   1.764   5.386
 4330SOL     OW13888   2.134   0.502   5.998
 4330SOL    HW113889   2.079   0.584   6.014
 4330SOL    HW213890   2.074   0.426   5.974
 4331SOL     OW13891   5.072   2.865   0.557
 4331SOL    HW113892   5.169   2.850   0.578
 4331SOL    HW213893   5.050   2.961   0.573
 4332SOL     OW13894   4.926   3.177   2.056
 4332SOL    HW113895   4.859   3.102   2.059
 4332SOL    HW213896   4.895   3.251   2.116
 4333SOL     OW13897   5.857   1.477   4.763
 4333SOL    HW113898   5.934   1.464   4.826
 4333SOL    HW213899   5.803   1.393   4.758
 4334SOL     OW13900   3.029   2.073   2.004
 4334SOL    HW113901   2.965   2.002   1.975
 4334SOL    HW213902   2.981   2.160   2.012
 4335SOL     OW13903   2.922   3.756   4.615
 4335SOL    HW113904   2.888   3.679   4.561
 4335SOL    HW213905   2.924   3.731   4.712
 4336SOL     OW13906   1.453   6.164   5.406
 4336SOL    HW113907   1.529   6.126   5.354
 4336SOL    HW213908   1.395   6.090   5.440
 4337SOL     OW13909   0.691   4.975   6.560
 4337SOL    HW113910   0.663   4.897   6.504
 4337SOL    HW213911   0.612   5.012   6.609
 4338SOL     OW13912   5.981   6.014   4.646
 4338SOL    HW113913   5.968   6.019   4.548
 4338SOL    HW213914   6.051   5.945   4.667
 4339SOL     OW13915   6.863   2.816   4.858
 4339SOL    HW113916   6.948   2.835   4.908
 4339SOL    HW213917   6.796   2.774   4.920
 4340SOL     OW13918   5.688   3.833   2.075
 4340SOL    HW113919   5.635   3.893   2.134
 4340SOL    HW213920   5.670   3.738   2.098
 4341SOL     OW13921   1.723   3.865   1.911
 4341SOL    HW113922   1.666   3.787   1.884
 4341SOL    HW213923   1.803   3.832   1.962
 4342SOL     OW13924   0.384   2.833   3.150
 4342SOL    HW113925   0.476   2.852   3.187
 4342SOL    HW213926   0.371   2.734   3.143
 4343SOL     OW13927   3.479   1.047   0.285
 4343SOL    HW113928   3.531   0.978   0.234
 4343SOL    HW213929   3.467   1.017   0.380
 4344SOL     OW13930   1.638   4.335   3.037
 4344SOL    HW113931   1.615   4.284   3.120
 4344SOL    HW213932   1.708   4.285   2.986
 4345SOL     OW13933   1.851   2.712   5.448
 4345SOL    HW113934   1.851   2.621   5.406
 4345SOL    HW213935   1.839   2.781   5.376
 4346SOL     OW13936   2.192   3.117   1.778
 4346SOL    HW113937   2.147   3.111   1.689
 4346SOL    HW213938   2.290   3.131   1.764
 4347SOL     OW13939   6.827   0.015   1.826
 4347SOL    HW113940   6.869   0.009   1.916
 4347SOL    HW213941   6.770   6.957   1.809
 4348SOL     OW13942   1.160   4.052   1.632
 4348SOL    HW113943   1.205   4.132   1.671
 4348SOL    HW213944   1.138   3.987   1.706
 4349SOL     OW13945   0.389   1.073   3.736
 4349SOL    HW113946   0.316   1.125   3.781
 4349SOL    HW213947   0.458   1.047   3.803
 4350SOL     OW13948   5.278   2.265   4.874
 4350SOL    HW113949   5.251   2.268   4.971
 4350SOL    HW213950   5.293   2.357   4.841
 4351SOL     OW13951   3.098   6.004   2.447
 4351SOL    HW113952   3.121   5.913   2.482
 4351SOL    HW213953   3.046   5.995   2.363
 4352SOL     OW13954   0.715   2.051   2.172
 4352SOL    HW113955   0.812   2.042   2.152
 4352SOL    HW213956   0.674   1.960   2.181
 4353SOL     OW13957   2.312   6.113   6.870
 4353SOL    HW113958   2.347   6.055   6.796
 4353SOL    HW213959   2.234   6.067   6.914
 4354SOL     OW13960   2.135   0.347   6.951
 4354SOL    HW113961   2.130   0.307   6.859
 4354SOL    HW213962   2.155   0.444   6.944
 4355SOL     OW13963   3.844   1.092   1.156
 4355SOL    HW113964   3.930   1.119   1.113
 4355SOL    HW213965   3.770   1.147   1.120
 4356SOL     OW13966   4.311   4.170   1.137
 4356SOL    HW113967   4.225   4.138   1.175
 4356SOL    HW213968   4.313   4.270   1.136
 4357SOL     OW13969   6.279   0.233   0.386
 4357SOL    HW113970   6.180   0.245   0.393
 4357SOL    HW213971   6.314   0.288   0.311
 4358SOL     OW13972   0.778   6.016   1.564
 4358SOL    HW113973   0.679   6.017   1.572
 4358SOL    HW213974   0.818   6.082   1.628
 4359SOL     OW13975   0.821   2.245   4.227
 4359SOL    HW113976   0.866   2.227   4.140
 4359SOL    HW213977   0.822   2.161   4.283
 4360SOL     OW13978   0.633   3.686   1.487
 4360SOL    HW113979   0.557   3.622   1.482
 4360SOL    HW213980   0.621   3.757   1.417
 4361SOL     OW13981   4.553   2.542   1.983
 4361SOL    HW113982   4.546   2.633   1.942
 4361SOL    HW213983   4.503   2.476   1.927
 4362SOL     OW13984   6.228   4.033   5.158
 4362SOL    HW113985   6.280   4.020   5.243
 4362SOL    HW213986   6.288   4.021   5.079
 4363SOL     OW13987   5.094   2.716   5.383
 4363SOL    HW113988   5.022   2.743   5.319
 4363SOL    HW213989   5.184   2.725   5.338
 4364SOL     OW13990   3.681   4.079   4.532
 4364SOL    HW113991   3.638   3.999   4.573
 4364SOL    HW213992   3.778   4.060   4.516
 4365SOL     OW13993   4.004   2.201   2.645
 4365SOL    HW113994   3.913   2.193   2.604
 4365SOL    HW213995   4.073   2.174   2.579
 4366SOL     OW13996   6.530   6.391   1.367
 4366SOL    HW113997   6.616   6.375   1.415
 4366SOL    HW213998   6.472   6.452   1.421
 4367SOL     OW13999   1.007   5.379   5.648
 4367SOL    HW114000   0.917   5.351   5.614
 4367SOL    HW214001   1.011   5.479   5.651
 4368SOL     OW14002   5.456   4.485   1.598
 4368SOL    HW114003   5.503   4.566   1.562
 4368SOL    HW214004   5.524   4.414   1.618
 4369SOL     OW14005   4.523   4.542   2.282
 4369SOL    HW114006   4.430   4.577   2.279
 4369SOL    HW214007   4.550   4.512   2.190
 4370SOL     OW14008   6.001   4.356   3.919
 4370SOL    HW114009   5.903   4.337   3.928
 4370SOL    HW214010   6.015   4.454   3.905
 4371SOL     OW14011   6.319   0.397   1.810
 4371SOL    HW114012   6.392   0.432   1.751
 4371SOL    HW214013   6.320   0.446   1.897
 4372SOL     OW14014   5.022   1.319   2.830
 4372SOL    HW114015   4.947   1.378   2.800
 4372SOL    HW214016   4.996   1.223   2.820
 4373SOL     OW14017   6.693   2.145   6.344
 4373SOL    HW114018   6.670   2.052   6.373
 4373SOL    HW214019   6.739   2.192   6.420
 4374SOL     OW14020   1.618   2.070   1.956
 4374SOL    HW114021   1.662   2.031   1.875
 4374SOL    HW214022   1.546   2.134   1.927
 4375SOL     OW14023   2.574   6.089   4.435
 4375SOL    HW114024   2.576   6.039   4.348
 4375SOL    HW214025   2.652   6.152   4.440
 4376SOL     OW14026   6.562   0.405   2.537
 4376SOL    HW114027   6.622   0.440   2.465
 4376SOL    HW214028   6.469   0.441   2.522
 4377SOL     OW14029   5.714   3.808   0.010
 4377SOL    HW114030   5.812   3.824   0.024
 4377SOL    HW214031   5.682   3.864   6.956
 4378SOL     OW14032   2.253   0.509   3.705
 4378SOL    HW114033   2.213   0.418   3.693
 4378SOL    HW214034   2.211   0.572   3.639
 4379SOL     OW14035   2.540   1.172   4.824
 4379SOL    HW114036   2.555   1.212   4.915
 4379SOL    HW214037   2.583   1.231   4.755
 4380SOL     OW14038   1.288   1.595   1.463
 4380SOL    HW114039   1.255   1.500   1.461
 4380SOL    HW214040   1.348   1.608   1.542
 4381SOL     OW14041   1.707   5.788   5.178
 4381SOL    HW114042   1.710   5.831   5.089
 4381SOL    HW214043   1.701   5.858   5.249
 4382SOL     OW14044   6.808   3.596   4.987
 4382SOL    HW114045   6.867   3.588   4.907
 4382SOL    HW214046   6.714   3.573   4.962
 4383SOL     OW14047   5.212   2.606   5.821
 4383SOL    HW114048   5.250   2.622   5.730
 4383SOL    HW214049   5.151   2.526   5.818
 4384SOL     OW14050   0.322   6.849   3.009
 4384SOL    HW114051   0.286   6.895   3.091
 4384SOL    HW214052   0.393   6.785   3.036
 4385SOL     OW14053   5.629   1.761   4.479
 4385SOL    HW114054   5.690   1.682   4.484
 4385SOL    HW214055   5.543   1.735   4.435
 4386SOL     OW14056   1.340   3.482   6.009
 4386SOL    HW114057   1.431   3.517   5.985
 4386SOL    HW214058   1.333   3.386   5.982
 4387SOL     OW14059   0.214   2.847   0.687
 4387SOL    HW114060   0.226   2.757   0.645
 4387SOL    HW214061   0.184   2.836   0.781
 4388SOL     OW14062   4.833   1.985   6.144
 4388SOL    HW114063   4.818   2.068   6.090
 4388SOL    HW214064   4.928   1.984   6.177
 4389SOL     OW14065   0.068   3.465   1.445
 4389SOL    HW114066   0.113   3.383   1.410
 4389SOL    HW214067   0.121   3.503   1.521
 4390SOL     OW14068   5.593   0.339   1.060
 4390SOL    HW114069   5.570   0.409   0.992
 4390SOL    HW214070   5.675   0.367   1.109
 4391SOL     OW14071   1.650   5.448   6.202
 4391SOL    HW114072   1.598   5.491   6.128
 4391SOL    HW214073   1.605   5.465   6.290
 4392SOL     OW14074   1.362   1.503   4.158
 4392SOL    HW114075   1.410   1.574   4.107
 4392SOL    HW214076   1.341   1.427   4.098
 4393SOL     OW14077   5.645   0.115   1.630
 4393SOL    HW114078   5.729   0.088   1.584
 4393SOL    HW214079   5.668   0.158   1.718
 4394SOL     OW14080   1.671   0.204   1.315
 4394SOL    HW114081   1.722   0.121   1.294
 4394SOL    HW214082   1.676   0.222   1.414
 4395SOL     OW14083   2.642   6.499   1.448
 4395SOL    HW114084   2.722   6.506   1.508
 4395SOL    HW214085   2.559   6.518   1.501
 4396SOL     OW14086   1.448   0.638   3.315
 4396SOL    HW114087   1.521   0.695   3.352
 4396SOL    HW214088   1.398   0.688   3.244
 4397SOL     OW14089   2.916   1.689   3.797
 4397SOL    HW114090   2.985   1.618   3.802
 4397SOL    HW214091   2.832   1.652   3.757
 4398SOL     OW14092   2.153   3.219   6.148
 4398SOL    HW114093   2.208   3.146   6.189
 4398SOL    HW214094   2.177   3.228   6.051
 4399SOL     OW14095   2.867   6.493   2.392
 4399SOL    HW114096   2.934   6.452   2.453
 4399SOL    HW214097   2.906   6.502   2.301
 4400SOL     OW14098   2.075   6.410   4.409
 4400SOL    HW114099   2.125   6.327   4.437
 4400SOL    HW214100   2.080   6.419   4.309
 4401SOL     OW14101   3.385   6.354   5.626
 4401SOL    HW114102   3.447   6.277   5.644
 4401SOL    HW214103   3.335   6.377   5.709
 4402SOL     OW14104   1.468   0.250   3.118
 4402SOL    HW114105   1.530   0.307   3.172
 4402SOL    HW214106   1.381   0.298   3.106
 4403SOL     OW14107   1.195   5.507   1.376
 4403SOL    HW114108   1.271   5.443   1.376
 4403SOL    HW214109   1.144   5.499   1.461
 4404SOL     OW14110   0.954   5.897   6.259
 4404SOL    HW114111   0.959   5.997   6.261
 4404SOL    HW214112   0.940   5.867   6.164
 4405SOL     OW14113   2.499   4.607   3.589
 4405SOL    HW114114   2.454   4.562   3.511
 4405SOL    HW214115   2.592   4.633   3.563
 4406SOL     OW14116   6.065   3.806   2.082
 4406SOL    HW114117   6.033   3.717   2.116
 4406SOL    HW214118   6.146   3.834   2.134
 4407SOL     OW14119   0.075   6.398   2.129
 4407SOL    HW114120   0.064   6.302   2.156
 4407SOL    HW214121   7.021   6.425   2.071
 4408SOL     OW14122   3.979   0.069   0.558
 4408SOL    HW114123   3.981   0.086   0.460
 4408SOL    HW214124   3.987   0.156   0.607
 4409SOL     OW14125   3.944   0.871   2.248
 4409SOL    HW114126   4.014   0.800   2.235
 4409SOL    HW214127   3.902   0.892   2.160
 4410SOL     OW14128   0.729   5.947   1.036
 4410SOL    HW114129   0.789   5.920   1.111
 4410SOL    HW214130   0.642   5.899   1.043
 4411SOL     OW14131   3.173   4.691   5.478
 4411SOL    HW114132   3.227   4.691   5.393
 4411SOL    HW214133   3.078   4.670   5.457
 4412SOL     OW14134   4.493   6.806   3.324
 4412SOL    HW114135   4.508   6.804   3.423
 4412SOL    HW214136   4.530   6.891   3.286
 4413SOL     OW14137   3.491   0.414   4.122
 4413SOL    HW114138   3.539   0.488   4.075
 4413SOL    HW214139   3.539   0.392   4.207
 4414SOL     OW14140   4.957   4.406   1.833
 4414SOL    HW114141   4.883   4.352   1.873
 4414SOL    HW214142   5.040   4.350   1.829
 4415SOL     OW14143   3.430   3.708   1.838
 4415SOL    HW114144   3.483   3.677   1.758
 4415SOL    HW214145   3.340   3.739   1.808
 4416SOL     OW14146   4.133   2.273   4.157
 4416SOL    HW114147   4.200   2.287   4.084
 4416SOL    HW214148   4.052   2.229   4.119
 4417SOL     OW14149   0.475   3.552   3.744
 4417SOL    HW114150   0.474   3.522   3.840
 4417SOL    HW214151   0.568   3.577   3.718
 4418SOL     OW14152   6.185   0.606   0.694
 4418SOL    HW114153   6.207   0.582   0.599
 4418SOL    HW214154   6.204   0.527   0.753
 4419SOL     OW14155   6.399   5.626   6.275
 4419SOL    HW114156   6.449   5.713   6.283
 4419SOL    HW214157   6.433   5.563   6.345
 4420SOL     OW14158   3.438   2.260   0.754
 4420SOL    HW114159   3.489   2.344   0.770
 4420SOL    HW214160   3.349   2.266   0.800
 4421SOL     OW14161   1.273   2.683   4.646
 4421SOL    HW114162   1.227   2.746   4.709
 4421SOL    HW214163   1.209   2.611   4.619
 4422SOL     OW14164   0.434   4.715   6.656
 4422SOL    HW114165   0.495   4.694   6.580
 4422SOL    HW214166   0.385   4.800   6.638
 4423SOL     OW14167   5.648   4.216   5.412
 4423SOL    HW114168   5.583   4.291   5.423
 4423SOL    HW214169   5.701   4.230   5.329
 4424SOL     OW14170   4.819   5.817   4.546
 4424SOL    HW114171   4.846   5.906   4.509
 4424SOL    HW214172   4.816   5.822   4.645
 4425SOL     OW14173   2.110   5.780   1.456
 4425SOL    HW114174   2.060   5.773   1.370
 4425SOL    HW214175   2.140   5.874   1.469
 4426SOL     OW14176   1.049   6.931   3.819
 4426SOL    HW114177   0.980   6.864   3.791
 4426SOL    HW214178   1.133   6.884   3.843
 4427SOL     OW14179   3.493   6.032   3.161
 4427SOL    HW114180   3.449   5.945   3.139
 4427SOL    HW214181   3.591   6.017   3.174
 4428SOL     OW14182   5.708   1.097   3.799
 4428SOL    HW114183   5.658   1.057   3.876
 4428SOL    HW214184   5.677   1.055   3.714
 4429SOL     OW14185   3.190   6.024   3.669
 4429SOL    HW114186   3.210   6.093   3.599
 4429SOL    HW214187   3.188   5.933   3.627
 4430SOL     OW14188   5.220   4.998   4.826
 4430SOL    HW114189   5.147   4.930   4.835
 4430SOL    HW214190   5.181   5.089   4.822
 4431SOL     OW14191   3.692   0.857   3.644
 4431SOL    HW114192   3.705   0.866   3.545
 4431SOL    HW214193   3.601   0.892   3.669
 4432SOL     OW14194   1.481   3.229   6.223
 4432SOL    HW114195   1.519   3.321   6.236
 4432SOL    HW214196   1.484   3.205   6.126
 4433SOL     OW14197   1.303   0.987   4.729
 4433SOL    HW114198   1.388   0.974   4.678
 4433SOL    HW214199   1.252   1.063   4.689
 4434SOL     OW14200   6.791   1.845   1.544
 4434SOL    HW114201   6.769   1.887   1.632
 4434SOL    HW214202   6.812   1.748   1.557
 4435SOL     OW14203   2.631   3.648   0.219
 4435SOL    HW114204   2.724   3.612   0.214
 4435SOL    HW214205   2.633   3.747   0.224
 4436SOL     OW14206   4.517   1.873   1.471
 4436SOL    HW114207   4.480   1.965   1.483
 4436SOL    HW214208   4.491   1.839   1.380
 4437SOL     OW14209   0.418   3.724   1.685
 4437SOL    HW114210   0.483   3.751   1.613
 4437SOL    HW214211   0.435   3.778   1.767
 4438SOL     OW14212   4.179   6.852   6.300
 4438SOL    HW114213   4.095   6.834   6.351
 4438SOL    HW214214   4.182   6.949   6.274
 4439SOL     OW14215   2.395   6.624   2.484
 4439SOL    HW114216   2.477   6.579   2.446
 4439SOL    HW214217   2.410   6.723   2.486
 4440SOL     OW14218   1.703   4.788   0.758
 4440SOL    HW114219   1.604   4.780   0.772
 4440SOL    HW214220   1.733   4.879   0.789
 4441SOL     OW14221   0.836   1.466   0.014
 4441SOL    HW114222   0.917   1.409   0.003
 4441SOL    HW214223   0.862   1.562   0.009
 4442SOL     OW14224   1.976   4.447   6.712
 4442SOL    HW114225   2.019   4.439   6.802
 4442SOL    HW214226   1.992   4.539   6.676
 4443SOL     OW14227   0.437   5.108   6.687
 4443SOL    HW114228   0.507   5.167   6.728
 4443SOL    HW214229   0.376   5.075   6.759
 4444SOL     OW14230   5.183   3.925   0.242
 4444SOL    HW114231   5.256   3.904   0.178
 4444SOL    HW214232   5.213   3.996   0.306
 4445SOL     OW14233   0.385   5.898   6.855
 4445SOL    HW114234   0.439   5.934   6.931
 4445SOL    HW214235   0.429   5.923   6.769
 4446SOL     OW14236   4.915   0.945   0.795
 4446SOL    HW114237   4.865   1.025   0.760
 4446SOL    HW214238   4.989   0.976   0.855
 4447SOL     OW14239   5.425   5.166   5.490
 4447SOL    HW114240   5.379   5.111   5.560
 4447SOL    HW214241   5.468   5.105   5.423
 4448SOL     OW14242   3.228   6.186   2.292
 4448SOL    HW114243   3.183   6.126   2.359
 4448SOL    HW214244   3.158   6.235   2.240
 4449SOL     OW14245   3.707   1.140   6.456
 4449SOL    HW114246   3.637   1.072   6.432
 4449SOL    HW214247   3.663   1.219   6.498
 4450SOL     OW14248   3.596   0.567   0.059
 4450SOL    HW114249   3.509   0.569   0.109
 4450SOL    HW214250   3.599   0.485   0.002
 4451SOL     OW14251   4.655   4.302   3.956
 4451SOL    HW114252   4.718   4.247   4.011
 4451SOL    HW214253   4.683   4.398   3.961
 4452SOL     OW14254   4.898   6.059   4.449
 4452SOL    HW114255   4.832   6.134   4.457
 4452SOL    HW214256   4.980   6.082   4.503
 4453SOL     OW14257   0.412   3.267   1.231
 4453SOL    HW114258   0.484   3.231   1.171
 4453SOL    HW214259   0.389   3.360   1.203
 4454SOL     OW14260   0.931   2.205   0.688
 4454SOL    HW114261   0.989   2.192   0.768
 4454SOL    HW214262   0.848   2.150   0.699
 4455SOL     OW14263   7.001   5.863   5.089
 4455SOL    HW114264   6.931   5.924   5.050
 4455SOL    HW214265   0.008   5.899   5.177
 4456SOL     OW14266   1.707   6.950   4.305
 4456SOL    HW114267   1.785   6.947   4.242
 4456SOL    HW214268   1.709   6.870   4.364
 4457SOL     OW14269   1.182   1.838   4.698
 4457SOL    HW114270   1.236   1.903   4.752
 4457SOL    HW214271   1.201   1.745   4.729
 4458SOL     OW14272   2.121   3.599   1.278
 4458SOL    HW114273   2.155   3.692   1.266
 4458SOL    HW214274   2.125   3.549   1.191
 4459SOL     OW14275   1.588   2.686   3.832
 4459SOL    HW114276   1.528   2.746   3.886
 4459SOL    HW214277   1.563   2.693   3.736
 4460SOL     OW14278   0.004   3.446   4.141
 4460SOL    HW114279   6.986   3.535   4.122
 4460SOL    HW214280   0.074   3.426   4.073
 4461SOL     OW14281   2.674   0.749   1.266
 4461SOL    HW114282   2.772   0.755   1.283
 4461SOL    HW214283   2.657   0.685   1.191
 4462SOL     OW14284   6.024   4.654   1.804
 4462SOL    HW114285   6.110   4.663   1.754
 4462SOL    HW214286   6.026   4.570   1.858
 4463SOL     OW14287   6.154   2.200   1.201
 4463SOL    HW114288   6.251   2.212   1.223
 4463SOL    HW214289   6.098   2.250   1.268
 4464SOL     OW14290   0.250   5.635   0.403
 4464SOL    HW114291   0.263   5.734   0.409
 4464SOL    HW214292   0.320   5.589   0.457
 4465SOL     OW14293   2.145   5.673   0.209
 4465SOL    HW114294   2.159   5.676   0.308
 4465SOL    HW214295   2.057   5.630   0.189
 4466SOL     OW14296   2.013   1.892   3.709
 4466SOL    HW114297   2.069   1.811   3.694
 4466SOL    HW214298   1.917   1.865   3.714
 4467SOL     OW14299   3.584   5.651   2.974
 4467SOL    HW114300   3.572   5.664   2.875
 4467SOL    HW214301   3.661   5.707   3.005
 4468SOL     OW14302   1.366   3.523   1.944
 4468SOL    HW114303   1.275   3.496   1.911
 4468SOL    HW214304   1.361   3.542   2.042
 4469SOL     OW14305   2.569   0.117   1.425
 4469SOL    HW114306   2.547   0.128   1.328
 4469SOL    HW214307   2.580   0.020   1.446
 4470SOL     OW14308   1.480   0.467   1.885
 4470SOL    HW114309   1.562   0.474   1.828
 4470SOL    HW214310   1.414   0.406   1.840
 4471SOL     OW14311   1.772   1.595   6.161
 4471SOL    HW114312   1.747   1.655   6.237
 4471SOL    HW214313   1.727   1.627   6.078
 4472SOL     OW14314   1.622   3.236   1.097
 4472SOL    HW114315   1.535   3.285   1.098
 4472SOL    HW214316   1.647   3.212   1.191
 4473SOL     OW14317   0.081   3.333   4.578
 4473SOL    HW114318   0.055   3.320   4.673
 4473SOL    HW214319   0.068   3.248   4.528
 4474SOL     OW14320   3.139   0.307   1.777
 4474SOL    HW114321   3.218   0.251   1.800
 4474SOL    HW214322   3.108   0.285   1.684
 4475SOL     OW14323   1.051   3.908   1.833
 4475SOL    HW114324   1.002   3.932   1.917
 4475SOL    HW214325   1.003   3.834   1.786
 4476SOL     OW14326   4.996   1.390   3.923
 4476SOL    HW114327   4.920   1.343   3.879
 4476SOL    HW214328   4.993   1.488   3.900
 4477SOL     OW14329   2.118   0.088   6.067
 4477SOL    HW114330   2.054   0.154   6.107
 4477SOL    HW214331   2.208   0.101   6.107
 4478SOL     OW14332   1.312   0.500   0.117
 4478SOL    HW114333   1.383   0.456   0.172
 4478SOL    HW214334   1.246   0.432   0.086
 4479SOL     OW14335   0.759   3.130   0.499
 4479SOL    HW114336   0.803   3.058   0.552
 4479SOL    HW214337   0.802   3.217   0.518
 4480SOL     OW14338   0.162   6.458   4.195
 4480SOL    HW114339   0.075   6.501   4.219
 4480SOL    HW214340   0.198   6.409   4.275
 4481SOL     OW14341   2.575   4.567   6.372
 4481SOL    HW114342   2.534   4.573   6.463
 4481SOL    HW214343   2.514   4.610   6.305
 4482SOL     OW14344   2.991   5.423   6.527
 4482SOL    HW114345   3.034   5.390   6.610
 4482SOL    HW214346   3.054   5.414   6.450
 4483SOL     OW14347   0.756   3.008   1.876
 4483SOL    HW114348   0.662   3.024   1.846
 4483SOL    HW214349   0.816   3.075   1.832
 4484SOL     OW14350   2.332   2.501   6.673
 4484SOL    HW114351   2.375   2.541   6.591
 4484SOL    HW214352   2.403   2.460   6.730
 4485SOL     OW14353   5.543   2.739   4.634
 4485SOL    HW114354   5.528   2.740   4.535
 4485SOL    HW214355   5.589   2.655   4.660
 4486SOL     OW14356   4.727   5.080   5.076
 4486SOL    HW114357   4.761   4.991   5.043
 4486SOL    HW214358   4.805   5.136   5.103
 4487SOL     OW14359   1.067   2.650   0.166
 4487SOL    HW114360   0.994   2.704   0.207
 4487SOL    HW214361   1.119   2.604   0.238
 4488SOL     OW14362   0.536   4.073   4.433
 4488SOL    HW114363   0.538   4.173   4.422
 4488SOL    HW214364   0.442   4.042   4.444
 4489SOL     OW14365   4.067   5.133   5.471
 4489SOL    HW114366   4.024   5.179   5.393
 4489SOL    HW214367   3.997   5.086   5.525
 4490SOL     OW14368   4.988   1.695   1.109
 4490SOL    HW114369   5.027   1.708   1.200
 4490SOL    HW214370   4.990   1.781   1.059
 4491SOL     OW14371   1.148   2.683   3.172
 4491SOL    HW114372   1.077   2.623   3.209
 4491SOL    HW214373   1.129   2.702   3.076
 4492SOL     OW14374   5.594   0.581   1.796
 4492SOL    HW114375   5.614   0.587   1.894
 4492SOL    HW214376   5.666   0.528   1.751
 4493SOL     OW14377   5.090   0.940   5.239
 4493SOL    HW114378   5.020   0.869   5.234
 4493SOL    HW214379   5.148   0.935   5.157
 4494SOL     OW14380   0.499   0.771   0.644
 4494SOL    HW114381   0.564   0.753   0.570
 4494SOL    HW214382   0.410   0.734   0.621
 4495SOL     OW14383   4.335   6.043   2.167
 4495SOL    HW114384   4.248   6.030   2.212
 4495SOL    HW214385   4.320   6.068   2.071
 4496SOL     OW14386   3.678   5.746   6.600
 4496SOL    HW114387   3.630   5.819   6.552
 4496SOL    HW214388   3.776   5.751   6.578
 4497SOL     OW14389   3.929   1.775   6.185
 4497SOL    HW114390   3.829   1.773   6.186
 4497SOL    HW214391   3.961   1.778   6.090
 4498SOL     OW14392   0.728   5.570   5.634
 4498SOL    HW114393   0.734   5.561   5.733
 4498SOL    HW214394   0.639   5.536   5.603
 4499SOL     OW14395   5.760   2.159   2.132
 4499SOL    HW114396   5.794   2.074   2.171
 4499SOL    HW214397   5.832   2.203   2.078
 4500SOL     OW14398   3.574   5.866   0.024
 4500SOL    HW114399   3.618   5.783   0.059
 4500SOL    HW214400   3.624   5.946   0.055
 4501SOL     OW14401   5.222   1.152   2.209
 4501SOL    HW114402   5.208   1.085   2.282
 4501SOL    HW214403   5.236   1.105   2.122
 4502SOL     OW14404   0.445   3.465   6.744
 4502SOL    HW114405   0.421   3.560   6.723
 4502SOL    HW214406   0.494   3.425   6.666
 4503SOL     OW14407   2.924   0.414   2.539
 4503SOL    HW114408   2.996   0.446   2.478
 4503SOL    HW214409   2.947   0.323   2.573
 4504SOL     OW14410   0.724   1.910   3.230
 4504SOL    HW114411   0.719   1.984   3.296
 4504SOL    HW214412   0.660   1.928   3.155
 4505SOL     OW14413   5.696   3.551   2.491
 4505SOL    HW114414   5.689   3.552   2.391
 4505SOL    HW214415   5.766   3.485   2.519
 4506SOL     OW14416   4.908   3.103   4.897
 4506SOL    HW114417   4.877   3.008   4.898
 4506SOL    HW214418   4.930   3.132   4.990
 4507SOL     OW14419   6.528   3.000   3.285
 4507SOL    HW114420   6.489   3.090   3.270
 4507SOL    HW214421   6.594   2.980   3.213
 4508SOL     OW14422   1.061   5.034   0.387
 4508SOL    HW114423   0.992   5.003   0.453
 4508SOL    HW214424   1.015   5.063   0.303
 4509SOL     OW14425   4.641   2.543   2.583
 4509SOL    HW114426   4.657   2.568   2.487
 4509SOL    HW214427   4.714   2.483   2.615
 4510SOL     OW14428   4.642   1.175   4.517
 4510SOL    HW114429   4.590   1.188   4.601
 4510SOL    HW214430   4.587   1.125   4.450
 4511SOL     OW14431   0.637   4.357   1.006
 4511SOL    HW114432   0.725   4.311   1.006
 4511SOL    HW214433   0.644   4.442   0.953
 4512SOL     OW14434   3.415   2.516   5.840
 4512SOL    HW114435   3.489   2.478   5.785
 4512SOL    HW214436   3.387   2.449   5.909
 4513SOL     OW14437   1.436   6.217   0.124
 4513SOL    HW114438   1.497   6.295   0.105
 4513SOL    HW214439   1.459   6.179   0.213
 4514SOL     OW14440   2.923   3.628   6.713
 4514SOL    HW114441   2.850   3.575   6.669
 4514SOL    HW214442   2.911   3.725   6.690
 4515SOL     OW14443   4.528   0.036   6.096
 4515SOL    HW114444   4.621   0.008   6.120
 4515SOL    HW214445   4.531   0.123   6.047
 4516SOL     OW14446   3.719   1.662   5.185
 4516SOL    HW114447   3.721   1.566   5.154
 4516SOL    HW214448   3.796   1.678   5.247
 4517SOL     OW14449   4.033   0.674   5.960
 4517SOL    HW114450   4.095   0.664   6.038
 4517SOL    HW214451   3.945   0.632   5.983
 4518SOL     OW14452   1.708   0.342   0.875
 4518SOL    HW114453   1.677   0.367   0.966
 4518SOL    HW214454   1.766   0.414   0.838
 4519SOL     OW14455   5.305   6.623   6.649
 4519SOL    HW114456   5.372   6.558   6.613
 4519SOL    HW214457   5.302   6.703   6.590
 4520SOL     OW14458   4.067   6.375   5.221
 4520SOL    HW114459   4.039   6.436   5.295
 4520SOL    HW214460   3.987   6.349   5.167
 4521SOL     OW14461   4.731   2.896   4.896
 4521SOL    HW114462   4.646   2.883   4.844
 4521SOL    HW214463   4.710   2.946   4.980
 4522SOL     OW14464   4.905   4.038   3.174
 4522SOL    HW114465   4.845   4.113   3.203
 4522SOL    HW214466   4.950   3.999   3.254
 4523SOL     OW14467   0.336   3.567   6.416
 4523SOL    HW114468   0.422   3.529   6.381
 4523SOL    HW214469   0.303   3.510   6.491
 4524SOL     OW14470   0.465   3.374   3.074
 4524SOL    HW114471   0.500   3.401   3.164
 4524SOL    HW214472   0.367   3.394   3.068
 4525SOL     OW14473   2.543   2.091   5.164
 4525SOL    HW114474   2.585   2.018   5.110
 4525SOL    HW214475   2.557   2.073   5.261
 4526SOL     OW14476   0.530   6.978   5.837
 4526SOL    HW114477   0.567   6.886   5.843
 4526SOL    HW214478   0.574   0.014   5.906
 4527SOL     OW14479   6.223   0.074   3.426
 4527SOL    HW114480   6.198   0.144   3.493
 4527SOL    HW214481   6.142   0.048   3.374
 4528SOL     OW14482   3.644   0.899   5.725
 4528SOL    HW114483   3.571   0.960   5.694
 4528SOL    HW214484   3.630   0.876   5.821
 4529SOL     OW14485   2.534   1.325   5.464
 4529SOL    HW114486   2.442   1.363   5.474
 4529SOL    HW214487   2.576   1.361   5.381
 4530SOL     OW14488   2.943   5.899   5.113
 4530SOL    HW114489   3.035   5.866   5.090
 4530SOL    HW214490   2.883   5.820   5.131
 4531SOL     OW14491   0.998   5.055   6.037
 4531SOL    HW114492   1.049   5.111   5.972
 4531SOL    HW214493   1.029   4.960   6.030
 4532SOL     OW14494   5.851   0.754   2.780
 4532SOL    HW114495   5.820   0.719   2.692
 4532SOL    HW214496   5.924   0.696   2.816
 4533SOL     OW14497   2.424   0.727   2.049
 4533SOL    HW114498   2.410   0.759   2.142
 4533SOL    HW214499   2.388   0.635   2.039
 4534SOL     OW14500   4.752   1.739   3.951
 4534SOL    HW114501   4.782   1.751   4.045
 4534SOL    HW214502   4.732   1.828   3.911
 4535SOL     OW14503   2.896   1.756   0.455
 4535SOL    HW114504   2.899   1.715   0.364
 4535SOL    HW214505   2.932   1.692   0.522
 4536SOL     OW14506   3.002   1.518   5.903
 4536SOL    HW114507   2.950   1.463   5.838
 4536SOL    HW214508   3.022   1.464   5.984
 4537SOL     OW14509   4.084   3.771   3.997
 4537SOL    HW114510   4.129   3.761   4.086
 4537SOL    HW214511   3.989   3.741   4.004
 4538SOL     OW14512   6.831   2.632   0.680
 4538SOL    HW114513   6.824   2.533   0.681
 4538SOL    HW214514   6.839   2.664   0.585
 4539SOL     OW14515   1.016   5.641   5.656
 4539SOL    HW114516   0.921   5.618   5.636
 4539SOL    HW214517   1.036   5.734   5.626
 4540SOL     OW14518   0.374   1.077   0.283
 4540SOL    HW114519   0.363   1.009   0.210
 4540SOL    HW214520   0.450   1.051   0.341
 4541SOL     OW14521   4.365   2.385   5.794
 4541SOL    HW114522   4.321   2.467   5.757
 4541SOL    HW214523   4.355   2.310   5.729
 4542SOL     OW14524   0.090   2.622   1.289
 4542SOL    HW114525   0.075   2.595   1.194
 4542SOL    HW214526   0.010   2.672   1.323
 4543SOL     OW14527   3.454   2.212   6.850
 4543SOL    HW114528   3.515   2.249   6.921
 4543SOL    HW214529   3.368   2.184   6.892
 4544SOL     OW14530   5.989   5.641   0.709
 4544SOL    HW114531   6.077   5.651   0.756
 4544SOL    HW214532   6.002   5.589   0.625
 4545SOL     OW14533   1.883   3.001   5.456
 4545SOL    HW114534   1.927   3.051   5.381
 4545SOL    HW214535   1.914   3.036   5.544
 4546SOL     OW14536   2.680   1.456   6.587
 4546SOL    HW114537   2.686   1.553   6.565
 4546SOL    HW214538   2.723   1.402   6.514
 4547SOL     OW14539   6.435   0.430   0.232
 4547SOL    HW114540   6.482   0.378   0.160
 4547SOL    HW214541   6.489   0.428   0.316
 4548SOL     OW14542   2.222   2.972   2.961
 4548SOL    HW114543   2.140   2.953   3.015
 4548SOL    HW214544   2.198   2.973   2.864
 4549SOL     OW14545   5.999   3.637   3.188
 4549SOL    HW114546   6.004   3.724   3.139
 4549SOL    HW214547   5.958   3.651   3.278
 4550SOL     OW14548   0.748   4.495   2.955
 4550SOL    HW114549   0.671   4.431   2.951
 4550SOL    HW214550   0.767   4.517   3.051
 4551SOL     OW14551   1.121   3.422   4.811
 4551SOL    HW114552   1.119   3.347   4.745
 4551SOL    HW214553   1.028   3.456   4.826
 4552SOL     OW14554   5.605   1.055   1.254
 4552SOL    HW114555   5.655   1.021   1.175
 4552SOL    HW214556   5.530   0.993   1.275
 4553SOL     OW14557   6.110   5.127   6.062
 4553SOL    HW114558   6.087   5.041   6.017
 4553SOL    HW214559   6.033   5.157   6.118
 4554SOL     OW14560   0.726   6.332   2.087
 4554SOL    HW114561   0.811   6.384   2.074
 4554SOL    HW214562   0.660   6.357   2.016
 4555SOL     OW14563   0.887   1.170   6.714
 4555SOL    HW114564   0.868   1.073   6.732
 4555SOL    HW214565   0.817   1.206   6.652
 4556SOL     OW14566   5.907   3.560   5.913
 4556SOL    HW114567   5.883   3.655   5.937
 4556SOL    HW214568   5.933   3.511   5.996
 4557SOL     OW14569   6.377   5.089   2.975
 4557SOL    HW114570   6.359   5.182   2.944
 4557SOL    HW214571   6.358   5.082   3.073
 4558SOL     OW14572   6.864   3.262   5.233
 4558SOL    HW114573   6.906   3.351   5.214
 4558SOL    HW214574   6.868   3.205   5.151
 4559SOL     OW14575   0.124   2.887   2.628
 4559SOL    HW114576   0.065   2.884   2.548
 4559SOL    HW214577   0.071   2.914   2.708
 4560SOL     OW14578   5.992   4.813   2.670
 4560SOL    HW114579   6.044   4.875   2.728
 4560SOL    HW214580   5.954   4.864   2.593
 4561SOL     OW14581   3.568   2.084   4.524
 4561SOL    HW114582   3.642   2.043   4.577
 4561SOL    HW214583   3.569   2.183   4.536
 4562SOL     OW14584   2.371   1.040   0.866
 4562SOL    HW114585   2.381   0.997   0.956
 4562SOL    HW214586   2.279   1.021   0.831
 4563SOL     OW14587   0.178   2.968   1.457
 4563SOL    HW114588   0.243   2.915   1.403
 4563SOL    HW214589   0.192   2.949   1.554
 4564SOL     OW14590   0.319   4.039   1.777
 4564SOL    HW114591   0.251   3.977   1.818
 4564SOL    HW214592   0.299   4.050   1.679
 4565SOL     OW14593   1.840   6.275   5.337
 4565SOL    HW114594   1.878   6.311   5.422
 4565SOL    HW214595   1.801   6.350   5.284
 4566SOL     OW14596   6.604   4.371   2.053
 4566SOL    HW114597   6.516   4.418   2.050
 4566SOL    HW214598   6.591   4.275   2.077
 4567SOL     OW14599   0.247   0.724   6.569
 4567SOL    HW114600   0.239   0.718   6.469
 4567SOL    HW214601   0.258   0.632   6.607
 4568SOL     OW14602   0.621   5.337   3.453
 4568SOL    HW114603   0.599   5.241   3.441
 4568SOL    HW214604   0.692   5.364   3.388
 4569SOL     OW14605   2.550   0.918   3.293
 4569SOL    HW114606   2.587   0.959   3.210
 4569SOL    HW214607   2.452   0.903   3.283
 4570SOL     OW14608   5.977   5.523   1.541
 4570SOL    HW114609   6.039   5.593   1.506
 4570SOL    HW214610   5.911   5.564   1.603
 4571SOL     OW14611   3.535   3.167   6.509
 4571SOL    HW114612   3.438   3.192   6.504
 4571SOL    HW214613   3.591   3.246   6.484
 4572SOL     OW14614   2.699   2.834   1.576
 4572SOL    HW114615   2.686   2.774   1.654
 4572SOL    HW214616   2.682   2.783   1.491
 4573SOL     OW14617   1.983   6.063   1.393
 4573SOL    HW114618   1.956   6.025   1.304
 4573SOL    HW214619   2.056   6.130   1.380
 4574SOL     OW14620   5.879   2.207   1.038
 4574SOL    HW114621   5.919   2.198   1.130
 4574SOL    HW214622   5.832   2.123   1.013
 4575SOL     OW14623   6.735   0.004   4.345
 4575SOL    HW114624   6.813   0.065   4.355
 4575SOL    HW214625   6.711   7.018   4.248
 4576SOL     OW14626   2.489   4.964   5.185
 4576SOL    HW114627   2.481   4.867   5.209
 4576SOL    HW214628   2.580   4.982   5.150
 4577SOL     OW14629   1.886   1.614   2.955
 4577SOL    HW114630   1.886   1.611   2.855
 4577SOL    HW214631   1.832   1.538   2.991
 4578SOL     OW14632   1.147   1.170   1.648
 4578SOL    HW114633   1.067   1.118   1.618
 4578SOL    HW214634   1.223   1.108   1.666
 4579SOL     OW14635   3.666   0.842   2.314
 4579SOL    HW114636   3.761   0.813   2.323
 4579SOL    HW214637   3.655   0.898   2.232
 4580SOL     OW14638   6.927   2.923   0.259
 4580SOL    HW114639   7.017   2.934   0.215
 4580SOL    HW214640   6.879   3.011   0.258
 4581SOL     OW14641   3.517   6.972   1.573
 4581SOL    HW114642   3.492   0.016   1.503
 4581SOL    HW214643   3.565   7.018   1.648
 4582SOL     OW14644   6.002   1.106   2.892
 4582SOL    HW114645   5.908   1.135   2.874
 4582SOL    HW214646   6.015   1.090   2.990
 4583SOL     OW14647   1.804   6.877   6.646
 4583SOL    HW114648   1.743   6.853   6.570
 4583SOL    HW214649   1.800   6.805   6.715
 4584SOL     OW14650   1.457   0.525   5.750
 4584SOL    HW114651   1.392   0.571   5.690
 4584SOL    HW214652   1.407   0.469   5.817
 4585SOL     OW14653   0.970   3.735   3.023
 4585SOL    HW114654   0.997   3.640   3.009
 4585SOL    HW214655   1.039   3.796   2.983
 4586SOL     OW14656   5.124   4.760   6.918
 4586SOL    HW114657   5.108   4.843   6.972
 4586SOL    HW214658   5.048   4.747   6.854
 4587SOL     OW14659   3.390   3.884   4.416
 4587SOL    HW114660   3.407   3.981   4.428
 4587SOL    HW214661   3.291   3.867   4.415
 4588SOL     OW14662   2.557   4.041   5.695
 4588SOL    HW114663   2.584   4.110   5.628
 4588SOL    HW214664   2.594   3.952   5.668
 4589SOL     OW14665   5.326   6.886   2.473
 4589SOL    HW114666   5.341   6.886   2.572
 4589SOL    HW214667   5.263   6.812   2.450
 4590SOL     OW14668   3.464   5.515   1.713
 4590SOL    HW114669   3.498   5.606   1.687
 4590SOL    HW214670   3.540   5.460   1.748
 4591SOL     OW14671   1.846   0.451   5.382
 4591SOL    HW114672   1.767   0.402   5.345
 4591SOL    HW214673   1.867   0.530   5.324
 4592SOL     OW14674   2.463   1.623   4.463
 4592SOL    HW114675   2.416   1.712   4.463
 4592SOL    HW214676   2.406   1.556   4.510
 4593SOL     OW14677   0.828   5.777   4.105
 4593SOL    HW114678   0.755   5.787   4.173
 4593SOL    HW214679   0.793   5.729   4.025
 4594SOL     OW14680   1.936   0.330   2.647
 4594SOL    HW114681   2.025   0.365   2.616
 4594SOL    HW214682   1.945   0.296   2.740
 4595SOL     OW14683   4.797   1.806   5.944
 4595SOL    HW114684   4.841   1.718   5.964
 4595SOL    HW214685   4.832   1.876   6.007
 4596SOL     OW14686   1.057   1.165   2.237
 4596SOL    HW114687   1.156   1.181   2.238
 4596SOL    HW214688   1.009   1.252   2.240
 4597SOL     OW14689   3.051   6.158   6.775
 4597SOL    HW114690   3.109   6.237   6.795
 4597SOL    HW214691   2.963   6.169   6.822
 4598SOL     OW14692   2.076   5.941   6.954
 4598SOL    HW114693   2.008   6.006   6.989
 4598SOL    HW214694   2.031   5.873   6.897
 4599SOL     OW14695   1.585   5.034   2.905
 4599SOL    HW114696   1.663   5.097   2.904
 4599SOL    HW214697   1.581   4.984   2.819
 4600SOL     OW14698   6.745   6.150   5.890
 4600SOL    HW114699   6.756   6.148   5.791
 4600SOL    HW214700   6.831   6.125   5.934
 4601SOL     OW14701   1.167   1.196   4.592
 4601SOL    HW114702   1.121   1.282   4.614
 4601SOL    HW214703   1.106   1.137   4.539
 4602SOL     OW14704   3.112   1.880   0.014
 4602SOL    HW114705   3.107   1.925   0.103
 4602SOL    HW214706   3.025   1.891   6.989
 4603SOL     OW14707   5.002   6.077   0.921
 4603SOL    HW114708   5.007   6.120   0.831
 4603SOL    HW214709   4.909   6.042   0.936
 4604SOL     OW14710   5.101   0.382   5.897
 4604SOL    HW114711   5.146   0.351   5.813
 4604SOL    HW214712   5.109   0.313   5.968
 4605SOL     OW14713   3.260   0.195   2.296
 4605SOL    HW114714   3.251   0.290   2.327
 4605SOL    HW214715   3.328   0.149   2.353
 4606SOL     OW14716   6.856   6.574   3.392
 4606SOL    HW114717   6.916   6.508   3.348
 4606SOL    HW214718   6.902   6.663   3.395
 4607SOL     OW14719   1.671   2.807   2.112
 4607SOL    HW114720   1.751   2.865   2.094
 4607SOL    HW214721   1.600   2.826   2.044
 4608SOL     OW14722   6.796   3.480   4.651
 4608SOL    HW114723   6.850   3.561   4.675
 4608SOL    HW214724   6.701   3.507   4.635
 4609SOL     OW14725   4.802   6.289   0.008
 4609SOL    HW114726   4.829   6.246   0.094
 4609SOL    HW214727   4.780   6.218   6.964
 4610SOL     OW14728   5.185   2.648   0.794
 4610SOL    HW114729   5.141   2.737   0.808
 4610SOL    HW214730   5.283   2.657   0.810
 4611SOL     OW14731   0.924   0.741   5.860
 4611SOL    HW114732   0.994   0.802   5.896
 4611SOL    HW214733   0.889   0.683   5.934
 4612SOL     OW14734   1.716   6.704   1.848
 4612SOL    HW114735   1.750   6.795   1.873
 4612SOL    HW214736   1.697   6.652   1.931
 4613SOL     OW14737   1.476   5.233   1.899
 4613SOL    HW114738   1.512   5.319   1.935
 4613SOL    HW214739   1.386   5.249   1.858
 4614SOL     OW14740   6.665   3.938   4.736
 4614SOL    HW114741   6.642   4.034   4.725
 4614SOL    HW214742   6.707   3.904   4.652
 4615SOL     OW14743   0.588   2.632   1.198
 4615SOL    HW114744   0.661   2.586   1.148
 4615SOL    HW214745   0.620   2.653   1.291
 4616SOL     OW14746   6.009   3.081   4.501
 4616SOL    HW114747   5.983   3.133   4.582
 4616SOL    HW214748   6.046   3.144   4.432
 4617SOL     OW14749   0.524   2.105   2.531
 4617SOL    HW114750   0.585   2.177   2.498
 4617SOL    HW214751   0.468   2.072   2.456
 4618SOL     OW14752   2.694   4.202   5.456
 4618SOL    HW114753   2.710   4.276   5.391
 4618SOL    HW214754   2.774   4.192   5.516
 4619SOL     OW14755   3.559   6.001   5.394
 4619SOL    HW114756   3.583   6.093   5.362
 4619SOL    HW214757   3.460   5.988   5.387
 4620SOL     OW14758   1.028   5.610   2.582
 4620SOL    HW114759   1.001   5.685   2.521
 4620SOL    HW214760   1.126   5.592   2.572
 4621SOL     OW14761   4.807   0.492   2.063
 4621SOL    HW114762   4.717   0.484   2.106
 4621SOL    HW214763   4.805   0.566   1.995
 4622SOL     OW14764   4.677   5.520   1.038
 4622SOL    HW114765   4.589   5.481   1.066
 4622SOL    HW214766   4.747   5.496   1.105
 4623SOL     OW14767   2.951   4.907   1.119
 4623SOL    HW114768   2.977   4.854   1.199
 4623SOL    HW214769   2.853   4.894   1.100
 4624SOL     OW14770   4.143   1.165   2.748
 4624SOL    HW114771   4.080   1.210   2.684
 4624SOL    HW214772   4.237   1.186   2.721
 4625SOL     OW14773   2.241   5.537   1.490
 4625SOL    HW114774   2.201   5.629   1.495
 4625SOL    HW214775   2.313   5.536   1.421
 4626SOL     OW14776   3.887   3.665   1.670
 4626SOL    HW114777   3.821   3.598   1.704
 4626SOL    HW214778   3.891   3.660   1.570
 4627SOL     OW14779   6.205   6.701   5.027
 4627SOL    HW114780   6.192   6.789   4.982
 4627SOL    HW214781   6.267   6.713   5.105
 4628SOL     OW14782   5.480   5.320   3.976
 4628SOL    HW114783   5.436   5.342   4.062
 4628SOL    HW214784   5.451   5.384   3.906
 4629SOL     OW14785   1.808   6.093   6.466
 4629SOL    HW114786   1.798   6.050   6.376
 4629SOL    HW214787   1.891   6.148   6.468
 4630SOL     OW14788   1.800   4.033   2.276
 4630SOL    HW114789   1.729   4.098   2.302
 4630SOL    HW214790   1.860   4.017   2.355
 4631SOL     OW14791   0.437   0.359   3.777
 4631SOL    HW114792   0.458   0.456   3.761
 4631SOL    HW214793   0.459   0.335   3.872
 4632SOL     OW14794   3.364   4.989   2.624
 4632SOL    HW114795   3.401   5.075   2.661
 4632SOL    HW214796   3.422   4.956   2.550
 4633SOL     OW14797   4.731   1.439   4.447
 4633SOL    HW114798   4.728   1.340   4.455
 4633SOL    HW214799   4.825   1.468   4.427
 4634SOL     OW14800   3.178   3.616   5.093
 4634SOL    HW114801   3.123   3.699   5.100
 4634SOL    HW214802   3.176   3.582   4.999
 4635SOL     OW14803   5.214   5.646   0.668
 4635SOL    HW114804   5.253   5.574   0.725
 4635SOL    HW214805   5.189   5.608   0.579
 4636SOL     OW14806   1.924   5.905   0.226
 4636SOL    HW114807   1.863   5.980   0.200
 4636SOL    HW214808   1.893   5.820   0.183
 4637SOL     OW14809   1.856   0.357   2.182
 4637SOL    HW114810   1.837   0.314   2.094
 4637SOL    HW214811   1.815   0.449   2.183
 4638SOL     OW14812   3.385   5.402   0.193
 4638SOL    HW114813   3.439   5.448   0.123
 4638SOL    HW214814   3.323   5.337   0.149
 4639SOL     OW14815   2.256   2.128   0.926
 4639SOL    HW114816   2.169   2.169   0.898
 4639SOL    HW214817   2.269   2.042   0.878
 4640SOL     OW14818   6.649   3.032   5.536
 4640SOL    HW114819   6.656   2.985   5.448
 4640SOL    HW214820   6.564   3.084   5.539
 4641SOL     OW14821   0.517   5.316   4.252
 4641SOL    HW114822   0.587   5.245   4.247
 4641SOL    HW214823   0.430   5.275   4.278
 4642SOL     OW14824   0.673   1.482   3.607
 4642SOL    HW114825   0.724   1.478   3.693
 4642SOL    HW214826   0.672   1.577   3.574
 4643SOL     OW14827   0.506   2.067   6.929
 4643SOL    HW114828   0.486   2.041   6.834
 4643SOL    HW214829   0.556   2.154   6.930
 4644SOL     OW14830   1.460   1.010   0.701
 4644SOL    HW114831   1.371   1.000   0.746
 4644SOL    HW214832   1.469   0.942   0.629
 4645SOL     OW14833   1.421   1.315   3.585
 4645SOL    HW114834   1.384   1.376   3.516
 4645SOL    HW214835   1.437   1.225   3.545
 4646SOL     OW14836   1.950   5.007   3.680
 4646SOL    HW114837   1.891   5.023   3.600
 4646SOL    HW214838   1.952   5.090   3.736
 4647SOL     OW14839   1.401   6.802   2.874
 4647SOL    HW114840   1.317   6.749   2.883
 4647SOL    HW214841   1.397   6.880   2.937
 4648SOL     OW14842   2.733   1.602   4.371
 4648SOL    HW114843   2.653   1.619   4.429
 4648SOL    HW214844   2.711   1.530   4.305
 4649SOL     OW14845   5.844   0.393   0.588
 4649SOL    HW114846   5.896   0.478   0.579
 4649SOL    HW214847   5.756   0.402   0.541
 4650SOL     OW14848   5.316   6.404   1.643
 4650SOL    HW114849   5.267   6.318   1.661
 4650SOL    HW214850   5.311   6.425   1.545
 4651SOL     OW14851   5.925   2.988   5.685
 4651SOL    HW114852   5.831   3.014   5.667
 4651SOL    HW214853   5.977   2.987   5.599
 4652SOL     OW14854   0.359   6.497   3.916
 4652SOL    HW114855   0.361   6.398   3.902
 4652SOL    HW214856   0.264   6.529   3.910
 4653SOL     OW14857   5.467   5.787   1.150
 4653SOL    HW114858   5.424   5.843   1.080
 4653SOL    HW214859   5.400   5.725   1.190
 4654SOL     OW14860   0.319   6.737   5.127
 4654SOL    HW114861   0.349   6.662   5.187
 4654SOL    HW214862   0.386   6.751   5.055
 4655SOL     OW14863   4.423   2.720   1.390
 4655SOL    HW114864   4.490   2.722   1.464
 4655SOL    HW214865   4.370   2.805   1.390
 4656SOL     OW14866   0.728   1.112   1.428
 4656SOL    HW114867   0.689   1.189   1.379
 4656SOL    HW214868   0.724   1.030   1.371
 4657SOL     OW14869   5.229   6.483   2.187
 4657SOL    HW114870   5.167   6.560   2.175
 4657SOL    HW214871   5.229   6.427   2.104
 4658SOL     OW14872   2.908   2.411   6.034
 4658SOL    HW114873   2.950   2.484   6.087
 4658SOL    HW214874   2.978   2.366   5.979
 4659SOL     OW14875   3.893   4.851   0.900
 4659SOL    HW114876   3.981   4.816   0.868
 4659SOL    HW214877   3.843   4.890   0.822
 4660SOL     OW14878   1.364   6.531   4.270
 4660SOL    HW114879   1.359   6.510   4.172
 4660SOL    HW214880   1.404   6.454   4.319
 4661SOL     OW14881   1.464   3.388   5.714
 4661SOL    HW114882   1.487   3.315   5.650
 4661SOL    HW214883   1.548   3.420   5.759
 4662SOL     OW14884   2.504   6.146   4.814
 4662SOL    HW114885   2.594   6.108   4.833
 4662SOL    HW214886   2.445   6.076   4.775
 4663SOL     OW14887   1.410   0.052   6.882
 4663SOL    HW114888   1.311   0.054   6.898
 4663SOL    HW214889   1.447   6.989   6.919
 4664SOL     OW14890   6.214   6.517   0.175
 4664SOL    HW114891   6.138   6.579   0.196
 4664SOL    HW214892   6.279   6.516   0.251
 4665SOL     OW14893   2.611   0.475   4.837
 4665SOL    HW114894   2.551   0.500   4.912
 4665SOL    HW214895   2.637   0.378   4.845
 4666SOL     OW14896   2.046   2.071   5.606
 4666SOL    HW114897   2.103   2.047   5.527
 4666SOL    HW214898   1.994   1.991   5.635
 4667SOL     OW14899   6.725   3.998   1.568
 4667SOL    HW114900   6.687   4.082   1.607
 4667SOL    HW214901   6.799   4.021   1.505
 4668SOL     OW14902   4.425   2.428   4.640
 4668SOL    HW114903   4.481   2.345   4.643
 4668SOL    HW214904   4.369   2.428   4.557
 4669SOL     OW14905   5.557   0.044   6.852
 4669SOL    HW114906   5.476   0.102   6.855
 4669SOL    HW214907   5.535   6.979   6.809
 4670SOL     OW14908   0.709   3.276   0.816
 4670SOL    HW114909   0.729   3.374   0.819
 4670SOL    HW214910   0.795   3.225   0.812
 4671SOL     OW14911   0.059   3.946   0.155
 4671SOL    HW114912   6.992   3.947   0.199
 4671SOL    HW214913   0.106   4.033   0.174
 4672SOL     OW14914   3.281   3.778   5.825
 4672SOL    HW114915   3.263   3.827   5.740
 4672SOL    HW214916   3.232   3.690   5.824
 4673SOL     OW14917   6.069   0.385   0.065
 4673SOL    HW114918   6.060   0.327   0.147
 4673SOL    HW214919   6.102   0.475   0.092
 4674SOL     OW14920   0.738   2.012   0.304
 4674SOL    HW114921   0.658   2.034   0.249
 4674SOL    HW214922   0.717   2.026   0.401
 4675SOL     OW14923   2.750   6.375   0.132
 4675SOL    HW114924   2.690   6.411   0.061
 4675SOL    HW214925   2.723   6.281   0.155
 4676SOL     OW14926   0.644   5.913   3.615
 4676SOL    HW114927   0.679   5.980   3.681
 4676SOL    HW214928   0.549   5.891   3.637
 4677SOL     OW14929   4.064   0.658   6.489
 4677SOL    HW114930   4.158   0.692   6.486
 4677SOL    HW214931   4.062   0.561   6.465
 4678SOL     OW14932   2.052   4.799   0.082
 4678SOL    HW114933   2.088   4.881   0.039
 4678SOL    HW214934   2.106   4.778   0.163
 4679SOL     OW14935   2.719   0.606   6.163
 4679SOL    HW114936   2.777   0.542   6.214
 4679SOL    HW214937   2.728   0.587   6.065
 4680SOL     OW14938   1.751   5.041   0.800
 4680SOL    HW114939   1.703   5.126   0.821
 4680SOL    HW214940   1.822   5.024   0.868
 4681SOL     OW14941   0.184   5.316   5.375
 4681SOL    HW114942   0.215   5.247   5.440
 4681SOL    HW214943   0.207   5.287   5.282
 4682SOL     OW14944   3.837   6.418   0.958
 4682SOL    HW114945   3.756   6.432   0.900
 4682SOL    HW214946   3.811   6.425   1.054
 4683SOL     OW14947   5.965   4.221   2.194
 4683SOL    HW114948   6.061   4.236   2.169
 4683SOL    HW214949   5.928   4.145   2.140
 4684SOL     OW14950   1.535   1.971   4.653
 4684SOL    HW114951   1.472   2.047   4.639
 4684SOL    HW214952   1.621   1.989   4.606
 4685SOL     OW14953   5.307   5.461   4.863
 4685SOL    HW114954   5.331   5.476   4.959
 4685SOL    HW214955   5.256   5.541   4.829
 4686SOL     OW14956   4.744   5.093   6.196
 4686SOL    HW114957   4.826   5.152   6.193
 4686SOL    HW214958   4.772   4.998   6.184
 4687SOL     OW14959   5.801   5.256   4.645
 4687SOL    HW114960   5.896   5.264   4.676
 4687SOL    HW214961   5.743   5.231   4.722
 4688SOL     OW14962   0.537   3.179   6.682
 4688SOL    HW114963   0.513   3.151   6.589
 4688SOL    HW214964   0.634   3.206   6.685
 4689SOL     OW14965   0.220   6.243   4.881
 4689SOL    HW114966   0.130   6.255   4.840
 4689SOL    HW214967   0.211   6.226   4.979
 4690SOL     OW14968   1.489   1.453   0.116
 4690SOL    HW114969   1.558   1.475   0.047
 4690SOL    HW214970   1.446   1.538   0.148
 4691SOL     OW14971   2.492   5.054   0.823
 4691SOL    HW114972   2.531   4.979   0.877
 4691SOL    HW214973   2.434   5.110   0.882
 4692SOL     OW14974   0.037   5.290   3.348
 4692SOL    HW114975   0.048   5.385   3.376
 4692SOL    HW214976   6.964   5.263   3.356
 4693SOL     OW14977   0.532   1.344   4.092
 4693SOL    HW114978   0.523   1.269   4.027
 4693SOL    HW214979   0.503   1.313   4.182
 4694SOL     OW14980   1.725   1.511   0.269
 4694SOL    HW114981   1.629   1.527   0.246
 4694SOL    HW214982   1.748   1.415   0.253
 4695SOL     OW14983   4.077   3.076   2.356
 4695SOL    HW114984   4.077   3.064   2.256
 4695SOL    HW214985   4.161   3.038   2.394
 4696SOL     OW14986   6.989   3.434   6.340
 4696SOL    HW114987   0.026   3.358   6.315
 4696SOL    HW214988   6.893   3.407   6.330
 4697SOL     OW14989   1.003   4.684   0.117
 4697SOL    HW114990   1.014   4.586   0.105
 4697SOL    HW214991   0.919   4.703   0.166
 4698SOL     OW14992   5.276   3.739   0.869
 4698SOL    HW114993   5.319   3.649   0.861
 4698SOL    HW214994   5.240   3.767   0.780
 4699SOL     OW14995   6.916   0.762   2.423
 4699SOL    HW114996   7.010   0.741   2.396
 4699SOL    HW214997   6.907   0.861   2.436
 4700SOL     OW14998   4.460   1.470   1.111
 4700SOL    HW114999   4.556   1.482   1.087
 4700SOL    HW215000   4.416   1.408   1.045
 4701SOL     OW15001   0.557   1.310   0.447
 4701SOL    HW115002   0.626   1.364   0.399
 4701SOL    HW215003   0.578   1.213   0.438
 4702SOL     OW15004   3.450   3.611   0.566
 4702SOL    HW115005   3.363   3.584   0.523
 4702SOL    HW215006   3.432   3.682   0.634
 4703SOL     OW15007   1.613   0.848   2.628
 4703SOL    HW115008   1.533   0.885   2.580
 4703SOL    HW215009   1.582   0.793   2.706
 4704SOL     OW15010   6.701   6.657   0.884
 4704SOL    HW115011   6.615   6.627   0.925
 4704SOL    HW215012   6.721   6.750   0.914
 4705SOL     OW15013   3.517   3.514   4.122
 4705SOL    HW115014   3.611   3.492   4.095
 4705SOL    HW215015   3.517   3.597   4.178
 4706SOL     OW15016   4.405   6.362   6.721
 4706SOL    HW115017   4.486   6.303   6.728
 4706SOL    HW215018   4.328   6.318   6.767
 4707SOL     OW15019   2.076   5.377   1.037
 4707SOL    HW115020   1.992   5.360   1.089
 4707SOL    HW215021   2.085   5.308   0.965
 4708SOL     OW15022   2.645   2.689   1.332
 4708SOL    HW115023   2.713   2.648   1.272
 4708SOL    HW215024   2.582   2.744   1.277
 4709SOL     OW15025   4.148   5.047   5.151
 4709SOL    HW115026   4.244   5.036   5.125
 4709SOL    HW215027   4.112   4.959   5.183
 4710SOL     OW15028   4.479   1.584   0.001
 4710SOL    HW115029   4.487   1.613   0.097
 4710SOL    HW215030   4.566   1.599   6.977
 4711SOL     OW15031   3.453   0.090   2.504
 4711SOL    HW115032   3.430   0.154   2.577
 4711SOL    HW215033   3.410   0.001   2.522
 4712SOL     OW15034   2.430   4.423   0.830
 4712SOL    HW115035   2.432   4.451   0.926
 4712SOL    HW215036   2.350   4.365   0.814
 4713SOL     OW15037   1.675   5.279   1.136
 4713SOL    HW115038   1.674   5.233   1.225
 4713SOL    HW215039   1.652   5.376   1.149
 4714SOL     OW15040   3.118   2.060   1.262
 4714SOL    HW115041   3.210   2.021   1.253
 4714SOL    HW215042   3.083   2.042   1.353
 4715SOL     OW15043   0.024   2.631   3.363
 4715SOL    HW115044   0.122   2.614   3.379
 4715SOL    HW215045   7.006   2.549   3.322
 4716SOL     OW15046   3.560   5.775   0.334
 4716SOL    HW115047   3.514   5.791   0.246
 4716SOL    HW215048   3.624   5.850   0.352
 4717SOL     OW15049   1.559   6.064   3.342
 4717SOL    HW115050   1.498   5.991   3.374
 4717SOL    HW215051   1.505   6.136   3.298
 4718SOL     OW15052   5.916   1.065   6.006
 4718SOL    HW115053   5.974   1.030   6.079
 4718SOL    HW215054   5.822   1.035   6.021
 4719SOL     OW15055   4.793   3.502   1.848
 4719SOL    HW115056   4.769   3.580   1.906
 4719SOL    HW215057   4.773   3.524   1.753
 4720SOL     OW15058   2.168   0.221   5.652
 4720SOL    HW115059   2.107   0.300   5.647
 4720SOL    HW215060   2.115   0.137   5.635
 4721SOL     OW15061   2.010   1.925   1.361
 4721SOL    HW115062   1.972   2.010   1.397
 4721SOL    HW215063   2.054   1.943   1.273
 4722SOL     OW15064   1.902   6.851   0.481
 4722SOL    HW115065   1.971   6.778   0.474
 4722SOL    HW215066   1.943   6.939   0.458
 4723SOL     OW15067   3.037   6.708   6.998
 4723SOL    HW115068   2.988   6.665   0.051
 4723SOL    HW215069   3.112   6.648   6.969
 4724SOL     OW15070   3.799   6.615   1.878
 4724SOL    HW115071   3.887   6.625   1.924
 4724SOL    HW215072   3.791   6.521   1.844
 4725SOL     OW15073   5.182   6.890   4.196
 4725SOL    HW115074   5.125   6.825   4.246
 4725SOL    HW215075   5.275   6.855   4.188
 4726SOL     OW15076   0.801   4.128   6.752
 4726SOL    HW115077   0.735   4.121   6.827
 4726SOL    HW215078   0.875   4.061   6.767
 4727SOL     OW15079   6.601   5.756   0.323
 4727SOL    HW115080   6.598   5.855   0.337
 4727SOL    HW215081   6.596   5.709   0.411
 4728SOL     OW15082   0.399   1.191   6.662
 4728SOL    HW115083   0.375   1.142   6.578
 4728SOL    HW215084   0.315   1.217   6.710
 4729SOL     OW15085   3.573   0.396   2.107
 4729SOL    HW115086   3.631   0.437   2.177
 4729SOL    HW215087   3.477   0.412   2.130
 4730SOL     OW15088   1.821   5.996   5.578
 4730SOL    HW115089   1.883   5.967   5.505
 4730SOL    HW215090   1.727   5.993   5.545
 4731SOL     OW15091   6.241   1.616   5.054
 4731SOL    HW115092   6.266   1.698   5.002
 4731SOL    HW215093   6.157   1.634   5.105
 4732SOL     OW15094   0.294   3.298   0.136
 4732SOL    HW115095   0.342   3.213   0.116
 4732SOL    HW215096   0.259   3.295   0.230
 4733SOL     OW15097   6.828   3.847   3.324
 4733SOL    HW115098   6.848   3.925   3.264
 4733SOL    HW215099   6.871   3.765   3.286
 4734SOL     OW15100   4.147   4.003   6.580
 4734SOL    HW115101   4.093   4.077   6.620
 4734SOL    HW215102   4.203   3.960   6.651
 4735SOL     OW15103   1.206   4.841   3.733
 4735SOL    HW115104   1.149   4.760   3.748
 4735SOL    HW215105   1.296   4.813   3.700
 4736SOL     OW15106   0.867   0.875   0.333
 4736SOL    HW115107   0.870   0.824   0.247
 4736SOL    HW215108   0.919   0.960   0.323
 4737SOL     OW15109   2.426   5.353   1.732
 4737SOL    HW115110   2.394   5.261   1.710
 4737SOL    HW215111   2.521   5.363   1.703
 4738SOL     OW15112   0.480   6.872   2.332
 4738SOL    HW115113   0.446   6.903   2.421
 4738SOL    HW215114   0.415   6.899   2.261
 4739SOL     OW15115   4.640   0.562   1.687
 4739SOL    HW115116   4.586   0.543   1.768
 4739SOL    HW215117   4.685   0.652   1.697
 4740SOL     OW15118   1.321   1.888   2.721
 4740SOL    HW115119   1.345   1.834   2.802
 4740SOL    HW215120   1.364   1.848   2.640
 4741SOL     OW15121   4.586   3.564   1.599
 4741SOL    HW115122   4.568   3.493   1.531
 4741SOL    HW215123   4.660   3.623   1.567
 4742SOL     OW15124   2.732   6.937   0.580
 4742SOL    HW115125   2.673   6.858   0.596
 4742SOL    HW215126   2.733   6.995   0.662
 4743SOL     OW15127   2.264   5.037   1.360
 4743SOL    HW115128   2.188   5.063   1.418
 4743SOL    HW215129   2.340   5.005   1.417
 4744SOL     OW15130   2.066   6.503   0.720
 4744SOL    HW115131   1.994   6.458   0.773
 4744SOL    HW215132   2.076   6.598   0.751
 4745SOL     OW15133   1.666   4.072   0.412
 4745SOL    HW115134   1.698   4.137   0.342
 4745SOL    HW215135   1.660   3.981   0.372
 4746SOL     OW15136   4.727   5.794   4.883
 4746SOL    HW115137   4.675   5.714   4.854
 4746SOL    HW215138   4.678   5.842   4.956
 4747SOL     OW15139   1.354   2.132   1.037
 4747SOL    HW115140   1.368   2.227   1.065
 4747SOL    HW215141   1.421   2.073   1.083
 4748SOL     OW15142   1.835   6.748   3.254
 4748SOL    HW115143   1.768   6.802   3.203
 4748SOL    HW215144   1.871   6.802   3.329
 4749SOL     OW15145   2.123   0.411   0.347
 4749SOL    HW115146   2.147   0.316   0.367
 4749SOL    HW215147   2.203   0.458   0.310
 4750SOL     OW15148   5.265   3.300   5.316
 4750SOL    HW115149   5.285   3.207   5.285
 4750SOL    HW215150   5.166   3.310   5.327
 4751SOL     OW15151   4.728   0.630   3.146
 4751SOL    HW115152   4.806   0.689   3.126
 4751SOL    HW215153   4.643   0.683   3.140
 4752SOL     OW15154   4.661   1.872   0.111
 4752SOL    HW115155   4.620   1.901   0.025
 4752SOL    HW215156   4.711   1.949   0.151
 4753SOL     OW15157   3.119   6.190   5.294
 4753SOL    HW115158   3.030   6.193   5.248
 4753SOL    HW215159   3.113   6.239   5.382
 4754SOL     OW15160   4.581   4.839   6.094
 4754SOL    HW115161   4.572   4.768   6.024
 4754SOL    HW215162   4.603   4.796   6.182
 4755SOL     OW15163   1.703   1.035   1.542
 4755SOL    HW115164   1.692   0.945   1.585
 4755SOL    HW215165   1.649   1.038   1.458
 4756SOL     OW15166   5.960   3.933   6.525
 4756SOL    HW115167   5.954   4.004   6.595
 4756SOL    HW215168   5.963   3.975   6.434
 4757SOL     OW15169   1.782   3.764   1.625
 4757SOL    HW115170   1.816   3.730   1.713
 4757SOL    HW215171   1.782   3.864   1.626
 4758SOL     OW15172   2.260   6.645   3.510
 4758SOL    HW115173   2.335   6.581   3.492
 4758SOL    HW215174   2.177   6.611   3.466
 4759SOL     OW15175   0.911   4.819   0.963
 4759SOL    HW115176   0.900   4.759   1.042
 4759SOL    HW215177   0.831   4.811   0.904
 4760SOL     OW15178   1.864   6.210   0.612
 4760SOL    HW115179   1.935   6.141   0.603
 4760SOL    HW215180   1.847   6.253   0.523
 4761SOL     OW15181   6.700   6.505   1.170
 4761SOL    HW115182   6.714   6.601   1.147
 4761SOL    HW215183   6.620   6.496   1.228
 4762SOL     OW15184   2.122   6.256   2.247
 4762SOL    HW115185   2.173   6.177   2.214
 4762SOL    HW215186   2.121   6.255   2.347
 4763SOL     OW15187   5.256   5.391   2.074
 4763SOL    HW115188   5.328   5.360   2.011
 4763SOL    HW215189   5.169   5.348   2.048
 4764SOL     OW15190   3.963   3.996   6.036
 4764SOL    HW115191   4.054   4.011   5.997
 4764SOL    HW215192   3.972   3.948   6.123
 4765SOL     OW15193   3.241   1.536   4.931
 4765SOL    HW115194   3.325   1.583   4.958
 4765SOL    HW215195   3.184   1.520   5.011
 4766SOL     OW15196   0.372   6.898   4.013
 4766SOL    HW115197   0.341   6.938   4.100
 4766SOL    HW215198   0.418   6.811   4.032
 4767SOL     OW15199   1.771   4.578   5.045
 4767SOL    HW115200   1.824   4.497   5.069
 4767SOL    HW215201   1.725   4.563   4.957
 4768SOL     OW15202   4.171   2.251   0.203
 4768SOL    HW115203   4.205   2.339   0.237
 4768SOL    HW215204   4.237   2.211   0.140
 4769SOL     OW15205   3.040   5.449   1.525
 4769SOL    HW115206   3.032   5.432   1.623
 4769SOL    HW215207   2.949   5.464   1.486
 4770SOL     OW15208   0.138   1.263   5.643
 4770SOL    HW115209   0.168   1.358   5.641
 4770SOL    HW215210   0.058   1.254   5.702
 4771SOL     OW15211   2.361   6.673   5.109
 4771SOL    HW115212   2.291   6.607   5.083
 4771SOL    HW215213   2.443   6.658   5.054
 4772SOL     OW15214   2.543   6.112   2.209
 4772SOL    HW115215   2.608   6.139   2.280
 4772SOL    HW215216   2.580   6.035   2.156
 4773SOL     OW15217   1.896   4.797   5.146
 4773SOL    HW115218   1.993   4.813   5.125
 4773SOL    HW215219   1.865   4.714   5.099
 4774SOL     OW15220   1.619   3.938   0.146
 4774SOL    HW115221   1.528   3.920   0.111
 4774SOL    HW215222   1.646   3.865   0.208
 4775SOL     OW15223   5.827   6.595   4.766
 4775SOL    HW115224   5.815   6.664   4.838
 4775SOL    HW215225   5.791   6.507   4.798
 4776SOL     OW15226   0.762   1.260   5.946
 4776SOL    HW115227   0.696   1.283   6.017
 4776SOL    HW215228   0.727   1.183   5.892
 4777SOL     OW15229   1.110   6.385   1.763
 4777SOL    HW115230   1.178   6.388   1.689
 4777SOL    HW215231   1.153   6.411   1.849
 4778SOL     OW15232   1.440   2.433   5.485
 4778SOL    HW115233   1.494   2.490   5.422
 4778SOL    HW215234   1.364   2.392   5.435
 4779SOL     OW15235   5.031   1.204   3.488
 4779SOL    HW115236   4.951   1.143   3.488
 4779SOL    HW215237   5.008   1.289   3.534
 4780SOL     OW15238   6.382   3.201   4.677
 4780SOL    HW115239   6.300   3.257   4.680
 4780SOL    HW215240   6.444   3.229   4.751
 4781SOL     OW15241   2.320   6.297   2.905
 4781SOL    HW115242   2.399   6.264   2.853
 4781SOL    HW215243   2.352   6.357   2.978
 4782SOL     OW15244   6.693   5.792   4.233
 4782SOL    HW115245   6.686   5.774   4.331
 4782SOL    HW215246   6.635   5.870   4.209
 4783SOL     OW15247   6.138   3.024   1.069
 4783SOL    HW115248   6.211   2.973   1.025
 4783SOL    HW215249   6.128   3.113   1.024
 4784SOL     OW15250   5.033   2.458   6.669
 4784SOL    HW115251   5.085   2.527   6.619
 4784SOL    HW215252   4.956   2.501   6.716
 4785SOL     OW15253   0.758   5.648   3.856
 4785SOL    HW115254   0.823   5.701   3.802
 4785SOL    HW215255   0.773   5.550   3.840
 4786SOL     OW15256   2.057   6.308   0.047
 4786SOL    HW115257   1.973   6.253   0.035
 4786SOL    HW215258   2.137   6.248   0.038
 4787SOL     OW15259   3.509   0.925   4.310
 4787SOL    HW115260   3.415   0.958   4.317
 4787SOL    HW215261   3.539   0.929   4.215
 4788SOL     OW15262   5.755   6.372   6.751
 4788SOL    HW115263   5.729   6.323   6.668
 4788SOL    HW215264   5.853   6.360   6.767
 4789SOL     OW15265   5.371   0.648   2.895
 4789SOL    HW115266   5.395   0.698   2.978
 4789SOL    HW215267   5.286   0.686   2.857
 4790SOL     OW15268   6.431   2.295   4.966
 4790SOL    HW115269   6.425   2.222   5.034
 4790SOL    HW215270   6.387   2.266   4.881
 4791SOL     OW15271   0.080   1.703   6.934
 4791SOL    HW115272   0.069   1.802   6.919
 4791SOL    HW215273   0.174   1.684   6.961
 4792SOL     OW15274   2.132   3.418   3.224
 4792SOL    HW115275   2.034   3.410   3.208
 4792SOL    HW215276   2.161   3.349   3.290
 4793SOL     OW15277   0.474   3.726   5.393
 4793SOL    HW115278   0.558   3.777   5.375
 4793SOL    HW215279   0.397   3.790   5.400
 4794SOL     OW15280   4.374   0.849   4.168
 4794SOL    HW115281   4.302   0.784   4.143
 4794SOL    HW215282   4.449   0.843   4.103
 4795SOL     OW15283   0.553   0.715   5.471
 4795SOL    HW115284   0.622   0.695   5.541
 4795SOL    HW215285   0.468   0.744   5.516
 4796SOL     OW15286   3.705   1.443   5.041
 4796SOL    HW115287   3.780   1.385   5.008
 4796SOL    HW215288   3.618   1.409   5.004
 4797SOL     OW15289   0.725   5.700   4.559
 4797SOL    HW115290   0.685   5.616   4.523
 4797SOL    HW215291   0.690   5.718   4.651
 4798SOL     OW15292   4.209   4.795   6.504
 4798SOL    HW115293   4.115   4.803   6.472
 4798SOL    HW215294   4.266   4.755   6.432
 4799SOL     OW15295   3.563   2.996   6.307
 4799SOL    HW115296   3.551   3.046   6.393
 4799SOL    HW215297   3.564   2.898   6.325
 4800SOL     OW15298   0.853   4.928   0.534
 4800SOL    HW115299   0.928   4.932   0.601
 4800SOL    HW215300   0.773   4.974   0.572
 4801SOL     OW15301   4.903   2.439   1.809
 4801SOL    HW115302   4.943   2.347   1.805
 4801SOL    HW215303   4.846   2.446   1.891
 4802SOL     OW15304   6.852   6.946   3.305
 4802SOL    HW115305   6.810   0.007   3.271
 4802SOL    HW215306   6.830   6.933   3.401
 4803SOL     OW15307   5.350   3.595   6.182
 4803SOL    HW115308   5.427   3.645   6.141
 4803SOL    HW215309   5.361   3.592   6.281
 4804SOL     OW15310   5.295   1.771   0.748
 4804SOL    HW115311   5.225   1.700   0.734
 4804SOL    HW215312   5.378   1.745   0.699
 4805SOL     OW15313   6.219   2.024   1.001
 4805SOL    HW115314   6.219   2.043   0.903
 4805SOL    HW215315   6.196   2.107   1.051
 4806SOL     OW15316   0.909   0.790   2.900
 4806SOL    HW115317   0.964   0.806   2.818
 4806SOL    HW215318   0.901   0.875   2.952
 4807SOL     OW15319   0.703   3.233   5.985
 4807SOL    HW115320   0.614   3.197   5.957
 4807SOL    HW215321   0.775   3.169   5.958
 4808SOL     OW15322   4.022   5.932   0.359
 4808SOL    HW115323   4.012   5.950   0.261
 4808SOL    HW215324   4.113   5.895   0.377
 4809SOL     OW15325   3.759   4.905   1.615
 4809SOL    HW115326   3.674   4.897   1.564
 4809SOL    HW215327   3.833   4.930   1.553
 4810SOL     OW15328   0.385   4.221   3.546
 4810SOL    HW115329   0.309   4.156   3.537
 4810SOL    HW215330   0.452   4.204   3.473
 4811SOL     OW15331   3.205   4.092   4.598
 4811SOL    HW115332   3.182   4.031   4.523
 4811SOL    HW215333   3.297   4.130   4.583
 4812SOL     OW15334   0.309   0.096   2.399
 4812SOL    HW115335   0.346   0.175   2.448
 4812SOL    HW215336   0.337   0.012   2.445
 4813SOL     OW15337   6.088   1.638   5.856
 4813SOL    HW115338   6.008   1.644   5.797
 4813SOL    HW215339   6.093   1.547   5.897
 4814SOL     OW15340   6.642   4.248   1.649
 4814SOL    HW115341   6.718   4.266   1.711
 4814SOL    HW215342   6.556   4.263   1.698
 4815SOL     OW15343   4.923   5.334   2.869
 4815SOL    HW115344   4.856   5.298   2.934
 4815SOL    HW215345   4.882   5.410   2.818
 4816SOL     OW15346   1.723   0.638   1.967
 4816SOL    HW115347   1.796   0.701   1.940
 4816SOL    HW215348   1.715   0.566   1.898
 4817SOL     OW15349   4.355   1.797   0.914
 4817SOL    HW115350   4.340   1.762   0.822
 4817SOL    HW215351   4.267   1.820   0.956
 4818SOL     OW15352   3.531   0.150   5.190
 4818SOL    HW115353   3.604   0.211   5.159
 4818SOL    HW215354   3.566   0.057   5.197
 4819SOL     OW15355   2.487   0.203   0.659
 4819SOL    HW115356   2.476   0.298   0.632
 4819SOL    HW215357   2.433   0.144   0.599
 4820SOL     OW15358   6.543   4.125   2.129
 4820SOL    HW115359   6.519   4.109   2.225
 4820SOL    HW215360   6.581   4.041   2.090
 4821SOL     OW15361   6.633   4.521   1.503
 4821SOL    HW115362   6.669   4.531   1.409
 4821SOL    HW215363   6.665   4.434   1.540
 4822SOL     OW15364   2.010   4.055   3.293
 4822SOL    HW115365   2.030   4.092   3.202
 4822SOL    HW215366   1.958   4.122   3.346
 4823SOL     OW15367   0.823   0.550   4.549
 4823SOL    HW115368   0.756   0.476   4.542
 4823SOL    HW215369   0.892   0.540   4.478
 4824SOL     OW15370   5.342   2.933   2.815
 4824SOL    HW115371   5.249   2.949   2.782
 4824SOL    HW215372   5.399   2.901   2.740
 4825SOL     OW15373   0.849   3.709   2.498
 4825SOL    HW115374   0.826   3.715   2.401
 4825SOL    HW215375   0.787   3.645   2.544
 4826SOL     OW15376   7.010   6.070   0.901
 4826SOL    HW115377   0.022   6.109   0.987
 4826SOL    HW215378   6.929   6.122   0.872
 4827SOL     OW15379   4.767   0.578   1.191
 4827SOL    HW115380   4.760   0.672   1.157
 4827SOL    HW215381   4.781   0.516   1.113
 4828SOL     OW15382   5.072   3.848   1.038
 4828SOL    HW115383   5.150   3.799   0.999
 4828SOL    HW215384   5.059   3.934   0.989
 4829SOL     OW15385   3.042   1.037   5.810
 4829SOL    HW115386   3.118   1.086   5.854
 4829SOL    HW215387   3.000   0.974   5.876
 4830SOL     OW15388   4.213   6.720   4.643
 4830SOL    HW115389   4.276   6.710   4.566
 4830SOL    HW215390   4.264   6.717   4.729
 4831SOL     OW15391   5.955   4.349   5.588
 4831SOL    HW115392   5.998   4.282   5.528
 4831SOL    HW215393   5.973   4.441   5.554
 4832SOL     OW15394   2.564   3.209   5.841
 4832SOL    HW115395   2.663   3.201   5.850
 4832SOL    HW215396   2.522   3.205   5.932
 4833SOL     OW15397   4.034   1.532   2.550
 4833SOL    HW115398   4.120   1.583   2.543
 4833SOL    HW215399   4.033   1.480   2.635
 4834SOL     OW15400   4.997   1.609   2.206
 4834SOL    HW115401   5.012   1.686   2.144
 4834SOL    HW215402   5.070   1.542   2.195
 4835SOL     OW15403   1.832   0.128   6.792
 4835SOL    HW115404   1.784   0.056   6.742
 4835SOL    HW215405   1.927   0.133   6.762
 4836SOL     OW15406   5.244   1.841   4.182
 4836SOL    HW115407   5.187   1.843   4.100
 4836SOL    HW215408   5.266   1.746   4.206
 4837SOL     OW15409   2.523   2.877   0.021
 4837SOL    HW115410   2.536   2.791   6.994
 4837SOL    HW215411   2.438   2.871   0.074
 4838SOL     OW15412   3.668   5.201   2.144
 4838SOL    HW115413   3.686   5.238   2.235
 4838SOL    HW215414   3.571   5.209   2.122
 4839SOL     OW15415   0.373   5.336   6.057
 4839SOL    HW115416   0.452   5.287   6.096
 4839SOL    HW215417   0.292   5.278   6.063
 4840SOL     OW15418   6.751   6.052   0.050
 4840SOL    HW115419   6.682   6.119   0.076
 4840SOL    HW215420   6.761   6.049   6.973
 4841SOL     OW15421   2.933   5.182   2.239
 4841SOL    HW115422   2.857   5.243   2.264
 4841SOL    HW215423   2.905   5.087   2.253
 4842SOL     OW15424   5.198   6.068   1.123
 4842SOL    HW115425   5.136   6.062   1.044
 4842SOL    HW215426   5.154   6.121   1.196
 4843SOL     OW15427   6.365   3.747   0.260
 4843SOL    HW115428   6.408   3.678   0.318
 4843SOL    HW215429   6.387   3.838   0.294
 4844SOL     OW15430   5.867   2.031   6.273
 4844SOL    HW115431   5.959   2.045   6.309
 4844SOL    HW215432   5.812   2.113   6.288
 4845SOL     OW15433   5.659   5.523   3.669
 4845SOL    HW115434   5.643   5.425   3.671
 4845SOL    HW215435   5.737   5.545   3.728
 4846SOL     OW15436   1.448   3.164   0.723
 4846SOL    HW115437   1.357   3.124   0.712
 4846SOL    HW215438   1.487   3.136   0.811
 4847SOL     OW15439   3.744   1.972   5.090
 4847SOL    HW115440   3.755   1.874   5.106
 4847SOL    HW215441   3.728   1.988   4.992
 4848SOL     OW15442   2.416   2.026   2.461
 4848SOL    HW115443   2.406   2.124   2.442
 4848SOL    HW215444   2.513   2.001   2.455
 4849SOL     OW15445   0.863   0.171   0.259
 4849SOL    HW115446   0.942   0.192   0.318
 4849SOL    HW215447   0.804   0.105   0.305
 4850SOL     OW15448   4.121   0.654   1.658
 4850SOL    HW115449   4.131   0.579   1.724
 4850SOL    HW215450   4.194   0.648   1.591
 4851SOL     OW15451   4.486   6.192   4.871
 4851SOL    HW115452   4.395   6.233   4.867
 4851SOL    HW215453   4.504   6.142   4.786
 4852SOL     OW15454   1.968   0.843   6.634
 4852SOL    HW115455   1.966   0.753   6.678
 4852SOL    HW215456   1.939   0.833   6.539
 4853SOL     OW15457   3.478   1.346   2.041
 4853SOL    HW115458   3.536   1.302   2.109
 4853SOL    HW215459   3.525   1.428   2.006
 4854SOL     OW15460   5.454   6.606   2.263
 4854SOL    HW115461   5.398   6.536   2.218
 4854SOL    HW215462   5.394   6.674   2.305
 4855SOL     OW15463   6.348   1.680   2.560
 4855SOL    HW115464   6.249   1.694   2.566
 4855SOL    HW215465   6.379   1.699   2.466
 4856SOL     OW15466   2.782   4.707   3.542
 4856SOL    HW115467   2.789   4.737   3.637
 4856SOL    HW215468   2.868   4.728   3.495
 4857SOL     OW15469   0.146   2.323   5.706
 4857SOL    HW115470   0.190   2.362   5.625
 4857SOL    HW215471   0.179   2.230   5.720
 4858SOL     OW15472   1.719   2.373   4.083
 4858SOL    HW115473   1.701   2.461   4.126
 4858SOL    HW215474   1.738   2.305   4.153
 4859SOL     OW15475   1.932   6.011   4.869
 4859SOL    HW115476   1.983   5.928   4.890
 4859SOL    HW215477   1.978   6.060   4.795
 4860SOL     OW15478   5.017   4.651   1.556
 4860SOL    HW115479   5.050   4.678   1.646
 4860SOL    HW215480   5.091   4.606   1.506
 4861SOL     OW15481   4.886   4.173   5.415
 4861SOL    HW115482   4.833   4.184   5.331
 4861SOL    HW215483   4.919   4.078   5.421
 4862SOL     OW15484   2.288   5.779   2.266
 4862SOL    HW115485   2.224   5.703   2.253
 4862SOL    HW215486   2.377   5.754   2.228
 4863SOL     OW15487   5.568   4.118   0.360
 4863SOL    HW115488   5.496   4.163   0.413
 4863SOL    HW215489   5.657   4.140   0.399
 4864SOL     OW15490   3.050   1.098   3.300
 4864SOL    HW115491   2.974   1.064   3.246
 4864SOL    HW215492   3.019   1.118   3.393
 4865SOL     OW15493   2.715   5.737   4.872
 4865SOL    HW115494   2.713   5.746   4.773
 4865SOL    HW215495   2.775   5.660   4.898
 4866SOL     OW15496   6.763   4.215   0.980
 4866SOL    HW115497   6.838   4.278   0.999
 4866SOL    HW215498   6.710   4.200   1.064
 4867SOL     OW15499   4.611   6.535   2.939
 4867SOL    HW115500   4.558   6.500   2.861
 4867SOL    HW215501   4.709   6.523   2.921
 4868SOL     OW15502   6.709   4.703   1.723
 4868SOL    HW115503   6.740   4.667   1.811
 4868SOL    HW215504   6.672   4.629   1.668
 4869SOL     OW15505   0.756   1.575   6.095
 4869SOL    HW115506   0.659   1.597   6.107
 4869SOL    HW215507   0.770   1.532   6.005
 4870SOL     OW15508   1.058   5.831   1.994
 4870SOL    HW115509   1.030   5.880   2.077
 4870SOL    HW215510   0.987   5.767   1.967
 4871SOL     OW15511   1.567   0.728   4.019
 4871SOL    HW115512   1.523   0.759   4.103
 4871SOL    HW215513   1.586   0.630   4.026
 4872SOL     OW15514   6.471   6.999   3.379
 4872SOL    HW115515   6.485   6.924   3.444
 4872SOL    HW215516   6.375   0.005   3.382
 4873SOL     OW15517   7.008   6.587   5.276
 4873SOL    HW115518   7.001   6.687   5.277
 4873SOL    HW215519   0.049   6.559   5.204
 4874SOL     OW15520   4.752   2.701   3.393
 4874SOL    HW115521   4.841   2.747   3.397
 4874SOL    HW215522   4.697   2.743   3.321
 4875SOL     OW15523   5.557   6.522   6.628
 4875SOL    HW115524   5.595   6.606   6.590
 4875SOL    HW215525   5.627   6.474   6.681
 4876SOL     OW15526   1.526   1.508   2.824
 4876SOL    HW115527   1.555   1.575   2.755
 4876SOL    HW215528   1.590   1.512   2.901
 4877SOL     OW15529   1.160   0.924   4.311
 4877SOL    HW115530   1.103   0.903   4.231
 4877SOL    HW215531   1.123   0.877   4.391
 4878SOL     OW15532   6.770   1.576   2.751
 4878SOL    HW115533   6.679   1.604   2.722
 4878SOL    HW215534   6.827   1.657   2.766
 4879SOL     OW15535   4.683   1.383   2.794
 4879SOL    HW115536   4.696   1.420   2.885
 4879SOL    HW215537   4.651   1.288   2.800
 4880SOL     OW15538   5.953   2.936   6.412
 4880SOL    HW115539   5.948   2.838   6.434
 4880SOL    HW215540   6.002   2.948   6.326
 4881SOL     OW15541   1.650   2.976   1.825
 4881SOL    HW115542   1.582   2.906   1.847
 4881SOL    HW215543   1.621   3.064   1.863
 4882SOL     OW15544   4.506   2.519   4.920
 4882SOL    HW115545   4.441   2.467   4.975
 4882SOL    HW215546   4.488   2.504   4.823
 4883SOL     OW15547   5.443   3.507   0.819
 4883SOL    HW115548   5.479   3.477   0.731
 4883SOL    HW215549   5.494   3.460   0.892
 4884SOL     OW15550   1.986   5.983   1.723
 4884SOL    HW115551   1.896   5.941   1.733
 4884SOL    HW215552   1.976   6.076   1.689
 4885SOL     OW15553   1.364   4.912   0.732
 4885SOL    HW115554   1.337   4.940   0.824
 4885SOL    HW215555   1.435   4.973   0.697
 4886SOL     OW15556   3.490   1.001   2.067
 4886SOL    HW115557   3.422   1.033   2.001
 4886SOL    HW215558   3.514   1.076   2.129
 4887SOL     OW15559   0.943   6.868   1.882
 4887SOL    HW115560   0.915   6.772   1.877
 4887SOL    HW215561   0.921   6.904   1.973
 4888SOL     OW15562   3.072   6.743   2.716
 4888SOL    HW115563   3.076   6.740   2.816
 4888SOL    HW215564   3.103   6.832   2.684
 4889SOL     OW15565   6.556   2.458   4.111
 4889SOL    HW115566   6.567   2.416   4.021
 4889SOL    HW215567   6.472   2.425   4.154
 4890SOL     OW15568   0.593   0.411   5.112
 4890SOL    HW115569   0.583   0.328   5.167
 4890SOL    HW215570   0.689   0.422   5.085
 4891SOL     OW15571   2.399   5.033   5.993
 4891SOL    HW115572   2.340   5.104   6.033
 4891SOL    HW215573   2.359   4.943   6.010
 4892SOL     OW15574   5.812   6.637   2.719
 4892SOL    HW115575   5.900   6.678   2.696
 4892SOL    HW215576   5.778   6.585   2.641
 4893SOL     OW15577   0.163   3.637   1.641
 4893SOL    HW115578   0.105   3.711   1.674
 4893SOL    HW215579   0.259   3.660   1.657
 4894SOL     OW15580   3.982   6.660   2.347
 4894SOL    HW115581   4.055   6.726   2.331
 4894SOL    HW215582   4.021   6.568   2.353
 4895SOL     OW15583   6.864   4.949   3.338
 4895SOL    HW115584   6.822   5.040   3.328
 4895SOL    HW215585   6.855   4.919   3.433
 4896SOL     OW15586   1.671   4.951   3.819
 4896SOL    HW115587   1.650   5.048   3.810
 4896SOL    HW215588   1.743   4.926   3.754
 4897SOL     OW15589   1.692   6.040   5.287
 4897SOL    HW115590   1.695   6.049   5.188
 4897SOL    HW215591   1.755   6.105   5.328
 4898SOL     OW15592   3.654   2.066   4.174
 4898SOL    HW115593   3.659   1.983   4.229
 4898SOL    HW215594   3.575   2.062   4.114
 4899SOL     OW15595   0.422   5.375   1.934
 4899SOL    HW115596   0.407   5.442   2.006
 4899SOL    HW215597   0.500   5.317   1.959
 4900SOL     OW15598   4.099   5.927   5.824
 4900SOL    HW115599   4.111   5.829   5.838
 4900SOL    HW215600   4.118   5.949   5.728
 4901SOL     OW15601   0.829   1.508   5.839
 4901SOL    HW115602   0.804   1.412   5.850
 4901SOL    HW215603   0.852   1.526   5.743
 4902SOL     OW15604   2.232   0.726   6.329
 4902SOL    HW115605   2.256   0.788   6.404
 4902SOL    HW215606   2.310   0.666   6.310
 4903SOL     OW15607   5.477   5.134   1.530
 4903SOL    HW115608   5.566   5.128   1.485
 4903SOL    HW215609   5.473   5.218   1.584
 4904SOL     OW15610   1.239   0.794   0.069
 4904SOL    HW115611   1.217   0.841   0.154
 4904SOL    HW215612   1.187   0.709   0.063
 4905SOL     OW15613   3.326   6.700   2.974
 4905SOL    HW115614   3.389   6.767   2.934
 4905SOL    HW215615   3.368   6.658   3.054
 4906SOL     OW15616   5.531   2.919   4.865
 4906SOL    HW115617   5.528   2.859   4.785
 4906SOL    HW215618   5.605   2.891   4.926
 4907SOL     OW15619   4.786   1.689   6.987
 4907SOL    HW115620   4.855   1.654   0.028
 4907SOL    HW215621   4.742   1.770   0.003
 4908SOL     OW15622   5.221   0.433   6.992
 4908SOL    HW115623   5.214   0.471   6.900
 4908SOL    HW215624   5.133   0.395   7.019
 4909SOL     OW15625   5.740   4.028   3.414
 4909SOL    HW115626   5.727   4.061   3.321
 4909SOL    HW215627   5.804   4.088   3.462
 4910SOL     OW15628   4.712   0.947   6.098
 4910SOL    HW115629   4.776   0.887   6.145
 4910SOL    HW215630   4.762   1.009   6.038
 4911SOL     OW15631   1.393   2.230   1.894
 4911SOL    HW115632   1.391   2.193   1.802
 4911SOL    HW215633   1.346   2.319   1.895
 4912SOL     OW15634   6.050   2.276   5.232
 4912SOL    HW115635   5.990   2.235   5.300
 4912SOL    HW215636   6.077   2.206   5.165
 4913SOL     OW15637   6.178   2.947   4.693
 4913SOL    HW115638   6.115   2.984   4.625
 4913SOL    HW215639   6.143   2.967   4.785
 4914SOL     OW15640   4.625   0.914   4.059
 4914SOL    HW115641   4.561   0.958   3.995
 4914SOL    HW215642   4.658   0.982   4.125
 4915SOL     OW15643   3.293   5.658   5.514
 4915SOL    HW115644   3.223   5.730   5.513
 4915SOL    HW215645   3.323   5.639   5.421
 4916SOL     OW15646   6.137   1.197   4.046
 4916SOL    HW115647   6.094   1.254   4.116
 4916SOL    HW215648   6.076   1.193   3.966
 4917SOL     OW15649   4.342   6.130   0.636
 4917SOL    HW115650   4.246   6.135   0.664
 4917SOL    HW215651   4.347   6.124   0.536
 4918SOL     OW15652   6.577   5.437   1.749
 4918SOL    HW115653   6.498   5.468   1.802
 4918SOL    HW215654   6.650   5.505   1.755
 4919SOL     OW15655   4.015   3.490   1.926
 4919SOL    HW115656   4.081   3.532   1.864
 4919SOL    HW215657   3.989   3.400   1.890
 4920SOL     OW15658   6.099   1.452   4.888
 4920SOL    HW115659   6.169   1.510   4.930
 4920SOL    HW215660   6.115   1.357   4.913
 4921SOL     OW15661   0.437   0.160   1.897
 4921SOL    HW115662   0.355   0.148   1.841
 4921SOL    HW215663   0.510   0.100   1.863
 4922SOL     OW15664   4.056   2.131   5.652
 4922SOL    HW115665   4.110   2.048   5.658
 4922SOL    HW215666   3.984   2.119   5.583
 4923SOL     OW15667   3.674   1.710   2.882
 4923SOL    HW115668   3.728   1.772   2.826
 4923SOL    HW215669   3.611   1.658   2.824
 4924SOL     OW15670   2.546   1.553   5.969
 4924SOL    HW115671   2.602   1.547   5.886
 4924SOL    HW215672   2.599   1.518   6.047
 4925SOL     OW15673   4.615   0.069   3.265
 4925SOL    HW115674   4.540   0.129   3.239
 4925SOL    HW215675   4.701   0.106   3.230
 4926SOL     OW15676   5.495   2.127   1.705
 4926SOL    HW115677   5.512   2.128   1.804
 4926SOL    HW215678   5.580   2.102   1.658
 4927SOL     OW15679   3.609   1.565   6.774
 4927SOL    HW115680   3.635   1.630   6.846
 4927SOL    HW215681   3.666   1.483   6.781
 4928SOL     OW15682   0.790   2.522   1.050
 4928SOL    HW115683   0.852   2.576   0.993
 4928SOL    HW215684   0.844   2.464   1.110
 4929SOL     OW15685   6.556   6.865   3.705
 4929SOL    HW115686   6.653   6.889   3.703
 4929SOL    HW215687   6.513   6.912   3.782
 4930SOL     OW15688   5.759   6.817   1.916
 4930SOL    HW115689   5.673   6.796   1.963
 4930SOL    HW215690   5.764   6.765   1.831
 4931SOL     OW15691   6.284   6.294   1.819
 4931SOL    HW115692   6.380   6.289   1.793
 4931SOL    HW215693   6.227   6.257   1.744
 4932SOL     OW15694   3.039   3.390   2.390
 4932SOL    HW115695   3.012   3.485   2.403
 4932SOL    HW215696   3.131   3.386   2.351
 4933SOL     OW15697   3.103   6.022   4.835
 4933SOL    HW115698   3.042   5.952   4.873
 4933SOL    HW215699   3.151   6.068   4.909
 4934SOL     OW15700   3.611   5.469   3.334
 4934SOL    HW115701   3.698   5.515   3.352
 4934SOL    HW215702   3.537   5.518   3.380
 4935SOL     OW15703   0.598   1.914   6.531
 4935SOL    HW115704   0.615   2.003   6.489
 4935SOL    HW215705   0.684   1.872   6.558
 4936SOL     OW15706   2.612   3.892   1.120
 4936SOL    HW115707   2.565   3.979   1.102
 4936SOL    HW215708   2.602   3.868   1.216
 4937SOL     OW15709   5.102   3.487   4.966
 4937SOL    HW115710   5.143   3.560   5.021
 4937SOL    HW215711   5.026   3.524   4.912
 4938SOL     OW15712   3.584   5.816   6.194
 4938SOL    HW115713   3.537   5.728   6.185
 4938SOL    HW215714   3.551   5.863   6.276
 4939SOL     OW15715   4.737   3.068   5.638
 4939SOL    HW115716   4.807   3.139   5.638
 4939SOL    HW215717   4.769   2.990   5.692
 4940SOL     OW15718   2.310   5.956   4.768
 4940SOL    HW115719   2.216   5.988   4.758
 4940SOL    HW215720   2.343   5.921   4.680
 4941SOL     OW15721   4.823   1.056   0.438
 4941SOL    HW115722   4.901   1.094   0.486
 4941SOL    HW215723   4.739   1.076   0.489
 4942SOL     OW15724   5.046   3.674   5.206
 4942SOL    HW115725   5.113   3.723   5.150
 4942SOL    HW215726   4.978   3.632   5.146
 4943SOL     OW15727   3.900   2.397   1.196
 4943SOL    HW115728   3.986   2.445   1.178
 4943SOL    HW215729   3.914   2.299   1.183
 4944SOL     OW15730   2.110   4.720   2.254
 4944SOL    HW115731   2.114   4.652   2.327
 4944SOL    HW215732   2.076   4.678   2.170
 4945SOL     OW15733   0.125   6.204   3.793
 4945SOL    HW115734   0.063   6.269   3.837
 4945SOL    HW215735   0.211   6.200   3.845
 4946SOL     OW15736   1.523   3.684   2.497
 4946SOL    HW115737   1.604   3.663   2.442
 4946SOL    HW215738   1.547   3.683   2.594
 4947SOL     OW15739   0.731   6.796   0.863
 4947SOL    HW115740   0.795   6.764   0.793
 4947SOL    HW215741   0.755   6.755   0.951
 4948SOL     OW15742   2.448   1.303   2.149
 4948SOL    HW115743   2.547   1.298   2.161
 4948SOL    HW215744   2.408   1.212   2.159
 4949SOL     OW15745   5.559   1.421   5.240
 4949SOL    HW115746   5.576   1.326   5.265
 4949SOL    HW215747   5.480   1.426   5.179
 4950SOL     OW15748   3.127   5.534   4.976
 4950SOL    HW115749   3.081   5.518   5.063
 4950SOL    HW215750   3.148   5.632   4.967
 4951SOL     OW15751   4.136   2.121   4.501
 4951SOL    HW115752   4.168   2.028   4.518
 4951SOL    HW215753   4.085   2.123   4.414
 4952SOL     OW15754   6.971   6.424   5.689
 4952SOL    HW115755   6.988   6.511   5.642
 4952SOL    HW215756   6.962   6.440   5.787
 4953SOL     OW15757   2.313   5.463   2.068
 4953SOL    HW115758   2.277   5.470   1.975
 4953SOL    HW215759   2.319   5.367   2.094
 4954SOL     OW15760   5.511   5.702   6.890
 4954SOL    HW115761   5.459   5.716   6.974
 4954SOL    HW215762   5.576   5.777   6.878
 4955SOL     OW15763   1.567   6.986   1.523
 4955SOL    HW115764   1.551   6.887   1.531
 4955SOL    HW215765   1.514   0.000   1.447
 4956SOL     OW15766   4.085   6.728   4.984
 4956SOL    HW115767   4.121   6.773   5.065
 4956SOL    HW215768   4.002   6.776   4.953
 4957SOL     OW15769   0.708   0.240   3.853
 4957SOL    HW115770   0.689   0.327   3.900
 4957SOL    HW215771   0.787   0.252   3.792
 4958SOL     OW15772   0.742   5.726   0.119
 4958SOL    HW115773   0.696   5.740   0.207
 4958SOL    HW215774   0.686   5.764   0.046
 4959SOL     OW15775   1.002   1.373   1.545
 4959SOL    HW115776   1.034   1.312   1.618
 4959SOL    HW215777   0.942   1.443   1.583
 4960SOL     OW15778   3.725   6.395   4.786
 4960SOL    HW115779   3.798   6.328   4.776
 4960SOL    HW215780   3.727   6.458   4.708
 4961SOL     OW15781   5.162   0.689   4.422
 4961SOL    HW115782   5.118   0.684   4.333
 4961SOL    HW215783   5.095   0.668   4.494
 4962SOL     OW15784   6.908   2.387   0.864
 4962SOL    HW115785   6.854   2.308   0.893
 4962SOL    HW215786   6.957   2.424   0.943
 4963SOL     OW15787   0.648   5.134   1.714
 4963SOL    HW115788   0.552   5.162   1.720
 4963SOL    HW215789   0.663   5.087   1.627
 4964SOL     OW15790   3.110   6.617   3.357
 4964SOL    HW115791   3.152   6.538   3.312
 4964SOL    HW215792   3.050   6.586   3.431
 4965SOL     OW15793   6.224   0.518   4.618
 4965SOL    HW115794   6.250   0.445   4.681
 4965SOL    HW215795   6.145   0.566   4.654
 4966SOL     OW15796   2.988   4.870   4.538
 4966SOL    HW115797   2.940   4.955   4.515
 4966SOL    HW215798   2.991   4.860   4.637
 4967SOL     OW15799   3.805   2.614   5.695
 4967SOL    HW115800   3.720   2.565   5.715
 4967SOL    HW215801   3.785   2.694   5.637
 4968SOL     OW15802   6.080   3.443   5.430
 4968SOL    HW115803   6.037   3.392   5.504
 4968SOL    HW215804   6.012   3.503   5.387
 4969SOL     OW15805   1.473   1.140   2.055
 4969SOL    HW115806   1.566   1.120   2.025
 4969SOL    HW215807   1.454   1.238   2.044
 4970SOL     OW15808   0.911   2.193   5.326
 4970SOL    HW115809   0.933   2.095   5.317
 4970SOL    HW215810   0.925   2.238   5.238
 4971SOL     OW15811   5.523   6.772   3.610
 4971SOL    HW115812   5.546   6.802   3.518
 4971SOL    HW215813   5.555   6.839   3.677
 4972SOL     OW15814   1.892   3.259   0.021
 4972SOL    HW115815   1.810   3.304   7.007
 4972SOL    HW215816   1.968   3.273   6.980
 4973SOL     OW15817   6.080   6.204   2.484
 4973SOL    HW115818   6.015   6.200   2.408
 4973SOL    HW215819   6.068   6.124   2.543
 4974SOL     OW15820   5.803   6.583   2.448
 4974SOL    HW115821   5.741   6.509   2.420
 4974SOL    HW215822   5.763   6.671   2.423
 4975SOL     OW15823   6.096   5.640   0.364
 4975SOL    HW115824   6.026   5.571   0.380
 4975SOL    HW215825   6.186   5.596   0.368
 4976SOL     OW15826   3.790   0.454   5.449
 4976SOL    HW115827   3.708   0.408   5.416
 4976SOL    HW215828   3.764   0.536   5.500
 4977SOL     OW15829   3.295   3.284   0.888
 4977SOL    HW115830   3.219   3.221   0.870
 4977SOL    HW215831   3.274   3.374   0.851
 4978SOL     OW15832   5.183   2.980   6.190
 4978SOL    HW115833   5.168   2.990   6.091
 4978SOL    HW215834   5.277   3.003   6.213
 4979SOL     OW15835   1.193   0.219   5.770
 4979SOL    HW115836   1.250   0.138   5.753
 4979SOL    HW215837   1.102   0.189   5.800
 4980SOL     OW15838   3.441   5.323   2.027
 4980SOL    HW115839   3.467   5.337   1.931
 4980SOL    HW215840   3.407   5.408   2.065
 4981SOL     OW15841   4.096   6.294   5.547
 4981SOL    HW115842   4.120   6.329   5.638
 4981SOL    HW215843   4.171   6.312   5.483
 4982SOL     OW15844   2.485   3.088   0.376
 4982SOL    HW115845   2.519   3.086   0.470
 4982SOL    HW215846   2.400   3.036   0.370
 4983SOL     OW15847   5.129   3.256   4.414
 4983SOL    HW115848   5.066   3.329   4.439
 4983SOL    HW215849   5.222   3.283   4.438
 4984SOL     OW15850   4.993   3.857   3.394
 4984SOL    HW115851   4.942   3.783   3.350
 4984SOL    HW215852   5.082   3.867   3.350
 4985SOL     OW15853   5.742   4.779   2.291
 4985SOL    HW115854   5.692   4.693   2.304
 4985SOL    HW215855   5.698   4.852   2.342
 4986SOL     OW15856   5.182   4.465   2.691
 4986SOL    HW115857   5.102   4.449   2.749
 4986SOL    HW215858   5.159   4.442   2.596
 4987SOL     OW15859   6.821   2.891   1.638
 4987SOL    HW115860   6.730   2.849   1.644
 4987SOL    HW215861   6.863   2.866   1.552
 4988SOL     OW15862   0.831   1.236   4.418
 4988SOL    HW115863   0.801   1.168   4.351
 4988SOL    HW215864   0.762   1.243   4.491
 4989SOL     OW15865   0.177   1.211   0.460
 4989SOL    HW115866   0.242   1.270   0.508
 4989SOL    HW215867   0.222   1.169   0.381
 4990SOL     OW15868   1.294   2.232   5.350
 4990SOL    HW115869   1.298   2.283   5.264
 4990SOL    HW215870   1.363   2.160   5.349
 4991SOL     OW15871   1.091   3.176   3.964
 4991SOL    HW115872   1.113   3.082   3.991
 4991SOL    HW215873   1.097   3.235   4.044
 4992SOL     OW15874   3.465   0.914   5.375
 4992SOL    HW115875   3.550   0.933   5.424
 4992SOL    HW215876   3.469   0.954   5.284
 4993SOL     OW15877   2.953   6.053   3.810
 4993SOL    HW115878   2.970   6.150   3.792
 4993SOL    HW215879   3.025   5.998   3.768
 4994SOL     OW15880   0.676   0.368   2.567
 4994SOL    HW115881   0.695   0.332   2.659
 4994SOL    HW215882   0.711   0.303   2.499
 4995SOL     OW15883   5.817   2.403   6.466
 4995SOL    HW115884   5.833   2.373   6.560
 4995SOL    HW215885   5.752   2.342   6.422
 4996SOL     OW15886   1.067   1.383   3.252
 4996SOL    HW115887   1.035   1.435   3.331
 4996SOL    HW215888   1.089   1.290   3.280
 4997SOL     OW15889   0.347   2.962   3.559
 4997SOL    HW115890   0.412   3.022   3.607
 4997SOL    HW215891   0.397   2.887   3.515
 4998SOL     OW15892   1.239   5.516   4.576
 4998SOL    HW115893   1.278   5.512   4.668
 4998SOL    HW215894   1.148   5.475   4.577
 4999SOL     OW15895   5.934   5.591   1.080
 4999SOL    HW115896   5.838   5.562   1.087
 4999SOL    HW215897   5.990   5.515   1.048
 5000SOL     OW15898   6.957   6.582   4.725
 5000SOL    HW115899   6.987   6.518   4.796
 5000SOL    HW215900   7.017   6.575   4.646
 5001SOL     OW15901   3.294   4.291   5.242
 5001SOL    HW115902   3.330   4.380   5.269
 5001SOL    HW215903   3.194   4.297   5.232
 5002SOL     OW15904   2.034   1.056   2.103
 5002SOL    HW115905   2.089   1.050   2.186
 5002SOL    HW215906   2.023   0.965   2.063
 5003SOL     OW15907   6.353   5.884   2.561
 5003SOL    HW115908   6.429   5.924   2.509
 5003SOL    HW215909   6.316   5.952   2.623
 5004SOL     OW15910   3.302   6.321   6.887
 5004SOL    HW115911   3.351   6.243   6.847
 5004SOL    HW215912   3.301   6.312   6.987
 5005SOL     OW15913   4.758   2.861   0.254
 5005SOL    HW115914   4.796   2.952   0.237
 5005SOL    HW215915   4.825   2.791   0.228
 5006SOL     OW15916   5.150   6.023   4.904
 5006SOL    HW115917   5.244   6.057   4.907
 5006SOL    HW215918   5.148   5.928   4.933
 5007SOL     OW15919   3.675   1.340   5.326
 5007SOL    HW115920   3.729   1.348   5.242
 5007SOL    HW215921   3.686   1.249   5.364
 5008SOL     OW15922   6.059   0.967   3.802
 5008SOL    HW115923   6.042   0.928   3.712
 5008SOL    HW215924   6.158   0.979   3.816
 5009SOL     OW15925   1.034   6.193   2.870
 5009SOL    HW115926   0.935   6.201   2.859
 5009SOL    HW215927   1.074   6.154   2.786
 5010SOL     OW15928   4.016   3.645   4.399
 5010SOL    HW115929   3.925   3.616   4.430
 5010SOL    HW215930   4.022   3.745   4.403
 5011SOL     OW15931   0.763   2.737   3.071
 5011SOL    HW115932   0.728   2.721   2.979
 5011SOL    HW215933   0.860   2.714   3.074
 5012SOL     OW15934   6.752   2.528   6.369
 5012SOL    HW115935   6.754   2.542   6.468
 5012SOL    HW215936   6.822   2.460   6.344
 5013SOL     OW15937   4.228   1.506   6.188
 5013SOL    HW115938   4.129   1.519   6.200
 5013SOL    HW215939   4.275   1.591   6.213
 5014SOL     OW15940   5.812   6.391   0.357
 5014SOL    HW115941   5.858   6.306   0.385
 5014SOL    HW215942   5.744   6.415   0.425
 5015SOL     OW15943   4.522   2.336   3.731
 5015SOL    HW115944   4.551   2.426   3.696
 5015SOL    HW215945   4.598   2.272   3.725
 5016SOL     OW15946   2.541   0.026   3.034
 5016SOL    HW115947   2.619   0.079   3.067
 5016SOL    HW215948   2.489   0.080   2.968
 5017SOL     OW15949   2.364   2.732   1.092
 5017SOL    HW115950   2.369   2.673   1.011
 5017SOL    HW215951   2.276   2.717   1.139
 5018SOL     OW15952   6.020   5.272   3.733
 5018SOL    HW115953   6.101   5.319   3.770
 5018SOL    HW215954   6.025   5.175   3.756
 5019SOL     OW15955   1.990   4.471   0.007
 5019SOL    HW115956   2.075   4.489   0.057
 5019SOL    HW215957   1.916   4.525   0.048
 5020SOL     OW15958   5.416   4.740   6.458
 5020SOL    HW115959   5.477   4.666   6.486
 5020SOL    HW215960   5.414   4.745   6.358
 5021SOL     OW15961   1.920   4.380   6.412
 5021SOL    HW115962   1.962   4.307   6.360
 5021SOL    HW215963   1.972   4.396   6.496
 5022SOL     OW15964   1.561   5.990   0.357
 5022SOL    HW115965   1.467   5.979   0.390
 5022SOL    HW215966   1.568   5.955   0.264
 5023SOL     OW15967   6.260   2.972   2.013
 5023SOL    HW115968   6.347   2.942   2.052
 5023SOL    HW215969   6.187   2.911   2.043
 5024SOL     OW15970   6.197   3.971   4.331
 5024SOL    HW115971   6.157   4.038   4.393
 5024SOL    HW215972   6.133   3.895   4.319
 5025SOL     OW15973   5.442   1.303   3.358
 5025SOL    HW115974   5.438   1.239   3.281
 5025SOL    HW215975   5.391   1.386   3.335
 5026SOL     OW15976   0.112   6.630   3.992
 5026SOL    HW115977   0.016   6.621   3.964
 5026SOL    HW215978   0.132   6.565   4.065
 5027SOL     OW15979   1.056   6.644   3.364
 5027SOL    HW115980   1.039   6.741   3.381
 5027SOL    HW215981   1.134   6.614   3.419
 5028SOL     OW15982   0.500   0.823   3.183
 5028SOL    HW115983   0.524   0.727   3.168
 5028SOL    HW215984   0.574   0.869   3.232
 5029SOL     OW15985   0.230   1.708   1.106
 5029SOL    HW115986   0.217   1.744   1.013
 5029SOL    HW215987   0.231   1.784   1.170
 5030SOL     OW15988   1.213   6.900   6.992
 5030SOL    HW115989   1.280   6.864   6.927
 5030SOL    HW215990   1.122   6.866   6.968
 5031SOL     OW15991   5.734   0.868   4.375
 5031SOL    HW115992   5.717   0.788   4.317
 5031SOL    HW215993   5.818   0.913   4.344
 5032SOL     OW15994   2.237   5.550   0.933
 5032SOL    HW115995   2.190   5.491   0.999
 5032SOL    HW215996   2.170   5.591   0.872
 5033SOL     OW15997   2.242   4.127   5.587
 5033SOL    HW115998   2.320   4.184   5.564
 5033SOL    HW215999   2.263   4.073   5.668
 5034SOL     OW16000   6.348   2.890   0.939
 5034SOL    HW116001   6.389   2.943   0.865
 5034SOL    HW216002   6.377   2.794   0.932
 5035SOL     OW16003   5.067   4.418   0.608
 5035SOL    HW116004   5.129   4.380   0.539
 5035SOL    HW216005   5.096   4.511   0.631
 5036SOL     OW16006   1.114   0.207   1.129
 5036SOL    HW116007   1.105   0.118   1.083
 5036SOL    HW216008   1.122   0.279   1.061
 5037SOL     OW16009   4.324   2.314   4.399
 5037SOL    HW116010   4.263   2.243   4.436
 5037SOL    HW216011   4.274   2.367   4.330
 5038SOL     OW16012   1.859   6.256   5.669
 5038SOL    HW116013   1.836   6.170   5.622
 5038SOL    HW216014   1.865   6.240   5.767
 5039SOL     OW16015   2.149   2.138   5.236
 5039SOL    HW116016   2.205   2.065   5.197
 5039SOL    HW216017   2.207   2.204   5.282
 5040SOL     OW16018   3.303   3.907   5.566
 5040SOL    HW116019   3.254   3.866   5.489
 5040SOL    HW216020   3.327   4.002   5.543
 5041SOL     OW16021   1.138   3.930   1.176
 5041SOL    HW116022   1.224   3.885   1.151
 5041SOL    HW216023   1.072   3.920   1.102
 5042SOL     OW16024   5.265   2.571   6.099
 5042SOL    HW116025   5.276   2.610   6.008
 5042SOL    HW216026   5.196   2.623   6.150
 5043SOL     OW16027   3.652   0.963   3.382
 5043SOL    HW116028   3.651   1.053   3.425
 5043SOL    HW216029   3.558   0.936   3.360
 5044SOL     OW16030   6.011   5.000   3.778
 5044SOL    HW116031   5.930   4.999   3.719
 5044SOL    HW216032   6.061   4.914   3.765
 5045SOL     OW16033   6.036   2.149   6.653
 5045SOL    HW116034   6.004   2.221   6.715
 5045SOL    HW216035   5.958   2.092   6.625
 5046SOL     OW16036   3.489   3.071   5.315
 5046SOL    HW116037   3.585   3.074   5.288
 5046SOL    HW216038   3.470   2.985   5.361
 5047SOL     OW16039   0.977   0.916   2.230
 5047SOL    HW116040   1.013   1.009   2.227
 5047SOL    HW216041   1.030   0.857   2.169
 5048SOL     OW16042   6.426   2.611   1.289
 5048SOL    HW116043   6.407   2.612   1.191
 5048SOL    HW216044   6.470   2.697   1.316
 5049SOL     OW16045   0.857   2.400   2.605
 5049SOL    HW116046   0.937   2.367   2.556
 5049SOL    HW216047   0.775   2.382   2.550
 5050SOL     OW16048   1.115   3.409   2.075
 5050SOL    HW116049   1.180   3.449   2.139
 5050SOL    HW216050   1.022   3.429   2.104
 5051SOL     OW16051   2.809   5.357   0.660
 5051SOL    HW116052   2.728   5.298   0.654
 5051SOL    HW216053   2.837   5.365   0.756
 5052SOL     OW16054   5.756   4.586   1.233
 5052SOL    HW116055   5.715   4.516   1.176
 5052SOL    HW216056   5.696   4.606   1.311
 5053SOL     OW16057   2.492   4.474   0.574
 5053SOL    HW116058   2.472   4.449   0.668
 5053SOL    HW216059   2.580   4.522   0.569
 5054SOL     OW16060   3.766   5.703   4.719
 5054SOL    HW116061   3.794   5.659   4.805
 5054SOL    HW216062   3.743   5.798   4.737
 5055SOL     OW16063   0.998   1.431   5.071
 5055SOL    HW116064   1.084   1.432   5.121
 5055SOL    HW216065   1.003   1.495   4.995
 5056SOL     OW16066   1.215   2.893   4.828
 5056SOL    HW116067   1.298   2.865   4.875
 5056SOL    HW216068   1.192   2.987   4.854
 5057SOL     OW16069   6.949   5.341   2.806
 5057SOL    HW116070   6.875   5.394   2.765
 5057SOL    HW216071   0.012   5.392   2.797
 5058SOL     OW16072   4.460   4.697   6.631
 5058SOL    HW116073   4.491   4.608   6.597
 5058SOL    HW216074   4.379   4.726   6.580
 5059SOL     OW16075   3.619   1.887   3.725
 5059SOL    HW116076   3.604   1.960   3.792
 5059SOL    HW216077   3.717   1.871   3.714
 5060SOL     OW16078   0.670   3.331   5.333
 5060SOL    HW116079   0.667   3.400   5.404
 5060SOL    HW216080   0.651   3.241   5.373
 5061SOL     OW16081   3.459   2.891   5.525
 5061SOL    HW116082   3.552   2.904   5.560
 5061SOL    HW216083   3.434   2.794   5.531
 5062SOL     OW16084   5.088   0.954   2.688
 5062SOL    HW116085   5.148   1.015   2.740
 5062SOL    HW216086   4.993   0.977   2.706
 5063SOL     OW16087   1.157   6.974   2.587
 5063SOL    HW116088   1.112   6.891   2.556
 5063SOL    HW216089   1.103   7.017   2.659
 5064SOL     OW16090   4.560   5.492   0.804
 5064SOL    HW116091   4.475   5.540   0.826
 5064SOL    HW216092   4.620   5.494   0.884
 5065SOL     OW16093   2.343   6.924   3.186
 5065SOL    HW116094   2.416   6.963   3.130
 5065SOL    HW216095   2.287   6.863   3.130
 5066SOL     OW16096   2.164   4.789   1.846
 5066SOL    HW116097   2.148   4.703   1.894
 5066SOL    HW216098   2.235   4.776   1.776
 5067SOL     OW16099   4.031   3.270   1.677
 5067SOL    HW116100   4.033   3.193   1.741
 5067SOL    HW216101   4.121   3.314   1.676
 5068SOL     OW16102   2.927   6.448   0.424
 5068SOL    HW116103   2.892   6.518   0.361
 5068SOL    HW216104   3.026   6.444   0.417
 5069SOL     OW16105   3.167   5.126   5.868
 5069SOL    HW116106   3.170   5.111   5.967
 5069SOL    HW216107   3.205   5.217   5.847
 5070SOL     OW16108   6.493   3.086   3.694
 5070SOL    HW116109   6.501   3.100   3.793
 5070SOL    HW216110   6.399   3.103   3.666
 5071SOL     OW16111   3.127   0.572   4.152
 5071SOL    HW116112   3.192   0.555   4.226
 5071SOL    HW216113   3.129   0.496   4.087
 5072SOL     OW16114   1.412   1.477   0.441
 5072SOL    HW116115   1.428   1.415   0.518
 5072SOL    HW216116   1.386   1.567   0.475
 5073SOL     OW16117   2.435   6.915   2.422
 5073SOL    HW116118   2.368   6.984   2.450
 5073SOL    HW216119   2.527   6.951   2.434
 5074SOL     OW16120   3.474   2.272   1.688
 5074SOL    HW116121   3.414   2.220   1.749
 5074SOL    HW216122   3.537   2.327   1.743
 5075SOL     OW16123   0.893   3.253   6.877
 5075SOL    HW116124   0.816   3.316   6.881
 5075SOL    HW216125   0.882   3.183   6.947
 5076SOL     OW16126   5.780   0.198   6.676
 5076SOL    HW116127   5.749   0.117   6.726
 5076SOL    HW216128   5.834   0.256   6.737
 5077SOL     OW16129   1.068   4.417   4.044
 5077SOL    HW116130   1.048   4.319   4.037
 5077SOL    HW216131   0.989   4.470   4.012
 5078SOL     OW16132   0.436   1.561   3.912
 5078SOL    HW116133   0.424   1.527   3.818
 5078SOL    HW216134   0.451   1.484   3.973
 5079SOL     OW16135   1.477   2.567   6.103
 5079SOL    HW116136   1.391   2.522   6.079
 5079SOL    HW216137   1.550   2.532   6.044
 5080SOL     OW16138   5.924   5.256   6.234
 5080SOL    HW116139   6.004   5.261   6.294
 5080SOL    HW216140   5.844   5.228   6.286
 5081SOL     OW16141   3.042   5.536   5.460
 5081SOL    HW116142   3.129   5.489   5.479
 5081SOL    HW216143   3.059   5.634   5.452
 5082SOL     OW16144   5.986   6.026   1.690
 5082SOL    HW116145   5.969   6.072   1.778
 5082SOL    HW216146   5.907   6.039   1.630
 5083SOL     OW16147   2.237   6.921   3.579
 5083SOL    HW116148   2.241   6.826   3.547
 5083SOL    HW216149   2.249   6.982   3.501
 5084SOL     OW16150   1.368   4.932   5.455
 5084SOL    HW116151   1.274   4.966   5.450
 5084SOL    HW216152   1.422   4.974   5.382
 5085SOL     OW16153   0.042   4.025   6.065
 5085SOL    HW116154   0.061   4.011   6.163
 5085SOL    HW216155   0.125   4.059   6.020
 5086SOL     OW16156   2.315   4.979   2.359
 5086SOL    HW116157   2.240   5.046   2.357
 5086SOL    HW216158   2.300   4.909   2.289
 5087SOL     OW16159   6.514   5.095   2.222
 5087SOL    HW116160   6.520   5.005   2.267
 5087SOL    HW216161   6.426   5.104   2.177
 5088SOL     OW16162   4.652   6.064   2.020
 5088SOL    HW116163   4.570   6.072   1.963
 5088SOL    HW216164   4.625   6.055   2.116
 5089SOL     OW16165   5.459   4.956   4.605
 5089SOL    HW116166   5.421   5.048   4.616
 5089SOL    HW216167   5.538   4.960   4.543
 5090SOL     OW16168   3.131   0.274   5.041
 5090SOL    HW116169   3.171   0.359   5.075
 5090SOL    HW216170   3.038   0.264   5.078
 5091SOL     OW16171   6.351   6.875   0.202
 5091SOL    HW116172   6.358   6.919   0.291
 5091SOL    HW216173   6.271   6.910   0.153
 5092SOL     OW16174   3.032   3.647   4.843
 5092SOL    HW116175   2.999   3.690   4.928
 5092SOL    HW216176   3.009   3.550   4.845
 5093SOL     OW16177   1.802   1.901   2.211
 5093SOL    HW116178   1.835   1.950   2.130
 5093SOL    HW216179   1.868   1.913   2.286
 5094SOL     OW16180   2.510   5.987   6.396
 5094SOL    HW116181   2.489   6.061   6.332
 5094SOL    HW216182   2.495   5.899   6.351
 5095SOL     OW16183   0.262   0.586   2.949
 5095SOL    HW116184   0.194   0.513   2.944
 5095SOL    HW216185   0.231   0.663   2.893
 5096SOL     OW16186   5.072   2.811   5.943
 5096SOL    HW116187   5.116   2.734   5.898
 5096SOL    HW216188   5.040   2.782   6.034
 5097SOL     OW16189   0.708   5.906   6.580
 5097SOL    HW116190   0.790   5.943   6.625
 5097SOL    HW216191   0.626   5.944   6.624
 5098SOL     OW16192   3.897   2.402   1.668
 5098SOL    HW116193   3.927   2.496   1.686
 5098SOL    HW216194   3.810   2.386   1.714
 5099SOL     OW16195   1.349   6.646   1.787
 5099SOL    HW116196   1.346   6.731   1.839
 5099SOL    HW216197   1.262   6.598   1.796
 5100SOL     OW16198   4.980   3.642   2.490
 5100SOL    HW116199   4.994   3.652   2.392
 5100SOL    HW216200   5.062   3.600   2.531
 5101SOL     OW16201   4.034   0.022   5.697
 5101SOL    HW116202   4.004   6.961   5.744
 5101SOL    HW216203   3.955   0.065   5.654
 5102SOL     OW16204   5.156   5.039   4.493
 5102SOL    HW116205   5.159   5.093   4.577
 5102SOL    HW216206   5.081   4.974   4.498
 5103SOL     OW16207   1.282   0.370   5.982
 5103SOL    HW116208   1.248   0.331   5.897
 5103SOL    HW216209   1.204   0.403   6.036
 5104SOL     OW16210   3.770   4.571   1.565
 5104SOL    HW116211   3.820   4.503   1.512
 5104SOL    HW216212   3.673   4.569   1.539
 5105SOL     OW16213   3.836   2.457   6.768
 5105SOL    HW116214   3.791   2.545   6.754
 5105SOL    HW216215   3.854   2.415   6.679
 5106SOL     OW16216   4.386   2.993   1.126
 5106SOL    HW116217   4.368   2.921   1.059
 5106SOL    HW216218   4.374   2.955   1.218
 5107SOL     OW16219   4.935   3.523   0.777
 5107SOL    HW116220   5.000   3.535   0.852
 5107SOL    HW216221   4.921   3.611   0.731
 5108SOL     OW16222   4.473   3.956   6.319
 5108SOL    HW116223   4.397   3.918   6.266
 5108SOL    HW216224   4.446   4.046   6.355
 5109SOL     OW16225   1.746   2.459   1.257
 5109SOL    HW116226   1.834   2.435   1.300
 5109SOL    HW216227   1.747   2.432   1.161
 5110SOL     OW16228   5.470   0.338   6.372
 5110SOL    HW116229   5.407   0.325   6.448
 5110SOL    HW216230   5.440   0.416   6.317
 5111SOL     OW16231   1.074   6.462   5.156
 5111SOL    HW116232   1.139   6.418   5.218
 5111SOL    HW216233   1.026   6.393   5.103
 5112SOL     OW16234   0.501   0.538   3.150
 5112SOL    HW116235   0.559   0.481   3.091
 5112SOL    HW216236   0.431   0.582   3.094
 5113SOL     OW16237   2.053   4.694   0.388
 5113SOL    HW116238   2.015   4.626   0.324
 5113SOL    HW216239   2.148   4.671   0.407
 5114SOL     OW16240   4.720   5.977   1.044
 5114SOL    HW116241   4.666   5.930   1.114
 5114SOL    HW216242   4.741   6.070   1.074
 5115SOL     OW16243   1.675   3.508   1.077
 5115SOL    HW116244   1.712   3.415   1.064
 5115SOL    HW216245   1.648   3.546   0.989
 5116SOL     OW16246   1.804   6.584   6.793
 5116SOL    HW116247   1.881   6.591   6.857
 5116SOL    HW216248   1.778   6.488   6.783
 5117SOL     OW16249   1.465   2.382   3.934
 5117SOL    HW116250   1.560   2.363   3.961
 5117SOL    HW216251   1.406   2.374   4.014
 5118SOL     OW16252   5.653   5.958   6.884
 5118SOL    HW116253   5.561   5.997   6.878
 5118SOL    HW216254   5.708   6.013   6.947
 5119SOL     OW16255   4.901   1.358   0.584
 5119SOL    HW116256   4.838   1.423   0.542
 5119SOL    HW216257   4.988   1.359   0.533
 5120SOL     OW16258   4.999   0.232   5.086
 5120SOL    HW116259   5.037   0.141   5.070
 5120SOL    HW216260   4.902   0.224   5.107
 5121SOL     OW16261   2.470   4.046   6.788
 5121SOL    HW116262   2.403   4.048   6.714
 5121SOL    HW216263   2.553   4.093   6.759
 5122SOL     OW16264   4.908   5.443   3.642
 5122SOL    HW116265   4.962   5.526   3.640
 5122SOL    HW216266   4.929   5.391   3.725
 5123SOL     OW16267   4.821   2.580   2.352
 5123SOL    HW116268   4.844   2.664   2.401
 5123SOL    HW216269   4.768   2.603   2.271
 5124SOL     OW16270   2.333   6.610   3.908
 5124SOL    HW116271   2.235   6.605   3.931
 5124SOL    HW216272   2.382   6.657   3.982
 5125SOL     OW16273   0.218   1.857   4.086
 5125SOL    HW116274   0.166   1.907   4.017
 5125SOL    HW216275   0.301   1.820   4.044
 5126SOL     OW16276   2.085   6.886   0.796
 5126SOL    HW116277   2.094   6.885   0.696
 5126SOL    HW216278   2.120   6.973   0.831
 5127SOL     OW16279   1.960   5.380   0.310
 5127SOL    HW116280   1.927   5.463   0.263
 5127SOL    HW216281   1.884   5.338   0.359
 5128SOL     OW16282   6.428   5.912   1.567
 5128SOL    HW116283   6.332   5.907   1.595
 5128SOL    HW216284   6.442   5.864   1.481
 5129SOL     OW16285   5.682   6.974   1.005
 5129SOL    HW116286   5.646   0.039   0.972
 5129SOL    HW216287   5.605   6.916   1.033
 5130SOL     OW16288   6.297   5.169   3.229
 5130SOL    HW116289   6.217   5.195   3.174
 5130SOL    HW216290   6.349   5.251   3.252
 5131SOL     OW16291   2.103   2.483   3.647
 5131SOL    HW116292   2.042   2.500   3.570
 5131SOL    HW216293   2.063   2.521   3.731
 5132SOL     OW16294   2.921   5.124   5.763
 5132SOL    HW116295   2.846   5.113   5.828
 5132SOL    HW216296   3.009   5.118   5.811
 5133SOL     OW16297   3.842   6.096   6.508
 5133SOL    HW116298   3.902   6.095   6.428
 5133SOL    HW216299   3.840   6.189   6.546
 5134SOL     OW16300   0.289   3.809   1.243
 5134SOL    HW116301   0.229   3.887   1.226
 5134SOL    HW216302   0.237   3.737   1.291
 5135SOL     OW16303   6.924   1.327   4.931
 5135SOL    HW116304   6.868   1.404   4.901
 5135SOL    HW216305   7.021   1.351   4.921
 5136SOL     OW16306   4.692   1.475   4.028
 5136SOL    HW116307   4.724   1.568   4.013
 5136SOL    HW216308   4.673   1.461   4.126
 5137SOL     OW16309   4.156   4.590   6.155
 5137SOL    HW116310   4.235   4.630   6.202
 5137SOL    HW216311   4.081   4.580   6.220
 5138SOL     OW16312   2.404   3.613   5.633
 5138SOL    HW116313   2.358   3.700   5.618
 5138SOL    HW216314   2.352   3.559   5.700
 5139SOL     OW16315   1.450   6.546   3.928
 5139SOL    HW116316   1.470   6.461   3.977
 5139SOL    HW216317   1.372   6.530   3.867
 5140SOL     OW16318   3.385   2.916   0.679
 5140SOL    HW116319   3.447   2.987   0.713
 5140SOL    HW216320   3.417   2.826   0.710
 5141SOL     OW16321   5.568   3.041   0.032
 5141SOL    HW116322   5.488   3.019   6.998
 5141SOL    HW216323   5.624   3.109   7.008
 5142SOL     OW16324   5.456   4.059   4.782
 5142SOL    HW116325   5.417   4.142   4.743
 5142SOL    HW216326   5.464   4.069   4.881
 5143SOL     OW16327   6.538   5.367   4.303
 5143SOL    HW116328   6.631   5.382   4.335
 5143SOL    HW216329   6.516   5.435   4.232
 5144SOL     OW16330   1.475   0.845   5.593
 5144SOL    HW116331   1.398   0.811   5.540
 5144SOL    HW216332   1.549   0.871   5.531
 5145SOL     OW16333   2.168   5.373   5.969
 5145SOL    HW116334   2.179   5.275   5.988
 5145SOL    HW216335   2.075   5.401   5.995
 5146SOL     OW16336   3.188   4.644   0.007
 5146SOL    HW116337   3.244   4.726   7.013
 5146SOL    HW216338   3.120   4.664   0.078
 5147SOL     OW16339   6.011   4.075   6.891
 5147SOL    HW116340   5.992   4.109   6.799
 5147SOL    HW216341   6.065   4.143   6.942
 5148SOL     OW16342   6.952   5.898   1.301
 5148SOL    HW116343   6.918   5.805   1.283
 5148SOL    HW216344   0.017   5.911   1.254
 5149SOL     OW16345   6.386   1.668   3.963
 5149SOL    HW116346   6.387   1.724   4.046
 5149SOL    HW216347   6.470   1.686   3.911
 5150SOL     OW16348   1.604   5.212   3.803
 5150SOL    HW116349   1.605   5.289   3.867
 5150SOL    HW216350   1.593   5.246   3.710
 5151SOL     OW16351   4.996   1.253   6.505
 5151SOL    HW116352   5.016   1.259   6.602
 5151SOL    HW216353   5.062   1.308   6.453
 5152SOL     OW16354   1.092   3.903   0.173
 5152SOL    HW116355   1.148   3.866   0.099
 5152SOL    HW216356   1.143   3.973   0.222
 5153SOL     OW16357   1.465   2.161   0.757
 5153SOL    HW116358   1.400   2.168   0.833
 5153SOL    HW216359   1.421   2.118   0.679
 5154SOL     OW16360   1.635   2.809   5.605
 5154SOL    HW116361   1.624   2.862   5.689
 5154SOL    HW216362   1.731   2.810   5.577
 5155SOL     OW16363   3.777   6.998   1.991
 5155SOL    HW116364   3.739   0.026   1.914
 5155SOL    HW216365   3.779   0.035   2.072
 5156SOL     OW16366   6.342   2.515   5.411
 5156SOL    HW116367   6.411   2.566   5.463
 5156SOL    HW216368   6.349   2.540   5.314
 5157SOL     OW16369   4.981   2.918   3.512
 5157SOL    HW116370   5.058   2.854   3.520
 5157SOL    HW216371   5.003   3.003   3.560
 5158SOL     OW16372   4.025   1.362   1.234
 5158SOL    HW116373   4.056   1.445   1.188
 5158SOL    HW216374   4.023   1.377   1.333
 5159SOL     OW16375   1.210   3.508   4.445
 5159SOL    HW116376   1.118   3.502   4.483
 5159SOL    HW216377   1.242   3.416   4.420
 5160SOL     OW16378   1.859   3.994   4.549
 5160SOL    HW116379   1.900   4.075   4.592
 5160SOL    HW216380   1.899   3.912   4.590
 5161SOL     OW16381   1.271   2.860   5.187
 5161SOL    HW116382   1.344   2.835   5.123
 5161SOL    HW216383   1.204   2.786   5.190
 5162SOL     OW16384   6.508   6.505   3.659
 5162SOL    HW116385   6.499   6.545   3.750
 5162SOL    HW216386   6.442   6.548   3.598
 5163SOL     OW16387   5.630   4.680   1.508
 5163SOL    HW116388   5.693   4.619   1.556
 5163SOL    HW216389   5.645   4.774   1.537
 5164SOL     OW16390   5.817   3.696   5.633
 5164SOL    HW116391   5.911   3.689   5.664
 5164SOL    HW216392   5.794   3.617   5.577
 5165SOL     OW16393   6.258   4.784   4.078
 5165SOL    HW116394   6.214   4.733   4.152
 5165SOL    HW216395   6.356   4.792   4.096
 5166SOL     OW16396   2.112   5.244   2.264
 5166SOL    HW116397   2.192   5.234   2.205
 5166SOL    HW216398   2.035   5.192   2.226
 5167SOL     OW16399   0.074   6.378   5.946
 5167SOL    HW116400   0.102   6.294   5.899
 5167SOL    HW216401   0.113   6.457   5.899
 5168SOL     OW16402   4.275   2.158   3.127
 5168SOL    HW116403   4.238   2.169   3.035
 5168SOL    HW216404   4.324   2.241   3.153
 5169SOL     OW16405   3.508   3.862   5.996
 5169SOL    HW116406   3.430   3.861   5.934
 5169SOL    HW216407   3.549   3.771   6.000
 5170SOL     OW16408   6.052   4.477   4.810
 5170SOL    HW116409   5.973   4.533   4.782
 5170SOL    HW216410   6.025   4.381   4.811
 5171SOL     OW16411   1.711   5.387   4.525
 5171SOL    HW116412   1.667   5.445   4.457
 5171SOL    HW216413   1.667   5.297   4.527
 5172SOL     OW16414   0.699   4.798   2.466
 5172SOL    HW116415   0.624   4.863   2.475
 5172SOL    HW216416   0.710   4.747   2.552
 5173SOL     OW16417   5.239   2.613   6.548
 5173SOL    HW116418   5.279   2.589   6.636
 5173SOL    HW216419   5.218   2.711   6.547
 5174SOL     OW16420   1.458   4.878   6.111
 5174SOL    HW116421   1.386   4.855   6.176
 5174SOL    HW216422   1.432   4.846   6.020
 5175SOL     OW16423   1.084   4.316   0.563
 5175SOL    HW116424   1.020   4.362   0.501
 5175SOL    HW216425   1.175   4.358   0.554
 5176SOL     OW16426   4.094   3.441   0.665
 5176SOL    HW116427   4.041   3.358   0.679
 5176SOL    HW216428   4.183   3.432   0.708
 5177SOL     OW16429   4.919   6.776   6.268
 5177SOL    HW116430   4.922   6.718   6.187
 5177SOL    HW216431   4.882   6.724   6.345
 5178SOL     OW16432   2.600   2.665   1.745
 5178SOL    HW116433   2.610   2.593   1.814
 5178SOL    HW216434   2.534   2.732   1.778
 5179SOL     OW16435   3.612   6.205   5.705
 5179SOL    HW116436   3.634   6.302   5.697
 5179SOL    HW216437   3.695   6.153   5.725
 5180SOL     OW16438   3.009   2.745   1.284
 5180SOL    HW116439   3.099   2.773   1.250
 5180SOL    HW216440   3.019   2.698   1.371
 5181SOL     OW16441   4.359   6.938   3.043
 5181SOL    HW116442   4.330   6.973   2.953
 5181SOL    HW216443   4.453   6.906   3.037
 5182SOL     OW16444   5.659   4.297   1.663
 5182SOL    HW116445   5.714   4.378   1.682
 5182SOL    HW216446   5.714   4.230   1.613
 5183SOL     OW16447   4.482   7.022   1.838
 5183SOL    HW116448   4.538   0.050   1.772
 5183SOL    HW216449   4.451   0.061   1.910
 5184SOL     OW16450   1.014   0.538   3.043
 5184SOL    HW116451   0.998   0.618   2.985
 5184SOL    HW216452   1.033   0.568   3.136
 5185SOL     OW16453   3.376   0.107   2.071
 5185SOL    HW116454   3.324   0.169   2.129
 5185SOL    HW216455   3.422   0.039   2.128
 5186SOL     OW16456   6.416   4.363   0.085
 5186SOL    HW116457   6.461   4.451   0.099
 5186SOL    HW216458   6.457   4.295   0.145
 5187SOL     OW16459   6.121   2.039   3.505
 5187SOL    HW116460   6.148   2.054   3.410
 5187SOL    HW216461   6.179   1.967   3.545
 5188SOL     OW16462   0.834   4.110   5.809
 5188SOL    HW116463   0.893   4.188   5.784
 5188SOL    HW216464   0.764   4.141   5.874
 5189SOL     OW16465   4.559   5.205   6.375
 5189SOL    HW116466   4.629   5.166   6.315
 5189SOL    HW216467   4.474   5.153   6.366
 5190SOL     OW16468   1.243   2.476   3.795
 5190SOL    HW116469   1.341   2.471   3.815
 5190SOL    HW216470   1.224   2.427   3.710
 5191SOL     OW16471   3.176   1.065   1.529
 5191SOL    HW116472   3.133   1.078   1.618
 5191SOL    HW216473   3.167   1.149   1.475
 5192SOL     OW16474   6.027   5.663   2.787
 5192SOL    HW116475   6.098   5.733   2.800
 5192SOL    HW216476   6.037   5.622   2.696
 5193SOL     OW16477   4.835   3.836   3.636
 5193SOL    HW116478   4.875   3.841   3.544
 5193SOL    HW216479   4.886   3.896   3.698
 5194SOL     OW16480   5.239   0.789   5.541
 5194SOL    HW116481   5.181   0.870   5.544
 5194SOL    HW216482   5.263   0.769   5.446
 5195SOL     OW16483   6.196   6.360   5.250
 5195SOL    HW116484   6.182   6.405   5.162
 5195SOL    HW216485   6.278   6.396   5.294
 5196SOL     OW16486   0.281   4.050   1.479
 5196SOL    HW116487   0.279   4.081   1.384
 5196SOL    HW216488   0.196   4.075   1.525
 5197SOL     OW16489   2.675   5.397   5.106
 5197SOL    HW116490   2.663   5.338   5.185
 5197SOL    HW216491   2.586   5.418   5.066
 5198SOL     OW16492   3.734   6.206   5.244
 5198SOL    HW116493   3.773   6.277   5.185
 5198SOL    HW216494   3.756   6.224   5.339
 5199SOL     OW16495   2.061   5.341   1.467
 5199SOL    HW116496   2.072   5.295   1.379
 5199SOL    HW216497   2.128   5.416   1.473
 5200SOL     OW16498   0.313   1.496   5.381
 5200SOL    HW116499   0.281   1.410   5.340
 5200SOL    HW216500   0.302   1.491   5.481
 5201SOL     OW16501   5.823   5.052   4.075
 5201SOL    HW116502   5.912   5.047   4.029
 5201SOL    HW216503   5.783   5.143   4.059
 5202SOL     OW16504   3.804   2.736   6.223
 5202SOL    HW116505   3.821   2.715   6.319
 5202SOL    HW216506   3.852   2.820   6.198
 5203SOL     OW16507   2.092   0.460   0.637
 5203SOL    HW116508   2.009   0.474   0.690
 5203SOL    HW216509   2.069   0.453   0.540
 5204SOL     OW16510   3.567   0.844   0.110
 5204SOL    HW116511   3.497   0.875   0.045
 5204SOL    HW216512   3.593   0.750   0.090
 5205SOL     OW16513   0.487   5.772   0.880
 5205SOL    HW116514   0.420   5.845   0.863
 5205SOL    HW216515   0.441   5.684   0.874
 5206SOL     OW16516   1.060   4.472   4.806
 5206SOL    HW116517   1.113   4.399   4.763
 5206SOL    HW216518   1.066   4.462   4.906
 5207SOL     OW16519   0.306   0.679   4.211
 5207SOL    HW116520   0.263   0.647   4.127
 5207SOL    HW216521   0.288   0.614   4.284
 5208SOL     OW16522   4.952   2.145   0.428
 5208SOL    HW116523   4.903   2.164   0.513
 5208SOL    HW216524   5.010   2.223   0.405
 5209SOL     OW16525   5.111   5.728   2.691
 5209SOL    HW116526   5.024   5.692   2.658
 5209SOL    HW216527   5.186   5.680   2.645
 5210SOL     OW16528   5.159   4.364   0.325
 5210SOL    HW116529   5.192   4.425   0.253
 5210SOL    HW216530   5.155   4.271   0.290
 5211SOL     OW16531   4.861   3.115   4.551
 5211SOL    HW116532   4.854   3.111   4.651
 5211SOL    HW216533   4.784   3.066   4.511
 5212SOL     OW16534   1.083   3.669   1.426
 5212SOL    HW116535   1.148   3.695   1.354
 5212SOL    HW216536   1.012   3.611   1.387
 5213SOL     OW16537   3.942   3.995   2.520
 5213SOL    HW116538   3.977   4.036   2.435
 5213SOL    HW216539   3.977   3.902   2.528
 5214SOL     OW16540   5.352   3.315   5.609
 5214SOL    HW116541   5.335   3.333   5.512
 5214SOL    HW216542   5.399   3.393   5.650
 5215SOL     OW16543   6.937   3.701   4.758
 5215SOL    HW116544   6.906   3.768   4.826
 5215SOL    HW216545   6.961   3.748   4.673
 5216SOL     OW16546   5.385   5.578   0.413
 5216SOL    HW116547   5.468   5.597   0.465
 5216SOL    HW216548   5.348   5.663   0.377
 5217SOL     OW16549   4.260   6.111   4.200
 5217SOL    HW116550   4.278   6.061   4.285
 5217SOL    HW216551   4.300   6.202   4.205
 5218SOL     OW16552   0.343   6.868   0.620
 5218SOL    HW116553   0.426   6.917   0.648
 5218SOL    HW216554   0.266   6.899   0.676
 5219SOL     OW16555   2.738   1.868   5.087
 5219SOL    HW116556   2.772   1.860   4.994
 5219SOL    HW216557   2.815   1.872   5.151
 5220SOL     OW16558   1.965   4.571   3.948
 5220SOL    HW116559   1.920   4.637   3.889
 5220SOL    HW216560   1.962   4.603   4.043
 5221SOL     OW16561   0.012   6.747   1.024
 5221SOL    HW116562   0.047   6.660   1.058
 5221SOL    HW216563   0.020   6.816   1.096
 5222SOL     OW16564   4.912   4.571   0.939
 5222SOL    HW116565   4.884   4.664   0.963
 5222SOL    HW216566   4.833   4.521   0.904
 5223SOL     OW16567   0.777   2.757   1.410
 5223SOL    HW116568   0.842   2.767   1.335
 5223SOL    HW216569   0.818   2.703   1.483
 5224SOL     OW16570   0.309   2.997   5.137
 5224SOL    HW116571   0.253   3.076   5.113
 5224SOL    HW216572   0.385   3.027   5.195
 5225SOL     OW16573   0.016   1.614   4.775
 5225SOL    HW116574   0.104   1.615   4.823
 5225SOL    HW216575   0.027   1.566   4.688
 5226SOL     OW16576   0.443   6.638   3.696
 5226SOL    HW116577   0.382   6.620   3.619
 5226SOL    HW216578   0.394   6.622   3.782
 5227SOL     OW16579   7.009   2.902   5.119
 5227SOL    HW116580   6.997   2.929   5.215
 5227SOL    HW216581   0.071   2.850   5.109
 5228SOL     OW16582   1.574   2.289   5.714
 5228SOL    HW116583   1.643   2.341   5.764
 5228SOL    HW216584   1.542   2.343   5.636
 5229SOL     OW16585   4.476   0.788   6.052
 5229SOL    HW116586   4.545   0.860   6.045
 5229SOL    HW216587   4.409   0.812   6.122
 5230SOL     OW16588   6.935   6.747   1.960
 5230SOL    HW116589   6.958   6.800   2.041
 5230SOL    HW216590   6.846   6.775   1.925
 5231SOL     OW16591   6.420   2.059   2.471
 5231SOL    HW116592   6.451   2.146   2.508
 5231SOL    HW216593   6.341   2.074   2.412
 5232SOL     OW16594   2.243   2.586   5.374
 5232SOL    HW116595   2.320   2.643   5.345
 5232SOL    HW216596   2.198   2.628   5.453
 5233SOL     OW16597   3.121   7.012   2.824
 5233SOL    HW116598   3.194   0.041   2.870
 5233SOL    HW216599   3.051   6.986   2.891
 5234SOL     OW16600   2.544   1.975   0.227
 5234SOL    HW116601   2.581   1.976   0.320
 5234SOL    HW216602   2.445   1.991   0.231
 5235SOL     OW16603   2.573   1.769   1.193
 5235SOL    HW116604   2.622   1.849   1.159
 5235SOL    HW216605   2.639   1.700   1.224
 5236SOL     OW16606   3.894   5.596   1.533
 5236SOL    HW116607   3.846   5.680   1.505
 5236SOL    HW216608   3.981   5.621   1.576
 5237SOL     OW16609   2.042   2.099   3.555
 5237SOL    HW116610   2.029   2.010   3.599
 5237SOL    HW216611   2.123   2.143   3.592
 5238SOL     OW16612   1.252   6.375   2.906
 5238SOL    HW116613   1.326   6.310   2.888
 5238SOL    HW216614   1.165   6.327   2.907
 5239SOL     OW16615   2.545   3.760   1.348
 5239SOL    HW116616   2.488   3.740   1.427
 5239SOL    HW216617   2.618   3.691   1.341
 5240SOL     OW16618   2.190   3.345   5.565
 5240SOL    HW116619   2.206   3.320   5.470
 5240SOL    HW216620   2.139   3.431   5.568
 5241SOL     OW16621   1.104   5.596   2.232
 5241SOL    HW116622   1.016   5.610   2.187
 5241SOL    HW216623   1.171   5.661   2.196
 5242SOL     OW16624   4.925   0.556   6.513
 5242SOL    HW116625   4.961   0.483   6.455
 5242SOL    HW216626   4.900   0.635   6.457
 5243SOL     OW16627   2.908   7.016   2.110
 5243SOL    HW116628   3.006   0.016   2.115
 5243SOL    HW216629   2.857   0.074   2.079
 5244SOL     OW16630   4.970   3.097   0.674
 5244SOL    HW116631   4.933   3.138   0.591
 5244SOL    HW216632   4.963   3.162   0.750
 5245SOL     OW16633   4.383   3.761   1.562
 5245SOL    HW116634   4.468   3.712   1.584
 5245SOL    HW216635   4.400   3.860   1.567
 5246SOL     OW16636   5.797   3.100   1.365
 5246SOL    HW116637   5.889   3.063   1.377
 5246SOL    HW216638   5.763   3.076   1.274
 5247SOL     OW16639   3.921   2.058   6.231
 5247SOL    HW116640   3.849   2.083   6.296
 5247SOL    HW216641   3.929   1.959   6.226
 5248SOL     OW16642   6.550   1.255   3.625
 5248SOL    HW116643   6.494   1.329   3.663
 5248SOL    HW216644   6.579   1.279   3.533
 5249SOL     OW16645   0.942   4.936   6.714
 5249SOL    HW116646   0.977   4.843   6.698
 5249SOL    HW216647   0.868   4.955   6.650
 5250SOL     OW16648   2.406   5.955   0.824
 5250SOL    HW116649   2.469   6.031   0.814
 5250SOL    HW216650   2.430   5.901   0.904
 5251SOL     OW16651   0.691   4.631   0.661
 5251SOL    HW116652   0.672   4.703   0.728
 5251SOL    HW216653   0.768   4.576   0.693
 5252SOL     OW16654   3.881   0.447   2.148
 5252SOL    HW116655   3.847   0.395   2.226
 5252SOL    HW216656   3.819   0.524   2.130
 5253SOL     OW16657   6.181   5.130   4.468
 5253SOL    HW116658   6.118   5.062   4.431
 5253SOL    HW216659   6.255   5.147   4.403
 5254SOL     OW16660   5.856   0.089   3.029
 5254SOL    HW116661   5.952   0.114   3.043
 5254SOL    HW216662   5.810   0.161   2.977
 5255SOL     OW16663   6.197   2.014   5.071
 5255SOL    HW116664   6.186   2.007   4.971
 5255SOL    HW216665   6.244   1.932   5.105
 5256SOL     OW16666   6.510   1.397   2.423
 5256SOL    HW116667   6.498   1.393   2.522
 5256SOL    HW216668   6.591   1.346   2.397
 5257SOL     OW16669   4.077   1.001   6.381
 5257SOL    HW116670   4.041   0.979   6.471
 5257SOL    HW216671   4.028   0.948   6.312
 5258SOL     OW16672   4.434   1.802   3.228
 5258SOL    HW116673   4.364   1.864   3.194
 5258SOL    HW216674   4.430   1.715   3.178
 5259SOL     OW16675   6.136   5.374   2.821
 5259SOL    HW116676   6.066   5.309   2.794
 5259SOL    HW216677   6.098   5.466   2.821
 5260SOL     OW16678   2.125   1.060   0.751
 5260SOL    HW116679   2.068   1.043   0.671
 5260SOL    HW216680   2.113   1.154   0.781
 5261SOL     OW16681   6.059   4.275   0.429
 5261SOL    HW116682   6.126   4.214   0.471
 5261SOL    HW216683   6.015   4.228   0.353
 5262SOL     OW16684   1.906   0.631   2.811
 5262SOL    HW116685   1.884   0.615   2.715
 5262SOL    HW216686   1.994   0.589   2.833
 5263SOL     OW16687   2.116   0.237   2.857
 5263SOL    HW116688   2.079   0.150   2.891
 5263SOL    HW216689   2.215   0.237   2.867
 5264SOL     OW16690   6.859   2.275   1.648
 5264SOL    HW116691   6.866   2.375   1.651
 5264SOL    HW216692   6.826   2.242   1.737
 5265SOL     OW16693   6.669   4.385   4.522
 5265SOL    HW116694   6.657   4.299   4.472
 5265SOL    HW216695   6.729   4.446   4.469
 5266SOL     OW16696   2.256   0.667   0.736
 5266SOL    HW116697   2.352   0.658   0.760
 5266SOL    HW216698   2.223   0.580   0.698
 5267SOL     OW16699   5.333   2.599   4.139
 5267SOL    HW116700   5.355   2.626   4.045
 5267SOL    HW216701   5.234   2.594   4.149
 5268SOL     OW16702   5.949   0.654   6.144
 5268SOL    HW116703   5.886   0.681   6.072
 5268SOL    HW216704   5.973   0.734   6.200
 5269SOL     OW16705   0.522   6.161   3.618
 5269SOL    HW116706   0.481   6.072   3.600
 5269SOL    HW216707   0.481   6.229   3.558
 5270SOL     OW16708   0.277   2.341   6.368
 5270SOL    HW116709   0.323   2.373   6.451
 5270SOL    HW216710   0.299   2.402   6.292
 5271SOL     OW16711   6.783   5.475   3.434
 5271SOL    HW116712   6.762   5.573   3.427
 5271SOL    HW216713   6.816   5.442   3.346
 5272SOL     OW16714   4.746   0.854   0.246
 5272SOL    HW116715   4.781   0.906   0.323
 5272SOL    HW216716   4.725   0.915   0.170
 5273SOL     OW16717   0.659   2.424   3.271
 5273SOL    HW116718   0.745   2.376   3.253
 5273SOL    HW216719   0.607   2.374   3.339
 5274SOL     OW16720   4.687   5.354   2.068
 5274SOL    HW116721   4.773   5.306   2.084
 5274SOL    HW216722   4.620   5.329   2.138
 5275SOL     OW16723   4.258   1.248   6.306
 5275SOL    HW116724   4.183   1.198   6.349
 5275SOL    HW216725   4.222   1.331   6.264
 5276SOL     OW16726   4.015   6.332   2.800
 5276SOL    HW116727   4.108   6.335   2.836
 5276SOL    HW216728   4.012   6.376   2.710
 5277SOL     OW16729   2.221   2.322   1.550
 5277SOL    HW116730   2.200   2.321   1.648
 5277SOL    HW216731   2.319   2.311   1.536
 5278SOL     OW16732   4.524   4.893   1.061
 5278SOL    HW116733   4.573   4.929   0.982
 5278SOL    HW216734   4.428   4.878   1.037
 5279SOL     OW16735   3.215   5.541   1.853
 5279SOL    HW116736   3.140   5.498   1.802
 5279SOL    HW216737   3.301   5.524   1.805
 5280SOL     OW16738   4.463   6.231   4.602
 5280SOL    HW116739   4.378   6.198   4.644
 5280SOL    HW216740   4.491   6.169   4.530
 5281SOL     OW16741   0.287   1.912   1.621
 5281SOL    HW116742   0.232   1.986   1.660
 5281SOL    HW216743   0.232   1.829   1.615
 5282SOL     OW16744   3.842   1.888   2.736
 5282SOL    HW116745   3.819   1.976   2.695
 5282SOL    HW216746   3.909   1.903   2.809
 5283SOL     OW16747   4.946   4.799   6.238
 5283SOL    HW116748   5.003   4.879   6.257
 5283SOL    HW216749   4.989   4.745   6.165
 5284SOL     OW16750   5.364   3.107   3.476
 5284SOL    HW116751   5.312   3.102   3.391
 5284SOL    HW216752   5.332   3.184   3.531
 5285SOL     OW16753   3.447   5.767   3.172
 5285SOL    HW116754   3.463   5.733   3.265
 5285SOL    HW216755   3.510   5.724   3.109
 5286SOL     OW16756   2.245   4.679   1.381
 5286SOL    HW116757   2.191   4.612   1.329
 5286SOL    HW216758   2.186   4.724   1.448
 5287SOL     OW16759   1.775   2.132   1.126
 5287SOL    HW116760   1.846   2.096   1.065
 5287SOL    HW216761   1.816   2.158   1.213
 5288SOL     OW16762   3.674   0.027   0.731
 5288SOL    HW116763   3.731   6.986   0.783
 5288SOL    HW216764   3.578   0.004   0.744
 5289SOL     OW16765   2.003   5.150   1.264
 5289SOL    HW116766   2.054   5.069   1.235
 5289SOL    HW216767   1.913   5.122   1.299
 5290SOL     OW16768   4.590   6.175   0.707
 5290SOL    HW116769   4.582   6.244   0.778
 5290SOL    HW216770   4.501   6.130   0.695
 5291SOL     OW16771   1.878   4.957   6.281
 5291SOL    HW116772   1.889   4.973   6.379
 5291SOL    HW216773   1.965   4.926   6.242
 5292SOL     OW16774   4.274   3.145   6.263
 5292SOL    HW116775   4.194   3.152   6.323
 5292SOL    HW216776   4.331   3.069   6.292
 5293SOL     OW16777   0.657   6.898   4.188
 5293SOL    HW116778   0.755   6.906   4.171
 5293SOL    HW216779   0.607   6.921   4.105
 5294SOL     OW16780   5.177   1.971   5.427
 5294SOL    HW116781   5.094   1.974   5.483
 5294SOL    HW216782   5.213   1.878   5.426
 5295SOL     OW16783   6.237   1.131   1.711
 5295SOL    HW116784   6.270   1.037   1.709
 5295SOL    HW216785   6.283   1.184   1.640
 5296SOL     OW16786   0.753   4.255   0.665
 5296SOL    HW116787   0.807   4.338   0.656
 5296SOL    HW216788   0.792   4.197   0.737
 5297SOL     OW16789   2.004   2.666   1.236
 5297SOL    HW116790   2.066   2.724   1.288
 5297SOL    HW216791   2.010   2.572   1.269
 5298SOL     OW16792   0.958   5.398   1.222
 5298SOL    HW116793   1.020   5.442   1.287
 5298SOL    HW216794   0.881   5.358   1.272
 5299SOL     OW16795   2.753   0.333   2.341
 5299SOL    HW116796   2.699   0.253   2.367
 5299SOL    HW216797   2.781   0.383   2.423
 5300SOL     OW16798   6.805   5.342   3.193
 5300SOL    HW116799   6.807   5.412   3.121
 5300SOL    HW216800   6.808   5.251   3.151
 5301SOL     OW16801   4.030   1.625   0.078
 5301SOL    HW116802   3.976   1.707   0.058
 5301SOL    HW216803   4.081   1.598   7.019
 5302SOL     OW16804   6.378   4.428   3.010
 5302SOL    HW116805   6.412   4.521   3.027
 5302SOL    HW216806   6.400   4.370   3.088
 5303SOL     OW16807   0.700   4.735   3.558
 5303SOL    HW116808   0.616   4.789   3.551
 5303SOL    HW216809   0.687   4.647   3.512
 5304SOL     OW16810   5.153   1.900   5.932
 5304SOL    HW116811   5.250   1.926   5.932
 5304SOL    HW216812   5.097   1.979   5.959
 5305SOL     OW16813   2.638   1.034   3.024
 5305SOL    HW116814   2.656   1.096   2.948
 5305SOL    HW216815   2.672   0.943   3.001
 5306SOL     OW16816   2.426   0.322   5.740
 5306SOL    HW116817   2.345   0.275   5.703
 5306SOL    HW216818   2.457   0.391   5.675
 5307SOL     OW16819   5.115   7.022   6.769
 5307SOL    HW116820   5.132   0.025   6.865
 5307SOL    HW216821   5.106   0.083   6.714
 5308SOL     OW16822   0.264   0.830   2.808
 5308SOL    HW116823   0.215   0.917   2.795
 5308SOL    HW216824   0.360   0.849   2.828
 5309SOL     OW16825   3.144   3.636   3.733
 5309SOL    HW116826   3.173   3.605   3.823
 5309SOL    HW216827   3.217   3.688   3.690
 5310SOL     OW16828   4.913   2.149   0.953
 5310SOL    HW116829   4.881   2.194   1.036
 5310SOL    HW216830   4.877   2.197   0.873
 5311SOL     OW16831   1.269   6.014   0.353
 5311SOL    HW116832   1.241   6.105   0.382
 5311SOL    HW216833   1.211   5.983   0.278
 5312SOL     OW16834   0.454   3.449   2.367
 5312SOL    HW116835   0.512   3.489   2.437
 5312SOL    HW216836   0.507   3.385   2.312
 5313SOL     OW16837   1.541   5.759   0.898
 5313SOL    HW116838   1.466   5.729   0.839
 5313SOL    HW216839   1.584   5.841   0.860
 5314SOL     OW16840   3.610   5.074   0.539
 5314SOL    HW116841   3.580   5.166   0.563
 5314SOL    HW216842   3.550   5.036   0.469
 5315SOL     OW16843   5.407   2.659   2.431
 5315SOL    HW116844   5.487   2.612   2.395
 5315SOL    HW216845   5.347   2.685   2.356
 5316SOL     OW16846   6.101   5.009   4.029
 5316SOL    HW116847   6.195   4.976   4.039
 5316SOL    HW216848   6.075   5.004   3.933
 5317SOL     OW16849   5.871   6.243   2.755
 5317SOL    HW116850   5.935   6.319   2.766
 5317SOL    HW216851   5.789   6.274   2.707
 5318SOL     OW16852   0.132   2.751   4.776
 5318SOL    HW116853   0.222   2.786   4.802
 5318SOL    HW216854   0.086   2.713   4.856
 5319SOL     OW16855   4.510   7.014   0.758
 5319SOL    HW116856   4.505   6.978   0.851
 5319SOL    HW216857   4.417   0.008   0.724
 5320SOL     OW16858   5.324   3.066   5.665
 5320SOL    HW116859   5.339   3.160   5.634
 5320SOL    HW216860   5.388   3.005   5.618
 5321SOL     OW16861   1.567   5.076   6.364
 5321SOL    HW116862   1.547   4.988   6.407
 5321SOL    HW216863   1.627   5.062   6.285
 5322SOL     OW16864   3.543   6.215   0.215
 5322SOL    HW116865   3.457   6.193   0.168
 5322SOL    HW216866   3.540   6.178   0.308
 5323SOL     OW16867   5.585   2.853   0.222
 5323SOL    HW116868   5.575   2.920   0.149
 5323SOL    HW216869   5.567   2.898   0.310
 5324SOL     OW16870   3.545   3.804   2.069
 5324SOL    HW116871   3.569   3.898   2.045
 5324SOL    HW216872   3.512   3.756   1.988
 5325SOL     OW16873   4.828   5.961   3.390
 5325SOL    HW116874   4.760   5.982   3.319
 5325SOL    HW216875   4.789   5.899   3.457
 5326SOL     OW16876   6.627   6.432   1.808
 5326SOL    HW116877   6.546   6.484   1.835
 5326SOL    HW216878   6.626   6.342   1.852
 5327SOL     OW16879   6.628   0.718   4.229
 5327SOL    HW116880   6.585   0.689   4.143
 5327SOL    HW216881   6.698   0.787   4.209
 5328SOL     OW16882   3.844   5.168   1.358
 5328SOL    HW116883   3.923   5.130   1.405
 5328SOL    HW216884   3.778   5.095   1.338
 5329SOL     OW16885   6.894   4.874   6.666
 5329SOL    HW116886   6.902   4.974   6.664
 5329SOL    HW216887   6.921   4.837   6.577
 5330SOL     OW16888   4.504   4.190   0.234
 5330SOL    HW116889   4.465   4.183   0.326
 5330SOL    HW216890   4.603   4.178   0.239
 5331SOL     OW16891   4.903   2.951   6.806
 5331SOL    HW116892   4.847   2.981   6.729
 5331SOL    HW216893   4.846   2.898   6.870
 5332SOL     OW16894   5.958   2.301   0.084
 5332SOL    HW116895   5.997   2.231   0.145
 5332SOL    HW216896   6.022   2.320   0.010
 5333SOL     OW16897   1.744   1.922   3.799
 5333SOL    HW116898   1.729   2.020   3.812
 5333SOL    HW216899   1.741   1.876   3.888
 5334SOL     OW16900   4.047   5.449   1.875
 5334SOL    HW116901   4.098   5.405   1.949
 5334SOL    HW216902   4.022   5.381   1.806
 5335SOL     OW16903   6.806   4.065   1.322
 5335SOL    HW116904   6.848   4.023   1.242
 5335SOL    HW216905   6.799   4.164   1.309
 5336SOL     OW16906   1.734   3.108   4.241
 5336SOL    HW116907   1.710   3.205   4.240
 5336SOL    HW216908   1.828   3.097   4.273
 5337SOL     OW16909   5.844   5.110   0.738
 5337SOL    HW116910   5.924   5.087   0.681
 5337SOL    HW216911   5.777   5.035   0.733
 5338SOL     OW16912   6.418   3.389   0.967
 5338SOL    HW116913   6.400   3.474   0.917
 5338SOL    HW216914   6.505   3.398   1.015
 5339SOL     OW16915   5.148   3.729   2.808
 5339SOL    HW116916   5.217   3.775   2.752
 5339SOL    HW216917   5.057   3.751   2.775
 5340SOL     OW16918   6.162   2.721   2.689
 5340SOL    HW116919   6.212   2.749   2.771
 5340SOL    HW216920   6.105   2.641   2.710
 5341SOL     OW16921   4.160   5.244   3.770
 5341SOL    HW116922   4.200   5.304   3.701
 5341SOL    HW216923   4.073   5.208   3.737
 5342SOL     OW16924   5.642   0.123   4.522
 5342SOL    HW116925   5.703   0.173   4.583
 5342SOL    HW216926   5.696   0.080   4.449
 5343SOL     OW16927   3.294   3.267   6.588
 5343SOL    HW116928   3.347   3.285   6.670
 5343SOL    HW216929   3.238   3.185   6.601
 5344SOL     OW16930   1.065   2.090   6.699
 5344SOL    HW116931   1.096   2.171   6.747
 5344SOL    HW216932   1.101   2.091   6.605
 5345SOL     OW16933   4.973   1.600   0.167
 5345SOL    HW116934   4.910   1.579   0.241
 5345SOL    HW216935   5.029   1.679   0.193
 5346SOL     OW16936   3.105   6.365   3.919
 5346SOL    HW116937   3.064   6.394   4.005
 5346SOL    HW216938   3.033   6.337   3.855
 5347SOL     OW16939   6.559   1.939   4.037
 5347SOL    HW116940   6.532   2.016   4.095
 5347SOL    HW216941   6.542   1.853   4.085
 5348SOL     OW16942   5.502   2.483   3.543
 5348SOL    HW116943   5.541   2.552   3.604
 5348SOL    HW216944   5.576   2.431   3.501
 5349SOL     OW16945   0.795   3.769   2.257
 5349SOL    HW116946   0.708   3.815   2.239
 5349SOL    HW216947   0.786   3.671   2.240
 5350SOL     OW16948   1.193   6.837   0.274
 5350SOL    HW116949   1.250   6.813   0.352
 5350SOL    HW216950   1.223   6.925   0.237
 5351SOL     OW16951   6.709   6.315   3.090
 5351SOL    HW116952   6.687   6.339   3.185
 5351SOL    HW216953   6.753   6.393   3.045
 5352SOL     OW16954   1.381   3.166   5.130
 5352SOL    HW116955   1.302   3.105   5.133
 5352SOL    HW216956   1.351   3.260   5.120
 5353SOL     OW16957   3.850   5.597   3.360
 5353SOL    HW116958   3.930   5.563   3.409
 5353SOL    HW216959   3.878   5.663   3.291
 5354SOL     OW16960   4.897   5.871   0.497
 5354SOL    HW116961   4.843   5.955   0.498
 5354SOL    HW216962   4.935   5.854   0.588
 5355SOL     OW16963   5.198   4.498   5.206
 5355SOL    HW116964   5.277   4.482   5.265
 5355SOL    HW216965   5.223   4.559   5.131
 5356SOL     OW16966   0.329   5.063   0.621
 5356SOL    HW116967   0.270   5.005   0.564
 5356SOL    HW216968   0.277   5.141   0.653
 5357SOL     OW16969   5.952   3.318   2.472
 5357SOL    HW116970   5.994   3.319   2.563
 5357SOL    HW216971   6.024   3.322   2.402
 5358SOL     OW16972   4.198   1.951   0.092
 5358SOL    HW116973   4.152   1.927   0.178
 5358SOL    HW216974   4.252   1.872   0.061
 5359SOL     OW16975   3.921   2.364   0.003
 5359SOL    HW116976   3.938   2.431   6.953
 5359SOL    HW216977   3.977   2.283   7.009
 5360SOL     OW16978   5.861   4.501   3.668
 5360SOL    HW116979   5.798   4.440   3.619
 5360SOL    HW216980   5.943   4.515   3.613
 5361SOL     OW16981   2.359   5.473   2.338
 5361SOL    HW116982   2.340   5.485   2.241
 5361SOL    HW216983   2.430   5.403   2.349
 5362SOL     OW16984   5.202   0.543   1.961
 5362SOL    HW116985   5.239   0.452   1.946
 5362SOL    HW216986   5.142   0.542   2.041
 5363SOL     OW16987   5.823   5.620   2.974
 5363SOL    HW116988   5.746   5.560   2.952
 5363SOL    HW216989   5.887   5.621   2.898
 5364SOL     OW16990   4.886   1.158   2.347
 5364SOL    HW116991   4.878   1.124   2.253
 5364SOL    HW216992   4.799   1.147   2.394
 5365SOL     OW16993   3.270   3.124   3.890
 5365SOL    HW116994   3.321   3.209   3.905
 5365SOL    HW216995   3.244   3.085   3.979
 5366SOL     OW16996   6.282   5.631   2.497
 5366SOL    HW116997   6.186   5.625   2.468
 5366SOL    HW216998   6.309   5.727   2.502
 5367SOL     OW16999   6.519   6.166   1.698
 5367SOL    HW117000   6.466   6.093   1.654
 5367SOL    HW217001   6.518   6.151   1.797
 5368SOL     OW17002   6.443   5.916   4.065
 5368SOL    HW117003   6.521   5.934   4.004
 5368SOL    HW217004   6.377   5.859   4.018
 5369SOL     OW17005   3.171   5.445   3.006
 5369SOL    HW117006   3.242   5.379   3.033
 5369SOL    HW217007   3.086   5.423   3.053
 5370SOL     OW17008   1.559   3.546   0.825
 5370SOL    HW117009   1.564   3.631   0.773
 5370SOL    HW217010   1.560   3.468   0.762
 5371SOL     OW17011   5.521   5.584   4.492
 5371SOL    HW117012   5.603   5.570   4.548
 5371SOL    HW217013   5.497   5.681   4.491
 5372SOL     OW17014   1.668   6.658   2.801
 5372SOL    HW117015   1.708   6.750   2.808
 5372SOL    HW217016   1.576   6.658   2.840
 5373SOL     OW17017   3.156   1.666   6.880
 5373SOL    HW117018   3.122   1.747   6.927
 5373SOL    HW217019   3.084   1.596   6.878
 5374SOL     OW17020   1.462   4.665   2.207
 5374SOL    HW117021   1.417   4.668   2.297
 5374SOL    HW217022   1.450   4.575   2.167
 5375SOL     OW17023   1.794   4.346   4.693
 5375SOL    HW117024   1.837   4.292   4.765
 5375SOL    HW217025   1.865   4.377   4.629
 5376SOL     OW17026   0.419   0.507   6.023
 5376SOL    HW117027   0.424   0.466   6.115
 5376SOL    HW217028   0.466   0.595   6.023
 5377SOL     OW17029   2.022   0.952   3.141
 5377SOL    HW117030   2.015   0.949   3.241
 5377SOL    HW217031   2.107   0.997   3.114
 5378SOL     OW17032   4.885   0.765   2.436
 5378SOL    HW117033   4.898   0.742   2.340
 5378SOL    HW217034   4.944   0.706   2.492
 5379SOL     OW17035   1.697   2.151   5.422
 5379SOL    HW117036   1.785   2.128   5.382
 5379SOL    HW217037   1.711   2.199   5.508
 5380SOL     OW17038   4.620   6.333   1.696
 5380SOL    HW117039   4.627   6.344   1.795
 5380SOL    HW217040   4.633   6.421   1.651
 5381SOL     OW17041   4.233   0.132   4.125
 5381SOL    HW117042   4.313   0.190   4.113
 5381SOL    HW217043   4.261   0.036   4.120
 5382SOL     OW17044   4.717   1.619   1.335
 5382SOL    HW117045   4.720   1.597   1.237
 5382SOL    HW217046   4.623   1.618   1.367
 5383SOL     OW17047   2.451   2.675   4.616
 5383SOL    HW117048   2.368   2.679   4.559
 5383SOL    HW217049   2.428   2.700   4.710
 5384SOL     OW17050   5.650   5.198   4.443
 5384SOL    HW117051   5.711   5.211   4.521
 5384SOL    HW217052   5.658   5.276   4.381
 5385SOL     OW17053   3.907   3.325   6.246
 5385SOL    HW117054   3.995   3.365   6.272
 5385SOL    HW217055   3.841   3.340   6.320
 5386SOL     OW17056   5.533   4.666   4.688
 5386SOL    HW117057   5.438   4.696   4.684
 5386SOL    HW217058   5.584   4.704   4.611
 5387SOL     OW17059   1.436   1.612   3.805
 5387SOL    HW117060   1.497   1.541   3.771
 5387SOL    HW217061   1.341   1.579   3.801
 5388SOL     OW17062   0.568   6.623   2.241
 5388SOL    HW117063   0.522   6.710   2.261
 5388SOL    HW217064   0.501   6.557   2.206
 5389SOL     OW17065   4.554   2.062   4.183
 5389SOL    HW117066   4.499   2.077   4.266
 5389SOL    HW217067   4.495   2.067   4.103
 5390SOL     OW17068   0.376   2.545   3.150
 5390SOL    HW117069   0.431   2.515   3.229
 5390SOL    HW217070   0.319   2.468   3.119
 5391SOL     OW17071   2.979   3.361   0.508
 5391SOL    HW117072   2.900   3.354   0.568
 5391SOL    HW217073   3.042   3.286   0.527
 5392SOL     OW17074   5.358   1.874   3.776
 5392SOL    HW117075   5.295   1.918   3.712
 5392SOL    HW217076   5.433   1.831   3.726
 5393SOL     OW17077   4.659   1.881   4.528
 5393SOL    HW117078   4.600   1.802   4.511
 5393SOL    HW217079   4.606   1.966   4.517
 5394SOL     OW17080   1.343   2.061   1.393
 5394SOL    HW117081   1.416   2.024   1.336
 5394SOL    HW217082   1.270   1.994   1.403
 5395SOL     OW17083   6.650   1.911   0.672
 5395SOL    HW117084   6.565   1.964   0.669
 5395SOL    HW217085   6.715   1.950   0.607
 5396SOL     OW17086   4.551   3.877   0.388
 5396SOL    HW117087   4.533   3.966   0.429
 5396SOL    HW217088   4.594   3.817   0.455
 5397SOL     OW17089   0.466   1.163   2.167
 5397SOL    HW117090   0.412   1.236   2.209
 5397SOL    HW217091   0.457   1.080   2.221
 5398SOL     OW17092   6.086   1.711   2.602
 5398SOL    HW117093   6.048   1.619   2.590
 5398SOL    HW217094   6.053   1.750   2.687
 5399SOL     OW17095   1.913   1.688   0.206
 5399SOL    HW117096   1.851   1.618   0.241
 5399SOL    HW217097   1.992   1.697   0.267
 5400SOL     OW17098   5.154   3.442   1.829
 5400SOL    HW117099   5.134   3.512   1.898
 5400SOL    HW217100   5.085   3.370   1.835
 5401SOL     OW17101   5.960   2.602   1.529
 5401SOL    HW117102   5.898   2.656   1.473
 5401SOL    HW217103   5.907   2.552   1.598
 5402SOL     OW17104   1.686   6.506   2.085
 5402SOL    HW117105   1.765   6.479   2.029
 5402SOL    HW217106   1.718   6.559   2.164
 5403SOL     OW17107   4.855   3.112   0.188
 5403SOL    HW117108   4.797   3.193   0.181
 5403SOL    HW217109   4.939   3.126   0.135
 5404SOL     OW17110   5.732   0.666   0.304
 5404SOL    HW117111   5.644   0.690   0.263
 5404SOL    HW217112   5.787   0.749   0.315
 5405SOL     OW17113   0.312   5.489   0.119
 5405SOL    HW117114   0.310   5.531   0.210
 5405SOL    HW217115   0.324   5.561   0.050
 5406SOL     OW17116   2.248   0.936   5.854
 5406SOL    HW117117   2.230   0.931   5.952
 5406SOL    HW217118   2.328   0.993   5.838
 5407SOL     OW17119   2.030   7.003   2.936
 5407SOL    HW117120   2.076   6.916   2.924
 5407SOL    HW217121   1.942   7.001   2.888
 5408SOL     OW17122   3.144   1.737   4.197
 5408SOL    HW117123   3.060   1.685   4.180
 5408SOL    HW217124   3.122   1.832   4.217
 5409SOL     OW17125   0.810   3.503   2.216
 5409SOL    HW117126   0.868   3.437   2.264
 5409SOL    HW217127   0.737   3.455   2.168
 5410SOL     OW17128   0.979   2.796   1.246
 5410SOL    HW117129   0.970   2.813   1.148
 5410SOL    HW217130   1.037   2.717   1.261
 5411SOL     OW17131   3.018   5.407   0.055
 5411SOL    HW117132   2.919   5.417   0.044
 5411SOL    HW217133   3.055   5.491   0.094
 5412SOL     OW17134   0.403   2.154   5.959
 5412SOL    HW117135   0.332   2.163   6.029
 5412SOL    HW217136   0.452   2.241   5.950
 5413SOL     OW17137   6.971   6.229   4.387
 5413SOL    HW117138   6.941   6.219   4.292
 5413SOL    HW217139   6.897   6.269   4.441
 5414SOL     OW17140   5.326   4.621   5.741
 5414SOL    HW117141   5.286   4.617   5.833
 5414SOL    HW217142   5.288   4.547   5.686
 5415SOL     OW17143   4.444   1.097   0.266
 5415SOL    HW117144   4.365   1.120   0.210
 5415SOL    HW217145   4.528   1.123   0.218
 5416SOL     OW17146   3.371   5.966   6.638
 5416SOL    HW117147   3.276   5.997   6.632
 5416SOL    HW217148   3.379   5.897   6.710
 5417SOL     OW17149   4.227   6.553   4.397
 5417SOL    HW117150   4.133   6.519   4.397
 5417SOL    HW217151   4.228   6.650   4.373
 5418SOL     OW17152   6.576   3.320   4.869
 5418SOL    HW117153   6.613   3.233   4.837
 5418SOL    HW217154   6.575   3.386   4.794
 5419SOL     OW17155   4.726   0.423   5.866
 5419SOL    HW117156   4.768   0.346   5.819
 5419SOL    HW217157   4.633   0.399   5.893
 5420SOL     OW17158   0.993   1.447   1.984
 5420SOL    HW117159   0.949   1.536   1.970
 5420SOL    HW217160   0.925   1.381   2.017
 5421SOL     OW17161   3.680   4.924   2.204
 5421SOL    HW117162   3.693   4.855   2.133
 5421SOL    HW217163   3.676   5.015   2.161
 5422SOL     OW17164   2.753   5.042   3.609
 5422SOL    HW117165   2.745   5.130   3.657
 5422SOL    HW217166   2.769   4.969   3.675
 5423SOL     OW17167   5.622   5.960   2.151
 5423SOL    HW117168   5.560   6.036   2.169
 5423SOL    HW217169   5.606   5.925   2.059
 5424SOL     OW17170   4.220   4.005   5.503
 5424SOL    HW117171   4.284   4.081   5.500
 5424SOL    HW217172   4.248   3.935   5.437
 5425SOL     OW17173   1.692   4.156   5.569
 5425SOL    HW117174   1.604   4.125   5.531
 5425SOL    HW217175   1.712   4.106   5.653
 5426SOL     OW17176   6.325   5.337   1.387
 5426SOL    HW117177   6.417   5.303   1.370
 5426SOL    HW217178   6.261   5.297   1.321
 5427SOL     OW17179   4.220   2.394   6.505
 5427SOL    HW117180   4.155   2.332   6.460
 5427SOL    HW217181   4.313   2.370   6.477
 5428SOL     OW17182   5.751   5.499   2.403
 5428SOL    HW117183   5.781   5.424   2.462
 5428SOL    HW217184   5.699   5.463   2.326
 5429SOL     OW17185   3.646   0.590   4.944
 5429SOL    HW117186   3.636   0.610   5.042
 5429SOL    HW217187   3.739   0.557   4.926
 5430SOL     OW17188   2.691   3.805   5.626
 5430SOL    HW117189   2.642   3.783   5.542
 5430SOL    HW217190   2.730   3.722   5.665
 5431SOL     OW17191   3.558   4.160   0.608
 5431SOL    HW117192   3.603   4.108   0.535
 5431SOL    HW217193   3.503   4.233   0.567
 5432SOL     OW17194   0.062   5.605   6.992
 5432SOL    HW117195   0.155   5.623   6.960
 5432SOL    HW217196   0.053   5.632   0.065
 5433SOL     OW17197   2.354   0.848   1.615
 5433SOL    HW117198   2.301   0.906   1.553
 5433SOL    HW217199   2.416   0.905   1.669
 5434SOL     OW17200   5.253   0.969   5.016
 5434SOL    HW117201   5.261   0.935   4.922
 5434SOL    HW217202   5.332   1.027   5.037
 5435SOL     OW17203   6.385   4.591   0.738
 5435SOL    HW117204   6.370   4.604   0.640
 5435SOL    HW217205   6.434   4.670   0.775
 5436SOL     OW17206   0.910   4.042   2.965
 5436SOL    HW117207   0.933   4.139   2.952
 5436SOL    HW217208   0.988   3.985   2.941
 5437SOL     OW17209   4.238   5.516   1.432
 5437SOL    HW117210   4.197   5.555   1.515
 5437SOL    HW217211   4.308   5.450   1.458
 5438SOL     OW17212   4.649   5.926   2.508
 5438SOL    HW117213   4.685   5.917   2.601
 5438SOL    HW217214   4.555   5.891   2.505
 5439SOL     OW17215   0.940   5.021   2.056
 5439SOL    HW117216   0.962   4.945   2.117
 5439SOL    HW217217   0.975   5.001   1.964
 5440SOL     OW17218   6.068   6.848   3.720
 5440SOL    HW117219   6.046   6.945   3.717
 5440SOL    HW217220   5.998   6.796   3.670
 5441SOL     OW17221   6.050   3.407   3.849
 5441SOL    HW117222   6.139   3.442   3.877
 5441SOL    HW217223   6.045   3.401   3.750
 5442SOL     OW17224   3.941   6.829   5.798
 5442SOL    HW117225   3.990   6.794   5.878
 5442SOL    HW217226   3.938   6.758   5.728
 5443SOL     OW17227   4.697   1.227   3.307
 5443SOL    HW117228   4.762   1.303   3.308
 5443SOL    HW217229   4.712   1.169   3.387
 5444SOL     OW17230   6.492   1.467   5.053
 5444SOL    HW117231   6.473   1.375   5.088
 5444SOL    HW217232   6.406   1.513   5.032
 5445SOL     OW17233   6.188   6.179   4.869
 5445SOL    HW117234   6.180   6.100   4.930
 5445SOL    HW217235   6.209   6.260   4.923
 5446SOL     OW17236   6.973   4.246   5.952
 5446SOL    HW117237   0.040   4.285   5.932
 5446SOL    HW217238   6.985   4.159   6.000
 5447SOL     OW17239   0.311   2.515   1.203
 5447SOL    HW117240   0.389   2.577   1.193
 5447SOL    HW217241   0.234   2.566   1.241
 5448SOL     OW17242   4.961   4.811   2.930
 5448SOL    HW117243   4.997   4.900   2.901
 5448SOL    HW217244   5.037   4.751   2.953
 5449SOL     OW17245   3.235   0.900   1.861
 5449SOL    HW117246   3.244   0.999   1.876
 5449SOL    HW217247   3.322   0.865   1.825
 5450SOL     OW17248   4.792   5.543   1.328
 5450SOL    HW117249   4.726   5.571   1.398
 5450SOL    HW217250   4.844   5.623   1.297
 5451SOL     OW17251   6.692   0.205   2.861
 5451SOL    HW117252   6.665   0.118   2.820
 5451SOL    HW217253   6.776   0.193   2.914
 5452SOL     OW17254   2.130   4.517   2.037
 5452SOL    HW117255   2.060   4.445   2.036
 5452SOL    HW217256   2.217   4.479   2.069
 5453SOL     OW17257   5.927   3.783   2.732
 5453SOL    HW117258   5.876   3.702   2.761
 5453SOL    HW217259   5.874   3.865   2.750
 5454SOL     OW17260   6.132   4.400   2.541
 5454SOL    HW117261   6.141   4.389   2.640
 5454SOL    HW217262   6.214   4.443   2.504
 5455SOL     OW17263   2.224   1.790   4.269
 5455SOL    HW117264   2.132   1.829   4.276
 5455SOL    HW217265   2.283   1.830   4.340
 5456SOL     OW17266   5.619   1.700   1.170
 5456SOL    HW117267   5.710   1.659   1.176
 5456SOL    HW217268   5.591   1.732   1.260
 5457SOL     OW17269   5.781   1.245   6.781
 5457SOL    HW117270   5.717   1.218   6.709
 5457SOL    HW217271   5.766   1.187   6.861
 5458SOL     OW17272   5.933   3.126   0.324
 5458SOL    HW117273   5.926   3.064   0.246
 5458SOL    HW217274   6.014   3.183   0.314
 5459SOL     OW17275   1.806   3.312   5.283
 5459SOL    HW117276   1.882   3.248   5.286
 5459SOL    HW217277   1.723   3.267   5.316
 5460SOL     OW17278   1.360   1.180   1.271
 5460SOL    HW117279   1.458   1.161   1.264
 5460SOL    HW217280   1.308   1.098   1.248
 5461SOL     OW17281   6.484   1.302   5.361
 5461SOL    HW117282   6.553   1.361   5.319
 5461SOL    HW217283   6.508   1.206   5.345
 5462SOL     OW17284   4.730   3.901   6.371
 5462SOL    HW117285   4.640   3.937   6.346
 5462SOL    HW217286   4.759   3.940   6.458
 5463SOL     OW17287   0.995   2.728   6.770
 5463SOL    HW117288   0.914   2.682   6.733
 5463SOL    HW217289   1.051   2.763   6.695
 5464SOL     OW17290   0.908   5.787   6.023
 5464SOL    HW117291   0.998   5.756   5.993
 5464SOL    HW217292   0.837   5.739   5.970
 5465SOL     OW17293   6.784   6.691   4.176
 5465SOL    HW117294   6.743   6.771   4.133
 5465SOL    HW217295   6.725   6.658   4.249
 5466SOL     OW17296   6.026   2.684   4.985
 5466SOL    HW117297   6.125   2.685   4.979
 5466SOL    HW217298   5.987   2.649   4.900
 5467SOL     OW17299   4.757   2.837   4.288
 5467SOL    HW117300   4.738   2.766   4.355
 5467SOL    HW217301   4.726   2.807   4.198
 5468SOL     OW17302   0.041   1.334   1.022
 5468SOL    HW117303   6.977   1.380   1.002
 5468SOL    HW217304   0.039   1.241   0.985
 5469SOL     OW17305   3.259   0.122   5.256
 5469SOL    HW117306   3.193   0.165   5.194
 5469SOL    HW217307   3.351   0.152   5.232
 5470SOL     OW17308   3.460   5.199   3.309
 5470SOL    HW117309   3.506   5.278   3.349
 5470SOL    HW217310   3.409   5.228   3.227
 5471SOL     OW17311   4.478   0.749   3.150
 5471SOL    HW117312   4.439   0.789   3.233
 5471SOL    HW217313   4.457   0.808   3.071
 5472SOL     OW17314   2.098   2.436   6.820
 5472SOL    HW117315   2.113   2.439   6.919
 5472SOL    HW217316   2.181   2.466   6.773
 5473SOL     OW17317   2.880   4.603   1.571
 5473SOL    HW117318   2.859   4.701   1.571
 5473SOL    HW217319   2.868   4.566   1.663
 5474SOL     OW17320   0.486   5.173   2.887
 5474SOL    HW117321   0.521   5.080   2.877
 5474SOL    HW217322   0.560   5.238   2.873
 5475SOL     OW17323   0.105   1.688   5.384
 5475SOL    HW117324   0.128   1.771   5.434
 5475SOL    HW217325   0.188   1.642   5.355
 5476SOL     OW17326   2.771   6.850   5.823
 5476SOL    HW117327   2.679   6.843   5.786
 5476SOL    HW217328   2.815   6.932   5.786
 5477SOL     OW17329   1.247   4.564   4.493
 5477SOL    HW117330   1.229   4.643   4.433
 5477SOL    HW217331   1.226   4.480   4.443
 5478SOL     OW17332   4.959   4.301   5.933
 5478SOL    HW117333   4.900   4.276   6.010
 5478SOL    HW217334   4.981   4.220   5.879
 5479SOL     OW17335   4.501   1.194   4.726
 5479SOL    HW117336   4.551   1.193   4.813
 5479SOL    HW217337   4.451   1.108   4.716
 5480SOL     OW17338   0.148   4.220   4.228
 5480SOL    HW117339   0.190   4.155   4.292
 5480SOL    HW217340   0.049   4.208   4.229
 5481SOL     OW17341   4.402   1.135   6.643
 5481SOL    HW117342   4.471   1.158   6.712
 5481SOL    HW217343   4.438   1.062   6.583
 5482SOL     OW17344   5.074   2.721   1.331
 5482SOL    HW117345   5.061   2.777   1.412
 5482SOL    HW217346   5.167   2.732   1.297
 5483SOL     OW17347   6.837   3.218   5.915
 5483SOL    HW117348   6.909   3.149   5.907
 5483SOL    HW217349   6.877   3.306   5.942
 5484SOL     OW17350   6.117   6.920   4.368
 5484SOL    HW117351   6.213   6.915   4.343
 5484SOL    HW217352   6.104   6.878   4.458
 5485SOL     OW17353   2.731   6.835   5.512
 5485SOL    HW117354   2.687   6.763   5.459
 5485SOL    HW217355   2.711   6.924   5.471
 5486SOL     OW17356   0.646   1.155   3.184
 5486SOL    HW117357   0.676   1.237   3.233
 5486SOL    HW217358   0.644   1.078   3.247
 5487SOL     OW17359   5.040   4.935   0.705
 5487SOL    HW117360   5.121   4.981   0.668
 5487SOL    HW217361   5.068   4.862   0.766
 5488SOL     OW17362   5.728   1.213   6.316
 5488SOL    HW117363   5.820   1.249   6.300
 5488SOL    HW217364   5.712   1.136   6.255
 5489SOL     OW17365   1.395   3.925   3.075
 5489SOL    HW117366   1.405   4.009   3.129
 5489SOL    HW217367   1.477   3.910   3.021
 5490SOL     OW17368   2.359   1.417   0.301
 5490SOL    HW117369   2.370   1.423   0.400
 5490SOL    HW217370   2.369   1.509   0.261
 5491SOL     OW17371   1.136   5.236   0.759
 5491SOL    HW117372   1.095   5.145   0.762
 5491SOL    HW217373   1.090   5.296   0.824
 5492SOL     OW17374   0.982   1.776   6.154
 5492SOL    HW117375   1.006   1.814   6.243
 5492SOL    HW217376   0.892   1.731   6.160
 5493SOL     OW17377   3.242   3.314   0.017
 5493SOL    HW117378   3.269   3.329   0.112
 5493SOL    HW217379   3.224   3.217   0.003
 5494SOL     OW17380   5.664   2.942   1.998
 5494SOL    HW117381   5.738   2.895   1.949
 5494SOL    HW217382   5.591   2.966   1.934
 5495SOL     OW17383   3.748   3.307   2.417
 5495SOL    HW117384   3.834   3.331   2.371
 5495SOL    HW217385   3.765   3.232   2.481
 5496SOL     OW17386   4.127   5.908   1.418
 5496SOL    HW117387   4.098   5.900   1.323
 5496SOL    HW217388   4.052   5.944   1.473
 5497SOL     OW17389   6.707   0.170   1.589
 5497SOL    HW117390   6.610   0.161   1.566
 5497SOL    HW217391   6.717   0.179   1.688
 5498SOL     OW17392   4.263   1.031   5.664
 5498SOL    HW117393   4.343   1.036   5.723
 5498SOL    HW217394   4.209   0.950   5.687
 5499SOL     OW17395   6.929   1.169   2.958
 5499SOL    HW117396   6.836   1.201   2.942
 5499SOL    HW217397   6.970   1.220   3.033
 5500SOL     OW17398   2.557   5.328   1.440
 5500SOL    HW117399   2.465   5.358   1.463
 5500SOL    HW217400   2.624   5.396   1.473
 5501SOL     OW17401   2.792   6.821   2.258
 5501SOL    HW117402   2.817   6.821   2.355
 5501SOL    HW217403   2.844   6.891   2.209
 5502SOL     OW17404   5.409   3.763   5.872
 5502SOL    HW117405   5.325   3.775   5.926
 5502SOL    HW217406   5.449   3.853   5.853
 5503SOL     OW17407   1.000   5.295   3.784
 5503SOL    HW117408   1.048   5.220   3.738
 5503SOL    HW217409   0.928   5.330   3.724
 5504SOL     OW17410   3.344   2.055   5.048
 5504SOL    HW117411   3.287   2.137   5.055
 5504SOL    HW217412   3.367   2.038   4.952
 5505SOL     OW17413   2.893   5.261   5.516
 5505SOL    HW117414   2.880   5.207   5.600
 5505SOL    HW217415   2.900   5.358   5.540
 5506SOL     OW17416   6.083   0.230   5.575
 5506SOL    HW117417   6.034   0.317   5.571
 5506SOL    HW217418   6.125   0.212   5.487
 5507SOL     OW17419   2.293   6.213   3.806
 5507SOL    HW117420   2.259   6.126   3.843
 5507SOL    HW217421   2.389   6.225   3.833
 5508SOL     OW17422   3.128   0.864   6.790
 5508SOL    HW117423   3.155   0.960   6.778
 5508SOL    HW217424   3.052   0.842   6.730
 5509SOL     OW17425   5.668   6.751   6.546
 5509SOL    HW117426   5.649   6.846   6.518
 5509SOL    HW217427   5.728   6.708   6.479
 5510SOL     OW17428   5.305   0.923   6.009
 5510SOL    HW117429   5.211   0.957   6.014
 5510SOL    HW217430   5.314   0.864   5.929
 5511SOL     OW17431   0.699   0.923   2.204
 5511SOL    HW117432   0.665   0.996   2.144
 5511SOL    HW217433   0.798   0.928   2.209
 5512SOL     OW17434   1.481   0.655   6.982
 5512SOL    HW117435   1.394   0.639   0.006
 5512SOL    HW217436   1.553   0.671   0.027
 5513SOL     OW17437   4.632   4.431   4.261
 5513SOL    HW117438   4.681   4.483   4.191
 5513SOL    HW217439   4.636   4.334   4.239
 5514SOL     OW17440   5.533   4.556   2.339
 5514SOL    HW117441   5.585   4.501   2.274
 5514SOL    HW217442   5.531   4.509   2.428
 5515SOL     OW17443   6.603   3.120   1.381
 5515SOL    HW117444   6.656   3.042   1.347
 5515SOL    HW217445   6.653   3.164   1.455
 5516SOL     OW17446   1.051   3.750   6.173
 5516SOL    HW117447   1.039   3.836   6.223
 5516SOL    HW217448   1.100   3.769   6.088
 5517SOL     OW17449   2.474   1.937   1.871
 5517SOL    HW117450   2.391   1.919   1.817
 5517SOL    HW217451   2.449   1.984   1.955
 5518SOL     OW17452   6.387   5.172   5.000
 5518SOL    HW117453   6.343   5.163   4.910
 5518SOL    HW217454   6.470   5.227   4.991
 5519SOL     OW17455   5.745   4.332   3.946
 5519SOL    HW117456   5.728   4.346   3.849
 5519SOL    HW217457   5.732   4.235   3.969
 5520SOL     OW17458   1.625   4.364   1.949
 5520SOL    HW117459   1.544   4.365   1.890
 5520SOL    HW217460   1.635   4.274   1.991
 5521SOL     OW17461   5.915   5.320   1.319
 5521SOL    HW117462   5.937   5.401   1.373
 5521SOL    HW217463   5.823   5.329   1.280
 5522SOL     OW17464   2.465   3.598   1.591
 5522SOL    HW117465   2.467   3.574   1.688
 5522SOL    HW217466   2.437   3.519   1.537
 5523SOL     OW17467   2.633   0.462   1.925
 5523SOL    HW117468   2.653   0.532   1.856
 5523SOL    HW217469   2.715   0.407   1.942
 5524SOL     OW17470   0.140   5.112   6.380
 5524SOL    HW117471   0.124   5.016   6.402
 5524SOL    HW217472   0.238   5.131   6.382
 5525SOL     OW17473   6.497   5.589   5.549
 5525SOL    HW117474   6.478   5.615   5.644
 5525SOL    HW217475   6.473   5.664   5.488
 5526SOL     OW17476   6.506   3.339   4.466
 5526SOL    HW117477   6.493   3.250   4.510
 5526SOL    HW217478   6.470   3.334   4.372
 5527SOL     OW17479   1.462   3.651   1.559
 5527SOL    HW117480   1.370   3.616   1.576
 5527SOL    HW217481   1.456   3.736   1.507
 5528SOL     OW17482   0.800   3.596   4.014
 5528SOL    HW117483   0.795   3.502   3.980
 5528SOL    HW217484   0.718   3.616   4.068
 5529SOL     OW17485   2.531   1.545   4.952
 5529SOL    HW117486   2.495   1.636   4.929
 5529SOL    HW217487   2.613   1.527   4.898
 5530SOL     OW17488   0.744   2.830   0.680
 5530SOL    HW117489   0.650   2.830   0.714
 5530SOL    HW217490   0.763   2.743   0.634
 5531SOL     OW17491   3.566   2.877   5.855
 5531SOL    HW117492   3.653   2.897   5.810
 5531SOL    HW217493   3.579   2.803   5.921
 5532SOL     OW17494   2.350   1.689   1.300
 5532SOL    HW117495   2.364   1.756   1.373
 5532SOL    HW217496   2.418   1.702   1.228
 5533SOL     OW17497   3.513   1.138   1.325
 5533SOL    HW117498   3.600   1.186   1.331
 5533SOL    HW217499   3.488   1.102   1.414
 5534SOL     OW17500   0.115   4.368   6.638
 5534SOL    HW117501   0.170   4.292   6.605
 5534SOL    HW217502   0.169   4.424   6.701
 5535SOL     OW17503   6.288   3.173   2.388
 5535SOL    HW117504   6.243   3.087   2.411
 5535SOL    HW217505   6.329   3.166   2.297
 5536SOL     OW17506   2.657   0.696   3.874
 5536SOL    HW117507   2.751   0.702   3.839
 5536SOL    HW217508   2.658   0.697   3.974
 5537SOL     OW17509   4.291   0.309   5.466
 5537SOL    HW117510   4.290   0.392   5.522
 5537SOL    HW217511   4.204   0.301   5.417
 5538SOL     OW17512   4.522   1.928   6.901
 5538SOL    HW117513   4.427   1.926   6.869
 5538SOL    HW217514   4.580   1.877   6.837
 5539SOL     OW17515   2.824   6.868   1.025
 5539SOL    HW117516   2.736   6.845   0.984
 5539SOL    HW217517   2.876   6.926   0.963
 5540SOL     OW17518   5.184   1.460   0.090
 5540SOL    HW117519   5.107   1.513   0.126
 5540SOL    HW217520   5.182   1.463   7.012
 5541SOL     OW17521   4.288   3.863   6.751
 5541SOL    HW117522   4.298   3.885   6.849
 5541SOL    HW217523   4.365   3.901   6.701
 5542SOL     OW17524   5.366   4.390   6.431
 5542SOL    HW117525   5.377   4.308   6.487
 5542SOL    HW217526   5.452   4.440   6.426
 5543SOL     OW17527   1.556   0.411   1.162
 5543SOL    HW117528   1.602   0.352   1.228
 5543SOL    HW217529   1.539   0.501   1.203
 5544SOL     OW17530   4.376   5.627   5.983
 5544SOL    HW117531   4.336   5.703   6.035
 5544SOL    HW217532   4.464   5.602   6.024
 5545SOL     OW17533   4.434   0.602   2.869
 5545SOL    HW117534   4.348   0.552   2.876
 5545SOL    HW217535   4.462   0.632   2.961
 5546SOL     OW17536   0.100   6.141   5.797
 5546SOL    HW117537   0.067   6.147   5.703
 5546SOL    HW217538   0.152   6.056   5.808
 5547SOL     OW17539   5.185   1.837   4.967
 5547SOL    HW117540   5.157   1.861   4.874
 5547SOL    HW217541   5.159   1.742   4.986
 5548SOL     OW17542   6.831   4.041   4.921
 5548SOL    HW117543   6.771   4.016   4.845
 5548SOL    HW217544   6.817   4.138   4.945
 5549SOL     OW17545   3.444   3.429   1.896
 5549SOL    HW117546   3.396   3.504   1.942
 5549SOL    HW217547   3.405   3.415   1.805
 5550SOL     OW17548   1.508   4.166   3.217
 5550SOL    HW117549   1.432   4.196   3.274
 5550SOL    HW217550   1.546   4.081   3.253
 5551SOL     OW17551   2.409   5.159   3.731
 5551SOL    HW117552   2.346   5.083   3.715
 5551SOL    HW217553   2.386   5.204   3.817
 5552SOL     OW17554   6.965   6.956   6.326
 5552SOL    HW117555   6.984   0.024   6.364
 5552SOL    HW217556   6.874   6.926   6.354
 5553SOL     OW17557   4.773   0.550   6.739
 5553SOL    HW117558   4.824   0.568   6.655
 5553SOL    HW217559   4.818   0.597   6.815
 5554SOL     OW17560   5.621   3.150   1.569
 5554SOL    HW117561   5.698   3.139   1.506
 5554SOL    HW217562   5.545   3.195   1.522
 5555SOL     OW17563   1.044   4.258   2.643
 5555SOL    HW117564   0.958   4.219   2.676
 5555SOL    HW217565   1.095   4.189   2.592
 5556SOL     OW17566   6.568   1.091   4.438
 5556SOL    HW117567   6.616   1.072   4.352
 5556SOL    HW217568   6.633   1.123   4.506
 5557SOL     OW17569   3.268   5.501   2.117
 5557SOL    HW117570   3.235   5.547   2.200
 5557SOL    HW217571   3.204   5.518   2.042
 5558SOL     OW17572   3.248   4.583   0.714
 5558SOL    HW117573   3.178   4.652   0.731
 5558SOL    HW217574   3.204   4.496   0.692
 5559SOL     OW17575   1.461   6.883   2.567
 5559SOL    HW117576   1.487   6.880   2.663
 5559SOL    HW217577   1.425   6.974   2.546
 5560SOL     OW17578   0.464   6.004   2.712
 5560SOL    HW117579   0.536   5.935   2.720
 5560SOL    HW217580   0.477   6.057   2.628
 5561SOL     OW17581   3.472   1.021   3.705
 5561SOL    HW117582   3.419   1.093   3.660
 5561SOL    HW217583   3.413   0.972   3.770
 5562SOL     OW17584   3.959   3.986   0.553
 5562SOL    HW117585   3.981   3.889   0.546
 5562SOL    HW217586   4.021   4.039   0.495
 5563SOL     OW17587   3.093   4.888   2.841
 5563SOL    HW117588   3.159   4.833   2.892
 5563SOL    HW217589   3.001   4.871   2.877
 5564SOL     OW17590   5.379   0.763   5.797
 5564SOL    HW117591   5.333   0.773   5.709
 5564SOL    HW217592   5.322   0.710   5.859
 5565SOL     OW17593   3.819   3.187   0.238
 5565SOL    HW117594   3.846   3.125   0.165
 5565SOL    HW217595   3.851   3.279   0.218
 5566SOL     OW17596   1.341   3.753   0.294
 5566SOL    HW117597   1.302   3.735   0.203
 5566SOL    HW217598   1.337   3.850   0.313
 5567SOL     OW17599   6.857   3.548   1.521
 5567SOL    HW117600   6.857   3.547   1.621
 5567SOL    HW217601   6.944   3.510   1.488
 5568SOL     OW17602   4.527   6.330   2.602
 5568SOL    HW117603   4.567   6.279   2.679
 5568SOL    HW217604   4.477   6.409   2.637
 5569SOL     OW17605   2.805   2.334   3.837
 5569SOL    HW117606   2.818   2.409   3.903
 5569SOL    HW217607   2.708   2.326   3.815
 5570SOL     OW17608   6.791   3.257   3.391
 5570SOL    HW117609   6.713   3.313   3.362
 5570SOL    HW217610   6.809   3.272   3.488
 5571SOL     OW17611   0.650   5.619   1.923
 5571SOL    HW117612   0.726   5.648   1.864
 5571SOL    HW217613   0.618   5.529   1.894
 5572SOL     OW17614   0.924   3.430   5.266
 5572SOL    HW117615   0.841   3.375   5.274
 5572SOL    HW217616   0.901   3.520   5.228
 5573SOL     OW17617   1.567   4.727   5.161
 5573SOL    HW117618   1.554   4.675   5.245
 5573SOL    HW217619   1.633   4.680   5.103
 5574SOL     OW17620   0.354   2.716   6.253
 5574SOL    HW117621   0.442   2.692   6.295
 5574SOL    HW217622   0.319   2.637   6.203
 5575SOL     OW17623   1.036   0.553   1.417
 5575SOL    HW117624   1.062   0.600   1.501
 5575SOL    HW217625   0.951   0.593   1.382
 5576SOL     OW17626   2.311   4.488   3.404
 5576SOL    HW117627   2.229   4.473   3.459
 5576SOL    HW217628   2.349   4.399   3.377
 5577SOL     OW17629   1.624   3.437   6.537
 5577SOL    HW117630   1.687   3.494   6.589
 5577SOL    HW217631   1.649   3.341   6.548
 5578SOL     OW17632   3.637   3.485   3.145
 5578SOL    HW117633   3.629   3.394   3.188
 5578SOL    HW217634   3.698   3.542   3.200
 5579SOL     OW17635   6.953   2.855   1.402
 5579SOL    HW117636   0.022   2.890   1.418
 5579SOL    HW217637   6.914   2.900   1.321
 5580SOL     OW17638   4.751   1.412   6.185
 5580SOL    HW117639   4.693   1.382   6.109
 5580SOL    HW217640   4.758   1.339   6.252
 5581SOL     OW17641   0.671   1.931   0.764
 5581SOL    HW117642   0.625   1.962   0.848
 5581SOL    HW217643   0.624   1.851   0.728
 5582SOL     OW17644   2.471   3.531   6.599
 5582SOL    HW117645   2.556   3.504   6.555
 5582SOL    HW217646   2.469   3.631   6.610
 5583SOL     OW17647   5.132   0.696   2.748
 5583SOL    HW117648   5.148   0.786   2.707
 5583SOL    HW217649   5.057   0.650   2.700
 5584SOL     OW17650   6.893   4.405   4.714
 5584SOL    HW117651   6.977   4.393   4.661
 5584SOL    HW217652   6.814   4.405   4.653
 5585SOL     OW17653   5.041   5.111   2.586
 5585SOL    HW117654   5.041   5.053   2.504
 5585SOL    HW217655   5.128   5.159   2.594
 5586SOL     OW17656   6.841   3.673   6.248
 5586SOL    HW117657   6.833   3.739   6.322
 5586SOL    HW217658   6.915   3.609   6.268
 5587SOL     OW17659   4.230   1.611   6.908
 5587SOL    HW117660   4.205   1.521   6.873
 5587SOL    HW217661   4.327   1.611   6.934
 5588SOL     OW17662   2.476   6.633   2.056
 5588SOL    HW117663   2.404   6.565   2.049
 5588SOL    HW217664   2.546   6.601   2.120
 5589SOL     OW17665   5.842   4.517   6.059
 5589SOL    HW117666   5.758   4.508   6.112
 5589SOL    HW217667   5.898   4.590   6.097
 5590SOL     OW17668   5.537   5.893   3.915
 5590SOL    HW117669   5.497   5.947   3.842
 5590SOL    HW217670   5.521   5.796   3.897
 5591SOL     OW17671   6.919   1.793   1.816
 5591SOL    HW117672   6.819   1.788   1.825
 5591SOL    HW217673   6.950   1.885   1.841
 5592SOL     OW17674   1.432   4.628   3.234
 5592SOL    HW117675   1.363   4.641   3.306
 5592SOL    HW217676   1.411   4.544   3.184
 5593SOL     OW17677   6.906   2.628   6.890
 5593SOL    HW117678   6.898   2.542   6.940
 5593SOL    HW217679   6.987   2.626   6.832
 5594SOL     OW17680   5.188   1.466   5.362
 5594SOL    HW117681   5.106   1.507   5.325
 5594SOL    HW217682   5.198   1.373   5.328
 5595SOL     OW17683   0.963   2.643   5.013
 5595SOL    HW117684   0.998   2.728   5.051
 5595SOL    HW217685   1.038   2.590   4.974
 5596SOL     OW17686   4.150   6.778   3.096
 5596SOL    HW117687   4.062   6.798   3.052
 5596SOL    HW217688   4.212   6.855   3.084
 5597SOL     OW17689   4.978   2.836   3.948
 5597SOL    HW117690   5.061   2.817   3.896
 5597SOL    HW217691   4.901   2.846   3.885
 5598SOL     OW17692   4.657   2.718   4.053
 5598SOL    HW117693   4.641   2.717   3.955
 5598SOL    HW217694   4.585   2.666   4.099
 5599SOL     OW17695   1.535   0.663   4.465
 5599SOL    HW117696   1.458   0.616   4.508
 5599SOL    HW217697   1.598   0.596   4.425
 5600SOL     OW17698   1.131   2.132   3.595
 5600SOL    HW117699   1.173   2.221   3.577
 5600SOL    HW217700   1.200   2.070   3.632
 5601SOL     OW17701   2.363   0.672   5.898
 5601SOL    HW117702   2.302   0.741   5.860
 5601SOL    HW217703   2.310   0.609   5.956
 5602SOL     OW17704   0.646   1.686   1.157
 5602SOL    HW117705   0.625   1.632   1.239
 5602SOL    HW217706   0.658   1.782   1.182
 5603SOL     OW17707   5.393   1.677   6.826
 5603SOL    HW117708   5.400   1.770   6.862
 5603SOL    HW217709   5.446   1.615   6.884
 5604SOL     OW17710   6.223   2.202   5.863
 5604SOL    HW117711   6.168   2.156   5.934
 5604SOL    HW217712   6.297   2.253   5.906
 5605SOL     OW17713   0.612   1.323   4.582
 5605SOL    HW117714   0.556   1.287   4.507
 5605SOL    HW217715   0.563   1.312   4.669
 5606SOL     OW17716   5.711   6.498   1.487
 5606SOL    HW117717   5.676   6.408   1.462
 5606SOL    HW217718   5.653   6.569   1.446
 5607SOL     OW17719   4.857   1.485   1.909
 5607SOL    HW117720   4.916   1.517   1.835
 5607SOL    HW217721   4.913   1.445   1.981
 5608SOL     OW17722   4.413   0.264   4.408
 5608SOL    HW117723   4.487   0.323   4.376
 5608SOL    HW217724   4.326   0.296   4.372
 5609SOL     OW17725   2.305   5.837   0.070
 5609SOL    HW117726   2.257   5.788   0.143
 5609SOL    HW217727   2.239   5.887   0.014
 5610SOL     OW17728   5.247   0.253   0.365
 5610SOL    HW117729   5.346   0.261   0.380
 5610SOL    HW217730   5.206   0.344   0.370
 5611SOL     OW17731   1.663   4.767   2.607
 5611SOL    HW117732   1.591   4.798   2.546
 5611SOL    HW217733   1.752   4.776   2.562
 5612SOL     OW17734   4.014   1.829   6.442
 5612SOL    HW117735   4.004   1.789   6.351
 5612SOL    HW217736   3.969   1.770   6.510
 5613SOL     OW17737   4.818   4.470   2.593
 5613SOL    HW117738   4.875   4.547   2.623
 5613SOL    HW217739   4.722   4.490   2.613
 5614SOL     OW17740   4.330   2.401   3.560
 5614SOL    HW117741   4.377   2.356   3.637
 5614SOL    HW217742   4.363   2.495   3.552
 5615SOL     OW17743   0.879   0.423   6.845
 5615SOL    HW117744   0.872   0.341   6.789
 5615SOL    HW217745   0.968   0.467   6.830
 5616SOL     OW17746   2.215   0.808   5.342
 5616SOL    HW117747   2.234   0.719   5.382
 5616SOL    HW217748   2.177   0.869   5.411
 5617SOL     OW17749   2.469   6.912   6.227
 5617SOL    HW117750   2.407   6.990   6.219
 5617SOL    HW217751   2.442   6.841   6.162
 5618SOL     OW17752   7.021   4.090   4.555
 5618SOL    HW117753   0.002   4.187   4.530
 5618SOL    HW217754   0.016   4.081   4.653
 5619SOL     OW17755   3.051   3.682   6.184
 5619SOL    HW117756   3.058   3.770   6.136
 5619SOL    HW217757   3.058   3.697   6.283
 5620SOL     OW17758   3.965   2.957   0.097
 5620SOL    HW117759   3.945   2.863   0.067
 5620SOL    HW217760   4.047   2.990   0.050
 5621SOL     OW17761   1.585   1.704   5.971
 5621SOL    HW117762   1.649   1.780   5.960
 5621SOL    HW217763   1.492   1.739   5.975
 5622SOL     OW17764   4.754   6.980   6.221
 5622SOL    HW117765   4.687   6.981   6.295
 5622SOL    HW217766   4.825   6.913   6.242
 5623SOL     OW17767   1.944   6.253   6.019
 5623SOL    HW117768   1.901   6.251   6.110
 5623SOL    HW217769   2.043   6.246   6.030
 5624SOL     OW17770   1.257   4.717   3.427
 5624SOL    HW117771   1.335   4.742   3.485
 5624SOL    HW217772   1.191   4.665   3.480
 5625SOL     OW17773   6.128   2.496   4.547
 5625SOL    HW117774   6.120   2.495   4.447
 5625SOL    HW217775   6.170   2.411   4.578
 5626SOL     OW17776   3.177   6.754   4.928
 5626SOL    HW117777   3.114   6.792   4.860
 5626SOL    HW217778   3.162   6.801   5.016
 5627SOL     OW17779   1.722   5.756   1.337
 5627SOL    HW117780   1.774   5.841   1.326
 5627SOL    HW217781   1.786   5.679   1.340
 5628SOL     OW17782   1.709   1.952   5.905
 5628SOL    HW117783   1.786   1.956   5.841
 5628SOL    HW217784   1.738   1.988   5.994
 5629SOL     OW17785   3.014   3.754   2.112
 5629SOL    HW117786   3.033   3.851   2.099
 5629SOL    HW217787   2.924   3.732   2.074
 5630SOL     OW17788   1.414   4.643   0.800
 5630SOL    HW117789   1.386   4.560   0.753
 5630SOL    HW217790   1.384   4.723   0.749
 5631SOL     OW17791   3.928   2.123   0.237
 5631SOL    HW117792   4.002   2.174   0.192
 5631SOL    HW217793   3.966   2.042   0.282
 5632SOL     OW17794   4.203   4.055   6.331
 5632SOL    HW117795   4.174   4.049   6.427
 5632SOL    HW217796   4.179   4.146   6.295
 5633SOL     OW17797   0.015   2.618   3.827
 5633SOL    HW117798   6.952   2.646   3.783
 5633SOL    HW217799   0.092   2.649   3.773
 5634SOL     OW17800   3.452   5.223   4.886
 5634SOL    HW117801   3.461   5.131   4.848
 5634SOL    HW217802   3.397   5.280   4.825
 5635SOL     OW17803   2.279   2.920   4.745
 5635SOL    HW117804   2.329   2.934   4.830
 5635SOL    HW217805   2.240   3.006   4.714
 5636SOL     OW17806   3.909   6.108   2.883
 5636SOL    HW117807   3.848   6.146   2.952
 5636SOL    HW217808   3.950   6.183   2.830
 5637SOL     OW17809   6.408   6.967   3.918
 5637SOL    HW117810   6.312   6.952   3.943
 5637SOL    HW217811   6.431   0.041   3.930
 5638SOL     OW17812   5.727   2.675   1.402
 5638SOL    HW117813   5.719   2.724   1.316
 5638SOL    HW217814   5.651   2.609   1.410
 5639SOL     OW17815   0.671   1.275   6.944
 5639SOL    HW117816   0.695   1.222   6.862
 5639SOL    HW217817   0.724   1.360   6.945
 5640SOL     OW17818   2.472   0.244   4.222
 5640SOL    HW117819   2.405   0.282   4.285
 5640SOL    HW217820   2.557   0.226   4.270
 5641SOL     OW17821   6.655   4.778   5.669
 5641SOL    HW117822   6.588   4.705   5.655
 5641SOL    HW217823   6.670   4.791   5.767
 5642SOL     OW17824   1.720   0.549   0.279
 5642SOL    HW117825   1.771   0.523   0.197
 5642SOL    HW217826   1.681   0.468   0.322
 5643SOL     OW17827   5.994   2.525   4.306
 5643SOL    HW117828   5.962   2.431   4.297
 5643SOL    HW217829   5.915   2.585   4.322
 5644SOL     OW17830   3.063   0.034   5.800
 5644SOL    HW117831   3.155   0.062   5.774
 5644SOL    HW217832   3.056   6.957   5.798
 5645SOL     OW17833   6.518   3.396   3.481
 5645SOL    HW117834   6.517   3.318   3.545
 5645SOL    HW217835   6.504   3.481   3.532
 5646SOL     OW17836   2.303   4.857   2.804
 5646SOL    HW117837   2.371   4.784   2.804
 5646SOL    HW217838   2.289   4.889   2.898
 5647SOL     OW17839   5.848   6.046   2.321
 5647SOL    HW117840   5.763   6.022   2.275
 5647SOL    HW217841   5.844   6.017   2.417
 5648SOL     OW17842   3.020   5.757   3.276
 5648SOL    HW117843   2.962   5.753   3.195
 5648SOL    HW217844   3.116   5.745   3.250
 5649SOL     OW17845   0.693   5.355   3.869
 5649SOL    HW117846   0.729   5.288   3.804
 5649SOL    HW217847   0.705   5.321   3.962
 5650SOL     OW17848   0.552   4.710   0.399
 5650SOL    HW117849   0.521   4.615   0.407
 5650SOL    HW217850   0.611   4.732   0.477
 5651SOL     OW17851   1.587   0.342   0.381
 5651SOL    HW117852   1.520   0.283   0.337
 5651SOL    HW217853   1.612   0.304   0.470
 5652SOL     OW17854   0.406   4.887   2.045
 5652SOL    HW117855   0.483   4.945   2.020
 5652SOL    HW217856   0.424   4.793   2.016
 5653SOL     OW17857   0.188   6.011   1.239
 5653SOL    HW117858   0.184   6.110   1.224
 5653SOL    HW217859   0.213   5.965   1.154
 5654SOL     OW17860   1.659   6.200   4.785
 5654SOL    HW117861   1.675   6.298   4.785
 5654SOL    HW217862   1.560   6.182   4.787
 5655SOL     OW17863   6.532   3.486   4.130
 5655SOL    HW117864   6.465   3.417   4.159
 5655SOL    HW217865   6.580   3.522   4.210
 5656SOL     OW17866   0.134   3.229   6.356
 5656SOL    HW117867   0.104   3.137   6.333
 5656SOL    HW217868   0.187   3.227   6.441
 5657SOL     OW17869   4.747   4.951   4.382
 5657SOL    HW117870   4.651   4.967   4.405
 5657SOL    HW217871   4.796   4.921   4.464
 5658SOL     OW17872   1.759   2.541   5.700
 5658SOL    HW117873   1.837   2.500   5.652
 5658SOL    HW217874   1.715   2.608   5.641
 5659SOL     OW17875   3.196   4.060   6.470
 5659SOL    HW117876   3.225   4.026   6.560
 5659SOL    HW217877   3.238   4.149   6.453
 5660SOL     OW17878   4.605   6.903   6.430
 5660SOL    HW117879   4.605   6.804   6.418
 5660SOL    HW217880   4.551   6.927   6.511
 5661SOL     OW17881   0.433   5.763   5.884
 5661SOL    HW117882   0.333   5.769   5.888
 5661SOL    HW217883   0.472   5.825   5.952
 5662SOL     OW17884   2.911   6.521   3.088
 5662SOL    HW117885   2.984   6.469   3.045
 5662SOL    HW217886   2.829   6.463   3.097
 5663SOL     OW17887   1.251   3.035   1.111
 5663SOL    HW117888   1.324   3.004   1.050
 5663SOL    HW217889   1.242   2.972   1.188
 5664SOL     OW17890   5.238   4.051   4.202
 5664SOL    HW117891   5.232   4.011   4.294
 5664SOL    HW217892   5.300   3.997   4.146
 5665SOL     OW17893   1.742   7.014   0.729
 5665SOL    HW117894   1.837   0.017   0.744
 5665SOL    HW217895   1.698   0.061   0.673
 5666SOL     OW17896   6.538   1.541   4.438
 5666SOL    HW117897   6.604   1.512   4.507
 5666SOL    HW217898   6.492   1.460   4.400
 5667SOL     OW17899   1.334   5.203   4.655
 5667SOL    HW117900   1.310   5.255   4.737
 5667SOL    HW217901   1.364   5.265   4.583
 5668SOL     OW17902   5.784   2.656   3.317
 5668SOL    HW117903   5.807   2.612   3.230
 5668SOL    HW217904   5.783   2.587   3.390
 5669SOL     OW17905   5.555   3.886   6.537
 5669SOL    HW117906   5.475   3.847   6.582
 5669SOL    HW217907   5.578   3.832   6.456
 5670SOL     OW17908   1.021   2.762   2.935
 5670SOL    HW117909   1.015   2.701   2.857
 5670SOL    HW217910   1.086   2.835   2.915
 5671SOL     OW17911   0.185   6.794   3.789
 5671SOL    HW117912   0.159   6.723   3.855
 5671SOL    HW217913   0.251   6.856   3.831
 5672SOL     OW17914   5.105   4.073   5.030
 5672SOL    HW117915   5.023   4.021   5.054
 5672SOL    HW217916   5.090   4.170   5.048
 5673SOL     OW17917   1.013   0.048   1.396
 5673SOL    HW117918   1.058   0.121   1.449
 5673SOL    HW217919   0.946   0.089   1.334
 5674SOL     OW17920   1.053   5.278   4.847
 5674SOL    HW117921   0.979   5.265   4.781
 5674SOL    HW217922   1.042   5.214   4.923
 5675SOL     OW17923   2.956   1.279   0.284
 5675SOL    HW117924   2.881   1.336   0.319
 5675SOL    HW217925   3.038   1.334   0.273
 5676SOL     OW17926   2.661   2.480   1.935
 5676SOL    HW117927   2.627   2.389   1.959
 5676SOL    HW217928   2.761   2.479   1.937
 5677SOL     OW17929   6.969   0.355   0.814
 5677SOL    HW117930   6.981   0.367   0.913
 5677SOL    HW217931   0.023   0.302   0.778
 5678SOL     OW17932   3.346   1.778   1.528
 5678SOL    HW117933   3.435   1.813   1.559
 5678SOL    HW217934   3.282   1.778   1.604
 5679SOL     OW17935   5.561   3.474   4.730
 5679SOL    HW117936   5.492   3.408   4.759
 5679SOL    HW217937   5.523   3.532   4.658
 5680SOL     OW17938   1.172   5.189   5.816
 5680SOL    HW117939   1.132   5.253   5.751
 5680SOL    HW217940   1.212   5.239   5.893
 5681SOL     OW17941   0.550   3.729   3.067
 5681SOL    HW117942   0.452   3.710   3.064
 5681SOL    HW217943   0.599   3.650   3.103
 5682SOL     OW17944   2.000   4.684   2.662
 5682SOL    HW117945   1.981   4.770   2.708
 5682SOL    HW217946   1.947   4.611   2.705
 5683SOL     OW17947   4.522   2.356   7.009
 5683SOL    HW117948   4.458   2.283   0.010
 5683SOL    HW217949   4.544   2.351   6.912
 5684SOL     OW17950   2.203   2.466   5.753
 5684SOL    HW117951   2.185   2.502   5.844
 5684SOL    HW217952   2.152   2.519   5.686
 5685SOL     OW17953   2.071   1.928   3.971
 5685SOL    HW117954   2.166   1.896   3.975
 5685SOL    HW217955   2.035   1.916   3.879
 5686SOL     OW17956   3.774   0.606   5.966
 5686SOL    HW117957   3.767   0.600   6.066
 5686SOL    HW217958   3.690   0.647   5.930
 5687SOL     OW17959   1.452   6.484   5.777
 5687SOL    HW117960   1.401   6.427   5.712
 5687SOL    HW217961   1.527   6.529   5.731
 5688SOL     OW17962   2.107   3.645   3.395
 5688SOL    HW117963   2.092   3.586   3.474
 5688SOL    HW217964   2.106   3.590   3.311
 5689SOL     OW17965   1.248   1.345   1.062
 5689SOL    HW117966   1.296   1.296   1.135
 5689SOL    HW217967   1.169   1.392   1.099
 5690SOL     OW17968   0.862   5.492   0.151
 5690SOL    HW117969   0.813   5.576   0.128
 5690SOL    HW217970   0.954   5.495   0.114
 5691SOL     OW17971   3.954   1.398   2.275
 5691SOL    HW117972   4.002   1.444   2.350
 5691SOL    HW217973   3.899   1.323   2.311
 5692SOL     OW17974   5.090   5.502   1.435
 5692SOL    HW117975   4.992   5.514   1.445
 5692SOL    HW217976   5.128   5.472   1.523
 5693SOL     OW17977   3.412   0.771   0.873
 5693SOL    HW117978   3.425   0.813   0.783
 5693SOL    HW217979   3.380   0.840   0.938
 5694SOL     OW17980   0.357   0.379   2.499
 5694SOL    HW117981   0.318   0.462   2.538
 5694SOL    HW217982   0.454   0.373   2.523
 5695SOL     OW17983   1.100   0.767   1.602
 5695SOL    HW117984   1.023   0.822   1.569
 5695SOL    HW217985   1.185   0.820   1.594
 5696SOL     OW17986   1.232   6.738   4.433
 5696SOL    HW117987   1.265   6.744   4.339
 5696SOL    HW217988   1.137   6.706   4.433
 5697SOL     OW17989   6.130   2.703   1.346
 5697SOL    HW117990   6.088   2.649   1.418
 5697SOL    HW217991   6.103   2.666   1.257
 5698SOL     OW17992   1.722   3.016   3.741
 5698SOL    HW117993   1.698   3.091   3.802
 5698SOL    HW217994   1.750   3.053   3.652
 5699SOL     OW17995   2.242   2.586   3.321
 5699SOL    HW117996   2.256   2.635   3.235
 5699SOL    HW217997   2.313   2.612   3.386
 5700SOL     OW17998   6.499   0.243   2.091
 5700SOL    HW117999   6.535   0.194   2.171
 5700SOL    HW218000   6.406   0.211   2.072
 5701SOL     OW18001   6.482   0.902   0.934
 5701SOL    HW118002   6.509   0.849   0.854
 5701SOL    HW218003   6.462   0.996   0.907
 5702SOL     OW18004   2.281   0.134   4.946
 5702SOL    HW118005   2.226   0.171   4.871
 5702SOL    HW218006   2.324   0.210   4.995
 5703SOL     OW18007   6.361   2.985   6.597
 5703SOL    HW118008   6.368   3.084   6.586
 5703SOL    HW218009   6.307   2.964   6.679
 5704SOL     OW18010   5.026   4.353   3.231
 5704SOL    HW118011   4.926   4.359   3.223
 5704SOL    HW218012   5.065   4.323   3.144
 5705SOL     OW18013   6.006   6.174   6.285
 5705SOL    HW118014   6.103   6.197   6.291
 5705SOL    HW218015   5.951   6.254   6.308
 5706SOL     OW18016   5.670   1.783   0.215
 5706SOL    HW118017   5.713   1.693   0.206
 5706SOL    HW218018   5.721   1.849   0.161
 5707SOL     OW18019   5.236   6.312   1.978
 5707SOL    HW118020   5.192   6.223   1.979
 5707SOL    HW218021   5.204   6.365   1.900
 5708SOL     OW18022   4.374   5.886   4.096
 5708SOL    HW118023   4.318   5.965   4.118
 5708SOL    HW218024   4.335   5.838   4.017
 5709SOL     OW18025   0.918   1.057   1.833
 5709SOL    HW118026   0.869   1.123   1.890
 5709SOL    HW218027   0.988   1.011   1.888
 5710SOL     OW18028   2.594   2.621   0.938
 5710SOL    HW118029   2.626   2.696   0.880
 5710SOL    HW218030   2.541   2.659   1.015
 5711SOL     OW18031   5.270   0.968   1.844
 5711SOL    HW118032   5.313   0.882   1.817
 5711SOL    HW218033   5.268   1.030   1.766
 5712SOL     OW18034   6.935   6.270   1.229
 5712SOL    HW118035   6.886   6.185   1.248
 5712SOL    HW218036   6.871   6.347   1.233
 5713SOL     OW18037   2.515   5.643   0.589
 5713SOL    HW118038   2.594   5.692   0.552
 5713SOL    HW218039   2.438   5.652   0.526
 5714SOL     OW18040   6.094   6.274   1.565
 5714SOL    HW118041   6.128   6.256   1.473
 5714SOL    HW218042   6.047   6.193   1.600
 5715SOL     OW18043   1.186   0.107   0.669
 5715SOL    HW118044   1.200   0.009   0.684
 5715SOL    HW218045   1.194   0.155   0.756
 5716SOL     OW18046   0.867   4.412   5.993
 5716SOL    HW118047   0.861   4.504   6.033
 5716SOL    HW218048   0.897   4.347   6.062
 5717SOL     OW18049   1.889   4.920   3.110
 5717SOL    HW118050   1.834   4.837   3.121
 5717SOL    HW218051   1.915   4.955   3.200
 5718SOL     OW18052   0.892   3.363   0.522
 5718SOL    HW118053   0.990   3.382   0.531
 5718SOL    HW218054   0.840   3.444   0.550
 5719SOL     OW18055   2.941   3.968   1.739
 5719SOL    HW118056   2.915   4.053   1.786
 5719SOL    HW218057   3.041   3.960   1.737
 5720SOL     OW18058   2.124   5.096   5.986
 5720SOL    HW118059   2.048   5.080   5.922
 5720SOL    HW218060   2.127   5.022   6.053
 5721SOL     OW18061   5.028   4.333   6.904
 5721SOL    HW118062   4.981   4.353   6.818
 5721SOL    HW218063   4.965   4.347   6.980
 5722SOL     OW18064   0.735   0.621   5.680
 5722SOL    HW118065   0.808   0.651   5.742
 5722SOL    HW218066   0.757   0.530   5.645
 5723SOL     OW18067   4.180   3.221   6.886
 5723SOL    HW118068   4.174   3.173   6.973
 5723SOL    HW218069   4.092   3.215   6.838
 5724SOL     OW18070   5.490   2.128   3.621
 5724SOL    HW118071   5.536   2.216   3.607
 5724SOL    HW218072   5.423   2.137   3.695
 5725SOL     OW18073   6.039   4.548   3.471
 5725SOL    HW118074   6.016   4.630   3.418
 5725SOL    HW218075   6.138   4.542   3.482
 5726SOL     OW18076   4.581   4.465   3.246
 5726SOL    HW118077   4.647   4.512   3.304
 5726SOL    HW218078   4.593   4.494   3.151
 5727SOL     OW18079   0.988   2.129   4.554
 5727SOL    HW118080   0.959   2.074   4.476
 5727SOL    HW218081   0.933   2.107   4.634
 5728SOL     OW18082   4.953   6.165   5.057
 5728SOL    HW118083   4.963   6.079   5.007
 5728SOL    HW218084   5.043   6.204   5.077
 5729SOL     OW18085   2.352   1.670   5.773
 5729SOL    HW118086   2.355   1.652   5.871
 5729SOL    HW218087   2.445   1.685   5.739
 5730SOL     OW18088   6.412   4.360   6.073
 5730SOL    HW118089   6.350   4.299   6.121
 5730SOL    HW218090   6.471   4.306   6.012
 5731SOL     OW18091   0.335   6.652   1.573
 5731SOL    HW118092   0.340   6.557   1.540
 5731SOL    HW218093   0.242   6.672   1.604
 5732SOL     OW18094   1.251   6.806   3.955
 5732SOL    HW118095   1.335   6.826   3.904
 5732SOL    HW218096   1.263   6.835   4.050
 5733SOL     OW18097   3.270   0.049   4.907
 5733SOL    HW118098   3.212   0.123   4.942
 5733SOL    HW218099   3.297   7.012   4.982
 5734SOL     OW18100   1.704   5.605   3.560
 5734SOL    HW118101   1.721   5.642   3.468
 5734SOL    HW218102   1.725   5.675   3.628
 5735SOL     OW18103   2.893   1.399   1.717
 5735SOL    HW118104   2.950   1.455   1.657
 5735SOL    HW218105   2.931   1.307   1.725
 5736SOL     OW18106   0.941   5.633   6.367
 5736SOL    HW118107   0.962   5.727   6.342
 5736SOL    HW218108   0.844   5.626   6.391
 5737SOL     OW18109   4.706   4.754   7.008
 5737SOL    HW118110   4.752   4.825   0.040
 5737SOL    HW218111   4.664   4.797   6.928
 5738SOL     OW18112   1.188   3.268   6.227
 5738SOL    HW118113   1.274   3.217   6.227
 5738SOL    HW218114   1.206   3.364   6.206
 5739SOL     OW18115   1.038   1.394   0.768
 5739SOL    HW118116   1.061   1.313   0.823
 5739SOL    HW218117   0.986   1.459   0.823
 5740SOL     OW18118   4.213   5.602   6.446
 5740SOL    HW118119   4.272   5.660   6.503
 5740SOL    HW218120   4.217   5.508   6.480
 5741SOL     OW18121   6.951   5.281   4.943
 5741SOL    HW118122   0.001   5.326   4.994
 5741SOL    HW218123   6.897   5.223   5.005
 5742SOL     OW18124   6.665   6.349   3.376
 5742SOL    HW118125   6.677   6.276   3.444
 5742SOL    HW218126   6.716   6.429   3.406
 5743SOL     OW18127   1.771   6.508   5.237
 5743SOL    HW118128   1.712   6.541   5.310
 5743SOL    HW218129   1.792   6.584   5.175
 5744SOL     OW18130   6.077   0.447   1.445
 5744SOL    HW118131   6.085   0.547   1.440
 5744SOL    HW218132   6.137   0.405   1.378
 5745SOL     OW18133   2.277   1.564   4.105
 5745SOL    HW118134   2.247   1.653   4.141
 5745SOL    HW218135   2.356   1.532   4.158
 5746SOL     OW18136   5.210   2.033   6.760
 5746SOL    HW118137   5.190   2.131   6.770
 5746SOL    HW218138   5.128   1.985   6.728
 5747SOL     OW18139   0.647   5.653   3.180
 5747SOL    HW118140   0.666   5.731   3.238
 5747SOL    HW218141   0.552   5.658   3.147
 5748SOL     OW18142   2.783   6.241   2.824
 5748SOL    HW118143   2.793   6.184   2.905
 5748SOL    HW218144   2.817   6.192   2.744
 5749SOL     OW18145   2.419   2.246   3.300
 5749SOL    HW118146   2.392   2.277   3.391
 5749SOL    HW218147   2.342   2.257   3.237
 5750SOL     OW18148   6.810   5.877   2.567
 5750SOL    HW118149   6.713   5.855   2.566
 5750SOL    HW218150   6.834   5.927   2.484
 5751SOL     OW18151   2.360   3.520   5.360
 5751SOL    HW118152   2.404   3.540   5.448
 5751SOL    HW218153   2.299   3.596   5.336
 5752SOL     OW18154   6.689   0.076   6.666
 5752SOL    HW118155   6.690   0.042   6.572
 5752SOL    HW218156   6.654   0.006   6.727
 5753SOL     OW18157   3.650   2.714   0.330
 5753SOL    HW118158   3.736   2.663   0.332
 5753SOL    HW218159   3.625   2.741   0.423
 5754SOL     OW18160   6.177   4.708   1.560
 5754SOL    HW118161   6.153   4.612   1.547
 5754SOL    HW218162   6.275   4.720   1.543
 5755SOL     OW18163   3.265   4.282   0.435
 5755SOL    HW118164   3.207   4.340   0.378
 5755SOL    HW218165   3.235   4.288   0.530
 5756SOL     OW18166   6.785   5.430   4.386
 5756SOL    HW118167   6.861   5.408   4.325
 5756SOL    HW218168   6.819   5.480   4.466
 5757SOL     OW18169   0.155   5.273   0.692
 5757SOL    HW118170   0.140   5.324   0.777
 5757SOL    HW218171   0.067   5.256   0.648
 5758SOL     OW18172   1.156   2.160   5.578
 5758SOL    HW118173   1.186   2.179   5.485
 5758SOL    HW218174   1.064   2.197   5.591
 5759SOL     OW18175   5.424   1.560   5.990
 5759SOL    HW118176   5.468   1.634   5.940
 5759SOL    HW218177   5.440   1.572   6.088
 5760SOL     OW18178   1.730   5.710   2.407
 5760SOL    HW118179   1.772   5.738   2.494
 5760SOL    HW218180   1.783   5.746   2.331
 5761SOL     OW18181   4.769   0.130   4.571
 5761SOL    HW118182   4.785   0.040   4.532
 5761SOL    HW218183   4.671   0.147   4.579
 5762SOL     OW18184   5.709   6.098   1.568
 5762SOL    HW118185   5.677   6.154   1.491
 5762SOL    HW218186   5.640   6.029   1.589
 5763SOL     OW18187   1.595   0.766   1.503
 5763SOL    HW118188   1.670   0.716   1.545
 5763SOL    HW218189   1.574   0.726   1.413
 5764SOL     OW18190   4.928   3.415   5.403
 5764SOL    HW118191   4.903   3.383   5.494
 5764SOL    HW218192   4.889   3.354   5.334
 5765SOL     OW18193   5.727   4.406   0.072
 5765SOL    HW118194   5.723   4.427   6.997
 5765SOL    HW218195   5.692   4.313   0.087
 5766SOL     OW18196   3.198   1.759   2.460
 5766SOL    HW118197   3.115   1.815   2.464
 5766SOL    HW218198   3.173   1.667   2.429
 5767SOL     OW18199   0.310   6.393   1.525
 5767SOL    HW118200   0.365   6.401   1.442
 5767SOL    HW218201   0.221   6.354   1.502
 5768SOL     OW18202   6.446   1.827   2.325
 5768SOL    HW118203   6.446   1.916   2.372
 5768SOL    HW218204   6.387   1.833   2.244
 5769SOL     OW18205   2.278   5.470   4.149
 5769SOL    HW118206   2.185   5.439   4.167
 5769SOL    HW218207   2.277   5.566   4.122
 5770SOL     OW18208   6.496   0.829   1.191
 5770SOL    HW118209   6.495   0.859   1.096
 5770SOL    HW218210   6.521   0.732   1.195
 5771SOL     OW18211   1.430   1.702   1.221
 5771SOL    HW118212   1.354   1.715   1.157
 5771SOL    HW218213   1.397   1.659   1.305
 5772SOL     OW18214   5.663   4.140   0.114
 5772SOL    HW118215   5.631   4.057   0.067
 5772SOL    HW218216   5.605   4.159   0.193
 5773SOL     OW18217   5.710   5.862   4.176
 5773SOL    HW118218   5.632   5.806   4.204
 5773SOL    HW218219   5.676   5.941   4.124
 5774SOL     OW18220   1.904   5.466   3.938
 5774SOL    HW118221   1.926   5.544   3.880
 5774SOL    HW218222   1.806   5.468   3.960
 5775SOL     OW18223   0.374   0.073   6.293
 5775SOL    HW118224   0.414   0.009   6.359
 5775SOL    HW218225   0.303   0.026   6.241
 5776SOL     OW18226   5.190   0.485   5.400
 5776SOL    HW118227   5.143   0.517   5.482
 5776SOL    HW218228   5.224   0.564   5.348
 5777SOL     OW18229   0.304   1.022   5.182
 5777SOL    HW118230   0.399   0.999   5.162
 5777SOL    HW218231   0.255   0.939   5.210
 5778SOL     OW18232   1.663   6.549   3.647
 5778SOL    HW118233   1.658   6.627   3.710
 5778SOL    HW218234   1.596   6.561   3.574
 5779SOL     OW18235   4.519   1.115   2.160
 5779SOL    HW118236   4.439   1.072   2.202
 5779SOL    HW218237   4.558   1.182   2.223
 5780SOL     OW18238   5.818   4.111   1.520
 5780SOL    HW118239   5.798   4.013   1.519
 5780SOL    HW218240   5.836   4.142   1.427
 5781SOL     OW18241   1.850   5.520   4.728
 5781SOL    HW118242   1.833   5.449   4.660
 5781SOL    HW218243   1.799   5.500   4.812
 5782SOL     OW18244   2.964   1.878   2.413
 5782SOL    HW118245   2.999   1.944   2.346
 5782SOL    HW218246   2.892   1.823   2.370
 5783SOL     OW18247   1.623   0.070   0.978
 5783SOL    HW118248   1.671   0.040   0.895
 5783SOL    HW218249   1.680   0.134   1.028
 5784SOL     OW18250   1.819   6.153   0.028
 5784SOL    HW118251   1.790   6.131   6.957
 5784SOL    HW218252   1.778   6.240   0.056
 5785SOL     OW18253   1.523   1.996   0.252
 5785SOL    HW118254   1.507   1.943   0.169
 5785SOL    HW218255   1.549   1.935   0.327
 5786SOL     OW18256   1.032   3.561   1.782
 5786SOL    HW118257   0.979   3.502   1.843
 5786SOL    HW218258   0.970   3.621   1.732
 5787SOL     OW18259   6.538   3.131   5.266
 5787SOL    HW118260   6.573   3.087   5.183
 5787SOL    HW218261   6.580   3.221   5.277
 5788SOL     OW18262   2.489   1.700   2.259
 5788SOL    HW118263   2.514   1.794   2.233
 5788SOL    HW218264   2.498   1.640   2.179
 5789SOL     OW18265   3.476   4.619   6.393
 5789SOL    HW118266   3.485   4.623   6.493
 5789SOL    HW218267   3.406   4.551   6.369
 5790SOL     OW18268   5.931   5.975   4.317
 5790SOL    HW118269   5.850   5.922   4.290
 5790SOL    HW218270   5.957   6.036   4.242
 5791SOL     OW18271   4.170   1.463   2.152
 5791SOL    HW118272   4.161   1.475   2.053
 5791SOL    HW218273   4.084   1.430   2.190
 5792SOL     OW18274   4.798   3.060   3.222
 5792SOL    HW118275   4.833   3.121   3.292
 5792SOL    HW218276   4.835   3.087   3.133
 5793SOL     OW18277   4.676   2.267   5.704
 5793SOL    HW118278   4.600   2.204   5.718
 5793SOL    HW218279   4.642   2.352   5.663
 5794SOL     OW18280   4.207   0.280   0.194
 5794SOL    HW118281   4.158   0.194   0.179
 5794SOL    HW218282   4.276   0.292   0.123
 5795SOL     OW18283   2.419   5.794   1.760
 5795SOL    HW118284   2.435   5.747   1.847
 5795SOL    HW218285   2.495   5.777   1.698
 5796SOL     OW18286   4.769   2.076   6.569
 5796SOL    HW118287   4.849   2.094   6.513
 5796SOL    HW218288   4.741   2.159   6.616
 5797SOL     OW18289   5.144   2.313   1.085
 5797SOL    HW118290   5.109   2.226   1.048
 5797SOL    HW218291   5.093   2.389   1.045
 5798SOL     OW18292   1.464   3.926   5.537
 5798SOL    HW118293   1.462   3.841   5.589
 5798SOL    HW218294   1.420   3.912   5.449
 5799SOL     OW18295   2.504   6.675   3.234
 5799SOL    HW118296   2.488   6.610   3.309
 5799SOL    HW218297   2.468   6.765   3.260
 5800SOL     OW18298   0.763   0.101   1.005
 5800SOL    HW118299   0.797   0.129   1.095
 5800SOL    HW218300   0.706   0.174   0.967
 5801SOL     OW18301   1.944   1.905   2.450
 5801SOL    HW118302   2.034   1.877   2.417
 5801SOL    HW218303   1.945   1.911   2.549
 5802SOL     OW18304   0.289   1.241   1.654
 5802SOL    HW118305   0.251   1.190   1.731
 5802SOL    HW218306   0.221   1.305   1.619
 5803SOL     OW18307   0.249   4.946   3.786
 5803SOL    HW118308   0.245   4.985   3.694
 5803SOL    HW218309   0.216   4.852   3.783
 5804SOL     OW18310   5.634   1.630   3.742
 5804SOL    HW118311   5.579   1.657   3.663
 5804SOL    HW218312   5.648   1.531   3.741
 5805SOL     OW18313   1.741   2.462   2.023
 5805SOL    HW118314   1.698   2.544   1.986
 5805SOL    HW218315   1.783   2.483   2.111
 5806SOL     OW18316   0.112   4.301   1.827
 5806SOL    HW118317   0.135   4.334   1.918
 5806SOL    HW218318   0.117   4.376   1.762
 5807SOL     OW18319   1.303   0.582   1.280
 5807SOL    HW118320   1.204   0.589   1.293
 5807SOL    HW218321   1.344   0.538   1.361
 5808SOL     OW18322   6.561   6.591   5.909
 5808SOL    HW118323   6.471   6.551   5.921
 5808SOL    HW218324   6.563   6.682   5.951
 5809SOL     OW18325   0.647   2.089   5.628
 5809SOL    HW118326   0.575   2.068   5.561
 5809SOL    HW218327   0.729   2.038   5.605
 5810SOL     OW18328   3.305   0.134   5.714
 5810SOL    HW118329   3.257   0.162   5.631
 5810SOL    HW218330   3.397   0.102   5.690
 5811SOL     OW18331   2.786   3.905   6.193
 5811SOL    HW118332   2.811   3.936   6.101
 5811SOL    HW218333   2.828   3.964   6.261
 5812SOL     OW18334   5.776   2.124   0.493
 5812SOL    HW118335   5.703   2.107   0.427
 5812SOL    HW218336   5.863   2.137   0.444
 5813SOL     OW18337   4.991   6.370   0.394
 5813SOL    HW118338   4.924   6.443   0.400
 5813SOL    HW218339   4.958   6.299   0.331
 5814SOL     OW18340   5.165   1.509   1.002
 5814SOL    HW118341   5.078   1.549   1.033
 5814SOL    HW218342   5.239   1.573   1.021
 5815SOL     OW18343   6.616   1.752   4.242
 5815SOL    HW118344   6.557   1.691   4.294
 5815SOL    HW218345   6.657   1.819   4.305
 5816SOL     OW18346   0.305   3.371   2.617
 5816SOL    HW118347   0.378   3.346   2.682
 5816SOL    HW218348   0.339   3.440   2.554
 5817SOL     OW18349   6.440   3.244   3.246
 5817SOL    HW118350   6.497   3.292   3.180
 5817SOL    HW218351   6.453   3.284   3.337
 5818SOL     OW18352   2.331   0.320   5.401
 5818SOL    HW118353   2.307   0.235   5.449
 5818SOL    HW218354   2.329   0.304   5.302
 5819SOL     OW18355   4.547   5.496   0.226
 5819SOL    HW118356   4.519   5.461   0.137
 5819SOL    HW218357   4.512   5.435   0.298
 5820SOL     OW18358   5.308   5.972   2.383
 5820SOL    HW118359   5.399   5.930   2.389
 5820SOL    HW218360   5.311   6.051   2.323
 5821SOL     OW18361   0.077   0.101   1.009
 5821SOL    HW118362   0.141   0.041   1.057
 5821SOL    HW218363   0.062   0.185   1.062
 5822SOL     OW18364   1.706   3.422   2.809
 5822SOL    HW118365   1.800   3.402   2.783
 5822SOL    HW218366   1.645   3.355   2.766
 5823SOL     OW18367   2.111   5.432   3.671
 5823SOL    HW118368   2.086   5.374   3.749
 5823SOL    HW218369   2.169   5.507   3.703
 5824SOL     OW18370   1.025   0.577   2.428
 5824SOL    HW118371   1.094   0.585   2.356
 5824SOL    HW218372   0.991   0.668   2.451
 5825SOL     OW18373   5.702   0.939   4.638
 5825SOL    HW118374   5.655   0.860   4.678
 5825SOL    HW218375   5.721   0.922   4.542
 5826SOL     OW18376   0.171   6.998   5.456
 5826SOL    HW118377   0.217   0.041   5.396
 5826SOL    HW218378   0.139   0.023   5.539
 5827SOL     OW18379   2.029   4.308   4.553
 5827SOL    HW118380   2.050   4.349   4.464
 5827SOL    HW218381   2.080   4.222   4.563
 5828SOL     OW18382   3.880   6.970   4.913
 5828SOL    HW118383   3.864   6.992   5.010
 5828SOL    HW218384   3.942   0.015   4.874
 5829SOL     OW18385   2.262   1.039   4.266
 5829SOL    HW118386   2.353   1.065   4.231
 5829SOL    HW218387   2.242   0.945   4.237
 5830SOL     OW18388   3.571   5.778   4.403
 5830SOL    HW118389   3.611   5.833   4.476
 5830SOL    HW218390   3.503   5.716   4.442
 5831SOL     OW18391   1.468   2.044   5.267
 5831SOL    HW118392   1.538   2.074   5.333
 5831SOL    HW218393   1.511   2.028   5.178
 5832SOL     OW18394   2.962   5.440   1.780
 5832SOL    HW118395   2.953   5.364   1.845
 5832SOL    HW218396   2.872   5.474   1.755
 5833SOL     OW18397   3.451   4.619   6.679
 5833SOL    HW118398   3.364   4.656   6.645
 5833SOL    HW218399   3.438   4.522   6.702
 5834SOL     OW18400   5.751   2.749   6.186
 5834SOL    HW118401   5.728   2.835   6.230
 5834SOL    HW218402   5.714   2.748   6.093
 5835SOL     OW18403   5.380   1.794   2.830
 5835SOL    HW118404   5.399   1.809   2.927
 5835SOL    HW218405   5.337   1.876   2.791
 5836SOL     OW18406   4.981   6.715   3.723
 5836SOL    HW118407   5.072   6.725   3.682
 5836SOL    HW218408   4.974   6.775   3.803
 5837SOL     OW18409   3.091   5.370   6.782
 5837SOL    HW118410   3.115   5.329   6.870
 5837SOL    HW218411   3.048   5.459   6.797
 5838SOL     OW18412   2.921   2.320   1.321
 5838SOL    HW118413   2.954   2.259   1.248
 5838SOL    HW218414   2.996   2.339   1.384
 5839SOL     OW18415   1.989   1.982   1.009
 5839SOL    HW118416   1.939   1.897   1.023
 5839SOL    HW218417   2.083   1.971   1.041
 5840SOL     OW18418   0.623   2.892   3.245
 5840SOL    HW118419   0.685   2.835   3.190
 5840SOL    HW218420   0.660   2.985   3.250
 5841SOL     OW18421   5.149   1.971   0.485
 5841SOL    HW118422   5.081   2.031   0.445
 5841SOL    HW218423   5.203   2.022   0.552
 5842SOL     OW18424   2.500   2.205   1.136
 5842SOL    HW118425   2.538   2.271   1.070
 5842SOL    HW218426   2.560   2.200   1.216
 5843SOL     OW18427   2.240   3.848   1.061
 5843SOL    HW118428   2.197   3.760   1.044
 5843SOL    HW218429   2.203   3.888   1.145
 5844SOL     OW18430   0.892   6.685   5.163
 5844SOL    HW118431   0.968   6.626   5.192
 5844SOL    HW218432   0.871   6.751   5.235
 5845SOL     OW18433   1.310   6.932   2.283
 5845SOL    HW118434   1.310   6.927   2.184
 5845SOL    HW218435   1.399   6.966   2.315
 5846SOL     OW18436   6.069   3.989   6.021
 5846SOL    HW118437   6.126   3.908   6.027
 5846SOL    HW218438   6.076   4.028   5.929
 5847SOL     OW18439   2.495   3.963   0.424
 5847SOL    HW118440   2.420   3.923   0.477
 5847SOL    HW218441   2.509   4.058   0.453
 5848SOL     OW18442   1.523   4.945   2.412
 5848SOL    HW118443   1.496   4.904   2.325
 5848SOL    HW218444   1.592   5.015   2.397
 5849SOL     OW18445   3.729   5.837   5.529
 5849SOL    HW118446   3.657   5.889   5.482
 5849SOL    HW218447   3.804   5.820   5.465
 5850SOL     OW18448   1.312   1.666   2.907
 5850SOL    HW118449   1.225   1.624   2.933
 5850SOL    HW218450   1.367   1.601   2.856
 5851SOL     OW18451   6.449   3.890   4.314
 5851SOL    HW118452   6.361   3.937   4.312
 5851SOL    HW218453   6.499   3.910   4.230
 5852SOL     OW18454   4.682   4.156   2.706
 5852SOL    HW118455   4.584   4.141   2.718
 5852SOL    HW218456   4.698   4.207   2.621
 5853SOL     OW18457   3.447   5.042   5.825
 5853SOL    HW118458   3.487   4.988   5.751
 5853SOL    HW218459   3.353   5.066   5.802
 5854SOL     OW18460   2.909   4.694   5.376
 5854SOL    HW118461   2.925   4.636   5.296
 5854SOL    HW218462   2.811   4.706   5.389
 5855SOL     OW18463   2.171   3.266   2.959
 5855SOL    HW118464   2.177   3.307   3.049
 5855SOL    HW218465   2.210   3.174   2.961
 5856SOL     OW18466   1.528   6.556   3.100
 5856SOL    HW118467   1.503   6.653   3.097
 5856SOL    HW218468   1.608   6.544   3.158
 5857SOL     OW18469   5.873   4.186   6.652
 5857SOL    HW118470   5.902   4.210   6.559
 5857SOL    HW218471   5.779   4.217   6.666
 5858SOL     OW18472   1.901   0.645   3.445
 5858SOL    HW118473   1.901   0.737   3.485
 5858SOL    HW218474   1.859   0.581   3.510
 5859SOL     OW18475   6.283   6.987   1.397
 5859SOL    HW118476   6.360   6.924   1.409
 5859SOL    HW218477   6.218   6.973   1.472
 5860SOL     OW18478   0.394   4.645   3.349
 5860SOL    HW118479   0.399   4.567   3.286
 5860SOL    HW218480   0.408   4.730   3.297
 5861SOL     OW18481   5.063   1.012   6.061
 5861SOL    HW118482   4.996   1.078   6.027
 5861SOL    HW218483   5.073   1.022   6.160
 5862SOL     OW18484   6.976   5.844   1.940
 5862SOL    HW118485   0.045   5.877   1.914
 5862SOL    HW218486   6.976   5.744   1.940
 5863SOL     OW18487   4.487   0.279   5.965
 5863SOL    HW118488   4.411   0.244   5.910
 5863SOL    HW218489   4.451   0.326   6.045
 5864SOL     OW18490   3.271   3.755   2.568
 5864SOL    HW118491   3.352   3.808   2.594
 5864SOL    HW218492   3.197   3.817   2.546
 5865SOL     OW18493   6.360   0.554   5.704
 5865SOL    HW118494   6.389   0.460   5.719
 5865SOL    HW218495   6.316   0.588   5.786
 5866SOL     OW18496   3.891   3.099   3.227
 5866SOL    HW118497   3.975   3.150   3.245
 5866SOL    HW218498   3.817   3.162   3.206
 5867SOL     OW18499   3.615   1.876   1.591
 5867SOL    HW118500   3.699   1.824   1.580
 5867SOL    HW218501   3.636   1.974   1.590
 5868SOL     OW18502   1.212   1.232   5.784
 5868SOL    HW118503   1.284   1.163   5.771
 5868SOL    HW218504   1.131   1.206   5.731
 5869SOL     OW18505   0.496   5.615   3.798
 5869SOL    HW118506   0.591   5.645   3.802
 5869SOL    HW218507   0.484   5.534   3.855
 5870SOL     OW18508   4.139   5.312   4.326
 5870SOL    HW118509   4.163   5.396   4.277
 5870SOL    HW218510   4.198   5.237   4.294
 5871SOL     OW18511   2.956   3.839   4.220
 5871SOL    HW118512   3.009   3.847   4.135
 5871SOL    HW218513   2.859   3.839   4.199
 5872SOL     OW18514   4.883   5.389   1.667
 5872SOL    HW118515   4.816   5.367   1.597
 5872SOL    HW218516   4.838   5.433   1.745
 5873SOL     OW18517   4.225   5.700   2.357
 5873SOL    HW118518   4.214   5.617   2.412
 5873SOL    HW218519   4.137   5.726   2.318
 5874SOL     OW18520   2.302   4.354   5.923
 5874SOL    HW118521   2.396   4.379   5.899
 5874SOL    HW218522   2.303   4.295   6.004
 5875SOL     OW18523   2.701   1.411   1.009
 5875SOL    HW118524   2.738   1.478   1.073
 5875SOL    HW218525   2.674   1.329   1.059
 5876SOL     OW18526   3.517   3.178   2.002
 5876SOL    HW118527   3.493   3.184   2.099
 5876SOL    HW218528   3.515   3.270   1.962
 5877SOL     OW18529   5.462   4.363   0.787
 5877SOL    HW118530   5.516   4.289   0.827
 5877SOL    HW218531   5.517   4.447   0.785
 5878SOL     OW18532   2.101   5.029   2.698
 5878SOL    HW118533   2.168   4.956   2.706
 5878SOL    HW218534   2.024   5.011   2.759
 5879SOL     OW18535   0.165   4.403   5.321
 5879SOL    HW118536   0.237   4.457   5.366
 5879SOL    HW218537   0.183   4.306   5.335
 5880SOL     OW18538   2.510   5.754   1.008
 5880SOL    HW118539   2.468   5.731   1.095
 5880SOL    HW218540   2.529   5.671   0.956
 5881SOL     OW18541   0.620   5.790   4.286
 5881SOL    HW118542   0.612   5.887   4.268
 5881SOL    HW218543   0.596   5.771   4.382
 5882SOL     OW18544   4.456   1.218   1.714
 5882SOL    HW118545   4.432   1.221   1.617
 5882SOL    HW218546   4.430   1.303   1.758
 5883SOL     OW18547   0.372   3.620   5.658
 5883SOL    HW118548   0.463   3.609   5.698
 5883SOL    HW218549   0.367   3.571   5.571
 5884SOL     OW18550   1.468   1.101   2.747
 5884SOL    HW118551   1.433   1.165   2.816
 5884SOL    HW218552   1.567   1.108   2.742
 5885SOL     OW18553   5.901   6.754   1.386
 5885SOL    HW118554   5.883   6.665   1.344
 5885SOL    HW218555   5.849   6.824   1.337
 5886SOL     OW18556   1.439   1.535   6.178
 5886SOL    HW118557   1.464   1.494   6.091
 5886SOL    HW218558   1.362   1.598   6.164
 5887SOL     OW18559   3.801   0.039   4.491
 5887SOL    HW118560   3.774   7.015   4.576
 5887SOL    HW218561   3.896   0.019   4.471
 5888SOL     OW18562   2.580   0.373   3.702
 5888SOL    HW118563   2.658   0.310   3.709
 5888SOL    HW218564   2.554   0.382   3.606
 5889SOL     OW18565   2.628   0.576   0.649
 5889SOL    HW118566   2.599   0.590   0.743
 5889SOL    HW218567   2.560   0.521   0.600
 5890SOL     OW18568   3.062   4.447   6.075
 5890SOL    HW118569   2.995   4.510   6.035
 5890SOL    HW218570   3.015   4.381   6.134
 5891SOL     OW18571   2.998   3.932   6.697
 5891SOL    HW118572   3.035   3.943   6.789
 5891SOL    HW218573   2.913   3.985   6.689
 5892SOL     OW18574   0.898   6.876   1.589
 5892SOL    HW118575   0.910   6.900   1.686
 5892SOL    HW218576   0.952   6.939   1.533
 5893SOL     OW18577   1.488   0.290   3.603
 5893SOL    HW118578   1.551   0.221   3.569
 5893SOL    HW218579   1.422   0.313   3.532
 5894SOL     OW18580   1.440   3.526   3.298
 5894SOL    HW118581   1.514   3.569   3.350
 5894SOL    HW218582   1.435   3.568   3.207
 5895SOL     OW18583   5.360   3.698   3.759
 5895SOL    HW118584   5.439   3.698   3.820
 5895SOL    HW218585   5.290   3.760   3.796
 5896SOL     OW18586   3.605   2.224   6.110
 5896SOL    HW118587   3.558   2.144   6.072
 5896SOL    HW218588   3.662   2.265   6.040
 5897SOL     OW18589   4.231   0.176   1.156
 5897SOL    HW118590   4.286   0.251   1.119
 5897SOL    HW218591   4.165   0.146   1.087
 5898SOL     OW18592   1.950   6.982   2.347
 5898SOL    HW118593   1.988   6.935   2.427
 5898SOL    HW218594   1.890   0.033   2.377
 5899SOL     OW18595   5.387   0.106   4.393
 5899SOL    HW118596   5.480   0.140   4.409
 5899SOL    HW218597   5.321   0.174   4.426
 5900SOL     OW18598   4.559   5.162   3.039
 5900SOL    HW118599   4.525   5.080   3.084
 5900SOL    HW218600   4.490   5.196   2.975
 5901SOL     OW18601   2.841   6.645   4.969
 5901SOL    HW118602   2.742   6.645   4.954
 5901SOL    HW218603   2.877   6.554   4.951
 5902SOL     OW18604   6.310   1.914   6.493
 5902SOL    HW118605   6.404   1.898   6.463
 5902SOL    HW218606   6.274   1.831   6.537
 5903SOL     OW18607   5.791   3.083   6.567
 5903SOL    HW118608   5.825   3.011   6.507
 5903SOL    HW218609   5.817   3.172   6.529
 5904SOL     OW18610   6.860   3.747   2.638
 5904SOL    HW118611   6.824   3.800   2.715
 5904SOL    HW218612   6.917   3.805   2.580
 5905SOL     OW18613   0.005   5.583   1.995
 5905SOL    HW118614   7.022   5.613   2.091
 5905SOL    HW218615   0.042   5.490   1.992
 5906SOL     OW18616   5.983   1.221   3.839
 5906SOL    HW118617   5.901   1.168   3.819
 5906SOL    HW218618   5.957   1.309   3.878
 5907SOL     OW18619   1.792   5.723   1.852
 5907SOL    HW118620   1.741   5.805   1.825
 5907SOL    HW218621   1.854   5.696   1.778
 5908SOL     OW18622   6.609   3.419   5.893
 5908SOL    HW118623   6.685   3.358   5.868
 5908SOL    HW218624   6.537   3.413   5.823
 5909SOL     OW18625   6.820   5.197   0.848
 5909SOL    HW118626   6.812   5.274   0.912
 5909SOL    HW218627   6.843   5.231   0.757
 5910SOL     OW18628   2.617   1.905   3.472
 5910SOL    HW118629   2.701   1.877   3.427
 5910SOL    HW218630   2.632   1.912   3.571
 5911SOL     OW18631   6.528   6.221   6.180
 5911SOL    HW118632   6.495   6.158   6.110
 5911SOL    HW218633   6.626   6.210   6.191
 5912SOL     OW18634   0.417   0.929   3.486
 5912SOL    HW118635   0.378   0.983   3.411
 5912SOL    HW218636   0.432   0.989   3.565
 5913SOL     OW18637   5.842   1.986   6.551
 5913SOL    HW118638   5.786   1.920   6.600
 5913SOL    HW218639   5.838   1.968   6.453
 5914SOL     OW18640   1.225   6.612   0.121
 5914SOL    HW118641   1.129   6.632   0.100
 5914SOL    HW218642   1.276   6.698   0.128
 5915SOL     OW18643   4.298   1.893   6.508
 5915SOL    HW118644   4.204   1.896   6.474
 5915SOL    HW218645   4.349   1.972   6.474
 5916SOL     OW18646   1.102   6.125   2.599
 5916SOL    HW118647   1.158   6.095   2.522
 5916SOL    HW218648   1.056   6.210   2.575
 5917SOL     OW18649   3.489   4.415   0.355
 5917SOL    HW118650   3.415   4.374   0.407
 5917SOL    HW218651   3.549   4.343   0.319
 5918SOL     OW18652   3.130   6.049   5.593
 5918SOL    HW118653   3.122   6.139   5.636
 5918SOL    HW218654   3.216   6.007   5.621
 5919SOL     OW18655   3.911   3.128   3.509
 5919SOL    HW118656   3.925   3.047   3.452
 5919SOL    HW218657   3.824   3.121   3.557
 5920SOL     OW18658   6.874   7.010   5.509
 5920SOL    HW118659   6.922   6.971   5.430
 5920SOL    HW218660   6.940   0.012   5.579
 5921SOL     OW18661   3.092   4.809   6.356
 5921SOL    HW118662   3.154   4.783   6.430
 5921SOL    HW218663   3.046   4.895   6.380
 5922SOL     OW18664   5.343   3.747   3.436
 5922SOL    HW118665   5.323   3.654   3.405
 5922SOL    HW218666   5.326   3.753   3.535
 5923SOL     OW18667   6.665   0.267   1.866
 5923SOL    HW118668   6.589   0.254   1.929
 5923SOL    HW218669   6.749   0.231   1.907
 5924SOL     OW18670   5.957   0.622   3.382
 5924SOL    HW118671   5.950   0.618   3.282
 5924SOL    HW218672   5.868   0.648   3.421
 5925SOL     OW18673   4.818   6.092   1.333
 5925SOL    HW118674   4.808   6.113   1.430
 5925SOL    HW218675   4.817   5.993   1.319
 5926SOL     OW18676   4.143   5.704   3.432
 5926SOL    HW118677   4.119   5.722   3.527
 5926SOL    HW218678   4.191   5.616   3.425
 5927SOL     OW18679   0.818   4.483   1.764
 5927SOL    HW118680   0.794   4.521   1.853
 5927SOL    HW218681   0.736   4.470   1.709
 5928SOL     OW18682   3.570   0.507   0.793
 5928SOL    HW118683   3.541   0.510   0.888
 5928SOL    HW218684   3.498   0.466   0.737
 5929SOL     OW18685   1.007   0.895   6.482
 5929SOL    HW118686   0.934   0.946   6.527
 5929SOL    HW218687   1.028   0.937   6.394
 5930SOL     OW18688   1.312   3.526   2.218
 5930SOL    HW118689   1.408   3.504   2.233
 5930SOL    HW218690   1.291   3.614   2.261
 5931SOL     OW18691   5.200   6.240   3.648
 5931SOL    HW118692   5.180   6.324   3.699
 5931SOL    HW218693   5.114   6.200   3.615
 5932SOL     OW18694   2.791   1.481   6.968
 5932SOL    HW118695   2.733   1.499   6.889
 5932SOL    HW218696   2.819   1.385   6.968
 5933SOL     OW18697   6.586   6.031   3.830
 5933SOL    HW118698   6.681   6.063   3.828
 5933SOL    HW218699   6.525   6.110   3.819
 5934SOL     OW18700   2.985   3.877   5.769
 5934SOL    HW118701   2.965   3.779   5.767
 5934SOL    HW218702   2.985   3.913   5.675
 5935SOL     OW18703   6.856   6.152   5.645
 5935SOL    HW118704   6.876   6.240   5.689
 5935SOL    HW218705   6.832   6.168   5.549
 5936SOL     OW18706   3.344   3.058   1.806
 5936SOL    HW118707   3.411   3.075   1.878
 5936SOL    HW218708   3.275   3.130   1.807
 5937SOL     OW18709   6.776   3.232   1.564
 5937SOL    HW118710   6.784   3.331   1.562
 5937SOL    HW218711   6.860   3.192   1.599
 5938SOL     OW18712   0.248   5.172   5.136
 5938SOL    HW118713   0.247   5.074   5.118
 5938SOL    HW218714   0.252   5.221   5.048
 5939SOL     OW18715   3.907   0.474   4.898
 5939SOL    HW118716   3.908   0.450   4.801
 5939SOL    HW218717   3.931   0.570   4.909
 5940SOL     OW18718   4.698   5.993   2.782
 5940SOL    HW118719   4.729   6.088   2.795
 5940SOL    HW218720   4.745   5.934   2.847
 5941SOL     OW18721   6.661   1.750   1.847
 5941SOL    HW118722   6.620   1.660   1.860
 5941SOL    HW218723   6.589   1.818   1.836
 5942SOL     OW18724   5.483   3.581   5.667
 5942SOL    HW118725   5.580   3.557   5.666
 5942SOL    HW218726   5.461   3.628   5.753
 5943SOL     OW18727   3.066   4.226   1.582
 5943SOL    HW118728   2.979   4.234   1.630
 5943SOL    HW218729   3.131   4.174   1.637
 5944SOL     OW18730   0.598   3.444   6.513
 5944SOL    HW118731   0.683   3.489   6.539
 5944SOL    HW218732   0.602   3.419   6.416
 5945SOL     OW18733   6.837   5.725   5.472
 5945SOL    HW118734   6.754   5.682   5.436
 5945SOL    HW218735   6.916   5.672   5.443
 5946SOL     OW18736   3.220   4.072   0.893
 5946SOL    HW118737   3.233   4.127   0.976
 5946SOL    HW218738   3.128   4.034   0.893
 5947SOL     OW18739   3.679   2.834   4.936
 5947SOL    HW118740   3.688   2.816   5.034
 5947SOL    HW218741   3.654   2.750   4.889
 5948SOL     OW18742   5.091   3.904   1.754
 5948SOL    HW118743   5.173   3.924   1.808
 5948SOL    HW218744   5.116   3.898   1.658
 5949SOL     OW18745   0.398   4.302   1.850
 5949SOL    HW118746   0.357   4.217   1.818
 5949SOL    HW218747   0.337   4.346   1.916
 5950SOL     OW18748   4.815   1.446   5.581
 5950SOL    HW118749   4.743   1.501   5.624
 5950SOL    HW218750   4.894   1.440   5.643
 5951SOL     OW18751   1.094   4.482   6.411
 5951SOL    HW118752   1.121   4.513   6.320
 5951SOL    HW218753   1.146   4.400   6.436
 5952SOL     OW18754   4.161   5.201   1.141
 5952SOL    HW118755   4.221   5.129   1.176
 5952SOL    HW218756   4.174   5.210   1.042
 5953SOL     OW18757   5.956   2.632   4.735
 5953SOL    HW118758   5.952   2.714   4.677
 5953SOL    HW218759   6.004   2.560   4.686
 5954SOL     OW18760   1.139   6.378   4.504
 5954SOL    HW118761   1.133   6.396   4.406
 5954SOL    HW218762   1.234   6.361   4.530
 5955SOL     OW18763   5.840   3.497   0.926
 5955SOL    HW118764   5.780   3.450   0.862
 5955SOL    HW218765   5.786   3.559   0.983
 5956SOL     OW18766   5.056   2.637   4.138
 5956SOL    HW118767   5.033   2.561   4.078
 5956SOL    HW218768   5.024   2.723   4.097
 5957SOL     OW18769   0.771   1.254   2.288
 5957SOL    HW118770   0.778   1.311   2.369
 5957SOL    HW218771   0.677   1.222   2.277
 5958SOL     OW18772   3.832   6.839   2.771
 5958SOL    HW118773   3.859   6.745   2.790
 5958SOL    HW218774   3.809   6.848   2.674
 5959SOL     OW18775   5.312   2.116   4.399
 5959SOL    HW118776   5.303   2.187   4.330
 5959SOL    HW218777   5.392   2.134   4.456
 5960SOL     OW18778   4.296   0.083   6.250
 5960SOL    HW118779   4.333   0.066   6.342
 5960SOL    HW218780   4.371   0.081   6.184
 5961SOL     OW18781   2.953   1.691   2.960
 5961SOL    HW118782   3.029   1.755   2.952
 5961SOL    HW218783   2.919   1.667   2.869
 5962SOL     OW18784   5.582   6.286   6.942
 5962SOL    HW118785   5.636   6.259   7.021
 5962SOL    HW218786   5.642   6.321   6.870
 5963SOL     OW18787   3.542   4.164   6.983
 5963SOL    HW118788   3.516   4.096   0.030
 5963SOL    HW218789   3.524   4.256   7.018
 5964SOL     OW18790   2.134   5.977   2.741
 5964SOL    HW118791   2.151   6.053   2.804
 5964SOL    HW218792   2.051   5.928   2.769
 5965SOL     OW18793   1.659   6.806   0.351
 5965SOL    HW118794   1.639   6.882   0.289
 5965SOL    HW218795   1.723   6.836   0.421
 5966SOL     OW18796   2.024   1.011   5.084
 5966SOL    HW118797   2.003   1.074   5.159
 5966SOL    HW218798   2.109   1.039   5.040
 5967SOL     OW18799   2.536   1.468   4.228
 5967SOL    HW118800   2.494   1.398   4.286
 5967SOL    HW218801   2.532   1.557   4.274
 5968SOL     OW18802   5.762   2.407   1.295
 5968SOL    HW118803   5.763   2.466   1.214
 5968SOL    HW218804   5.689   2.435   1.356
 5969SOL     OW18805   5.214   0.783   0.162
 5969SOL    HW118806   5.177   0.764   0.253
 5969SOL    HW218807   5.291   0.723   0.144
 5970SOL     OW18808   6.927   3.262   0.504
 5970SOL    HW118809   6.942   3.361   0.501
 5970SOL    HW218810   6.974   3.223   0.583
 5971SOL     OW18811   0.155   0.023   3.535
 5971SOL    HW118812   0.237   0.001   3.482
 5971SOL    HW218813   0.181   0.056   3.625
 5972SOL     OW18814   5.168   4.904   1.215
 5972SOL    HW118815   5.137   4.809   1.225
 5972SOL    HW218816   5.204   4.936   1.303
 5973SOL     OW18817   1.634   2.568   2.702
 5973SOL    HW118818   1.654   2.618   2.618
 5973SOL    HW218819   1.680   2.612   2.779
 5974SOL     OW18820   4.704   1.888   5.686
 5974SOL    HW118821   4.648   1.970   5.694
 5974SOL    HW218822   4.722   1.850   5.777
 5975SOL     OW18823   5.722   5.515   0.591
 5975SOL    HW118824   5.765   5.509   0.681
 5975SOL    HW218825   5.725   5.609   0.559
 5976SOL     OW18826   2.927   3.600   5.765
 5976SOL    HW118827   2.853   3.534   5.777
 5976SOL    HW218828   3.015   3.552   5.768
 5977SOL     OW18829   0.172   5.266   0.068
 5977SOL    HW118830   0.221   5.351   0.083
 5977SOL    HW218831   0.094   5.261   0.129
 5978SOL     OW18832   3.175   5.050   0.300
 5978SOL    HW118833   3.090   5.071   0.348
 5978SOL    HW218834   3.186   5.112   0.223
 5979SOL     OW18835   6.423   0.240   1.512
 5979SOL    HW118836   6.420   0.177   1.435
 5979SOL    HW218837   6.330   0.263   1.540
 5980SOL     OW18838   3.483   3.219   1.588
 5980SOL    HW118839   3.441   3.303   1.623
 5980SOL    HW218840   3.412   3.150   1.575
 5981SOL     OW18841   2.915   2.168   0.147
 5981SOL    HW118842   2.842   2.215   0.097
 5981SOL    HW218843   2.874   2.096   0.204
 5982SOL     OW18844   6.143   2.426   1.904
 5982SOL    HW118845   6.239   2.413   1.929
 5982SOL    HW218846   6.133   2.514   1.858
 5983SOL     OW18847   0.224   0.726   3.902
 5983SOL    HW118848   0.194   0.631   3.900
 5983SOL    HW218849   0.165   0.778   3.963
 5984SOL     OW18850   6.388   6.314   3.329
 5984SOL    HW118851   6.330   6.388   3.296
 5984SOL    HW218852   6.480   6.348   3.347
 5985SOL     OW18853   6.031   2.439   2.765
 5985SOL    HW118854   6.059   2.453   2.860
 5985SOL    HW218855   5.934   2.459   2.756
 5986SOL     OW18856   4.170   3.605   5.468
 5986SOL    HW118857   4.189   3.580   5.564
 5986SOL    HW218858   4.167   3.522   5.412
 5987SOL     OW18859   6.620   0.675   5.729
 5987SOL    HW118860   6.613   0.774   5.735
 5987SOL    HW218861   6.541   0.638   5.682
 5988SOL     OW18862   1.656   2.296   6.711
 5988SOL    HW118863   1.567   2.338   6.732
 5988SOL    HW218864   1.673   2.221   6.775
 5989SOL     OW18865   0.525   5.994   0.038
 5989SOL    HW118866   0.568   5.972   0.125
 5989SOL    HW218867   0.567   6.076   7.022
 5990SOL     OW18868   4.019   4.960   1.487
 5990SOL    HW118869   4.115   4.988   1.487
 5990SOL    HW218870   4.012   4.868   1.450
 5991SOL     OW18871   5.042   6.420   0.813
 5991SOL    HW118872   4.967   6.378   0.763
 5991SOL    HW218873   5.047   6.517   0.790
 5992SOL     OW18874   3.070   0.464   1.974
 5992SOL    HW118875   3.057   0.557   1.939
 5992SOL    HW218876   3.098   0.404   1.899
 5993SOL     OW18877   6.058   1.900   6.981
 5993SOL    HW118878   6.097   1.903   0.050
 5993SOL    HW218879   6.129   1.921   6.914
 5994SOL     OW18880   0.398   3.064   0.111
 5994SOL    HW118881   0.468   3.076   0.041
 5994SOL    HW218882   0.428   2.996   0.178
 5995SOL     OW18883   5.201   3.480   1.116
 5995SOL    HW118884   5.209   3.456   1.020
 5995SOL    HW218885   5.199   3.396   1.171
 5996SOL     OW18886   2.573   5.278   0.995
 5996SOL    HW118887   2.490   5.231   1.024
 5996SOL    HW218888   2.553   5.336   0.916
 5997SOL     OW18889   0.142   0.206   3.330
 5997SOL    HW118890   0.081   0.285   3.321
 5997SOL    HW218891   0.115   0.151   3.409
 5998SOL     OW18892   6.676   0.135   1.164
 5998SOL    HW118893   6.696   0.153   1.068
 5998SOL    HW218894   6.713   0.045   1.189
 5999SOL     OW18895   4.634   2.963   1.417
 5999SOL    HW118896   4.669   2.876   1.451
 5999SOL    HW218897   4.622   3.027   1.494
 6000SOL     OW18898   6.964   4.927   0.285
 6000SOL    HW118899   0.031   4.967   0.304
 6000SOL    HW218900   6.929   4.883   0.367
 6001SOL     OW18901   5.836   6.357   5.249
 6001SOL    HW118902   5.878   6.423   5.187
 6001SOL    HW218903   5.902   6.285   5.270
 6002SOL     OW18904   5.779   6.105   5.075
 6002SOL    HW118905   5.806   6.114   4.980
 6002SOL    HW218906   5.850   6.056   5.126
 6003SOL     OW18907   0.139   2.982   4.317
 6003SOL    HW118908   0.099   2.935   4.238
 6003SOL    HW218909   0.095   3.071   4.328
 6004SOL     OW18910   5.499   3.006   3.707
 6004SOL    HW118911   5.451   3.022   3.620
 6004SOL    HW218912   5.598   3.003   3.689
 6005SOL     OW18913   3.781   5.299   6.152
 6005SOL    HW118914   3.766   5.243   6.234
 6005SOL    HW218915   3.707   5.282   6.086
 6006SOL     OW18916   3.617   5.769   5.778
 6006SOL    HW118917   3.687   5.756   5.848
 6006SOL    HW218918   3.659   5.772   5.688
 6007SOL     OW18919   1.625   5.463   5.341
 6007SOL    HW118920   1.689   5.541   5.339
 6007SOL    HW218921   1.571   5.467   5.424
 6008SOL     OW18922   2.924   4.578   5.866
 6008SOL    HW118923   3.012   4.570   5.820
 6008SOL    HW218924   2.871   4.653   5.826
 6009SOL     OW18925   4.050   5.420   3.545
 6009SOL    HW118926   3.992   5.340   3.532
 6009SOL    HW218927   4.145   5.397   3.526
 6010SOL     OW18928   0.395   5.457   5.135
 6010SOL    HW118929   0.403   5.358   5.139
 6010SOL    HW218930   0.480   5.499   5.167
 6011SOL     OW18931   6.660   2.263   2.168
 6011SOL    HW118932   6.564   2.248   2.143
 6011SOL    HW218933   6.674   2.359   2.191
 6012SOL     OW18934   6.966   0.309   5.831
 6012SOL    HW118935   0.034   0.349   5.842
 6012SOL    HW218936   6.906   0.374   5.784
 6013SOL     OW18937   5.810   1.309   2.283
 6013SOL    HW118938   5.786   1.217   2.251
 6013SOL    HW218939   5.741   1.374   2.251
 6014SOL     OW18940   3.931   3.074   4.099
 6014SOL    HW118941   3.894   3.151   4.152
 6014SOL    HW218942   3.998   3.025   4.154
 6015SOL     OW18943   6.715   1.537   4.925
 6015SOL    HW118944   6.727   1.629   4.964
 6015SOL    HW218945   6.631   1.497   4.961
 6016SOL     OW18946   5.358   1.671   4.408
 6016SOL    HW118947   5.340   1.585   4.456
 6016SOL    HW218948   5.304   1.744   4.450
 6017SOL     OW18949   0.251   2.737   5.746
 6017SOL    HW118950   0.253   2.784   5.658
 6017SOL    HW218951   0.175   2.771   5.801
 6018SOL     OW18952   3.530   1.263   6.207
 6018SOL    HW118953   3.614   1.317   6.201
 6018SOL    HW218954   3.476   1.294   6.286
 6019SOL     OW18955   6.847   3.759   6.880
 6019SOL    HW118956   6.925   3.700   6.860
 6019SOL    HW218957   6.808   3.734   6.968
 6020SOL     OW18958   0.802   4.149   0.270
 6020SOL    HW118959   0.755   4.118   0.353
 6020SOL    HW218960   0.767   4.099   0.191
 6021SOL     OW18961   4.431   0.506   3.275
 6021SOL    HW118962   4.483   0.581   3.234
 6021SOL    HW218963   4.352   0.485   3.217
 6022SOL     OW18964   6.451   1.878   1.770
 6022SOL    HW118965   6.447   1.839   1.678
 6022SOL    HW218966   6.372   1.847   1.823
 6023SOL     OW18967   4.668   0.981   1.362
 6023SOL    HW118968   4.671   1.077   1.390
 6023SOL    HW218969   4.639   0.925   1.440
 6024SOL     OW18970   0.713   5.279   0.315
 6024SOL    HW118971   0.746   5.366   0.278
 6024SOL    HW218972   0.622   5.260   0.278
 6025SOL     OW18973   2.458   1.260   4.373
 6025SOL    HW118974   2.491   1.175   4.333
 6025SOL    HW218975   2.404   1.240   4.455
 6026SOL     OW18976   6.224   4.300   4.089
 6026SOL    HW118977   6.278   4.297   4.004
 6026SOL    HW218978   6.185   4.391   4.100
 6027SOL     OW18979   6.125   3.346   5.965
 6027SOL    HW118980   6.058   3.342   6.039
 6027SOL    HW218981   6.078   3.352   5.877
 6028SOL     OW18982   5.415   4.750   6.165
 6028SOL    HW118983   5.436   4.840   6.126
 6028SOL    HW218984   5.316   4.741   6.176
 6029SOL     OW18985   2.285   0.852   3.257
 6029SOL    HW118986   2.220   0.777   3.265
 6029SOL    HW218987   2.273   0.898   3.169
 6030SOL     OW18988   5.125   3.878   4.818
 6030SOL    HW118989   5.121   3.960   4.876
 6030SOL    HW218990   5.047   3.819   4.838
 6031SOL     OW18991   0.388   6.159   5.316
 6031SOL    HW118992   0.458   6.230   5.307
 6031SOL    HW218993   0.386   6.125   5.410
 6032SOL     OW18994   3.191   5.336   3.684
 6032SOL    HW118995   3.102   5.353   3.724
 6032SOL    HW218996   3.256   5.405   3.716
 6033SOL     OW18997   1.966   1.623   2.678
 6033SOL    HW118998   1.981   1.576   2.591
 6033SOL    HW218999   2.008   1.714   2.674
 6034SOL     OW19000   1.666   0.553   6.798
 6034SOL    HW119001   1.720   0.494   6.859
 6034SOL    HW219002   1.614   0.618   6.853
 6035SOL     OW19003   1.923   0.923   2.902
 6035SOL    HW119004   1.971   0.923   2.989
 6035SOL    HW219005   1.915   0.829   2.867
 6036SOL     OW19006   6.156   3.002   0.505
 6036SOL    HW119007   6.086   3.040   0.444
 6036SOL    HW219008   6.235   3.065   0.508
 6037SOL     OW19009   4.463   2.528   0.916
 6037SOL    HW119010   4.560   2.524   0.938
 6037SOL    HW219011   4.450   2.567   0.825
 6038SOL     OW19012   0.821   2.416   6.106
 6038SOL    HW119013   0.782   2.402   6.197
 6038SOL    HW219014   0.886   2.343   6.085
 6039SOL     OW19015   3.029   3.841   3.964
 6039SOL    HW119016   3.057   3.928   3.924
 6039SOL    HW219017   3.017   3.773   3.892
 6040SOL     OW19018   0.912   1.729   6.977
 6040SOL    HW119019   0.983   1.758   6.913
 6040SOL    HW219020   0.828   1.779   6.959
 6041SOL     OW19021   3.196   3.065   6.246
 6041SOL    HW119022   3.126   3.110   6.302
 6041SOL    HW219023   3.229   3.129   6.177
 6042SOL     OW19024   3.208   5.472   3.341
 6042SOL    HW119025   3.194   5.460   3.243
 6042SOL    HW219026   3.124   5.448   3.390
 6043SOL     OW19027   2.010   0.564   4.006
 6043SOL    HW119028   1.946   0.606   4.070
 6043SOL    HW219029   1.975   0.575   3.913
 6044SOL     OW19030   1.114   2.245   1.636
 6044SOL    HW119031   1.154   2.190   1.709
 6044SOL    HW219032   1.083   2.333   1.674
 6045SOL     OW19033   4.856   2.439   3.442
 6045SOL    HW119034   4.859   2.448   3.541
 6045SOL    HW219035   4.822   2.524   3.402
 6046SOL     OW19036   3.420   3.173   2.569
 6046SOL    HW119037   3.449   3.243   2.634
 6046SOL    HW219038   3.381   3.095   2.619
 6047SOL     OW19039   5.934   1.565   0.855
 6047SOL    HW119040   5.992   1.487   0.835
 6047SOL    HW219041   5.840   1.534   0.872
 6048SOL     OW19042   5.576   5.977   4.633
 6048SOL    HW119043   5.547   6.006   4.541
 6048SOL    HW219044   5.511   5.910   4.669
 6049SOL     OW19045   4.441   4.694   5.332
 6049SOL    HW119046   4.352   4.718   5.371
 6049SOL    HW219047   4.478   4.615   5.381
 6050SOL     OW19048   3.588   5.690   1.282
 6050SOL    HW119049   3.640   5.747   1.345
 6050SOL    HW219050   3.531   5.626   1.334
 6051SOL     OW19051   1.199   1.077   3.270
 6051SOL    HW119052   1.129   1.041   3.209
 6051SOL    HW219053   1.288   1.071   3.226
 6052SOL     OW19054   5.658   0.019   0.363
 6052SOL    HW119055   5.702   0.058   0.444
 6052SOL    HW219056   5.726   6.988   0.312
 6053SOL     OW19057   4.115   2.390   6.107
 6053SOL    HW119058   4.106   2.369   6.010
 6053SOL    HW219059   4.105   2.489   6.121
 6054SOL     OW19060   3.979   4.502   0.709
 6054SOL    HW119061   4.005   4.415   0.751
 6054SOL    HW219062   3.882   4.518   0.725
 6055SOL     OW19063   3.407   4.813   0.573
 6055SOL    HW119064   3.461   4.771   0.500
 6055SOL    HW219065   3.370   4.741   0.632
 6056SOL     OW19066   5.890   4.815   4.987
 6056SOL    HW119067   5.944   4.841   4.907
 6056SOL    HW219068   5.951   4.799   5.065
 6057SOL     OW19069   5.015   0.450   3.085
 6057SOL    HW119070   5.052   0.542   3.068
 6057SOL    HW219071   4.984   0.445   3.180
 6058SOL     OW19072   5.660   2.227   6.314
 6058SOL    HW119073   5.590   2.175   6.362
 6058SOL    HW219074   5.617   2.299   6.259
 6059SOL     OW19075   4.710   4.385   6.399
 6059SOL    HW119076   4.723   4.481   6.374
 6059SOL    HW219077   4.786   4.331   6.362
 6060SOL     OW19078   2.966   2.922   0.325
 6060SOL    HW119079   2.883   2.886   0.281
 6060SOL    HW219080   2.980   3.017   0.298
 6061SOL     OW19081   3.858   4.840   0.495
 6061SOL    HW119082   3.839   4.844   0.593
 6061SOL    HW219083   3.821   4.922   0.450
 6062SOL     OW19084   2.283   2.858   0.618
 6062SOL    HW119085   2.236   2.817   0.697
 6062SOL    HW219086   2.371   2.813   0.605
 6063SOL     OW19087   3.644   5.229   5.917
 6063SOL    HW119088   3.653   5.306   5.853
 6063SOL    HW219089   3.555   5.185   5.904
 6064SOL     OW19090   6.953   6.532   0.798
 6064SOL    HW119091   6.879   6.597   0.814
 6064SOL    HW219092   0.006   6.551   0.860
 6065SOL     OW19093   1.305   5.753   2.110
 6065SOL    HW119094   1.394   5.794   2.129
 6065SOL    HW219095   1.263   5.797   2.030
 6066SOL     OW19096   5.060   0.217   3.524
 6066SOL    HW119097   5.079   0.120   3.537
 6066SOL    HW219098   5.107   0.270   3.595
 6067SOL     OW19099   5.805   0.474   5.863
 6067SOL    HW119100   5.708   0.450   5.862
 6067SOL    HW219101   5.844   0.462   5.772
 6068SOL     OW19102   4.523   1.382   5.737
 6068SOL    HW119103   4.432   1.358   5.703
 6068SOL    HW219104   4.544   1.477   5.714
 6069SOL     OW19105   6.691   3.392   6.315
 6069SOL    HW119106   6.622   3.336   6.268
 6069SOL    HW219107   6.661   3.487   6.315
 6070SOL     OW19108   3.101   1.474   1.064
 6070SOL    HW119109   3.191   1.516   1.066
 6070SOL    HW219110   3.032   1.543   1.042
 6071SOL     OW19111   5.698   6.936   5.251
 6071SOL    HW119112   5.664   0.007   5.242
 6071SOL    HW219113   5.628   6.878   5.292
 6072SOL     OW19114   0.280   3.098   0.592
 6072SOL    HW119115   0.373   3.099   0.628
 6072SOL    HW219116   0.242   3.006   0.602
 6073SOL     OW19117   5.008   2.531   0.961
 6073SOL    HW119118   5.075   2.567   0.897
 6073SOL    HW219119   4.924   2.584   0.955
 6074SOL     OW19120   1.068   5.826   2.379
 6074SOL    HW119121   1.074   5.735   2.338
 6074SOL    HW219122   1.031   5.890   2.312
 6075SOL     OW19123   4.812   6.645   6.489
 6075SOL    HW119124   4.726   6.695   6.500
 6075SOL    HW219125   4.799   6.550   6.517
 6076SOL     OW19126   2.328   5.078   4.119
 6076SOL    HW119127   2.228   5.070   4.123
 6076SOL    HW219128   2.369   5.019   4.188
 6077SOL     OW19129   5.996   6.800   1.630
 6077SOL    HW119130   5.948   6.802   1.543
 6077SOL    HW219131   6.048   6.885   1.642
 6078SOL     OW19132   4.219   3.500   6.960
 6078SOL    HW119133   4.204   3.408   6.925
 6078SOL    HW219134   4.299   3.500   7.021
 6079SOL     OW19135   3.672   4.404   6.293
 6079SOL    HW119136   3.676   4.379   6.390
 6079SOL    HW219137   3.592   4.361   6.251
 6080SOL     OW19138   0.800   4.384   0.132
 6080SOL    HW119139   0.873   4.380   0.064
 6080SOL    HW219140   0.776   4.291   0.161
 6081SOL     OW19141   1.415   3.555   4.636
 6081SOL    HW119142   1.454   3.475   4.682
 6081SOL    HW219143   1.353   3.524   4.564
 6082SOL     OW19144   4.134   1.116   1.128
 6082SOL    HW119145   4.096   1.200   1.166
 6082SOL    HW219146   4.158   1.054   1.203
 6083SOL     OW19147   5.000   6.314   6.419
 6083SOL    HW119148   4.916   6.320   6.364
 6083SOL    HW219149   5.065   6.384   6.389
 6084SOL     OW19150   0.699   6.880   2.659
 6084SOL    HW119151   0.782   6.852   2.707
 6084SOL    HW219152   0.621   6.829   2.695
 6085SOL     OW19153   0.088   6.099   0.374
 6085SOL    HW119154   0.067   6.044   0.293
 6085SOL    HW219155   0.127   6.041   0.445
 6086SOL     OW19156   3.772   3.544   6.662
 6086SOL    HW119157   3.851   3.558   6.722
 6086SOL    HW219158   3.732   3.633   6.639
 6087SOL     OW19159   5.092   6.651   0.667
 6087SOL    HW119160   5.059   6.719   0.732
 6087SOL    HW219161   5.061   6.673   0.575
 6088SOL     OW19162   5.408   0.275   3.783
 6088SOL    HW119163   5.390   0.220   3.702
 6088SOL    HW219164   5.454   0.360   3.756
 6089SOL     OW19165   6.138   2.793   3.019
 6089SOL    HW119166   6.095   2.703   3.014
 6089SOL    HW219167   6.237   2.783   3.014
 6090SOL     OW19168   3.641   6.484   4.120
 6090SOL    HW119169   3.564   6.505   4.058
 6090SOL    HW219170   3.727   6.510   4.076
 6091SOL     OW19171   2.141   1.146   1.601
 6091SOL    HW119172   2.125   1.218   1.533
 6091SOL    HW219173   2.065   1.142   1.665
 6092SOL     OW19174   4.435   6.124   1.850
 6092SOL    HW119175   4.395   6.209   1.817
 6092SOL    HW219176   4.454   6.064   1.772
 6093SOL     OW19177   2.293   1.573   2.395
 6093SOL    HW119178   2.310   1.477   2.419
 6093SOL    HW219179   2.369   1.607   2.339
 6094SOL     OW19180   0.332   6.677   4.626
 6094SOL    HW119181   0.348   6.592   4.676
 6094SOL    HW219182   0.332   6.658   4.528
 6095SOL     OW19183   4.066   6.012   0.105
 6095SOL    HW119184   4.129   5.961   0.047
 6095SOL    HW219185   4.073   6.110   0.083
 6096SOL     OW19186   6.281   6.393   2.167
 6096SOL    HW119187   6.296   6.404   2.266
 6096SOL    HW219188   6.244   6.302   2.149
 6097SOL     OW19189   2.049   5.886   2.420
 6097SOL    HW119190   2.097   5.802   2.395
 6097SOL    HW219191   2.074   5.959   2.356
 6098SOL     OW19192   6.998   1.026   4.777
 6098SOL    HW119193   0.038   1.050   4.851
 6098SOL    HW219194   6.924   0.969   4.813
 6099SOL     OW19195   4.782   6.235   6.234
 6099SOL    HW119196   4.850   6.226   6.162
 6099SOL    HW219197   4.716   6.159   6.228
 6100SOL     OW19198   6.847   6.088   3.788
 6100SOL    HW119199   6.942   6.060   3.778
 6100SOL    HW219200   6.803   6.092   3.699
 6101SOL     OW19201   6.629   2.416   1.117
 6101SOL    HW119202   6.582   2.496   1.079
 6101SOL    HW219203   6.728   2.431   1.113
 6102SOL     OW19204   4.462   6.583   2.148
 6102SOL    HW119205   4.487   6.509   2.211
 6102SOL    HW219206   4.396   6.643   2.192
 6103SOL     OW19207   6.931   1.400   1.308
 6103SOL    HW119208   6.952   1.304   1.286
 6103SOL    HW219209   6.991   1.460   1.255
 6104SOL     OW19210   6.157   1.601   4.640
 6104SOL    HW119211   6.123   1.539   4.711
 6104SOL    HW219212   6.080   1.648   4.597
 6105SOL     OW19213   2.583   5.613   5.591
 6105SOL    HW119214   2.487   5.631   5.567
 6105SOL    HW219215   2.588   5.528   5.644
 6106SOL     OW19216   0.306   4.506   6.787
 6106SOL    HW119217   0.376   4.473   6.850
 6106SOL    HW219218   0.337   4.592   6.745
 6107SOL     OW19219   4.629   5.063   4.790
 6107SOL    HW119220   4.587   4.975   4.768
 6107SOL    HW219221   4.728   5.052   4.794
 6108SOL     OW19222   1.558   1.649   1.671
 6108SOL    HW119223   1.599   1.563   1.640
 6108SOL    HW219224   1.607   1.726   1.631
 6109SOL     OW19225   6.013   6.433   3.089
 6109SOL    HW119226   6.007   6.345   3.043
 6109SOL    HW219227   5.933   6.445   3.149
 6110SOL     OW19228   1.299   1.807   5.234
 6110SOL    HW119229   1.366   1.878   5.255
 6110SOL    HW219230   1.218   1.819   5.293
 6111SOL     OW19231   1.823   4.020   1.633
 6111SOL    HW119232   1.813   4.097   1.696
 6111SOL    HW219233   1.782   4.045   1.545
 6112SOL     OW19234   4.610   0.226   2.512
 6112SOL    HW119235   4.538   0.258   2.450
 6112SOL    HW219236   4.584   0.137   2.550
 6113SOL     OW19237   2.202   5.388   6.955
 6113SOL    HW119238   2.160   5.338   0.008
 6113SOL    HW219239   2.280   5.441   6.989
 6114SOL     OW19240   5.123   1.518   0.729
 6114SOL    HW119241   5.128   1.509   0.829
 6114SOL    HW219242   5.028   1.533   0.702
 6115SOL     OW19243   1.029   0.873   5.560
 6115SOL    HW119244   0.940   0.840   5.530
 6115SOL    HW219245   1.099   0.853   5.491
 6116SOL     OW19246   4.255   2.022   4.902
 6116SOL    HW119247   4.351   1.998   4.918
 6116SOL    HW219248   4.217   1.960   4.833
 6117SOL     OW19249   1.506   2.106   2.701
 6117SOL    HW119250   1.438   2.032   2.699
 6117SOL    HW219251   1.526   2.136   2.608
 6118SOL     OW19252   5.948   0.834   0.109
 6118SOL    HW119253   5.865   0.839   0.054
 6118SOL    HW219254   6.002   0.917   0.093
 6119SOL     OW19255   6.910   1.956   0.816
 6119SOL    HW119256   6.919   2.000   0.727
 6119SOL    HW219257   6.825   1.904   0.819
 6120SOL     OW19258   2.169   6.925   5.871
 6120SOL    HW119259   2.239   6.862   5.905
 6120SOL    HW219260   2.134   6.980   5.948
 6121SOL     OW19261   1.428   2.784   4.984
 6121SOL    HW119262   1.455   2.732   5.066
 6121SOL    HW219263   1.484   2.756   4.907
 6122SOL     OW19264   5.017   5.776   5.532
 6122SOL    HW119265   4.970   5.770   5.444
 6122SOL    HW219266   5.025   5.872   5.559
 6123SOL     OW19267   6.088   1.169   5.187
 6123SOL    HW119268   6.048   1.121   5.265
 6123SOL    HW219269   6.028   1.244   5.160
 6124SOL     OW19270   2.274   0.011   4.554
 6124SOL    HW119271   2.184   0.052   4.571
 6124SOL    HW219272   2.296   6.969   4.626
 6125SOL     OW19273   1.925   2.731   6.732
 6125SOL    HW119274   1.881   2.641   6.723
 6125SOL    HW219275   1.937   2.772   6.642
 6126SOL     OW19276   6.590   2.981   5.042
 6126SOL    HW119277   6.601   2.882   5.041
 6126SOL    HW219278   6.496   3.005   5.018
 6127SOL     OW19279   4.258   1.944   1.226
 6127SOL    HW119280   4.195   1.930   1.149
 6127SOL    HW219281   4.252   2.039   1.257
 6128SOL     OW19282   6.104   5.978   0.718
 6128SOL    HW119283   6.009   5.955   0.698
 6128SOL    HW219284   6.149   6.010   0.635
 6129SOL     OW19285   1.690   4.593   2.945
 6129SOL    HW119286   1.638   4.519   2.988
 6129SOL    HW219287   1.716   4.660   3.015
 6130SOL     OW19288   5.223   3.235   1.221
 6130SOL    HW119289   5.194   3.175   1.146
 6130SOL    HW219290   5.195   3.195   1.308
 6131SOL     OW19291   0.198   1.883   2.730
 6131SOL    HW119292   0.217   1.899   2.827
 6131SOL    HW219293   0.278   1.906   2.676
 6132SOL     OW19294   3.215   1.902   6.690
 6132SOL    HW119295   3.138   1.915   6.752
 6132SOL    HW219296   3.249   1.809   6.697
 6133SOL     OW19297   1.780   2.242   3.615
 6133SOL    HW119298   1.874   2.215   3.592
 6133SOL    HW219299   1.780   2.338   3.644
 6134SOL     OW19300   5.147   6.139   6.232
 6134SOL    HW119301   5.222   6.122   6.169
 6134SOL    HW219302   5.182   6.145   6.326
 6135SOL     OW19303   5.938   0.647   6.790
 6135SOL    HW119304   5.919   0.584   6.715
 6135SOL    HW219305   6.025   0.622   6.833
 6136SOL     OW19306   0.802   2.627   2.455
 6136SOL    HW119307   0.815   2.546   2.512
 6136SOL    HW219308   0.883   2.641   2.397
 6137SOL     OW19309   0.137   4.459   2.990
 6137SOL    HW119310   0.058   4.412   3.027
 6137SOL    HW219311   0.110   4.551   2.961
 6138SOL     OW19312   2.907   0.263   2.106
 6138SOL    HW119313   2.977   0.332   2.087
 6138SOL    HW219314   2.875   0.273   2.200
 6139SOL     OW19315   1.545   6.658   6.010
 6139SOL    HW119316   1.619   6.593   6.031
 6139SOL    HW219317   1.497   6.628   5.927
 6140SOL     OW19318   2.105   0.101   3.198
 6140SOL    HW119319   2.019   0.153   3.190
 6140SOL    HW219320   2.122   0.052   3.113
 6141SOL     OW19321   0.169   0.622   5.785
 6141SOL    HW119322   0.179   0.547   5.851
 6141SOL    HW219323   0.258   0.667   5.772
 6142SOL     OW19324   0.154   1.041   0.693
 6142SOL    HW119325   0.080   1.061   0.757
 6142SOL    HW219326   0.163   1.117   0.628
 6143SOL     OW19327   5.943   3.424   6.158
 6143SOL    HW119328   5.848   3.398   6.175
 6143SOL    HW219329   5.991   3.433   6.245
 6144SOL     OW19330   4.935   4.356   2.826
 6144SOL    HW119331   4.889   4.381   2.741
 6144SOL    HW219332   4.868   4.323   2.893
 6145SOL     OW19333   4.882   3.407   4.446
 6145SOL    HW119334   4.869   3.397   4.348
 6145SOL    HW219335   4.903   3.318   4.487
 6146SOL     OW19336   4.574   0.728   4.874
 6146SOL    HW119337   4.543   0.633   4.877
 6146SOL    HW219338   4.650   0.736   4.809
 6147SOL     OW19339   2.409   2.625   3.908
 6147SOL    HW119340   2.453   2.702   3.954
 6147SOL    HW219341   2.339   2.586   3.968
 6148SOL     OW19342   3.406   5.528   6.937
 6148SOL    HW119343   3.346   5.502   6.862
 6148SOL    HW219344   3.458   5.610   6.911
 6149SOL     OW19345   2.657   0.118   1.851
 6149SOL    HW119346   2.564   0.093   1.823
 6149SOL    HW219347   2.674   0.083   1.943
 6150SOL     OW19348   5.713   3.544   6.475
 6150SOL    HW119349   5.765   3.622   6.442
 6150SOL    HW219350   5.688   3.558   6.571
 6151SOL     OW19351   4.928   4.294   4.526
 6151SOL    HW119352   4.992   4.266   4.598
 6151SOL    HW219353   4.883   4.213   4.489
 6152SOL     OW19354   0.474   4.506   3.948
 6152SOL    HW119355   0.513   4.585   3.901
 6152SOL    HW219356   0.464   4.431   3.883
 6153SOL     OW19357   5.004   5.453   1.093
 6153SOL    HW119358   5.027   5.463   0.997
 6153SOL    HW219359   5.072   5.500   1.149
 6154SOL     OW19360   5.572   3.217   2.734
 6154SOL    HW119361   5.522   3.220   2.648
 6154SOL    HW219362   5.508   3.212   2.811
 6155SOL     OW19363   2.283   0.999   3.008
 6155SOL    HW119364   2.319   0.966   2.921
 6155SOL    HW219365   2.342   1.072   3.043
 6156SOL     OW19366   5.562   4.131   1.293
 6156SOL    HW119367   5.517   4.049   1.258
 6156SOL    HW219368   5.661   4.122   1.282
 6157SOL     OW19369   0.979   2.036   2.917
 6157SOL    HW119370   0.933   2.122   2.894
 6157SOL    HW219371   1.047   2.053   2.989
 6158SOL     OW19372   2.514   2.688   5.281
 6158SOL    HW119373   2.549   2.594   5.290
 6158SOL    HW219374   2.571   2.750   5.334
 6159SOL     OW19375   6.179   1.781   0.288
 6159SOL    HW119376   6.268   1.823   0.273
 6159SOL    HW219377   6.191   1.691   0.330
 6160SOL     OW19378   0.366   6.869   6.685
 6160SOL    HW119379   0.351   6.829   6.775
 6160SOL    HW219380   0.278   6.883   6.639
 6161SOL     OW19381   5.262   2.243   6.391
 6161SOL    HW119382   5.303   2.328   6.357
 6161SOL    HW219383   5.235   2.186   6.314
 6162SOL     OW19384   6.600   6.023   2.735
 6162SOL    HW119385   6.572   6.095   2.798
 6162SOL    HW219386   6.670   6.058   2.673
 6163SOL     OW19387   6.279   6.633   2.717
 6163SOL    HW119388   6.367   6.616   2.762
 6163SOL    HW219389   6.231   6.546   2.706
 6164SOL     OW19390   4.091   3.343   4.242
 6164SOL    HW119391   4.111   3.357   4.145
 6164SOL    HW219392   4.105   3.429   4.292
 6165SOL     OW19393   4.055   2.060   0.526
 6165SOL    HW119394   3.984   2.131   0.524
 6165SOL    HW219395   4.088   2.049   0.619
 6166SOL     OW19396   0.624   2.322   6.945
 6166SOL    HW119397   0.564   2.395   6.978
 6166SOL    HW219398   0.699   2.361   6.892
 6167SOL     OW19399   1.245   4.100   3.687
 6167SOL    HW119400   1.312   4.034   3.721
 6167SOL    HW219401   1.153   4.070   3.713
 6168SOL     OW19402   6.841   2.952   3.962
 6168SOL    HW119403   6.806   3.043   3.984
 6168SOL    HW219404   6.830   2.934   3.864
 6169SOL     OW19405   0.974   6.805   6.905
 6169SOL    HW119406   0.947   6.850   6.819
 6169SOL    HW219407   0.913   6.834   6.978
 6170SOL     OW19408   3.619   4.204   0.261
 6170SOL    HW119409   3.569   4.124   0.294
 6170SOL    HW219410   3.713   4.179   0.240
 6171SOL     OW19411   1.041   4.806   2.722
 6171SOL    HW119412   1.047   4.853   2.633
 6171SOL    HW219413   1.112   4.841   2.783
 6172SOL     OW19414   1.384   0.127   2.525
 6172SOL    HW119415   1.302   0.073   2.546
 6172SOL    HW219416   1.357   0.219   2.499
 6173SOL     OW19417   1.064   4.516   3.574
 6173SOL    HW119418   1.030   4.423   3.588
 6173SOL    HW219419   0.995   4.581   3.606
 6174SOL     OW19420   5.633   4.769   2.905
 6174SOL    HW119421   5.551   4.717   2.927
 6174SOL    HW219422   5.690   4.716   2.842
 6175SOL     OW19423   5.287   6.493   2.744
 6175SOL    HW119424   5.251   6.440   2.821
 6175SOL    HW219425   5.330   6.431   2.678
 6176SOL     OW19426   5.563   3.193   6.364
 6176SOL    HW119427   5.617   3.269   6.328
 6176SOL    HW219428   5.603   3.162   6.451
 6177SOL     OW19429   5.308   2.172   2.460
 6177SOL    HW119430   5.334   2.099   2.397
 6177SOL    HW219431   5.216   2.154   2.496
 6178SOL     OW19432   4.707   4.250   0.901
 6178SOL    HW119433   4.722   4.152   0.890
 6178SOL    HW219434   4.688   4.271   0.997
 6179SOL     OW19435   0.543   3.020   5.321
 6179SOL    HW119436   0.595   2.966   5.254
 6179SOL    HW219437   0.598   3.031   5.404
 6180SOL     OW19438   3.794   6.837   0.852
 6180SOL    HW119439   3.867   6.849   0.918
 6180SOL    HW219440   3.738   6.759   0.878
 6181SOL     OW19441   5.280   6.345   6.865
 6181SOL    HW119442   5.334   6.273   6.823
 6181SOL    HW219443   5.260   6.320   6.960
 6182SOL     OW19444   5.285   5.507   5.903
 6182SOL    HW119445   5.189   5.478   5.911
 6182SOL    HW219446   5.326   5.512   5.994
 6183SOL     OW19447   2.662   7.017   2.719
 6183SOL    HW119448   2.722   7.010   2.799
 6183SOL    HW219449   2.568   6.994   2.746
 6184SOL     OW19450   0.908   0.398   6.488
 6184SOL    HW119451   0.892   0.497   6.479
 6184SOL    HW219452   1.004   0.379   6.470
 6185SOL     OW19453   6.863   3.877   6.481
 6185SOL    HW119454   6.783   3.930   6.510
 6185SOL    HW219455   6.876   3.800   6.543
 6186SOL     OW19456   5.563   0.486   3.702
 6186SOL    HW119457   5.621   0.468   3.623
 6186SOL    HW219458   5.619   0.515   3.780
 6187SOL     OW19459   4.957   4.837   4.575
 6187SOL    HW119460   4.912   4.856   4.663
 6187SOL    HW219461   4.924   4.750   4.539
 6188SOL     OW19462   2.846   6.215   1.707
 6188SOL    HW119463   2.847   6.315   1.700
 6188SOL    HW219464   2.886   6.175   1.625
 6189SOL     OW19465   4.873   5.545   3.155
 6189SOL    HW119466   4.960   5.561   3.202
 6189SOL    HW219467   4.859   5.446   3.144
 6190SOL     OW19468   4.798   2.746   6.216
 6190SOL    HW119469   4.721   2.721   6.157
 6190SOL    HW219470   4.787   2.842   6.244
 6191SOL     OW19471   5.391   1.839   0.182
 6191SOL    HW119472   5.479   1.809   0.218
 6191SOL    HW219473   5.401   1.862   0.085
 6192SOL     OW19474   2.960   3.544   0.312
 6192SOL    HW119475   3.010   3.545   0.225
 6192SOL    HW219476   3.015   3.498   0.382
 6193SOL     OW19477   5.521   7.010   2.339
 6193SOL    HW119478   5.502   6.986   2.244
 6193SOL    HW219479   5.446   6.979   2.397
 6194SOL     OW19480   2.124   0.840   0.890
 6194SOL    HW119481   2.175   0.771   0.839
 6194SOL    HW219482   2.114   0.923   0.835
 6195SOL     OW19483   4.024   6.096   6.247
 6195SOL    HW119484   4.067   6.102   6.157
 6195SOL    HW219485   4.095   6.092   6.317
 6196SOL     OW19486   1.278   2.166   5.876
 6196SOL    HW119487   1.200   2.181   5.816
 6196SOL    HW219488   1.356   2.131   5.823
 6197SOL     OW19489   2.449   4.114   1.066
 6197SOL    HW119490   2.354   4.141   1.086
 6197SOL    HW219491   2.501   4.195   1.038
 6198SOL     OW19492   3.688   4.892   2.987
 6198SOL    HW119493   3.607   4.939   2.953
 6198SOL    HW219494   3.720   4.826   2.919
 6199SOL     OW19495   1.208   0.343   0.879
 6199SOL    HW119496   1.276   0.284   0.923
 6199SOL    HW219497   1.251   0.430   0.856
 6200SOL     OW19498   2.853   1.291   6.440
 6200SOL    HW119499   2.842   1.263   6.345
 6200SOL    HW219500   2.925   1.361   6.446
 6201SOL     OW19501   2.044   3.588   5.544
 6201SOL    HW119502   2.069   3.667   5.600
 6201SOL    HW219503   1.945   3.576   5.546
 6202SOL     OW19504   3.297   1.850   1.248
 6202SOL    HW119505   3.336   1.838   1.339
 6202SOL    HW219506   3.310   1.766   1.195
 6203SOL     OW19507   5.066   1.214   4.188
 6203SOL    HW119508   5.145   1.206   4.127
 6203SOL    HW219509   4.986   1.172   4.144
 6204SOL     OW19510   1.156   5.478   5.048
 6204SOL    HW119511   1.250   5.508   5.038
 6204SOL    HW219512   1.131   5.418   4.972
 6205SOL     OW19513   5.397   5.446   6.885
 6205SOL    HW119514   5.372   5.534   6.844
 6205SOL    HW219515   5.482   5.413   6.843
 6206SOL     OW19516   6.760   0.752   1.590
 6206SOL    HW119517   6.833   0.820   1.598
 6206SOL    HW219518   6.787   0.683   1.522
 6207SOL     OW19519   1.171   4.256   5.016
 6207SOL    HW119520   1.266   4.279   4.994
 6207SOL    HW219521   1.131   4.203   4.942
 6208SOL     OW19522   6.526   0.326   5.926
 6208SOL    HW119523   6.430   0.307   5.908
 6208SOL    HW219524   6.582   0.286   5.853
 6209SOL     OW19525   4.889   6.172   0.238
 6209SOL    HW119526   4.826   6.153   0.313
 6209SOL    HW219527   4.922   6.085   0.200
 6210SOL     OW19528   5.179   3.401   2.494
 6210SOL    HW119529   5.252   3.458   2.530
 6210SOL    HW219530   5.196   3.381   2.398
 6211SOL     OW19531   2.365   0.401   6.033
 6211SOL    HW119532   2.394   0.402   5.937
 6211SOL    HW219533   2.274   0.441   6.041
 6212SOL     OW19534   6.723   6.122   3.521
 6212SOL    HW119535   6.815   6.097   3.489
 6212SOL    HW219536   6.656   6.097   3.451
 6213SOL     OW19537   5.751   0.457   6.611
 6213SOL    HW119538   5.765   0.368   6.655
 6213SOL    HW219539   5.826   0.475   6.548
 6214SOL     OW19540   6.174   5.045   2.472
 6214SOL    HW119541   6.135   4.959   2.439
 6214SOL    HW219542   6.258   5.028   2.523
 6215SOL     OW19543   3.191   2.902   1.044
 6215SOL    HW119544   3.154   2.967   1.112
 6215SOL    HW219545   3.116   2.848   1.007
 6216SOL     OW19546   5.861   1.702   1.933
 6216SOL    HW119547   5.891   1.738   2.021
 6216SOL    HW219548   5.939   1.665   1.883
 6217SOL     OW19549   4.701   2.731   1.539
 6217SOL    HW119550   4.791   2.771   1.555
 6217SOL    HW219551   4.710   2.632   1.524
 6218SOL     OW19552   2.279   4.628   4.789
 6218SOL    HW119553   2.271   4.546   4.733
 6218SOL    HW219554   2.375   4.642   4.814
 6219SOL     OW19555   1.268   2.002   4.920
 6219SOL    HW119556   1.327   1.927   4.948
 6219SOL    HW219557   1.318   2.088   4.923
 6220SOL     OW19558   1.717   4.633   5.990
 6220SOL    HW119559   1.666   4.590   5.916
 6220SOL    HW219560   1.723   4.732   5.974
 6221SOL     OW19561   4.514   5.422   4.567
 6221SOL    HW119562   4.444   5.350   4.568
 6221SOL    HW219563   4.588   5.396   4.505
 6222SOL     OW19564   0.016   0.111   1.634
 6222SOL    HW119565   0.057   0.186   1.686
 6222SOL    HW219566   6.951   0.086   1.676
 6223SOL     OW19567   5.586   4.285   4.314
 6223SOL    HW119568   5.642   4.207   4.285
 6223SOL    HW219569   5.557   4.272   4.409
 6224SOL     OW19570   1.601   1.362   5.688
 6224SOL    HW119571   1.521   1.404   5.645
 6224SOL    HW219572   1.684   1.397   5.645
 6225SOL     OW19573   3.430   3.693   1.113
 6225SOL    HW119574   3.500   3.726   1.176
 6225SOL    HW219575   3.409   3.597   1.134
 6226SOL     OW19576   5.604   0.991   4.038
 6226SOL    HW119577   5.693   0.962   4.074
 6226SOL    HW219578   5.584   1.083   4.070
 6227SOL     OW19579   3.195   4.242   5.668
 6227SOL    HW119580   3.220   4.208   5.759
 6227SOL    HW219581   3.260   4.207   5.600
 6228SOL     OW19582   6.719   1.359   2.912
 6228SOL    HW119583   6.704   1.423   2.837
 6228SOL    HW219584   6.736   1.410   2.996
 6229SOL     OW19585   2.475   2.113   2.740
 6229SOL    HW119586   2.442   2.143   2.650
 6229SOL    HW219587   2.450   2.018   2.754
 6230SOL     OW19588   2.548   1.053   4.242
 6230SOL    HW119589   2.546   0.995   4.323
 6230SOL    HW219590   2.602   1.009   4.171
 6231SOL     OW19591   0.286   4.986   1.029
 6231SOL    HW119592   0.210   4.998   1.093
 6231SOL    HW219593   0.366   4.952   1.078
 6232SOL     OW19594   0.153   1.362   0.082
 6232SOL    HW119595   0.141   1.410   7.018
 6232SOL    HW219596   0.248   1.370   0.112
 6233SOL     OW19597   5.297   1.911   6.558
 6233SOL    HW119598   5.238   1.944   6.485
 6233SOL    HW219599   5.258   1.938   6.647
 6234SOL     OW19600   1.576   1.722   4.379
 6234SOL    HW119601   1.644   1.746   4.310
 6234SOL    HW219602   1.620   1.671   4.453
 6235SOL     OW19603   2.221   6.768   2.994
 6235SOL    HW119604   2.132   6.732   3.022
 6235SOL    HW219605   2.278   6.694   2.959
 6236SOL     OW19606   0.359   5.292   1.051
 6236SOL    HW119607   0.280   5.309   1.110
 6236SOL    HW219608   0.353   5.201   1.012
 6237SOL     OW19609   4.368   6.400   0.670
 6237SOL    HW119610   4.351   6.302   0.682
 6237SOL    HW219611   4.461   6.421   0.698
 6238SOL     OW19612   4.899   5.697   2.087
 6238SOL    HW119613   4.827   5.650   2.036
 6238SOL    HW219614   4.862   5.730   2.174
 6239SOL     OW19615   3.331   6.868   2.554
 6239SOL    HW119616   3.329   6.769   2.566
 6239SOL    HW219617   3.254   6.896   2.497
 6240SOL     OW19618   2.083   3.201   0.427
 6240SOL    HW119619   2.147   3.125   0.431
 6240SOL    HW219620   1.995   3.169   0.391
 6241SOL     OW19621   2.505   0.896   1.861
 6241SOL    HW119622   2.446   0.823   1.896
 6241SOL    HW219623   2.600   0.876   1.885
 6242SOL     OW19624   4.984   1.649   3.714
 6242SOL    HW119625   4.969   1.586   3.638
 6242SOL    HW219626   4.920   1.726   3.707
 6243SOL     OW19627   5.719   6.591   3.679
 6243SOL    HW119628   5.714   6.493   3.662
 6243SOL    HW219629   5.629   6.632   3.666
 6244SOL     OW19630   2.436   2.528   2.624
 6244SOL    HW119631   2.452   2.515   2.722
 6244SOL    HW219632   2.506   2.480   2.572
 6245SOL     OW19633   2.506   4.506   1.681
 6245SOL    HW119634   2.537   4.411   1.683
 6245SOL    HW219635   2.517   4.542   1.588
 6246SOL     OW19636   2.767   2.168   6.394
 6246SOL    HW119637   2.838   2.165   6.324
 6246SOL    HW219638   2.795   2.111   6.472
 6247SOL     OW19639   0.579   6.045   3.972
 6247SOL    HW119640   0.634   6.050   3.888
 6247SOL    HW219641   0.527   5.960   3.973
 6248SOL     OW19642   0.897   4.392   1.358
 6248SOL    HW119643   0.927   4.461   1.425
 6248SOL    HW219644   0.917   4.301   1.393
 6249SOL     OW19645   0.233   4.371   0.012
 6249SOL    HW119646   0.153   4.430   0.022
 6249SOL    HW219647   0.316   4.426   0.016
 6250SOL     OW19648   6.626   6.028   0.366
 6250SOL    HW119649   6.571   6.103   0.330
 6250SOL    HW219650   6.723   6.053   0.363
 6251SOL     OW19651   4.513   1.072   1.123
 6251SOL    HW119652   4.563   1.027   1.049
 6251SOL    HW219653   4.572   1.080   1.203
 6252SOL     OW19654   2.623   5.366   4.760
 6252SOL    HW119655   2.697   5.430   4.784
 6252SOL    HW219656   2.662   5.277   4.738
 6253SOL     OW19657   2.369   4.146   1.779
 6253SOL    HW119658   2.313   4.088   1.839
 6253SOL    HW219659   2.309   4.197   1.717
 6254SOL     OW19660   6.062   6.762   0.028
 6254SOL    HW119661   5.980   6.744   6.997
 6254SOL    HW219662   6.140   6.715   7.009
 6255SOL     OW19663   1.006   1.748   1.676
 6255SOL    HW119664   1.093   1.729   1.721
 6255SOL    HW219665   0.951   1.665   1.673
 6256SOL     OW19666   4.347   4.751   2.607
 6256SOL    HW119667   4.292   4.713   2.681
 6256SOL    HW219668   4.432   4.700   2.597
 6257SOL     OW19669   5.727   2.484   1.040
 6257SOL    HW119670   5.720   2.506   0.943
 6257SOL    HW219671   5.738   2.385   1.051
 6258SOL     OW19672   4.118   1.110   2.413
 6258SOL    HW119673   4.044   1.133   2.350
 6258SOL    HW219674   4.112   1.014   2.438
 6259SOL     OW19675   2.876   1.624   0.723
 6259SOL    HW119676   2.894   1.709   0.773
 6259SOL    HW219677   2.960   1.594   0.677
 6260SOL     OW19678   4.079   3.736   0.666
 6260SOL    HW119679   4.034   3.647   0.665
 6260SOL    HW219680   4.140   3.743   0.587
 6261SOL     OW19681   3.831   0.345   0.261
 6261SOL    HW119682   3.736   0.326   0.284
 6261SOL    HW219683   3.863   0.423   0.315
 6262SOL     OW19684   1.432   4.205   0.511
 6262SOL    HW119685   1.452   4.297   0.544
 6262SOL    HW219686   1.516   4.161   0.481
 6263SOL     OW19687   0.323   6.361   6.456
 6263SOL    HW119688   0.231   6.324   6.449
 6263SOL    HW219689   0.351   6.366   6.552
 6264SOL     OW19690   2.604   1.946   0.751
 6264SOL    HW119691   2.639   1.876   0.814
 6264SOL    HW219692   2.651   2.033   0.768
 6265SOL     OW19693   3.871   4.612   1.128
 6265SOL    HW119694   3.775   4.608   1.155
 6265SOL    HW219695   3.881   4.670   1.047
 6266SOL     OW19696   3.684   1.225   3.446
 6266SOL    HW119697   3.768   1.271   3.417
 6266SOL    HW219698   3.641   1.276   3.521
 6267SOL     OW19699   2.987   0.289   0.520
 6267SOL    HW119700   3.044   0.318   0.443
 6267SOL    HW219701   2.891   0.305   0.499
 6268SOL     OW19702   3.045   5.154   2.780
 6268SOL    HW119703   3.136   5.196   2.776
 6268SOL    HW219704   3.054   5.056   2.796
 6269SOL     OW19705   6.255   5.679   1.805
 6269SOL    HW119706   6.231   5.753   1.868
 6269SOL    HW219707   6.229   5.706   1.712
 6270SOL     OW19708   1.600   0.827   4.941
 6270SOL    HW119709   1.576   0.841   4.845
 6270SOL    HW219710   1.623   0.915   4.982
 6271SOL     OW19711   7.011   2.970   6.274
 6271SOL    HW119712   7.019   2.871   6.286
 6271SOL    HW219713   0.019   2.995   6.182
 6272SOL     OW19714   2.010   3.101   4.374
 6272SOL    HW119715   2.020   3.195   4.407
 6272SOL    HW219716   2.012   3.038   4.452
 6273SOL     OW19717   1.844   1.267   1.565
 6273SOL    HW119718   1.763   1.314   1.601
 6273SOL    HW219719   1.815   1.182   1.520
 6274SOL     OW19720   3.497   6.108   6.882
 6274SOL    HW119721   3.532   6.026   6.927
 6274SOL    HW219722   3.475   6.087   6.787
 6275SOL     OW19723   2.765   0.176   5.414
 6275SOL    HW119724   2.813   0.193   5.500
 6275SOL    HW219725   2.704   0.097   5.424
 6276SOL     OW19726   0.864   5.428   3.608
 6276SOL    HW119727   0.783   5.417   3.551
 6276SOL    HW219728   0.877   5.524   3.631
 6277SOL     OW19729   5.341   2.431   2.998
 6277SOL    HW119730   5.300   2.508   2.950
 6277SOL    HW219731   5.297   2.420   3.087
 6278SOL     OW19732   4.545   0.158   4.148
 6278SOL    HW119733   4.642   0.158   4.124
 6278SOL    HW219734   4.523   0.073   4.196
 6279SOL     OW19735   3.989   1.729   0.831
 6279SOL    HW119736   4.051   1.703   0.757
 6279SOL    HW219737   3.922   1.795   0.798
 6280SOL     OW19738   0.308   3.336   5.952
 6280SOL    HW119739   0.267   3.427   5.946
 6280SOL    HW219740   0.290   3.286   5.867
 6281SOL     OW19741   1.888   0.179   5.396
 6281SOL    HW119742   1.869   0.153   5.490
 6281SOL    HW219743   1.917   0.274   5.392
 6282SOL     OW19744   1.956   6.730   5.096
 6282SOL    HW119745   1.884   6.795   5.120
 6282SOL    HW219746   2.031   6.777   5.049
 6283SOL     OW19747   0.050   2.610   5.287
 6283SOL    HW119748   0.114   2.601   5.362
 6283SOL    HW219749   0.089   2.569   5.204
 6284SOL     OW19750   1.240   5.362   5.424
 6284SOL    HW119751   1.171   5.342   5.494
 6284SOL    HW219752   1.322   5.398   5.468
 6285SOL     OW19753   1.373   2.914   3.991
 6285SOL    HW119754   1.382   2.927   3.893
 6285SOL    HW219755   1.342   2.821   4.010
 6286SOL     OW19756   5.731   1.537   3.063
 6286SOL    HW119757   5.749   1.589   2.979
 6286SOL    HW219758   5.807   1.551   3.127
 6287SOL     OW19759   4.866   4.029   1.798
 6287SOL    HW119760   4.824   4.085   1.727
 6287SOL    HW219761   4.956   3.999   1.767
 6288SOL     OW19762   4.898   4.191   0.714
 6288SOL    HW119763   4.965   4.162   0.783
 6288SOL    HW219764   4.832   4.253   0.756
 6289SOL     OW19765   2.180   2.248   3.766
 6289SOL    HW119766   2.117   2.219   3.838
 6289SOL    HW219767   2.142   2.328   3.719
 6290SOL     OW19768   5.033   4.119   3.817
 6290SOL    HW119769   5.092   4.138   3.738
 6290SOL    HW219770   5.062   4.176   3.894
 6291SOL     OW19771   3.750   3.613   3.613
 6291SOL    HW119772   3.732   3.530   3.667
 6291SOL    HW219773   3.844   3.612   3.580
 6292SOL     OW19774   0.981   1.896   3.748
 6292SOL    HW119775   0.896   1.921   3.703
 6292SOL    HW219776   1.056   1.897   3.681
 6293SOL     OW19777   5.715   0.431   6.955
 6293SOL    HW119778   5.719   0.525   6.988
 6293SOL    HW219779   5.666   0.429   6.867
 6294SOL     OW19780   3.249   5.491   2.708
 6294SOL    HW119781   3.336   5.531   2.738
 6294SOL    HW219782   3.189   5.480   2.787
 6295SOL     OW19783   5.668   5.483   5.992
 6295SOL    HW119784   5.749   5.531   6.028
 6295SOL    HW219785   5.653   5.511   5.897
 6296SOL     OW19786   6.448   0.480   3.326
 6296SOL    HW119787   6.521   0.530   3.373
 6296SOL    HW219788   6.374   0.543   3.302
 6297SOL     OW19789   5.159   6.239   5.794
 6297SOL    HW119790   5.209   6.302   5.853
 6297SOL    HW219791   5.100   6.290   5.732
 6298SOL     OW19792   0.304   3.168   5.736
 6298SOL    HW119793   0.305   3.167   5.636
 6298SOL    HW219794   0.363   3.095   5.771
 6299SOL     OW19795   6.181   2.574   6.567
 6299SOL    HW119796   6.128   2.655   6.544
 6299SOL    HW219797   6.165   2.503   6.498
 6300SOL     OW19798   5.539   1.089   4.414
 6300SOL    HW119799   5.566   1.124   4.504
 6300SOL    HW219800   5.587   1.003   4.396
 6301SOL     OW19801   2.806   6.312   0.902
 6301SOL    HW119802   2.757   6.333   0.987
 6301SOL    HW219803   2.825   6.214   0.898
 6302SOL     OW19804   1.811   0.889   3.553
 6302SOL    HW119805   1.758   0.914   3.634
 6302SOL    HW219806   1.795   0.956   3.480
 6303SOL     OW19807   2.533   0.000   5.432
 6303SOL    HW119808   2.469   0.009   5.355
 6303SOL    HW219809   2.481   7.008   5.516
 6304SOL     OW19810   3.100   1.084   0.435
 6304SOL    HW119811   3.036   1.147   0.390
 6304SOL    HW219812   3.089   0.992   0.397
 6305SOL     OW19813   0.041   6.786   1.392
 6305SOL    HW119814   0.075   6.862   1.448
 6305SOL    HW219815   7.011   6.723   1.448
 6306SOL     OW19816   6.504   3.101   3.960
 6306SOL    HW119817   6.588   3.120   4.010
 6306SOL    HW219818   6.432   3.074   4.024
 6307SOL     OW19819   2.768   4.868   5.753
 6307SOL    HW119820   2.756   4.854   5.851
 6307SOL    HW219821   2.844   4.930   5.737
 6308SOL     OW19822   2.220   1.880   5.132
 6308SOL    HW119823   2.158   1.826   5.075
 6308SOL    HW219824   2.207   1.854   5.228
 6309SOL     OW19825   5.022   2.254   4.075
 6309SOL    HW119826   4.960   2.249   4.153
 6309SOL    HW219827   5.004   2.177   4.013
 6310SOL     OW19828   1.290   4.614   4.761
 6310SOL    HW119829   1.292   4.572   4.670
 6310SOL    HW219830   1.203   4.594   4.804
 6311SOL     OW19831   7.001   0.388   4.755
 6311SOL    HW119832   0.029   0.302   4.766
 6311SOL    HW219833   7.020   0.447   4.832
 6312SOL     OW19834   4.294   5.049   6.931
 6312SOL    HW119835   4.220   4.984   6.942
 6312SOL    HW219836   4.286   5.095   6.843
 6313SOL     OW19837   1.901   5.408   3.497
 6313SOL    HW119838   1.978   5.396   3.560
 6313SOL    HW219839   1.859   5.498   3.511
 6314SOL     OW19840   2.672   5.647   2.517
 6314SOL    HW119841   2.765   5.613   2.533
 6314SOL    HW219842   2.617   5.631   2.598
 6315SOL     OW19843   3.655   3.399   6.956
 6315SOL    HW119844   3.610   3.372   0.018
 6315SOL    HW219845   3.622   3.342   6.881
 6316SOL     OW19846   4.592   1.929   6.291
 6316SOL    HW119847   4.692   1.928   6.298
 6316SOL    HW219848   4.555   2.004   6.345
 6317SOL     OW19849   5.049   6.562   2.637
 6317SOL    HW119850   4.982   6.492   2.661
 6317SOL    HW219851   5.137   6.540   2.679
 6318SOL     OW19852   2.484   2.422   5.735
 6318SOL    HW119853   2.515   2.482   5.809
 6318SOL    HW219854   2.384   2.428   5.726
 6319SOL     OW19855   0.789   3.044   3.575
 6319SOL    HW119856   0.795   2.946   3.596
 6319SOL    HW219857   0.854   3.094   3.632
 6320SOL     OW19858   6.291   3.634   3.157
 6320SOL    HW119859   6.310   3.617   3.060
 6320SOL    HW219860   6.193   3.619   3.175
 6321SOL     OW19861   2.917   5.684   0.227
 6321SOL    HW119862   3.004   5.734   0.233
 6321SOL    HW219863   2.913   5.615   0.299
 6322SOL     OW19864   1.059   1.318   6.851
 6322SOL    HW119865   1.137   1.357   6.804
 6322SOL    HW219866   1.009   1.256   6.790
 6323SOL     OW19867   3.388   2.580   1.406
 6323SOL    HW119868   3.479   2.587   1.446
 6323SOL    HW219869   3.396   2.563   1.308
 6324SOL     OW19870   4.128   0.798   5.748
 6324SOL    HW119871   4.077   0.739   5.811
 6324SOL    HW219872   4.182   0.742   5.686
 6325SOL     OW19873   0.613   2.804   2.535
 6325SOL    HW119874   0.689   2.750   2.499
 6325SOL    HW219875   0.527   2.763   2.505
 6326SOL     OW19876   5.506   5.879   1.535
 6326SOL    HW119877   5.480   5.787   1.506
 6326SOL    HW219878   5.543   5.929   1.457
 6327SOL     OW19879   5.318   6.063   5.624
 6327SOL    HW119880   5.297   5.992   5.692
 6327SOL    HW219881   5.236   6.119   5.609
 6328SOL     OW19882   2.011   4.016   6.951
 6328SOL    HW119883   2.055   4.041   0.014
 6328SOL    HW219884   1.999   4.097   6.894
 6329SOL     OW19885   1.621   1.395   3.756
 6329SOL    HW119886   1.706   1.396   3.704
 6329SOL    HW219887   1.557   1.331   3.714
 6330SOL     OW19888   4.189   0.726   0.175
 6330SOL    HW119889   4.151   0.804   0.224
 6330SOL    HW219890   4.284   0.744   0.152
 6331SOL     OW19891   6.448   2.083   0.712
 6331SOL    HW119892   6.487   2.134   0.789
 6331SOL    HW219893   6.348   2.092   0.713
 6332SOL     OW19894   6.300   5.609   1.319
 6332SOL    HW119895   6.322   5.521   1.359
 6332SOL    HW219896   6.201   5.618   1.310
 6333SOL     OW19897   3.354   4.917   3.716
 6333SOL    HW119898   3.283   4.867   3.766
 6333SOL    HW219899   3.440   4.913   3.767
 6334SOL     OW19900   2.577   0.043   2.126
 6334SOL    HW119901   2.632   0.041   2.209
 6334SOL    HW219902   2.519   6.983   2.122
 6335SOL     OW19903   6.527   1.081   6.531
 6335SOL    HW119904   6.515   1.156   6.597
 6335SOL    HW219905   6.509   1.114   6.439
 6336SOL     OW19906   6.987   2.374   4.784
 6336SOL    HW119907   6.966   2.459   4.736
 6336SOL    HW219908   0.058   2.345   4.762
 6337SOL     OW19909   4.928   3.549   6.089
 6337SOL    HW119910   4.997   3.477   6.096
 6337SOL    HW219911   4.842   3.517   6.128
 6338SOL     OW19912   2.766   1.775   2.266
 6338SOL    HW119913   2.675   1.734   2.271
 6338SOL    HW219914   2.817   1.735   2.190
 6339SOL     OW19915   0.528   2.328   3.595
 6339SOL    HW119916   0.609   2.384   3.578
 6339SOL    HW219917   0.550   2.254   3.658
 6340SOL     OW19918   2.684   5.562   4.031
 6340SOL    HW119919   2.666   5.494   4.102
 6340SOL    HW219920   2.647   5.528   3.944
 6341SOL     OW19921   6.853   4.855   3.624
 6341SOL    HW119922   6.896   4.765   3.632
 6341SOL    HW219923   6.882   4.913   3.700
 6342SOL     OW19924   2.182   2.566   2.384
 6342SOL    HW119925   2.090   2.572   2.422
 6342SOL    HW219926   2.249   2.592   2.454
 6343SOL     OW19927   3.995   2.071   6.570
 6343SOL    HW119928   4.009   2.038   6.663
 6343SOL    HW219929   3.989   1.993   6.508
 6344SOL     OW19930   0.228   3.950   5.012
 6344SOL    HW119931   0.151   3.980   5.069
 6344SOL    HW219932   0.261   4.026   4.957
 6345SOL     OW19933   3.666   1.559   1.956
 6345SOL    HW119934   3.723   1.640   1.948
 6345SOL    HW219935   3.717   1.479   1.923
 6346SOL     OW19936   0.234   3.450   3.452
 6346SOL    HW119937   0.171   3.478   3.524
 6346SOL    HW219938   0.303   3.389   3.490
 6347SOL     OW19939   2.983   0.165   1.117
 6347SOL    HW119940   2.948   0.092   1.176
 6347SOL    HW219941   2.988   0.132   1.023
 6348SOL     OW19942   0.822   3.124   4.674
 6348SOL    HW119943   0.757   3.194   4.706
 6348SOL    HW219944   0.895   3.114   4.742
 6349SOL     OW19945   2.912   0.493   1.342
 6349SOL    HW119946   2.841   0.425   1.326
 6349SOL    HW219947   2.969   0.504   1.261
 6350SOL     OW19948   1.585   5.818   2.140
 6350SOL    HW119949   1.683   5.838   2.129
 6350SOL    HW219950   1.573   5.746   2.208
 6351SOL     OW19951   0.235   2.339   2.214
 6351SOL    HW119952   0.197   2.314   2.303
 6351SOL    HW219953   0.174   2.306   2.142
 6352SOL     OW19954   1.397   5.103   3.110
 6352SOL    HW119955   1.324   5.096   3.041
 6352SOL    HW219956   1.486   5.107   3.064
 6353SOL     OW19957   0.436   0.086   6.823
 6353SOL    HW119958   0.500   0.070   6.898
 6353SOL    HW219959   0.427   0.003   6.767
 6354SOL     OW19960   0.937   6.644   2.357
 6354SOL    HW119961   0.876   6.721   2.371
 6354SOL    HW219962   0.988   6.657   2.272
 6355SOL     OW19963   1.643   3.164   3.467
 6355SOL    HW119964   1.642   3.074   3.425
 6355SOL    HW219965   1.575   3.168   3.540
 6356SOL     OW19966   4.479   4.680   1.221
 6356SOL    HW119967   4.535   4.675   1.303
 6356SOL    HW219968   4.519   4.746   1.157
 6357SOL     OW19969   4.633   2.805   0.693
 6357SOL    HW119970   4.545   2.823   0.648
 6357SOL    HW219971   4.703   2.788   0.623
 6358SOL     OW19972   0.436   2.155   4.093
 6358SOL    HW119973   0.392   2.154   4.183
 6358SOL    HW219974   0.504   2.082   4.088
 6359SOL     OW19975   6.843   0.517   5.705
 6359SOL    HW119976   6.890   0.555   5.625
 6359SOL    HW219977   6.761   0.571   5.724
 6360SOL     OW19978   2.399   4.901   4.338
 6360SOL    HW119979   2.326   4.841   4.305
 6360SOL    HW219980   2.436   4.864   4.423
 6361SOL     OW19981   4.569   5.540   6.133
 6361SOL    HW119982   4.617   5.591   6.206
 6361SOL    HW219983   4.574   5.442   6.152
 6362SOL     OW19984   5.836   4.843   6.901
 6362SOL    HW119985   5.887   4.767   6.942
 6362SOL    HW219986   5.900   4.903   6.853
 6363SOL     OW19987   1.694   5.856   4.756
 6363SOL    HW119988   1.753   5.794   4.705
 6363SOL    HW219989   1.650   5.920   4.693
 6364SOL     OW19990   2.682   2.518   5.947
 6364SOL    HW119991   2.762   2.480   5.992
 6364SOL    HW219992   2.703   2.537   5.852
 6365SOL     OW19993   4.807   6.856   3.533
 6365SOL    HW119994   4.810   6.956   3.542
 6365SOL    HW219995   4.890   6.817   3.574
 6366SOL     OW19996   0.647   4.962   5.410
 6366SOL    HW119997   0.744   4.962   5.385
 6366SOL    HW219998   0.606   4.874   5.385
 6367SOL     OW19999   5.107   0.483   3.385
 6367SOL    HW120000   5.071   0.391   3.373
 6367SOL    HW220001   5.176   0.483   3.457
 6368SOL     OW20002   3.219   6.957   4.308
 6368SOL    HW120003   3.303   6.968   4.360
 6368SOL    HW220004   3.205   6.860   4.286
 6369SOL     OW20005   2.838   5.638   4.359
 6369SOL    HW120006   2.935   5.661   4.361
 6369SOL    HW220007   2.801   5.656   4.267
 6370SOL     OW20008   0.110   2.137   1.628
 6370SOL    HW120009   0.020   2.180   1.636
 6370SOL    HW220010   0.178   2.207   1.604
 6371SOL     OW20011   5.066   2.895   2.725
 6371SOL    HW120012   5.074   2.809   2.776
 6371SOL    HW220013   4.983   2.944   2.753
 6372SOL     OW20014   3.472   6.397   2.233
 6372SOL    HW120015   3.537   6.374   2.160
 6372SOL    HW220016   3.398   6.329   2.234
 6373SOL     OW20017   4.715   4.350   5.745
 6373SOL    HW120018   4.639   4.285   5.744
 6373SOL    HW220019   4.778   4.327   5.820
 6374SOL     OW20020   3.027   3.134   3.440
 6374SOL    HW120021   3.035   3.059   3.374
 6374SOL    HW220022   3.064   3.105   3.528
 6375SOL     OW20023   1.662   0.324   2.911
 6375SOL    HW120024   1.592   0.298   2.977
 6375SOL    HW220025   1.752   0.324   2.955
 6376SOL     OW20026   6.924   2.118   4.671
 6376SOL    HW120027   7.004   2.155   4.624
 6376SOL    HW220028   6.953   2.058   4.745
 6377SOL     OW20029   0.441   1.385   4.800
 6377SOL    HW120030   0.351   1.353   4.831
 6377SOL    HW220031   0.443   1.485   4.802
 6378SOL     OW20032   4.722   4.177   4.267
 6378SOL    HW120033   4.760   4.127   4.345
 6378SOL    HW220034   4.706   4.114   4.191
 6379SOL     OW20035   2.365   4.380   3.787
 6379SOL    HW120036   2.425   4.425   3.720
 6379SOL    HW220037   2.328   4.296   3.748
 6380SOL     OW20038   0.503   1.518   6.298
 6380SOL    HW120039   0.434   1.447   6.311
 6380SOL    HW220040   0.545   1.540   6.386
 6381SOL     OW20041   3.444   3.473   2.918
 6381SOL    HW120042   3.506   3.474   2.996
 6381SOL    HW220043   3.371   3.540   2.933
 6382SOL     OW20044   1.074   2.629   5.817
 6382SOL    HW120045   1.168   2.656   5.799
 6382SOL    HW220046   1.046   2.662   5.907
 6383SOL     OW20047   2.584   1.770   4.184
 6383SOL    HW120048   2.579   1.859   4.230
 6383SOL    HW220049   2.679   1.741   4.178
 6384SOL     OW20050   5.729   4.991   2.713
 6384SOL    HW120051   5.713   4.928   2.789
 6384SOL    HW220052   5.687   4.956   2.630
 6385SOL     OW20053   6.780   5.391   3.685
 6385SOL    HW120054   6.800   5.295   3.705
 6385SOL    HW220055   6.785   5.406   3.586
 6386SOL     OW20056   2.305   5.189   1.040
 6386SOL    HW120057   2.292   5.261   1.109
 6386SOL    HW220058   2.268   5.220   0.952
 6387SOL     OW20059   0.201   2.416   5.463
 6387SOL    HW120060   0.272   2.351   5.437
 6387SOL    HW220061   0.112   2.379   5.439
 6388SOL     OW20062   3.357   4.713   1.669
 6388SOL    HW120063   3.417   4.654   1.723
 6388SOL    HW220064   3.262   4.699   1.697
 6389SOL     OW20065   1.435   5.391   3.093
 6389SOL    HW120066   1.459   5.454   3.020
 6389SOL    HW220067   1.384   5.313   3.056
 6390SOL     OW20068   0.277   2.614   3.416
 6390SOL    HW120069   0.296   2.521   3.447
 6390SOL    HW220070   0.362   2.666   3.412
 6391SOL     OW20071   2.991   1.982   0.563
 6391SOL    HW120072   2.930   1.994   0.641
 6391SOL    HW220073   2.961   1.903   0.509
 6392SOL     OW20074   1.981   6.867   3.695
 6392SOL    HW120075   1.934   6.899   3.613
 6392SOL    HW220076   2.076   6.897   3.693
 6393SOL     OW20077   6.106   6.698   0.987
 6393SOL    HW120078   6.142   6.648   0.909
 6393SOL    HW220079   6.006   6.700   0.982
 6394SOL     OW20080   2.272   4.965   0.676
 6394SOL    HW120081   2.190   4.998   0.722
 6394SOL    HW220082   2.349   5.025   0.697
 6395SOL     OW20083   5.924   1.354   1.223
 6395SOL    HW120084   5.878   1.440   1.203
 6395SOL    HW220085   5.935   1.302   1.137
 6396SOL     OW20086   4.831   2.869   5.780
 6396SOL    HW120087   4.752   2.814   5.808
 6396SOL    HW220088   4.901   2.866   5.850
 6397SOL     OW20089   0.217   2.311   6.867
 6397SOL    HW120090   0.218   2.344   6.962
 6397SOL    HW220091   0.281   2.235   6.858
 6398SOL     OW20092   2.694   1.554   1.675
 6398SOL    HW120093   2.757   1.483   1.705
 6398SOL    HW220094   2.677   1.618   1.750
 6399SOL     OW20095   1.906   5.592   0.137
 6399SOL    HW120096   1.932   5.537   0.058
 6399SOL    HW220097   1.808   5.608   0.136
 6400SOL     OW20098   2.576   5.514   3.781
 6400SOL    HW120099   2.589   5.415   3.774
 6400SOL    HW220100   2.481   5.537   3.763
 6401SOL     OW20101   0.041   4.679   3.150
 6401SOL    HW120102   0.114   4.747   3.142
 6401SOL    HW220103   0.070   4.604   3.210
 6402SOL     OW20104   2.999   0.741   3.181
 6402SOL    HW120105   2.907   0.753   3.142
 6402SOL    HW220106   3.066   0.785   3.121
 6403SOL     OW20107   1.372   4.015   6.745
 6403SOL    HW120108   1.466   4.011   6.777
 6403SOL    HW220109   1.367   4.066   6.659
 6404SOL     OW20110   4.266   2.059   3.403
 6404SOL    HW120111   4.185   2.097   3.449
 6404SOL    HW220112   4.250   2.058   3.304
 6405SOL     OW20113   2.208   1.857   2.405
 6405SOL    HW120114   2.286   1.917   2.422
 6405SOL    HW220115   2.237   1.761   2.408
 6406SOL     OW20116   2.360   1.141   3.872
 6406SOL    HW120117   2.429   1.177   3.934
 6406SOL    HW220118   2.269   1.173   3.900
 6407SOL     OW20119   3.225   6.147   5.045
 6407SOL    HW120120   3.310   6.099   5.069
 6407SOL    HW220121   3.181   6.180   5.128
 6408SOL     OW20122   5.906   1.579   6.524
 6408SOL    HW120123   5.820   1.553   6.569
 6408SOL    HW220124   5.886   1.607   6.430
 6409SOL     OW20125   6.594   3.460   3.050
 6409SOL    HW120126   6.675   3.441   2.993
 6409SOL    HW220127   6.593   3.557   3.075
 6410SOL     OW20128   1.540   1.814   0.473
 6410SOL    HW120129   1.473   1.769   0.414
 6410SOL    HW220130   1.619   1.754   0.484
 6411SOL     OW20131   0.701   1.101   3.796
 6411SOL    HW120132   0.748   1.024   3.838
 6411SOL    HW220133   0.730   1.109   3.700
 6412SOL     OW20134   0.016   2.951   5.454
 6412SOL    HW120135   0.113   2.971   5.461
 6412SOL    HW220136   6.985   3.034   5.469
 6413SOL     OW20137   6.440   5.198   1.675
 6413SOL    HW120138   6.341   5.204   1.657
 6413SOL    HW220139   6.470   5.280   1.724
 6414SOL     OW20140   6.436   0.253   1.184
 6414SOL    HW120141   6.532   0.227   1.175
 6414SOL    HW220142   6.378   0.179   1.148
 6415SOL     OW20143   1.865   2.274   1.871
 6415SOL    HW120144   1.835   2.285   1.776
 6415SOL    HW220145   1.809   2.333   1.930
 6416SOL     OW20146   1.247   6.997   6.592
 6416SOL    HW120147   1.316   0.007   6.658
 6416SOL    HW220148   1.258   0.023   6.506
 6417SOL     OW20149   0.966   6.918   3.433
 6417SOL    HW120150   0.875   6.876   3.441
 6417SOL    HW220151   0.967   7.005   3.482
 6418SOL     OW20152   6.891   5.355   2.202
 6418SOL    HW120153   6.950   5.280   2.172
 6418SOL    HW220154   6.843   5.393   2.123
 6419SOL     OW20155   3.719   5.026   1.873
 6419SOL    HW120156   3.720   4.941   1.925
 6419SOL    HW220157   3.736   5.006   1.776
 6420SOL     OW20158   3.060   3.759   6.456
 6420SOL    HW120159   3.156   3.742   6.433
 6420SOL    HW220160   3.054   3.825   6.531
 6421SOL     OW20161   5.416   0.780   1.514
 6421SOL    HW120162   5.515   0.779   1.503
 6421SOL    HW220163   5.390   0.720   1.589
 6422SOL     OW20164   6.797   0.714   3.166
 6422SOL    HW120165   6.856   0.770   3.108
 6422SOL    HW220166   6.708   0.702   3.122
 6423SOL     OW20167   4.863   3.306   1.202
 6423SOL    HW120168   4.848   3.375   1.130
 6423SOL    HW220169   4.832   3.217   1.169
 6424SOL     OW20170   6.078   3.542   6.388
 6424SOL    HW120171   6.129   3.584   6.462
 6424SOL    HW220172   5.999   3.599   6.364
 6425SOL     OW20173   0.249   4.438   2.574
 6425SOL    HW120174   0.158   4.464   2.607
 6425SOL    HW220175   0.318   4.499   2.614
 6426SOL     OW20176   1.275   2.343   3.525
 6426SOL    HW120177   1.229   2.372   3.442
 6426SOL    HW220178   1.372   2.369   3.520
 6427SOL     OW20179   1.095   3.534   5.764
 6427SOL    HW120180   1.140   3.449   5.737
 6427SOL    HW220181   1.011   3.512   5.815
 6428SOL     OW20182   6.657   3.816   2.256
 6428SOL    HW120183   6.654   3.837   2.158
 6428SOL    HW220184   6.689   3.896   2.306
 6429SOL     OW20185   1.855   1.204   4.715
 6429SOL    HW120186   1.822   1.172   4.626
 6429SOL    HW220187   1.942   1.158   4.737
 6430SOL     OW20188   5.382   1.502   1.647
 6430SOL    HW120189   5.331   1.559   1.582
 6430SOL    HW220190   5.461   1.462   1.602
 6431SOL     OW20191   4.725   6.388   3.296
 6431SOL    HW120192   4.693   6.377   3.391
 6431SOL    HW220193   4.672   6.461   3.252
 6432SOL     OW20194   4.538   3.681   0.822
 6432SOL    HW120195   4.452   3.643   0.855
 6432SOL    HW220196   4.608   3.672   0.894
 6433SOL     OW20197   2.906   4.396   1.134
 6433SOL    HW120198   2.928   4.451   1.214
 6433SOL    HW220199   2.901   4.299   1.161
 6434SOL     OW20200   0.955   3.857   0.993
 6434SOL    HW120201   1.006   3.805   0.924
 6434SOL    HW220202   0.859   3.827   0.993
 6435SOL     OW20203   3.828   4.696   6.953
 6435SOL    HW120204   3.809   4.733   0.021
 6435SOL    HW220205   3.792   4.603   6.947
 6436SOL     OW20206   2.091   3.167   3.369
 6436SOL    HW120207   2.067   3.234   3.439
 6436SOL    HW220208   2.008   3.135   3.323
 6437SOL     OW20209   1.100   0.063   0.122
 6437SOL    HW120210   1.007   0.027   0.129
 6437SOL    HW220211   1.159   7.017   0.080
 6438SOL     OW20212   0.927   3.734   4.476
 6438SOL    HW120213   0.998   3.751   4.545
 6438SOL    HW220214   0.886   3.644   4.492
 6439SOL     OW20215   1.155   6.865   0.756
 6439SOL    HW120216   1.214   6.841   0.833
 6439SOL    HW220217   1.081   6.798   0.748
 6440SOL     OW20218   1.297   2.122   2.209
 6440SOL    HW120219   1.307   2.055   2.136
 6440SOL    HW220220   1.350   2.093   2.289
 6441SOL     OW20221   1.781   1.188   3.396
 6441SOL    HW120222   1.877   1.159   3.395
 6441SOL    HW220223   1.761   1.238   3.312
 6442SOL     OW20224   2.417   2.222   4.352
 6442SOL    HW120225   2.435   2.206   4.255
 6442SOL    HW220226   2.487   2.175   4.406
 6443SOL     OW20227   2.560   3.074   0.635
 6443SOL    HW120228   2.469   3.085   0.675
 6443SOL    HW220229   2.613   3.008   0.689
 6444SOL     OW20230   0.813   1.697   2.916
 6444SOL    HW120231   0.883   1.743   2.970
 6444SOL    HW220232   0.856   1.645   2.843
 6445SOL     OW20233   4.181   2.788   5.337
 6445SOL    HW120234   4.143   2.707   5.294
 6445SOL    HW220235   4.280   2.793   5.318
 6446SOL     OW20236   6.515   1.382   6.303
 6446SOL    HW120237   6.589   1.423   6.356
 6446SOL    HW220238   6.548   1.360   6.211
 6447SOL     OW20239   2.112   6.215   2.522
 6447SOL    HW120240   2.191   6.273   2.543
 6447SOL    HW220241   2.112   6.135   2.582
 6448SOL     OW20242   6.656   3.086   2.811
 6448SOL    HW120243   6.658   3.014   2.880
 6448SOL    HW220244   6.748   3.119   2.794
 6449SOL     OW20245   3.602   4.022   1.435
 6449SOL    HW120246   3.516   4.062   1.402
 6449SOL    HW220247   3.604   3.925   1.410
 6450SOL     OW20248   6.394   3.533   1.450
 6450SOL    HW120249   6.357   3.474   1.522
 6450SOL    HW220250   6.431   3.617   1.491
 6451SOL     OW20251   2.859   6.171   5.186
 6451SOL    HW120252   2.827   6.081   5.158
 6451SOL    HW220253   2.869   6.230   5.106
 6452SOL     OW20254   3.442   0.121   4.633
 6452SOL    HW120255   3.360   0.116   4.691
 6452SOL    HW220256   3.514   0.064   4.673
 6453SOL     OW20257   1.549   6.394   0.318
 6453SOL    HW120258   1.458   6.435   0.322
 6453SOL    HW220259   1.611   6.456   0.268
 6454SOL     OW20260   2.853   1.922   4.248
 6454SOL    HW120261   2.880   1.851   4.184
 6454SOL    HW220262   2.927   1.990   4.256
 6455SOL     OW20263   6.861   3.102   5.013
 6455SOL    HW120264   6.765   3.073   5.016
 6455SOL    HW220265   6.919   3.025   5.038
 6456SOL     OW20266   1.270   0.395   3.406
 6456SOL    HW120267   1.206   0.333   3.360
 6456SOL    HW220268   1.235   0.489   3.401
 6457SOL     OW20269   6.872   2.580   1.646
 6457SOL    HW120270   6.796   2.584   1.710
 6457SOL    HW220271   6.915   2.670   1.640
 6458SOL     OW20272   1.525   5.593   2.954
 6458SOL    HW120273   1.615   5.551   2.964
 6458SOL    HW220274   1.515   5.630   2.862
 6459SOL     OW20275   6.617   4.518   0.128
 6459SOL    HW120276   6.638   4.452   0.200
 6459SOL    HW220277   6.626   4.611   0.164
 6460SOL     OW20278   4.312   4.575   6.968
 6460SOL    HW120279   4.293   4.497   0.005
 6460SOL    HW220280   4.311   4.545   6.872
 6461SOL     OW20281   2.467   5.192   5.350
 6461SOL    HW120282   2.424   5.153   5.431
 6461SOL    HW220283   2.448   5.134   5.271
 6462SOL     OW20284   2.024   3.117   5.252
 6462SOL    HW120285   2.082   3.198   5.268
 6462SOL    HW220286   2.050   3.075   5.165
 6463SOL     OW20287   2.634   4.970   6.544
 6463SOL    HW120288   2.555   4.954   6.603
 6463SOL    HW220289   2.673   5.060   6.564
 6464SOL     OW20290   0.237   5.069   3.544
 6464SOL    HW120291   0.201   5.137   3.608
 6464SOL    HW220292   0.189   5.076   3.456
 6465SOL     OW20293   5.839   1.809   3.791
 6465SOL    HW120294   5.910   1.739   3.784
 6465SOL    HW220295   5.750   1.769   3.769
 6466SOL     OW20296   0.345   2.808   4.941
 6466SOL    HW120297   0.418   2.747   4.973
 6466SOL    HW220298   0.316   2.867   5.016
 6467SOL     OW20299   2.478   1.292   6.607
 6467SOL    HW120300   2.539   1.369   6.625
 6467SOL    HW220301   2.384   1.324   6.599
 6468SOL     OW20302   4.717   6.111   1.596
 6468SOL    HW120303   4.756   6.042   1.657
 6468SOL    HW220304   4.680   6.186   1.652
 6469SOL     OW20305   6.832   0.849   4.899
 6469SOL    HW120306   6.791   0.828   4.988
 6469SOL    HW220307   6.844   0.765   4.847
 6470SOL     OW20308   6.303   6.302   5.850
 6470SOL    HW120309   6.390   6.304   5.801
 6470SOL    HW220310   6.268   6.208   5.852
 6471SOL     OW20311   0.017   4.838   6.391
 6471SOL    HW120312   6.960   4.886   6.353
 6471SOL    HW220313   0.038   4.759   6.335
 6472SOL     OW20314   0.498   6.116   1.612
 6472SOL    HW120315   0.563   6.181   1.574
 6472SOL    HW220316   0.448   6.160   1.687
 6473SOL     OW20317   2.050   1.433   6.030
 6473SOL    HW120318   1.965   1.423   6.081
 6473SOL    HW220319   2.101   1.512   6.065
 6474SOL     OW20320   1.228   3.559   6.236
 6474SOL    HW120321   1.161   3.632   6.220
 6474SOL    HW220322   1.274   3.537   6.150
 6475SOL     OW20323   5.689   6.321   3.551
 6475SOL    HW120324   5.634   6.238   3.546
 6475SOL    HW220325   5.650   6.390   3.490
 6476SOL     OW20326   4.237   4.708   3.331
 6476SOL    HW120327   4.150   4.750   3.307
 6476SOL    HW220328   4.256   4.724   3.428
 6477SOL     OW20329   6.561   5.229   6.907
 6477SOL    HW120330   6.566   5.136   6.942
 6477SOL    HW220331   6.639   5.247   6.847
 6478SOL     OW20332   4.357   5.772   2.127
 6478SOL    HW120333   4.320   5.730   2.209
 6478SOL    HW220334   4.386   5.865   2.147
 6479SOL     OW20335   4.741   4.872   2.055
 6479SOL    HW120336   4.665   4.931   2.029
 6479SOL    HW220337   4.791   4.844   1.974
 6480SOL     OW20338   3.165   2.658   6.450
 6480SOL    HW120339   3.186   2.734   6.389
 6480SOL    HW220340   3.099   2.688   6.519
 6481SOL     OW20341   3.518   1.501   1.639
 6481SOL    HW120342   3.531   1.534   1.545
 6481SOL    HW220343   3.422   1.506   1.663
 6482SOL     OW20344   6.578   6.767   0.074
 6482SOL    HW120345   6.632   6.821   0.138
 6482SOL    HW220346   6.481   6.784   0.090
 6483SOL     OW20347   2.065   6.598   2.425
 6483SOL    HW120348   2.135   6.547   2.475
 6483SOL    HW220349   1.996   6.534   2.390
 6484SOL     OW20350   4.932   0.075   2.793
 6484SOL    HW120351   4.850   0.018   2.801
 6484SOL    HW220352   5.013   0.018   2.797
 6485SOL     OW20353   1.842   2.790   3.857
 6485SOL    HW120354   1.764   2.729   3.872
 6485SOL    HW220355   1.811   2.871   3.806
 6486SOL     OW20356   1.253   3.649   4.083
 6486SOL    HW120357   1.313   3.647   4.164
 6486SOL    HW220358   1.160   3.628   4.110
 6487SOL     OW20359   6.131   6.905   3.981
 6487SOL    HW120360   6.121   6.822   4.034
 6487SOL    HW220361   6.105   6.888   3.886
 6488SOL     OW20362   2.625   5.378   6.081
 6488SOL    HW120363   2.666   5.352   6.168
 6488SOL    HW220364   2.550   5.443   6.098
 6489SOL     OW20365   1.933   1.975   6.491
 6489SOL    HW120366   1.864   2.040   6.459
 6489SOL    HW220367   1.933   1.973   6.591
 6490SOL     OW20368   4.001   2.907   0.368
 6490SOL    HW120369   4.087   2.856   0.366
 6490SOL    HW220370   3.964   2.912   0.275
 6491SOL     OW20371   4.752   1.196   6.375
 6491SOL    HW120372   4.715   1.247   6.453
 6491SOL    HW220373   4.846   1.169   6.396
 6492SOL     OW20374   6.655   6.504   0.070
 6492SOL    HW120375   6.607   6.592   0.076
 6492SOL    HW220376   6.733   6.504   0.132
 6493SOL     OW20377   2.131   6.365   6.274
 6493SOL    HW120378   2.116   6.431   6.347
 6493SOL    HW220379   2.185   6.407   6.201
 6494SOL     OW20380   1.366   6.848   3.699
 6494SOL    HW120381   1.364   6.944   3.670
 6494SOL    HW220382   1.344   6.789   3.621
 6495SOL     OW20383   5.179   5.474   2.973
 6495SOL    HW120384   5.089   5.452   2.936
 6495SOL    HW220385   5.213   5.397   3.026
 6496SOL     OW20386   0.394   6.345   1.792
 6496SOL    HW120387   0.367   6.387   1.706
 6496SOL    HW220388   0.490   6.365   1.811
 6497SOL     OW20389   2.023   3.867   0.839
 6497SOL    HW120390   2.120   3.881   0.820
 6497SOL    HW220391   1.973   3.951   0.818
 6498SOL     OW20392   1.573   3.959   4.526
 6498SOL    HW120393   1.589   4.033   4.591
 6498SOL    HW220394   1.656   3.902   4.519
 6499SOL     OW20395   4.795   0.840   4.722
 6499SOL    HW120396   4.863   0.808   4.656
 6499SOL    HW220397   4.831   0.829   4.815
 6500SOL     OW20398   5.724   4.122   3.086
 6500SOL    HW120399   5.794   4.189   3.063
 6500SOL    HW220400   5.721   4.050   3.016
 6501SOL     OW20401   5.659   3.629   1.067
 6501SOL    HW120402   5.613   3.578   1.139
 6501SOL    HW220403   5.600   3.705   1.038
 6502SOL     OW20404   0.859   4.557   3.930
 6502SOL    HW120405   0.794   4.616   3.977
 6502SOL    HW220406   0.810   4.486   3.881
 6503SOL     OW20407   6.087   6.454   3.611
 6503SOL    HW120408   6.171   6.477   3.561
 6503SOL    HW220409   6.022   6.414   3.547
 6504SOL     OW20410   3.995   1.181   6.991
 6504SOL    HW120411   3.902   1.201   7.019
 6504SOL    HW220412   4.009   1.082   6.986
 6505SOL     OW20413   5.843   4.674   0.402
 6505SOL    HW120414   5.894   4.743   0.351
 6505SOL    HW220415   5.899   4.639   0.477
 6506SOL     OW20416   1.273   3.644   1.224
 6506SOL    HW120417   1.316   3.554   1.232
 6506SOL    HW220418   1.215   3.646   1.142
 6507SOL     OW20419   2.253   6.014   1.708
 6507SOL    HW120420   2.308   5.934   1.731
 6507SOL    HW220421   2.156   5.990   1.715
 6508SOL     OW20422   2.360   2.061   3.810
 6508SOL    HW120423   2.331   1.986   3.870
 6508SOL    HW220424   2.284   2.124   3.796
 6509SOL     OW20425   1.735   2.299   4.558
 6509SOL    HW120426   1.708   2.376   4.616
 6509SOL    HW220427   1.748   2.331   4.464
 6510SOL     OW20428   6.516   4.864   6.671
 6510SOL    HW120429   6.529   4.917   6.587
 6510SOL    HW220430   6.602   4.862   6.722
 6511SOL     OW20431   6.248   6.743   5.787
 6511SOL    HW120432   6.185   6.780   5.855
 6511SOL    HW220433   6.202   6.737   5.699
 6512SOL     OW20434   4.914   6.512   3.010
 6512SOL    HW120435   4.966   6.437   2.969
 6512SOL    HW220436   4.962   6.546   3.091
 6513SOL     OW20437   4.231   6.955   3.796
 6513SOL    HW120438   4.138   6.961   3.831
 6513SOL    HW220439   4.263   6.861   3.801
 6514SOL     OW20440   4.635   0.414   4.302
 6514SOL    HW120441   4.627   0.395   4.204
 6514SOL    HW220442   4.667   0.507   4.315
 6515SOL     OW20443   6.845   6.243   4.114
 6515SOL    HW120444   6.777   6.305   4.153
 6515SOL    HW220445   6.879   6.281   4.028
 6516SOL     OW20446   1.127   2.005   6.098
 6516SOL    HW120447   1.170   2.030   6.185
 6516SOL    HW220448   1.089   1.913   6.105
 6517SOL     OW20449   0.660   1.678   0.364
 6517SOL    HW120450   0.715   1.752   0.325
 6517SOL    HW220451   0.565   1.689   0.335
 6518SOL     OW20452   0.738   6.578   1.471
 6518SOL    HW120453   0.827   6.545   1.441
 6518SOL    HW220454   0.667   6.543   1.410
 6519SOL     OW20455   2.039   1.358   4.179
 6519SOL    HW120456   2.121   1.328   4.227
 6519SOL    HW220457   2.012   1.449   4.211
 6520SOL     OW20458   6.451   5.993   2.171
 6520SOL    HW120459   6.464   5.901   2.134
 6520SOL    HW220460   6.378   6.039   2.120
 6521SOL     OW20461   0.650   1.643   5.009
 6521SOL    HW120462   0.665   1.546   5.028
 6521SOL    HW220463   0.577   1.679   5.067
 6522SOL     OW20464   2.545   5.377   6.593
 6522SOL    HW120465   2.447   5.369   6.578
 6522SOL    HW220466   2.562   5.443   6.667
 6523SOL     OW20467   2.035   1.801   6.772
 6523SOL    HW120468   1.989   1.716   6.745
 6523SOL    HW220469   2.126   1.780   6.809
 6524SOL     OW20470   3.789   3.419   4.057
 6524SOL    HW120471   3.789   3.518   4.074
 6524SOL    HW220472   3.881   3.391   4.029
 6525SOL     OW20473   0.620   2.720   2.811
 6525SOL    HW120474   0.624   2.741   2.714
 6525SOL    HW220475   0.535   2.672   2.832
 6526SOL     OW20476   1.176   5.713   4.861
 6526SOL    HW120477   1.091   5.669   4.892
 6526SOL    HW220478   1.248   5.644   4.854
 6527SOL     OW20479   1.249   6.555   4.966
 6527SOL    HW120480   1.177   6.538   5.033
 6527SOL    HW220481   1.209   6.556   4.874
 6528SOL     OW20482   0.958   0.990   4.529
 6528SOL    HW120483   0.883   0.933   4.563
 6528SOL    HW220484   0.921   1.060   4.468
 6529SOL     OW20485   5.819   1.966   1.880
 6529SOL    HW120486   5.905   1.943   1.835
 6529SOL    HW220487   5.774   1.883   1.912
 6530SOL     OW20488   6.872   2.388   0.018
 6530SOL    HW120489   6.907   2.334   0.095
 6530SOL    HW220490   6.772   2.383   0.015
 6531SOL     OW20491   5.614   2.660   3.743
 6531SOL    HW120492   5.672   2.650   3.825
 6531SOL    HW220493   5.530   2.707   3.767
 6532SOL     OW20494   6.040   1.365   6.654
 6532SOL    HW120495   6.000   1.449   6.616
 6532SOL    HW220496   6.126   1.346   6.608
 6533SOL     OW20497   5.067   6.756   0.411
 6533SOL    HW120498   5.114   6.734   0.326
 6533SOL    HW220499   4.978   6.796   0.391
 6534SOL     OW20500   2.337   3.889   1.568
 6534SOL    HW120501   2.272   3.827   1.611
 6534SOL    HW220502   2.405   3.918   1.636
 6535SOL     OW20503   0.428   3.266   4.886
 6535SOL    HW120504   0.344   3.321   4.892
 6535SOL    HW220505   0.406   3.176   4.848
 6536SOL     OW20506   5.830   1.574   0.143
 6536SOL    HW120507   5.886   1.528   0.212
 6536SOL    HW220508   5.888   1.633   0.087
 6537SOL     OW20509   0.256   0.052   0.002
 6537SOL    HW120510   0.252   0.133   0.061
 6537SOL    HW220511   0.320   0.069   6.950
 6538SOL     OW20512   3.336   3.993   0.361
 6538SOL    HW120513   3.313   3.895   0.367
 6538SOL    HW220514   3.328   4.035   0.452
 6539SOL     OW20515   2.330   1.655   6.577
 6539SOL    HW120516   2.428   1.658   6.559
 6539SOL    HW220517   2.303   1.561   6.601
 6540SOL     OW20518   3.797   0.488   4.643
 6540SOL    HW120519   3.811   0.578   4.602
 6540SOL    HW220520   3.704   0.456   4.623
 6541SOL     OW20521   3.091   2.266   5.892
 6541SOL    HW120522   3.099   2.245   5.794
 6541SOL    HW220523   3.137   2.194   5.944
 6542SOL     OW20524   6.498   5.011   3.336
 6542SOL    HW120525   6.445   5.080   3.287
 6542SOL    HW220526   6.565   5.056   3.395
 6543SOL     OW20527   6.190   5.904   6.828
 6543SOL    HW120528   6.279   5.859   6.821
 6543SOL    HW220529   6.161   5.934   6.738
 6544SOL     OW20530   6.897   6.350   3.877
 6544SOL    HW120531   6.863   6.261   3.847
 6544SOL    HW220532   6.879   6.419   3.806
 6545SOL     OW20533   5.088   1.451   5.656
 6545SOL    HW120534   5.118   1.416   5.567
 6545SOL    HW220535   5.128   1.541   5.671
 6546SOL     OW20536   3.070   5.508   5.936
 6546SOL    HW120537   3.128   5.464   5.868
 6546SOL    HW220538   3.005   5.569   5.891
 6547SOL     OW20539   5.381   2.523   6.332
 6547SOL    HW120540   5.327   2.552   6.253
 6547SOL    HW220541   5.344   2.566   6.414
 6548SOL     OW20542   6.152   4.370   5.785
 6548SOL    HW120543   6.087   4.336   5.716
 6548SOL    HW220544   6.151   4.308   5.863
 6549SOL     OW20545   3.791   2.118   0.740
 6549SOL    HW120546   3.863   2.168   0.787
 6549SOL    HW220547   3.770   2.164   0.653
 6550SOL     OW20548   0.890   5.742   3.586
 6550SOL    HW120549   0.807   5.798   3.584
 6550SOL    HW220550   0.966   5.796   3.622
 6551SOL     OW20551   1.655   5.120   1.682
 6551SOL    HW120552   1.579   5.156   1.736
 6551SOL    HW220553   1.736   5.176   1.699
 6552SOL     OW20554   2.542   4.494   5.851
 6552SOL    HW120555   2.559   4.461   5.758
 6552SOL    HW220556   2.627   4.528   5.891
 6553SOL     OW20557   0.618   3.349   2.114
 6553SOL    HW120558   0.536   3.406   2.105
 6553SOL    HW220559   0.595   3.266   2.165
 6554SOL     OW20560   6.147   1.851   6.251
 6554SOL    HW120561   6.163   1.882   6.345
 6554SOL    HW220562   6.225   1.877   6.194
 6555SOL     OW20563   1.660   1.201   2.308
 6555SOL    HW120564   1.712   1.118   2.330
 6555SOL    HW220565   1.621   1.239   2.393
 6556SOL     OW20566   4.410   5.384   5.114
 6556SOL    HW120567   4.441   5.353   5.024
 6556SOL    HW220568   4.345   5.319   5.151
 6557SOL     OW20569   6.337   5.489   0.347
 6557SOL    HW120570   6.374   5.499   0.440
 6557SOL    HW220571   6.408   5.452   0.287
 6558SOL     OW20572   6.063   5.958   0.037
 6558SOL    HW120573   6.105   5.942   6.971
 6558SOL    HW220574   6.087   6.049   0.070
 6559SOL     OW20575   4.981   3.676   1.399
 6559SOL    HW120576   4.947   3.637   1.314
 6559SOL    HW220577   5.039   3.608   1.446
 6560SOL     OW20578   3.572   3.222   0.951
 6560SOL    HW120579   3.591   3.127   0.926
 6560SOL    HW220580   3.506   3.261   0.888
 6561SOL     OW20581   3.619   4.145   2.787
 6561SOL    HW120582   3.596   4.124   2.882
 6561SOL    HW220583   3.619   4.244   2.774
 6562SOL     OW20584   6.342   4.741   5.974
 6562SOL    HW120585   6.289   4.684   5.911
 6562SOL    HW220586   6.422   4.690   6.006
 6563SOL     OW20587   0.541   5.994   0.632
 6563SOL    HW120588   0.505   6.036   0.715
 6563SOL    HW220589   0.609   5.925   0.657
 6564SOL     OW20590   1.146   4.082   2.155
 6564SOL    HW120591   1.242   4.065   2.175
 6564SOL    HW220592   1.138   4.157   2.089
 6565SOL     OW20593   6.565   2.598   4.687
 6565SOL    HW120594   6.634   2.670   4.684
 6565SOL    HW220595   6.474   2.639   4.699
 6566SOL     OW20596   3.429   6.715   1.032
 6566SOL    HW120597   3.503   6.655   1.000
 6566SOL    HW220598   3.467   6.805   1.054
 6567SOL     OW20599   5.068   2.903   0.878
 6567SOL    HW120600   5.013   2.960   0.817
 6567SOL    HW220601   5.021   2.894   0.966
 6568SOL     OW20602   4.355   4.476   1.729
 6568SOL    HW120603   4.321   4.526   1.808
 6568SOL    HW220604   4.385   4.385   1.758
 6569SOL     OW20605   1.966   4.758   0.659
 6569SOL    HW120606   1.871   4.788   0.665
 6569SOL    HW220607   2.002   4.782   0.568
 6570SOL     OW20608   5.523   1.232   1.719
 6570SOL    HW120609   5.597   1.288   1.682
 6570SOL    HW220610   5.554   1.188   1.804
 6571SOL     OW20611   2.392   6.125   3.530
 6571SOL    HW120612   2.364   6.146   3.624
 6571SOL    HW220613   2.316   6.141   3.467
 6572SOL     OW20614   0.015   3.759   5.329
 6572SOL    HW120615   6.981   3.815   5.388
 6572SOL    HW220616   0.109   3.793   5.329
 6573SOL     OW20617   2.968   1.002   2.001
 6573SOL    HW120618   2.989   0.973   2.094
 6573SOL    HW220619   3.018   1.087   1.981
 6574SOL     OW20620   2.640   5.045   2.353
 6574SOL    HW120621   2.730   5.042   2.397
 6574SOL    HW220622   2.599   4.954   2.354
 6575SOL     OW20623   1.224   1.371   1.839
 6575SOL    HW120624   1.204   1.299   1.772
 6575SOL    HW220625   1.139   1.403   1.880
 6576SOL     OW20626   1.365   5.792   6.846
 6576SOL    HW120627   1.377   5.891   6.845
 6576SOL    HW220628   1.328   5.764   6.935
 6577SOL     OW20629   0.853   1.855   3.973
 6577SOL    HW120630   0.915   1.843   4.050
 6577SOL    HW220631   0.905   1.879   3.891
 6578SOL     OW20632   5.932   5.602   3.424
 6578SOL    HW120633   5.980   5.517   3.446
 6578SOL    HW220634   5.856   5.614   3.488
 6579SOL     OW20635   6.958   4.279   3.458
 6579SOL    HW120636   6.872   4.230   3.442
 6579SOL    HW220637   6.955   4.323   3.547
 6580SOL     OW20638   5.083   0.737   1.504
 6580SOL    HW120639   5.164   0.768   1.554
 6580SOL    HW220640   5.008   0.801   1.520
 6581SOL     OW20641   4.262   2.233   6.758
 6581SOL    HW120642   4.243   2.216   6.661
 6581SOL    HW220643   4.178   2.224   6.811
 6582SOL     OW20644   0.189   0.075   2.778
 6582SOL    HW120645   0.157   0.097   2.870
 6582SOL    HW220646   0.159   0.147   2.715
 6583SOL     OW20647   5.604   1.170   5.864
 6583SOL    HW120648   5.670   1.225   5.915
 6583SOL    HW220649   5.528   1.228   5.835
 6584SOL     OW20650   5.897   1.702   6.913
 6584SOL    HW120651   5.962   1.628   6.897
 6584SOL    HW220652   5.946   1.788   6.927
 6585SOL     OW20653   0.512   1.678   6.627
 6585SOL    HW120654   0.527   1.759   6.570
 6585SOL    HW220655   0.588   1.614   6.615
 6586SOL     OW20656   6.630   1.943   6.052
 6586SOL    HW120657   6.701   1.934   6.122
 6586SOL    HW220658   6.658   1.891   5.971
 6587SOL     OW20659   1.954   5.755   3.801
 6587SOL    HW120660   1.859   5.783   3.789
 6587SOL    HW220661   1.993   5.732   3.712
 6588SOL     OW20662   1.431   3.037   0.086
 6588SOL    HW120663   1.355   3.061   0.026
 6588SOL    HW220664   1.517   3.045   0.036
 6589SOL     OW20665   4.881   1.178   5.934
 6589SOL    HW120666   4.871   1.132   5.846
 6589SOL    HW220667   4.791   1.207   5.967
 6590SOL     OW20668   0.191   1.305   4.881
 6590SOL    HW120669   0.174   1.287   4.784
 6590SOL    HW220670   0.159   1.228   4.936
 6591SOL     OW20671   5.683   6.513   2.949
 6591SOL    HW120672   5.740   6.552   2.877
 6591SOL    HW220673   5.587   6.537   2.931
 6592SOL     OW20674   4.505   0.165   4.681
 6592SOL    HW120675   4.454   0.187   4.597
 6592SOL    HW220676   4.441   0.141   4.754
 6593SOL     OW20677   3.171   2.183   3.338
 6593SOL    HW120678   3.160   2.277   3.308
 6593SOL    HW220679   3.239   2.179   3.411
 6594SOL     OW20680   4.862   0.864   6.560
 6594SOL    HW120681   4.858   0.888   6.657
 6594SOL    HW220682   4.954   0.883   6.525
 6595SOL     OW20683   1.553   3.370   0.593
 6595SOL    HW120684   1.503   3.291   0.628
 6595SOL    HW220685   1.493   3.424   0.534
 6596SOL     OW20686   4.856   0.196   5.772
 6596SOL    HW120687   4.939   0.196   5.716
 6596SOL    HW220688   4.878   0.161   5.863
 6597SOL     OW20689   6.762   6.282   4.571
 6597SOL    HW120690   6.828   6.273   4.646
 6597SOL    HW220691   6.720   6.193   4.553
 6598SOL     OW20692   1.425   5.605   5.116
 6598SOL    HW120693   1.470   5.578   5.201
 6598SOL    HW220694   1.494   5.623   5.046
 6599SOL     OW20695   4.250   5.349   6.477
 6599SOL    HW120696   4.201   5.293   6.410
 6599SOL    HW220697   4.348   5.349   6.455
 6600SOL     OW20698   4.547   5.829   4.447
 6600SOL    HW120699   4.490   5.786   4.516
 6600SOL    HW220700   4.643   5.806   4.463
 6601SOL     OW20701   0.601   1.027   0.410
 6601SOL    HW120702   0.602   0.938   0.456
 6601SOL    HW220703   0.644   1.019   0.320
 6602SOL     OW20704   0.363   1.922   1.333
 6602SOL    HW120705   0.398   1.829   1.345
 6602SOL    HW220706   0.334   1.958   1.422
 6603SOL     OW20707   1.891   3.761   3.082
 6603SOL    HW120708   1.890   3.774   3.181
 6603SOL    HW220709   1.945   3.680   3.059
 6604SOL     OW20710   3.094   5.619   2.311
 6604SOL    HW120711   3.078   5.680   2.389
 6604SOL    HW220712   3.026   5.546   2.312
 6605SOL     OW20713   5.557   6.093   0.357
 6605SOL    HW120714   5.615   6.170   0.332
 6605SOL    HW220715   5.530   6.100   0.453
 6606SOL     OW20716   5.075   0.512   2.237
 6606SOL    HW120717   5.149   0.522   2.303
 6606SOL    HW220718   5.019   0.433   2.262
 6607SOL     OW20719   1.775   1.400   2.112
 6607SOL    HW120720   1.870   1.382   2.136
 6607SOL    HW220721   1.715   1.354   2.178
 6608SOL     OW20722   5.456   3.483   3.617
 6608SOL    HW120723   5.422   3.559   3.673
 6608SOL    HW220724   5.554   3.471   3.635
 6609SOL     OW20725   5.702   1.057   7.003
 6609SOL    HW120726   5.624   1.071   0.043
 6609SOL    HW220727   5.699   0.963   6.968
 6610SOL     OW20728   1.868   0.545   0.781
 6610SOL    HW120729   1.923   0.558   0.863
 6610SOL    HW220730   1.799   0.618   0.775
 6611SOL     OW20731   6.574   2.414   3.305
 6611SOL    HW120732   6.496   2.476   3.295
 6611SOL    HW220733   6.574   2.348   3.230
 6612SOL     OW20734   1.692   6.386   0.045
 6612SOL    HW120735   1.715   6.458   0.109
 6612SOL    HW220736   1.632   6.423   6.996
 6613SOL     OW20737   5.154   5.739   2.956
 6613SOL    HW120738   5.159   5.645   2.990
 6613SOL    HW220739   5.144   5.738   2.856
 6614SOL     OW20740   5.247   5.402   6.339
 6614SOL    HW120741   5.255   5.339   6.262
 6614SOL    HW220742   5.164   5.457   6.328
 6615SOL     OW20743   0.335   3.522   5.269
 6615SOL    HW120744   0.381   3.582   5.335
 6615SOL    HW220745   0.401   3.488   5.202
 6616SOL     OW20746   4.732   1.514   5.323
 6616SOL    HW120747   4.753   1.507   5.421
 6616SOL    HW220748   4.702   1.425   5.289
 6617SOL     OW20749   2.621   6.844   4.482
 6617SOL    HW120750   2.705   6.871   4.435
 6617SOL    HW220751   2.640   6.767   4.543
 6618SOL     OW20752   0.918   4.244   1.692
 6618SOL    HW120753   1.012   4.263   1.662
 6618SOL    HW220754   0.873   4.330   1.716
 6619SOL     OW20755   4.571   6.734   3.595
 6619SOL    HW120756   4.588   6.641   3.626
 6619SOL    HW220757   4.658   6.784   3.591
 6620SOL     OW20758   1.318   2.764   5.836
 6620SOL    HW120759   1.380   2.823   5.886
 6620SOL    HW220760   1.352   2.670   5.837
 6621SOL     OW20761   2.682   3.951   0.232
 6621SOL    HW120762   2.623   3.954   0.313
 6621SOL    HW220763   2.624   3.953   0.149
 6622SOL     OW20764   6.271   6.317   0.636
 6622SOL    HW120765   6.202   6.313   0.708
 6622SOL    HW220766   6.303   6.225   0.614
 6623SOL     OW20767   4.175   3.356   3.003
 6623SOL    HW120768   4.123   3.424   2.952
 6623SOL    HW220769   4.262   3.338   2.957
 6624SOL     OW20770   4.021   5.732   4.592
 6624SOL    HW120771   4.049   5.684   4.674
 6624SOL    HW220772   3.921   5.742   4.591
 6625SOL     OW20773   6.175   0.707   6.462
 6625SOL    HW120774   6.101   0.774   6.451
 6625SOL    HW220775   6.257   0.753   6.495
 6626SOL     OW20776   3.367   5.208   3.048
 6626SOL    HW120777   3.376   5.136   2.979
 6626SOL    HW220778   3.440   5.275   3.034
 6627SOL     OW20779   1.980   1.075   6.308
 6627SOL    HW120780   2.022   1.057   6.219
 6627SOL    HW220781   1.955   1.172   6.314
 6628SOL     OW20782   4.281   5.100   2.951
 6628SOL    HW120783   4.251   5.166   3.020
 6628SOL    HW220784   4.313   5.017   2.996
 6629SOL     OW20785   3.200   5.683   1.183
 6629SOL    HW120786   3.268   5.749   1.151
 6629SOL    HW220787   3.198   5.683   1.283
 6630SOL     OW20788   3.101   1.998   0.299
 6630SOL    HW120789   3.147   2.077   0.259
 6630SOL    HW220790   3.062   2.022   0.387
 6631SOL     OW20791   5.209   0.586   2.471
 6631SOL    HW120792   5.170   0.630   2.552
 6631SOL    HW220793   5.274   0.515   2.499
 6632SOL     OW20794   6.802   1.229   6.985
 6632SOL    HW120795   6.812   1.136   7.019
 6632SOL    HW220796   6.771   1.289   0.036
 6633SOL     OW20797   1.752   6.208   0.345
 6633SOL    HW120798   1.694   6.286   0.321
 6633SOL    HW220799   1.703   6.123   0.329
 6634SOL     OW20800   6.321   2.785   5.822
 6634SOL    HW120801   6.364   2.741   5.901
 6634SOL    HW220802   6.279   2.871   5.851
 6635SOL     OW20803   4.699   5.418   3.440
 6635SOL    HW120804   4.761   5.420   3.362
 6635SOL    HW220805   4.751   5.422   3.525
 6636SOL     OW20806   1.479   2.592   4.477
 6636SOL    HW120807   1.418   2.668   4.501
 6636SOL    HW220808   1.483   2.527   4.552
 6637SOL     OW20809   0.809   0.485   0.609
 6637SOL    HW120810   0.856   0.452   0.691
 6637SOL    HW220811   0.861   0.562   0.571
 6638SOL     OW20812   1.564   5.880   5.562
 6638SOL    HW120813   1.552   5.828   5.647
 6638SOL    HW220814   1.601   5.821   5.491
 6639SOL     OW20815   6.025   4.667   6.440
 6639SOL    HW120816   6.075   4.719   6.509
 6639SOL    HW220817   6.063   4.575   6.433
 6640SOL     OW20818   0.052   2.064   3.361
 6640SOL    HW120819   0.083   2.141   3.417
 6640SOL    HW220820   0.108   1.984   3.380
 6641SOL     OW20821   2.804   3.706   6.396
 6641SOL    HW120822   2.779   3.744   6.307
 6641SOL    HW220823   2.898   3.731   6.418
 6642SOL     OW20824   1.331   5.206   6.272
 6642SOL    HW120825   1.407   5.143   6.283
 6642SOL    HW220826   1.346   5.287   6.329
 6643SOL     OW20827   5.853   3.812   6.050
 6643SOL    HW120828   5.783   3.854   5.993
 6643SOL    HW220829   5.927   3.878   6.064
 6644SOL     OW20830   2.801   4.824   1.880
 6644SOL    HW120831   2.776   4.906   1.932
 6644SOL    HW220832   2.795   4.744   1.940
 6645SOL     OW20833   6.803   4.453   5.947
 6645SOL    HW120834   6.837   4.544   5.967
 6645SOL    HW220835   6.876   4.386   5.958
 6646SOL     OW20836   3.208   5.630   4.679
 6646SOL    HW120837   3.278   5.665   4.741
 6646SOL    HW220838   3.125   5.684   4.687
 6647SOL     OW20839   3.455   0.712   2.007
 6647SOL    HW120840   3.491   0.798   2.044
 6647SOL    HW220841   3.449   0.719   1.907
 6648SOL     OW20842   4.418   6.005   2.817
 6648SOL    HW120843   4.363   5.923   2.831
 6648SOL    HW220844   4.514   5.979   2.807
 6649SOL     OW20845   4.874   1.841   6.394
 6649SOL    HW120846   4.933   1.868   6.470
 6649SOL    HW220847   4.927   1.843   6.309
 6650SOL     OW20848   3.873   0.960   4.150
 6650SOL    HW120849   3.968   0.981   4.127
 6650SOL    HW220850   3.829   1.042   4.186
 6651SOL     OW20851   0.627   2.254   0.193
 6651SOL    HW120852   0.718   2.262   0.232
 6651SOL    HW220853   0.633   2.250   0.094
 6652SOL     OW20854   0.137   5.513   1.450
 6652SOL    HW120855   0.089   5.439   1.497
 6652SOL    HW220856   0.235   5.491   1.445
 6653SOL     OW20857   3.304   4.069   2.984
 6653SOL    HW120858   3.399   4.067   3.013
 6653SOL    HW220859   3.299   4.091   2.886
 6654SOL     OW20860   2.123   3.408   1.669
 6654SOL    HW120861   2.115   3.308   1.672
 6654SOL    HW220862   2.209   3.436   1.711
 6655SOL     OW20863   3.256   6.823   2.235
 6655SOL    HW120864   3.268   6.725   2.217
 6655SOL    HW220865   3.208   6.865   2.158
 6656SOL     OW20866   6.504   1.687   1.182
 6656SOL    HW120867   6.601   1.668   1.171
 6656SOL    HW220868   6.490   1.785   1.196
 6657SOL     OW20869   3.870   6.589   6.233
 6657SOL    HW120870   3.809   6.539   6.295
 6657SOL    HW220871   3.903   6.671   6.279
 6658SOL     OW20872   5.888   1.337   5.151
 6658SOL    HW120873   5.880   1.412   5.217
 6658SOL    HW220874   5.797   1.312   5.118
 6659SOL     OW20875   2.800   3.752   6.978
 6659SOL    HW120876   2.840   3.671   6.935
 6659SOL    HW220877   2.729   3.790   6.918
 6660SOL     OW20878   6.911   6.713   2.404
 6660SOL    HW120879   6.836   6.668   2.356
 6660SOL    HW220880   6.906   6.811   2.389
 6661SOL     OW20881   6.648   5.579   3.807
 6661SOL    HW120882   6.621   5.539   3.895
 6661SOL    HW220883   6.690   5.509   3.749
 6662SOL     OW20884   2.265   1.053   0.147
 6662SOL    HW120885   2.218   0.995   0.081
 6662SOL    HW220886   2.353   1.081   0.110
 6663SOL     OW20887   0.474   5.644   1.631
 6663SOL    HW120888   0.571   5.630   1.610
 6663SOL    HW220889   0.465   5.717   1.697
 6664SOL     OW20890   1.263   0.338   2.753
 6664SOL    HW120891   1.311   0.409   2.701
 6664SOL    HW220892   1.273   0.357   2.851
 6665SOL     OW20893   1.983   5.860   2.988
 6665SOL    HW120894   2.070   5.863   3.036
 6665SOL    HW220895   1.909   5.884   3.050
 6666SOL     OW20896   6.650   1.508   5.266
 6666SOL    HW120897   6.711   1.581   5.235
 6666SOL    HW220898   6.586   1.485   5.193
 6667SOL     OW20899   6.803   5.862   4.735
 6667SOL    HW120900   6.862   5.933   4.698
 6667SOL    HW220901   6.850   5.774   4.730
 6668SOL     OW20902   0.642   4.822   2.196
 6668SOL    HW120903   0.648   4.777   2.286
 6668SOL    HW220904   0.567   4.888   2.197
 6669SOL     OW20905   2.671   5.244   3.791
 6669SOL    HW120906   2.722   5.217   3.872
 6669SOL    HW220907   2.591   5.184   3.779
 6670SOL     OW20908   3.481   4.750   0.052
 6670SOL    HW120909   3.479   4.829   7.014
 6670SOL    HW220910   3.453   4.668   0.002
 6671SOL     OW20911   6.754   3.953   6.019
 6671SOL    HW120912   6.757   3.865   5.972
 6671SOL    HW220913   6.845   3.977   6.052
 6672SOL     OW20914   1.001   1.175   5.645
 6672SOL    HW120915   0.912   1.211   5.673
 6672SOL    HW220916   1.000   1.075   5.652
 6673SOL     OW20917   4.752   5.237   2.645
 6673SOL    HW120918   4.848   5.215   2.624
 6673SOL    HW220919   4.749   5.322   2.699
 6674SOL     OW20920   0.590   6.340   5.263
 6674SOL    HW120921   0.675   6.302   5.228
 6674SOL    HW220922   0.527   6.358   5.187
 6675SOL     OW20923   5.474   4.585   0.553
 6675SOL    HW120924   5.375   4.596   0.541
 6675SOL    HW220925   5.520   4.670   0.528
 6676SOL     OW20926   0.819   3.299   5.609
 6676SOL    HW120927   0.827   3.342   5.699
 6676SOL    HW220928   0.909   3.295   5.567
 6677SOL     OW20929   0.455   3.544   0.868
 6677SOL    HW120930   0.366   3.566   0.827
 6677SOL    HW220931   0.446   3.543   0.968
 6678SOL     OW20932   1.194   2.728   6.233
 6678SOL    HW120933   1.277   2.709   6.285
 6678SOL    HW220934   1.175   2.651   6.172
 6679SOL     OW20935   1.351   2.746   5.458
 6679SOL    HW120936   1.357   2.808   5.380
 6679SOL    HW220937   1.437   2.746   5.508
 6680SOL     OW20938   4.240   6.576   6.483
 6680SOL    HW120939   4.232   6.655   6.544
 6680SOL    HW220940   4.186   6.500   6.520
 6681SOL     OW20941   5.035   5.059   0.407
 6681SOL    HW120942   4.969   4.988   0.433
 6681SOL    HW220943   5.111   5.059   0.472
 6682SOL     OW20944   0.541   5.616   2.435
 6682SOL    HW120945   0.612   5.608   2.505
 6682SOL    HW220946   0.570   5.683   2.366
 6683SOL     OW20947   4.567   1.731   5.202
 6683SOL    HW120948   4.599   1.749   5.109
 6683SOL    HW220949   4.638   1.684   5.253
 6684SOL     OW20950   1.608   6.717   2.434
 6684SOL    HW120951   1.570   6.777   2.504
 6684SOL    HW220952   1.567   6.626   2.444
 6685SOL     OW20953   5.510   2.908   6.282
 6685SOL    HW120954   5.542   3.003   6.287
 6685SOL    HW220955   5.513   2.868   6.374
 6686SOL     OW20956   6.255   3.739   3.746
 6686SOL    HW120957   6.185   3.691   3.693
 6686SOL    HW220958   6.227   3.742   3.842
 6687SOL     OW20959   1.231   1.742   1.033
 6687SOL    HW120960   1.175   1.822   1.010
 6687SOL    HW220961   1.248   1.688   0.950
 6688SOL     OW20962   0.424   4.638   2.638
 6688SOL    HW120963   0.364   4.660   2.715
 6688SOL    HW220964   0.519   4.638   2.668
 6689SOL     OW20965   5.227   4.070   0.467
 6689SOL    HW120966   5.281   4.136   0.521
 6689SOL    HW220967   5.131   4.095   0.471
 6690SOL     OW20968   1.930   3.291   1.289
 6690SOL    HW120969   1.901   3.370   1.344
 6690SOL    HW220970   1.943   3.320   1.195
 6691SOL     OW20971   2.727   6.233   1.325
 6691SOL    HW120972   2.787   6.313   1.329
 6691SOL    HW220973   2.757   6.165   1.390
 6692SOL     OW20974   3.022   4.283   5.248
 6692SOL    HW120975   2.966   4.233   5.182
 6692SOL    HW220976   3.011   4.381   5.233
 6693SOL     OW20977   4.454   3.810   5.358
 6693SOL    HW120978   4.455   3.783   5.454
 6693SOL    HW220979   4.359   3.816   5.326
 6694SOL     OW20980   4.850   6.278   0.679
 6694SOL    HW120981   4.916   6.207   0.655
 6694SOL    HW220982   4.762   6.236   0.703
 6695SOL     OW20983   0.813   1.746   6.592
 6695SOL    HW120984   0.781   1.652   6.581
 6695SOL    HW220985   0.843   1.761   6.686
 6696SOL     OW20986   1.962   3.513   1.884
 6696SOL    HW120987   2.046   3.511   1.937
 6696SOL    HW220988   1.966   3.444   1.812
 6697SOL     OW20989   4.397   1.273   2.707
 6697SOL    HW120990   4.462   1.221   2.763
 6697SOL    HW220991   4.415   1.255   2.610
 6698SOL     OW20992   4.218   2.536   6.799
 6698SOL    HW120993   4.132   2.524   6.748
 6698SOL    HW220994   4.293   2.494   6.747
 6699SOL     OW20995   3.200   4.727   6.612
 6699SOL    HW120996   3.136   4.672   6.664
 6699SOL    HW220997   3.209   4.817   6.655
 6700SOL     OW20998   0.380   5.515   0.862
 6700SOL    HW120999   0.407   5.439   0.922
 6700SOL    HW221000   0.371   5.482   0.768
 6701SOL     OW21001   0.383   1.651   0.297
 6701SOL    HW121002   0.416   1.576   0.239
 6701SOL    HW221003   0.319   1.615   0.365
 6702SOL     OW21004   2.107   1.324   0.811
 6702SOL    HW121005   2.013   1.357   0.824
 6702SOL    HW221006   2.163   1.396   0.771
 6703SOL     OW21007   6.734   1.563   6.315
 6703SOL    HW121008   6.786   1.593   6.236
 6703SOL    HW221009   6.793   1.511   6.377
 6704SOL     OW21010   4.695   2.669   2.834
 6704SOL    HW121011   4.638   2.631   2.906
 6704SOL    HW221012   4.676   2.622   2.748
 6705SOL     OW21013   6.461   2.371   1.454
 6705SOL    HW121014   6.421   2.391   1.543
 6705SOL    HW221015   6.432   2.441   1.388
 6706SOL     OW21016   0.997   3.945   6.778
 6706SOL    HW121017   1.070   3.927   6.713
 6706SOL    HW221018   0.980   3.863   6.833
 6707SOL     OW21019   0.161   5.284   3.703
 6707SOL    HW121020   0.133   5.375   3.673
 6707SOL    HW221021   0.196   5.289   3.796
 6708SOL     OW21022   2.596   5.720   2.243
 6708SOL    HW121023   2.686   5.742   2.205
 6708SOL    HW221024   2.601   5.719   2.343
 6709SOL     OW21025   3.708   0.619   1.618
 6709SOL    HW121026   3.662   0.692   1.668
 6709SOL    HW221027   3.781   0.659   1.562
 6710SOL     OW21028   3.126   2.553   6.728
 6710SOL    HW121029   3.163   2.464   6.699
 6710SOL    HW221030   3.033   2.564   6.694
 6711SOL     OW21031   4.596   3.591   6.919
 6711SOL    HW121032   4.627   3.662   6.982
 6711SOL    HW221033   4.515   3.546   6.957
 6712SOL     OW21034   3.747   5.944   0.399
 6712SOL    HW121035   3.837   5.903   0.410
 6712SOL    HW221036   3.748   6.007   0.321
 6713SOL     OW21037   1.841   2.789   1.780
 6713SOL    HW121038   1.875   2.763   1.870
 6713SOL    HW221039   1.773   2.861   1.789
 6714SOL     OW21040   5.681   0.633   4.226
 6714SOL    HW121041   5.585   0.614   4.243
 6714SOL    HW221042   5.721   0.556   4.176
 6715SOL     OW21043   0.447   1.781   0.618
 6715SOL    HW121044   0.376   1.751   0.682
 6715SOL    HW221045   0.490   1.701   0.576
 6716SOL     OW21046   2.380   5.918   1.469
 6716SOL    HW121047   2.419   5.837   1.512
 6716SOL    HW221048   2.361   5.987   1.538
 6717SOL     OW21049   4.263   2.416   0.488
 6717SOL    HW121050   4.332   2.351   0.521
 6717SOL    HW221051   4.282   2.439   0.393
 6718SOL     OW21052   3.329   0.582   0.096
 6718SOL    HW121053   3.320   0.491   0.056
 6718SOL    HW221054   3.246   0.635   0.078
 6719SOL     OW21055   0.114   6.095   5.495
 6719SOL    HW121056   0.205   6.079   5.534
 6719SOL    HW221057   0.103   6.192   5.477
 6720SOL     OW21058   2.629   5.092   1.277
 6720SOL    HW121059   2.585   5.172   1.316
 6720SOL    HW221060   2.577   5.060   1.198
 6721SOL     OW21061   5.331   0.004   3.698
 6721SOL    HW121062   5.295   6.984   3.780
 6721SOL    HW221063   5.281   6.993   3.618
 6722SOL     OW21064   4.263   3.190   6.564
 6722SOL    HW121065   4.256   3.207   6.663
 6722SOL    HW221066   4.191   3.127   6.536
 6723SOL     OW21067   3.218   6.553   3.747
 6723SOL    HW121068   3.189   6.482   3.812
 6723SOL    HW221069   3.142   6.576   3.687
 6724SOL     OW21070   3.007   4.929   5.231
 6724SOL    HW121071   3.051   4.899   5.146
 6724SOL    HW221072   2.983   4.850   5.286
 6725SOL     OW21073   0.780   5.238   2.614
 6725SOL    HW121074   0.758   5.278   2.703
 6725SOL    HW221075   0.758   5.304   2.542
 6726SOL     OW21076   2.600   2.325   4.107
 6726SOL    HW121077   2.697   2.317   4.129
 6726SOL    HW221078   2.569   2.242   4.062
 6727SOL     OW21079   4.166   3.462   6.202
 6727SOL    HW121080   4.174   3.473   6.103
 6727SOL    HW221081   4.240   3.405   6.236
 6728SOL     OW21082   4.118   1.734   3.884
 6728SOL    HW121083   4.154   1.642   3.867
 6728SOL    HW221084   4.084   1.740   3.978
 6729SOL     OW21085   6.164   0.700   2.627
 6729SOL    HW121086   6.171   0.769   2.698
 6729SOL    HW221087   6.109   0.735   2.551
 6730SOL     OW21088   2.754   1.216   6.909
 6730SOL    HW121089   2.774   1.151   6.982
 6730SOL    HW221090   2.737   1.167   6.824
 6731SOL     OW21091   2.394   4.750   1.715
 6731SOL    HW121092   2.454   4.670   1.705
 6731SOL    HW221093   2.427   4.807   1.790
 6732SOL     OW21094   2.587   6.161   0.758
 6732SOL    HW121095   2.681   6.158   0.724
 6732SOL    HW221096   2.564   6.255   0.784
 6733SOL     OW21097   5.529   5.941   5.021
 6733SOL    HW121098   5.470   5.929   5.101
 6733SOL    HW221099   5.625   5.935   5.050
 6734SOL     OW21100   2.220   2.973   5.559
 6734SOL    HW121101   2.224   2.942   5.464
 6734SOL    HW221102   2.287   3.046   5.573
 6735SOL     OW21103   6.602   5.083   5.612
 6735SOL    HW121104   6.510   5.066   5.576
 6735SOL    HW221105   6.643   4.996   5.639
 6736SOL     OW21106   2.113   3.244   1.996
 6736SOL    HW121107   2.158   3.188   1.926
 6736SOL    HW221108   2.139   3.340   1.982
 6737SOL     OW21109   1.974   1.577   1.909
 6737SOL    HW121110   1.958   1.596   2.005
 6737SOL    HW221111   1.938   1.486   1.886
 6738SOL     OW21112   2.687   0.954   2.431
 6738SOL    HW121113   2.724   0.867   2.464
 6738SOL    HW221114   2.705   0.964   2.334
 6739SOL     OW21115   3.515   6.104   5.044
 6739SOL    HW121116   3.578   6.114   5.122
 6739SOL    HW221117   3.522   6.185   4.986
 6740SOL     OW21118   1.520   1.720   3.365
 6740SOL    HW121119   1.583   1.744   3.291
 6740SOL    HW221120   1.567   1.728   3.453
 6741SOL     OW21121   6.952   0.423   6.242
 6741SOL    HW121122   6.869   0.404   6.189
 6741SOL    HW221123   7.022   0.355   6.220
 6742SOL     OW21124   6.123   5.716   5.041
 6742SOL    HW121125   6.197   5.715   5.109
 6742SOL    HW221126   6.128   5.633   4.986
 6743SOL     OW21127   4.210   3.400   1.264
 6743SOL    HW121128   4.151   3.337   1.315
 6743SOL    HW221129   4.224   3.483   1.317
 6744SOL     OW21130   5.022   4.929   5.529
 6744SOL    HW121131   4.953   4.948   5.459
 6744SOL    HW221132   5.014   4.995   5.603
 6745SOL     OW21133   1.587   4.704   3.973
 6745SOL    HW121134   1.614   4.779   3.913
 6745SOL    HW221135   1.537   4.635   3.921
 6746SOL     OW21136   0.099   2.187   1.009
 6746SOL    HW121137   0.008   2.165   1.045
 6746SOL    HW221138   0.161   2.110   1.025
 6747SOL     OW21139   5.212   6.313   5.095
 6747SOL    HW121140   5.276   6.262   5.038
 6747SOL    HW221141   5.219   6.411   5.074
 6748SOL     OW21142   1.540   0.388   2.134
 6748SOL    HW121143   1.532   0.421   2.040
 6748SOL    HW221144   1.618   0.326   2.141
 6749SOL     OW21145   4.453   0.358   0.022
 6749SOL    HW121146   4.474   0.440   0.075
 6749SOL    HW221147   4.435   0.384   6.949
 6750SOL     OW21148   2.413   2.720   5.016
 6750SOL    HW121149   2.413   2.818   4.996
 6750SOL    HW221150   2.500   2.696   5.059
 6751SOL     OW21151   2.864   2.172   5.126
 6751SOL    HW121152   2.792   2.111   5.159
 6751SOL    HW221153   2.923   2.198   5.202
 6752SOL     OW21154   5.952   2.369   0.804
 6752SOL    HW121155   5.861   2.396   0.773
 6752SOL    HW221156   5.945   2.322   0.892
 6753SOL     OW21157   4.512   2.407   6.446
 6753SOL    HW121158   4.586   2.463   6.483
 6753SOL    HW221159   4.536   2.376   6.354
 6754SOL     OW21160   6.188   0.855   6.158
 6754SOL    HW121161   6.192   0.949   6.194
 6754SOL    HW221162   6.187   0.790   6.234
 6755SOL     OW21163   4.763   1.837   4.221
 6755SOL    HW121164   4.692   1.906   4.225
 6755SOL    HW221165   4.828   1.851   4.295
 6756SOL     OW21166   5.257   5.124   4.259
 6756SOL    HW121167   5.212   5.097   4.344
 6756SOL    HW221168   5.300   5.213   4.270
 6757SOL     OW21169   5.822   5.688   1.689
 6757SOL    HW121170   5.807   5.712   1.593
 6757SOL    HW221171   5.798   5.766   1.747
 6758SOL     OW21172   4.986   2.419   2.202
 6758SOL    HW121173   4.939   2.385   2.121
 6758SOL    HW221174   4.920   2.462   2.264
 6759SOL     OW21175   0.245   5.028   2.904
 6759SOL    HW121176   0.162   5.077   2.932
 6759SOL    HW221177   0.321   5.093   2.900
 6760SOL     OW21178   6.355   4.112   3.876
 6760SOL    HW121179   6.289   4.151   3.813
 6760SOL    HW221180   6.443   4.102   3.830
 6761SOL     OW21181   4.992   2.691   5.639
 6761SOL    HW121182   5.029   2.705   5.547
 6761SOL    HW221183   4.950   2.776   5.671
 6762SOL     OW21184   6.324   4.429   3.832
 6762SOL    HW121185   6.340   4.526   3.816
 6762SOL    HW221186   6.329   4.379   3.745
 6763SOL     OW21187   6.238   6.515   6.027
 6763SOL    HW121188   6.245   6.429   5.977
 6763SOL    HW221189   6.229   6.496   6.125
 6764SOL     OW21190   2.544   4.225   6.611
 6764SOL    HW121191   2.579   4.230   6.518
 6764SOL    HW221192   2.540   4.317   6.650
 6765SOL     OW21193   5.794   4.417   2.299
 6765SOL    HW121194   5.862   4.354   2.260
 6765SOL    HW221195   5.825   4.449   2.388
 6766SOL     OW21196   1.839   0.569   5.857
 6766SOL    HW121197   1.749   0.606   5.833
 6766SOL    HW221198   1.895   0.641   5.898
 6767SOL     OW21199   6.653   3.045   6.979
 6767SOL    HW121200   6.569   3.012   6.935
 6767SOL    HW221201   6.701   2.968   7.020
 6768SOL     OW21202   6.951   0.174   4.416
 6768SOL    HW121203   6.963   0.160   4.514
 6768SOL    HW221204   0.003   0.231   4.381
 6769SOL     OW21205   2.118   2.724   5.590
 6769SOL    HW121206   2.160   2.813   5.572
 6769SOL    HW221207   2.034   2.715   5.537
 6770SOL     OW21208   0.675   1.366   3.366
 6770SOL    HW121209   0.660   1.398   3.460
 6770SOL    HW221210   0.685   1.444   3.305
 6771SOL     OW21211   3.779   2.043   3.312
 6771SOL    HW121212   3.823   1.954   3.315
 6771SOL    HW221213   3.836   2.108   3.262
 6772SOL     OW21214   6.445   1.467   1.367
 6772SOL    HW121215   6.481   1.531   1.299
 6772SOL    HW221216   6.362   1.424   1.332
 6773SOL     OW21217   1.605   6.769   1.294
 6773SOL    HW121218   1.578   6.746   1.387
 6773SOL    HW221219   1.567   6.858   1.268
 6774SOL     OW21220   2.292   2.483   4.870
 6774SOL    HW121221   2.293   2.396   4.920
 6774SOL    HW221222   2.340   2.553   4.923
 6775SOL     OW21223   0.755   1.829   4.651
 6775SOL    HW121224   0.791   1.889   4.722
 6775SOL    HW221225   0.679   1.875   4.604
 6776SOL     OW21226   3.562   4.052   3.054
 6776SOL    HW121227   3.565   3.953   3.065
 6776SOL    HW221228   3.542   4.095   3.142
 6777SOL     OW21229   6.184   4.987   0.226
 6777SOL    HW121230   6.184   5.086   0.236
 6777SOL    HW221231   6.233   4.945   0.302
 6778SOL     OW21232   6.172   4.961   2.824
 6778SOL    HW121233   6.237   4.888   2.803
 6778SOL    HW221234   6.215   5.027   2.885
 6779SOL     OW21235   5.157   3.492   5.757
 6779SOL    HW121236   5.162   3.403   5.713
 6779SOL    HW221237   5.204   3.489   5.845
 6780SOL     OW21238   3.136   2.150   2.951
 6780SOL    HW121239   3.226   2.153   2.996
 6780SOL    HW221240   3.146   2.111   2.860
 6781SOL     OW21241   0.219   1.361   3.347
 6781SOL    HW121242   0.209   1.352   3.446
 6781SOL    HW221243   0.293   1.424   3.326
 6782SOL     OW21244   6.541   1.128   2.735
 6782SOL    HW121245   6.514   1.225   2.733
 6782SOL    HW221246   6.478   1.075   2.678
 6783SOL     OW21247   1.456   4.837   5.821
 6783SOL    HW121248   1.423   4.745   5.804
 6783SOL    HW221249   1.528   4.860   5.754
 6784SOL     OW21250   2.188   3.700   1.763
 6784SOL    HW121251   2.238   3.628   1.811
 6784SOL    HW221252   2.116   3.659   1.707
 6785SOL     OW21253   5.390   6.162   4.946
 6785SOL    HW121254   5.440   6.219   4.881
 6785SOL    HW221255   5.450   6.090   4.981
 6786SOL     OW21256   5.966   1.820   6.046
 6786SOL    HW121257   6.031   1.852   6.115
 6786SOL    HW221258   6.015   1.771   5.974
 6787SOL     OW21259   3.735   1.699   6.976
 6787SOL    HW121260   3.688   1.787   6.971
 6787SOL    HW221261   3.719   1.657   0.043
 6788SOL     OW21262   0.127   4.210   2.495
 6788SOL    HW121263   0.192   4.280   2.527
 6788SOL    HW221264   0.111   4.144   2.568
 6789SOL     OW21265   5.455   4.249   3.563
 6789SOL    HW121266   5.369   4.256   3.613
 6789SOL    HW221267   5.441   4.197   3.479
 6790SOL     OW21268   0.838   5.032   6.262
 6790SOL    HW121269   0.896   5.037   6.181
 6790SOL    HW221270   0.752   4.987   6.239
 6791SOL     OW21271   3.158   0.851   2.969
 6791SOL    HW121272   3.224   0.910   2.923
 6791SOL    HW221273   3.154   0.763   2.922
 6792SOL     OW21274   3.724   6.967   5.274
 6792SOL    HW121275   3.806   7.007   5.234
 6792SOL    HW221276   3.740   6.869   5.292
 6793SOL     OW21277   1.918   3.234   6.351
 6793SOL    HW121278   1.985   3.246   6.278
 6793SOL    HW221279   1.923   3.140   6.387
 6794SOL     OW21280   5.269   1.708   5.355
 6794SOL    HW121281   5.246   1.611   5.341
 6794SOL    HW221282   5.358   1.714   5.401
 6795SOL     OW21283   0.845   0.427   1.080
 6795SOL    HW121284   0.875   0.511   1.125
 6795SOL    HW221285   0.757   0.399   1.117
 6796SOL     OW21286   6.033   1.401   2.612
 6796SOL    HW121287   5.965   1.457   2.565
 6796SOL    HW221288   6.095   1.360   2.544
 6797SOL     OW21289   0.633   2.445   1.523
 6797SOL    HW121290   0.646   2.453   1.622
 6797SOL    HW221291   0.549   2.493   1.496
 6798SOL     OW21292   6.133   0.022   1.630
 6798SOL    HW121293   6.051   0.075   1.611
 6798SOL    HW221294   6.192   0.073   1.693
 6799SOL     OW21295   6.380   0.714   3.545
 6799SOL    HW121296   6.437   0.698   3.465
 6799SOL    HW221297   6.438   0.743   3.622
 6800SOL     OW21298   6.758   2.572   1.377
 6800SOL    HW121299   6.796   2.533   1.461
 6800SOL    HW221300   6.755   2.502   1.306
 6801SOL     OW21301   0.733   6.379   6.439
 6801SOL    HW121302   0.675   6.442   6.386
 6801SOL    HW221303   0.793   6.433   6.499
 6802SOL     OW21304   3.182   4.861   2.007
 6802SOL    HW121305   3.183   4.952   1.967
 6802SOL    HW221306   3.252   4.855   2.079
 6803SOL     OW21307   5.460   5.151   6.184
 6803SOL    HW121308   5.362   5.162   6.172
 6803SOL    HW221309   5.495   5.081   6.122
 6804SOL     OW21310   4.019   4.855   2.918
 6804SOL    HW121311   4.058   4.945   2.934
 6804SOL    HW221312   3.929   4.864   2.873
 6805SOL     OW21313   0.063   4.884   4.920
 6805SOL    HW121314   0.019   4.798   4.946
 6805SOL    HW221315   0.013   4.925   4.844
 6806SOL     OW21316   6.762   2.281   1.891
 6806SOL    HW121317   6.697   2.288   1.967
 6806SOL    HW221318   6.848   2.325   1.917
 6807SOL     OW21319   3.279   3.596   2.100
 6807SOL    HW121320   3.180   3.600   2.087
 6807SOL    HW221321   3.305   3.649   2.180
 6808SOL     OW21322   3.166   1.370   4.402
 6808SOL    HW121323   3.102   1.443   4.428
 6808SOL    HW221324   3.124   1.311   4.334
 6809SOL     OW21325   5.380   3.106   0.237
 6809SOL    HW121326   5.337   3.196   0.231
 6809SOL    HW221327   5.455   3.101   0.171
 6810SOL     OW21328   2.911   0.379   4.787
 6810SOL    HW121329   2.995   0.328   4.772
 6810SOL    HW221330   2.836   0.315   4.805
 6811SOL     OW21331   6.315   1.369   0.952
 6811SOL    HW121332   6.361   1.443   0.904
 6811SOL    HW221333   6.231   1.344   0.904
 6812SOL     OW21334   3.850   4.278   5.154
 6812SOL    HW121335   3.910   4.294   5.076
 6812SOL    HW221336   3.758   4.257   5.122
 6813SOL     OW21337   6.360   3.502   2.148
 6813SOL    HW121338   6.322   3.558   2.221
 6813SOL    HW221339   6.310   3.520   2.063
 6814SOL     OW21340   5.483   0.462   6.696
 6814SOL    HW121341   5.404   0.427   6.646
 6814SOL    HW221342   5.567   0.432   6.650
 6815SOL     OW21343   1.290   4.802   6.296
 6815SOL    HW121344   1.248   4.729   6.243
 6815SOL    HW221345   1.223   4.875   6.311
 6816SOL     OW21346   6.680   0.607   3.424
 6816SOL    HW121347   6.723   0.645   3.342
 6816SOL    HW221348   6.732   0.634   3.505
 6817SOL     OW21349   4.404   2.123   1.457
 6817SOL    HW121350   4.332   2.122   1.526
 6817SOL    HW221351   4.445   2.214   1.454
 6818SOL     OW21352   1.553   6.918   5.418
 6818SOL    HW121353   1.541   6.823   5.448
 6818SOL    HW221354   1.527   6.980   5.492
 6819SOL     OW21355   4.774   4.254   1.993
 6819SOL    HW121356   4.793   4.168   1.945
 6819SOL    HW221357   4.677   4.277   1.983
 6820SOL     OW21358   3.161   5.109   1.802
 6820SOL    HW121359   3.242   5.051   1.802
 6820SOL    HW221360   3.129   5.122   1.708
 6821SOL     OW21361   3.884   2.635   5.346
 6821SOL    HW121362   3.815   2.566   5.370
 6821SOL    HW221363   3.959   2.591   5.297
 6822SOL     OW21364   5.975   2.760   5.825
 6822SOL    HW121365   6.037   2.700   5.775
 6822SOL    HW221366   5.967   2.847   5.776
 6823SOL     OW21367   6.484   2.221   4.690
 6823SOL    HW121368   6.405   2.228   4.629
 6823SOL    HW221369   6.558   2.279   4.655
 6824SOL     OW21370   0.911   0.137   5.813
 6824SOL    HW121371   0.852   0.136   5.733
 6824SOL    HW221372   0.886   0.062   5.874
 6825SOL     OW21373   5.080   4.640   1.217
 6825SOL    HW121374   5.157   4.603   1.165
 6825SOL    HW221375   5.031   4.566   1.263
 6826SOL     OW21376   6.289   5.543   4.288
 6826SOL    HW121377   6.369   5.587   4.247
 6826SOL    HW221378   6.217   5.611   4.300
 6827SOL     OW21379   4.948   6.535   4.709
 6827SOL    HW121380   4.908   6.474   4.777
 6827SOL    HW221381   4.875   6.580   4.658
 6828SOL     OW21382   2.588   2.358   2.462
 6828SOL    HW121383   2.649   2.316   2.394
 6828SOL    HW221384   2.493   2.342   2.436
 6829SOL     OW21385   3.979   0.233   3.808
 6829SOL    HW121386   3.985   0.241   3.907
 6829SOL    HW221387   3.954   0.139   3.784
 6830SOL     OW21388   4.900   6.152   3.113
 6830SOL    HW121389   4.859   6.075   3.162
 6830SOL    HW221390   4.958   6.204   3.175
 6831SOL     OW21391   1.611   2.247   6.021
 6831SOL    HW121392   1.531   2.250   6.081
 6831SOL    HW221393   1.586   2.203   5.934
 6832SOL     OW21394   3.207   2.817   0.030
 6832SOL    HW121395   3.204   2.853   0.124
 6832SOL    HW221396   3.117   2.782   0.005
 6833SOL     OW21397   3.239   5.398   5.767
 6833SOL    HW121398   3.239   5.371   5.670
 6833SOL    HW221399   3.315   5.461   5.783
 6834SOL     OW21400   6.008   6.579   0.328
 6834SOL    HW121401   5.936   6.509   0.329
 6834SOL    HW221402   5.966   6.670   0.328
 6835SOL     OW21403   2.885   1.596   5.238
 6835SOL    HW121404   2.903   1.693   5.228
 6835SOL    HW221405   2.963   1.543   5.203
 6836SOL     OW21406   2.342   4.299   6.343
 6836SOL    HW121407   2.404   4.350   6.283
 6836SOL    HW221408   2.309   4.360   6.415
 6837SOL     OW21409   0.798   1.236   2.003
 6837SOL    HW121410   0.740   1.315   1.980
 6837SOL    HW221411   0.804   1.227   2.102
 6838SOL     OW21412   2.969   3.823   5.033
 6838SOL    HW121413   2.984   3.898   4.969
 6838SOL    HW221414   2.891   3.843   5.091
 6839SOL     OW21415   6.126   3.334   4.598
 6839SOL    HW121416   6.032   3.316   4.626
 6839SOL    HW221417   6.127   3.362   4.502
 6840SOL     OW21418   2.389   6.899   4.855
 6840SOL    HW121419   2.345   6.982   4.890
 6840SOL    HW221420   2.319   6.836   4.823
 6841SOL     OW21421   4.593   6.352   0.917
 6841SOL    HW121422   4.662   6.301   0.969
 6841SOL    HW221423   4.577   6.440   0.960
 6842SOL     OW21424   0.216   3.719   4.834
 6842SOL    HW121425   0.216   3.776   4.917
 6842SOL    HW221426   0.122   3.709   4.802
 6843SOL     OW21427   3.900   2.044   1.926
 6843SOL    HW121428   3.954   2.030   2.009
 6843SOL    HW221429   3.816   2.093   1.949
 6844SOL     OW21430   4.613   5.339   3.874
 6844SOL    HW121431   4.619   5.427   3.921
 6844SOL    HW221432   4.702   5.296   3.873
 6845SOL     OW21433   4.172   4.456   1.312
 6845SOL    HW121434   4.268   4.447   1.339
 6845SOL    HW221435   4.165   4.453   1.212
 6846SOL     OW21436   3.238   2.941   3.321
 6846SOL    HW121437   3.220   2.963   3.417
 6846SOL    HW221438   3.335   2.917   3.310
 6847SOL     OW21439   5.662   3.581   2.188
 6847SOL    HW121440   5.573   3.536   2.187
 6847SOL    HW221441   5.729   3.527   2.137
 6848SOL     OW21442   0.787   6.171   3.497
 6848SOL    HW121443   0.760   6.193   3.403
 6848SOL    HW221444   0.708   6.178   3.557
 6849SOL     OW21445   3.151   6.872   3.463
 6849SOL    HW121446   3.158   6.779   3.427
 6849SOL    HW221447   3.189   6.876   3.556
 6850SOL     OW21448   5.479   2.875   2.583
 6850SOL    HW121449   5.425   2.801   2.542
 6850SOL    HW221450   5.528   2.925   2.511
 6851SOL     OW21451   0.926   6.058   5.378
 6851SOL    HW121452   0.889   5.991   5.314
 6851SOL    HW221453   0.884   6.045   5.468
 6852SOL     OW21454   0.063   4.721   1.863
 6852SOL    HW121455   0.146   4.716   1.808
 6852SOL    HW221456   0.036   4.816   1.875
 6853SOL     OW21457   0.630   3.528   5.498
 6853SOL    HW121458   0.668   3.540   5.590
 6853SOL    HW221459   0.589   3.614   5.467
 6854SOL     OW21460   6.270   1.295   6.537
 6854SOL    HW121461   6.280   1.235   6.457
 6854SOL    HW221462   6.350   1.355   6.544
 6855SOL     OW21463   3.193   5.857   1.553
 6855SOL    HW121464   3.208   5.761   1.530
 6855SOL    HW221465   3.270   5.911   1.521
 6856SOL     OW21466   6.927   3.532   5.216
 6856SOL    HW121467   6.890   3.567   5.129
 6856SOL    HW221468   6.985   3.601   5.258
 6857SOL     OW21469   4.501   2.037   5.200
 6857SOL    HW121470   4.468   1.978   5.273
 6857SOL    HW221471   4.593   2.070   5.222
 6858SOL     OW21472   4.022   3.206   4.475
 6858SOL    HW121473   4.057   3.240   4.388
 6858SOL    HW221474   4.051   3.112   4.488
 6859SOL     OW21475   4.045   6.695   1.487
 6859SOL    HW121476   4.145   6.682   1.483
 6859SOL    HW221477   4.022   6.758   1.560
 6860SOL     OW21478   4.975   3.789   6.657
 6860SOL    HW121479   4.883   3.796   6.696
 6860SOL    HW221480   5.037   3.751   6.726
 6861SOL     OW21481   6.167   4.466   6.895
 6861SOL    HW121482   6.241   4.503   6.840
 6861SOL    HW221483   6.177   4.367   6.903
 6862SOL     OW21484   3.599   5.856   4.132
 6862SOL    HW121485   3.599   5.843   4.231
 6862SOL    HW221486   3.679   5.810   4.093
 6863SOL     OW21487   6.151   2.802   4.205
 6863SOL    HW121488   6.054   2.819   4.223
 6863SOL    HW221489   6.163   2.705   4.183
 6864SOL     OW21490   4.138   6.003   4.930
 6864SOL    HW121491   4.084   5.989   5.013
 6864SOL    HW221492   4.185   6.092   4.935
 6865SOL     OW21493   6.772   4.881   4.147
 6865SOL    HW121494   6.743   4.942   4.074
 6865SOL    HW221495   6.699   4.816   4.168
 6866SOL     OW21496   0.010   3.270   2.537
 6866SOL    HW121497   6.944   3.227   2.521
 6866SOL    HW221498   0.024   3.283   2.635
 6867SOL     OW21499   1.996   3.987   3.013
 6867SOL    HW121500   2.044   3.985   2.926
 6867SOL    HW221501   1.959   3.896   3.033
 6868SOL     OW21502   1.432   5.251   5.179
 6868SOL    HW121503   1.451   5.169   5.233
 6868SOL    HW221504   1.395   5.322   5.239
 6869SOL     OW21505   6.272   3.600   5.531
 6869SOL    HW121506   6.220   3.624   5.613
 6869SOL    HW221507   6.219   3.535   5.476
 6870SOL     OW21508   5.414   3.578   2.814
 6870SOL    HW121509   5.330   3.613   2.855
 6870SOL    HW221510   5.399   3.559   2.717
 6871SOL     OW21511   5.353   5.989   1.754
 6871SOL    HW121512   5.401   6.058   1.809
 6871SOL    HW221513   5.420   5.936   1.702
 6872SOL     OW21514   2.534   3.181   6.123
 6872SOL    HW121515   2.613   3.150   6.176
 6872SOL    HW221516   2.459   3.115   6.133
 6873SOL     OW21517   5.782   3.436   5.545
 6873SOL    HW121518   5.781   3.387   5.632
 6873SOL    HW221519   5.786   3.369   5.470
 6874SOL     OW21520   0.545   2.414   5.672
 6874SOL    HW121521   0.570   2.493   5.616
 6874SOL    HW221522   0.536   2.334   5.614
 6875SOL     OW21523   3.008   1.919   3.664
 6875SOL    HW121524   2.960   1.849   3.718
 6875SOL    HW221525   2.946   1.955   3.594
 6876SOL     OW21526   4.188   6.143   6.673
 6876SOL    HW121527   4.187   6.082   6.752
 6876SOL    HW221528   4.206   6.090   6.590
 6877SOL     OW21529   2.617   4.254   0.166
 6877SOL    HW121530   2.597   4.343   0.125
 6877SOL    HW221531   2.594   4.257   0.264
 6878SOL     OW21532   1.736   1.192   5.413
 6878SOL    HW121533   1.676   1.271   5.397
 6878SOL    HW221534   1.798   1.212   5.488
 6879SOL     OW21535   1.477   2.378   6.372
 6879SOL    HW121536   1.433   2.404   6.287
 6879SOL    HW221537   1.575   2.397   6.366
 6880SOL     OW21538   1.901   4.005   5.161
 6880SOL    HW121539   1.996   4.036   5.163
 6880SOL    HW221540   1.874   3.970   5.251
 6881SOL     OW21541   0.044   4.094   1.641
 6881SOL    HW121542   7.018   4.018   1.685
 6881SOL    HW221543   0.063   4.166   1.708
 6882SOL     OW21544   1.544   0.149   5.580
 6882SOL    HW121545   1.485   0.212   5.529
 6882SOL    HW221546   1.634   0.190   5.592
 6883SOL     OW21547   3.574   6.538   1.623
 6883SOL    HW121548   3.549   6.566   1.716
 6883SOL    HW221549   3.625   6.611   1.578
 6884SOL     OW21550   2.417   4.711   3.901
 6884SOL    HW121551   2.369   4.798   3.895
 6884SOL    HW221552   2.419   4.668   3.811
 6885SOL     OW21553   2.953   5.391   4.603
 6885SOL    HW121554   2.986   5.331   4.675
 6885SOL    HW221555   2.977   5.486   4.624
 6886SOL     OW21556   5.880   1.490   2.824
 6886SOL    HW121557   5.839   1.576   2.795
 6886SOL    HW221558   5.944   1.458   2.754
 6887SOL     OW21559   6.124   1.077   4.769
 6887SOL    HW121560   6.157   1.130   4.690
 6887SOL    HW221561   6.172   1.107   4.851
 6888SOL     OW21562   5.505   6.690   4.584
 6888SOL    HW121563   5.441   6.768   4.584
 6888SOL    HW221564   5.570   6.701   4.509
 6889SOL     OW21565   1.372   4.425   6.134
 6889SOL    HW121566   1.427   4.401   6.054
 6889SOL    HW221567   1.429   4.473   6.200
 6890SOL     OW21568   2.151   0.431   1.171
 6890SOL    HW121569   2.073   0.423   1.233
 6890SOL    HW221570   2.225   0.480   1.217
 6891SOL     OW21571   1.779   4.600   4.473
 6891SOL    HW121572   1.851   4.639   4.531
 6891SOL    HW221573   1.690   4.631   4.505
 6892SOL     OW21574   3.906   0.891   3.835
 6892SOL    HW121575   3.860   0.888   3.747
 6892SOL    HW221576   3.842   0.921   3.906
 6893SOL     OW21577   4.969   5.539   2.358
 6893SOL    HW121578   5.039   5.604   2.331
 6893SOL    HW221579   5.010   5.448   2.370
 6894SOL     OW21580   6.632   4.762   6.252
 6894SOL    HW121581   6.676   4.716   6.330
 6894SOL    HW221582   6.588   4.693   6.195
 6895SOL     OW21583   3.505   5.739   6.801
 6895SOL    HW121584   3.580   5.720   6.736
 6895SOL    HW221585   3.543   5.779   6.884
 6896SOL     OW21586   3.780   0.573   2.955
 6896SOL    HW121587   3.749   0.516   3.031
 6896SOL    HW221588   3.876   0.599   2.969
 6897SOL     OW21589   3.164   3.170   0.590
 6897SOL    HW121590   3.213   3.094   0.548
 6897SOL    HW221591   3.230   3.237   0.624
 6898SOL     OW21592   4.277   2.243   2.503
 6898SOL    HW121593   4.301   2.316   2.566
 6898SOL    HW221594   4.326   2.255   2.417
 6899SOL     OW21595   4.970   5.829   6.767
 6899SOL    HW121596   4.973   5.784   6.856
 6899SOL    HW221597   5.031   5.907   6.767
 6900SOL     OW21598   4.578   0.553   6.134
 6900SOL    HW121599   4.510   0.482   6.155
 6900SOL    HW221600   4.534   0.629   6.086
 6901SOL     OW21601   1.666   1.108   6.453
 6901SOL    HW121602   1.661   1.140   6.359
 6901SOL    HW221603   1.620   1.173   6.514
 6902SOL     OW21604   6.692   5.747   0.944
 6902SOL    HW121605   6.619   5.678   0.937
 6902SOL    HW221606   6.651   5.836   0.962
 6903SOL     OW21607   4.243   4.083   0.877
 6903SOL    HW121608   4.216   3.988   0.888
 6903SOL    HW221609   4.274   4.119   0.965
 6904SOL     OW21610   0.007   1.320   3.141
 6904SOL    HW121611   6.967   1.390   3.177
 6904SOL    HW221612   0.080   1.305   3.207
 6905SOL     OW21613   5.796   6.476   0.906
 6905SOL    HW121614   5.817   6.380   0.890
 6905SOL    HW221615   5.700   6.485   0.934
 6906SOL     OW21616   4.362   0.924   3.348
 6906SOL    HW121617   4.431   0.984   3.308
 6906SOL    HW221618   4.305   0.976   3.411
 6907SOL     OW21619   4.129   1.785   1.485
 6907SOL    HW121620   4.180   1.820   1.406
 6907SOL    HW221621   4.140   1.847   1.562
 6908SOL     OW21622   0.994   6.709   6.260
 6908SOL    HW121623   1.086   6.711   6.219
 6908SOL    HW221624   0.951   6.799   6.249
 6909SOL     OW21625   3.587   3.755   6.661
 6909SOL    HW121626   3.543   3.726   6.746
 6909SOL    HW221627   3.608   3.853   6.666
 6910SOL     OW21628   6.320   1.473   2.034
 6910SOL    HW121629   6.250   1.520   2.087
 6910SOL    HW221630   6.360   1.400   2.090
 6911SOL     OW21631   3.976   1.348   4.828
 6911SOL    HW121632   4.007   1.298   4.909
 6911SOL    HW221633   3.939   1.284   4.761
 6912SOL     OW21634   4.611   4.861   0.510
 6912SOL    HW121635   4.534   4.923   0.522
 6912SOL    HW221636   4.636   4.821   0.598
 6913SOL     OW21637   5.050   5.030   5.086
 6913SOL    HW121638   5.140   5.022   5.129
 6913SOL    HW221639   5.006   5.113   5.118
 6914SOL     OW21640   6.611   4.861   0.508
 6914SOL    HW121641   6.526   4.902   0.473
 6914SOL    HW221642   6.592   4.814   0.595
 6915SOL     OW21643   0.658   5.166   2.312
 6915SOL    HW121644   0.619   5.171   2.220
 6915SOL    HW221645   0.748   5.210   2.313
 6916SOL     OW21646   6.420   1.862   7.001
 6916SOL    HW121647   6.416   1.895   0.073
 6916SOL    HW221648   6.435   1.939   6.939
 6917SOL     OW21649   4.603   5.658   6.387
 6917SOL    HW121650   4.553   5.733   6.344
 6917SOL    HW221651   4.629   5.683   6.480
 6918SOL     OW21652   1.082   3.356   4.158
 6918SOL    HW121653   1.182   3.353   4.163
 6918SOL    HW221654   1.046   3.403   4.238
 6919SOL     OW21655   2.199   6.152   3.305
 6919SOL    HW121656   2.116   6.161   3.360
 6919SOL    HW221657   2.230   6.242   3.275
 6920SOL     OW21658   4.789   6.805   4.435
 6920SOL    HW121659   4.738   6.725   4.468
 6920SOL    HW221660   4.883   6.779   4.416
 6921SOL     OW21661   0.766   0.646   3.587
 6921SOL    HW121662   0.670   0.656   3.560
 6921SOL    HW221663   0.803   0.562   3.548
 6922SOL     OW21664   2.160   6.083   0.195
 6922SOL    HW121665   2.252   6.046   0.206
 6922SOL    HW221666   2.093   6.011   0.211
 6923SOL     OW21667   4.785   0.665   4.016
 6923SOL    HW121668   4.779   0.688   4.113
 6923SOL    HW221669   4.804   0.567   4.006
 6924SOL     OW21670   0.549   5.402   1.219
 6924SOL    HW121671   0.499   5.354   1.147
 6924SOL    HW221672   0.615   5.464   1.177
 6925SOL     OW21673   4.867   5.627   2.617
 6925SOL    HW121674   4.789   5.567   2.632
 6925SOL    HW221675   4.879   5.643   2.519
 6926SOL     OW21676   3.189   3.436   4.539
 6926SOL    HW121677   3.164   3.506   4.473
 6926SOL    HW221678   3.242   3.478   4.613
 6927SOL     OW21679   4.335   4.346   5.878
 6927SOL    HW121680   4.372   4.282   5.945
 6927SOL    HW221681   4.236   4.335   5.873
 6928SOL     OW21682   5.287   0.264   6.580
 6928SOL    HW121683   5.192   0.255   6.549
 6928SOL    HW221684   5.289   0.264   6.680
 6929SOL     OW21685   3.891   5.342   0.157
 6929SOL    HW121686   3.938   5.265   0.114
 6929SOL    HW221687   3.813   5.308   0.210
 6930SOL     OW21688   1.015   0.094   3.629
 6930SOL    HW121689   1.029   0.036   3.709
 6930SOL    HW221690   0.966   0.177   3.655
 6931SOL     OW21691   1.580   1.493   1.074
 6931SOL    HW121692   1.535   1.578   1.100
 6931SOL    HW221693   1.633   1.458   1.152
 6932SOL     OW21694   2.620   2.349   0.917
 6932SOL    HW121695   2.549   2.301   0.866
 6932SOL    HW221696   2.614   2.448   0.899
 6933SOL     OW21697   4.123   5.638   5.841
 6933SOL    HW121698   4.069   5.556   5.823
 6933SOL    HW221699   4.211   5.612   5.881
 6934SOL     OW21700   5.129   3.674   6.847
 6934SOL    HW121701   5.193   3.617   6.795
 6934SOL    HW221702   5.176   3.713   6.926
 6935SOL     OW21703   4.103   5.774   3.765
 6935SOL    HW121704   4.186   5.745   3.811
 6935SOL    HW221705   4.063   5.852   3.813
 6936SOL     OW21706   1.238   4.265   1.222
 6936SOL    HW121707   1.154   4.235   1.267
 6936SOL    HW221708   1.314   4.206   1.251
 6937SOL     OW21709   4.300   6.453   5.430
 6937SOL    HW121710   4.265   6.519   5.496
 6937SOL    HW221711   4.260   6.471   5.340
 6938SOL     OW21712   4.755   2.371   4.909
 6938SOL    HW121713   4.814   2.380   4.990
 6938SOL    HW221714   4.670   2.420   4.925
 6939SOL     OW21715   0.556   4.297   3.021
 6939SOL    HW121716   0.599   4.233   2.958
 6939SOL    HW221717   0.516   4.247   3.097
 6940SOL     OW21718   5.238   0.269   5.257
 6940SOL    HW121719   5.180   0.230   5.186
 6940SOL    HW221720   5.184   0.325   5.319
 6941SOL     OW21721   3.756   3.986   3.808
 6941SOL    HW121722   3.716   3.903   3.847
 6941SOL    HW221723   3.851   3.969   3.781
 6942SOL     OW21724   6.850   2.256   6.540
 6942SOL    HW121725   6.922   2.298   6.484
 6942SOL    HW221726   6.889   2.227   6.627
 6943SOL     OW21727   5.275   5.231   6.568
 6943SOL    HW121728   5.198   5.250   6.629
 6943SOL    HW221729   5.268   5.288   6.487
 6944SOL     OW21730   1.541   5.684   5.798
 6944SOL    HW121731   1.552   5.584   5.804
 6944SOL    HW221732   1.444   5.705   5.787
 6945SOL     OW21733   5.965   2.989   5.412
 6945SOL    HW121734   5.959   2.905   5.358
 6945SOL    HW221735   6.060   3.017   5.421
 6946SOL     OW21736   5.441   4.098   2.630
 6946SOL    HW121737   5.528   4.109   2.680
 6946SOL    HW221738   5.456   4.116   2.533
 6947SOL     OW21739   3.479   6.550   3.130
 6947SOL    HW121740   3.453   6.529   3.225
 6947SOL    HW221741   3.502   6.465   3.083
 6948SOL     OW21742   4.527   0.713   5.354
 6948SOL    HW121743   4.537   0.801   5.400
 6948SOL    HW221744   4.518   0.641   5.422
 6949SOL     OW21745   5.342   0.125   2.859
 6949SOL    HW121746   5.392   0.076   2.931
 6949SOL    HW221747   5.300   0.207   2.898
 6950SOL     OW21748   2.333   0.554   3.311
 6950SOL    HW121749   2.353   0.563   3.213
 6950SOL    HW221750   2.398   0.490   3.352
 6951SOL     OW21751   6.432   5.269   5.753
 6951SOL    HW121752   6.493   5.317   5.690
 6951SOL    HW221753   6.455   5.172   5.755
 6952SOL     OW21754   0.662   4.680   5.382
 6952SOL    HW121755   0.757   4.654   5.398
 6952SOL    HW221756   0.608   4.598   5.361
 6953SOL     OW21757   4.520   1.329   5.207
 6953SOL    HW121758   4.483   1.387   5.279
 6953SOL    HW221759   4.471   1.241   5.206
 6954SOL     OW21760   6.763   3.772   3.590
 6954SOL    HW121761   6.783   3.809   3.499
 6954SOL    HW221762   6.669   3.793   3.615
 6955SOL     OW21763   6.899   5.949   1.586
 6955SOL    HW121764   6.920   5.946   1.488
 6955SOL    HW221765   6.935   5.867   1.630
 6956SOL     OW21766   4.260   5.109   1.469
 6956SOL    HW121767   4.326   5.064   1.409
 6956SOL    HW221768   4.306   5.135   1.554
 6957SOL     OW21769   0.666   4.838   0.847
 6957SOL    HW121770   0.598   4.847   0.919
 6957SOL    HW221771   0.643   4.898   0.771
 6958SOL     OW21772   2.873   3.098   6.578
 6958SOL    HW121773   2.886   3.178   6.520
 6958SOL    HW221774   2.957   3.079   6.628
 6959SOL     OW21775   3.252   0.962   4.361
 6959SOL    HW121776   3.270   1.047   4.410
 6959SOL    HW221777   3.249   0.886   4.426
 6960SOL     OW21778   0.607   4.718   6.452
 6960SOL    HW121779   0.634   4.622   6.445
 6960SOL    HW221780   0.607   4.759   6.360
 6961SOL     OW21781   0.634   0.755   2.804
 6961SOL    HW121782   0.725   0.751   2.844
 6961SOL    HW221783   0.582   0.828   2.848
 6962SOL     OW21784   4.910   4.230   1.133
 6962SOL    HW121785   4.868   4.150   1.091
 6962SOL    HW221786   4.843   4.305   1.136
 6963SOL     OW21787   0.050   5.053   1.527
 6963SOL    HW121788   7.004   4.990   1.563
 6963SOL    HW221789   0.017   5.147   1.536
 6964SOL     OW21790   4.205   5.730   5.206
 6964SOL    HW121791   4.176   5.805   5.265
 6964SOL    HW221792   4.289   5.690   5.242
 6965SOL     OW21793   6.578   3.163   6.185
 6965SOL    HW121794   6.517   3.225   6.136
 6965SOL    HW221795   6.637   3.115   6.119
 6966SOL     OW21796   4.554   2.583   3.555
 6966SOL    HW121797   4.622   2.603   3.484
 6966SOL    HW221798   4.577   2.633   3.638
 6967SOL     OW21799   1.350   1.211   6.169
 6967SOL    HW121800   1.379   1.283   6.106
 6967SOL    HW221801   1.348   1.246   6.262
 6968SOL     OW21802   5.115   6.071   2.057
 6968SOL    HW121803   5.033   6.071   2.114
 6968SOL    HW221804   5.105   6.004   1.983
 6969SOL     OW21805   3.200   2.485   0.633
 6969SOL    HW121806   3.270   2.556   0.639
 6969SOL    HW221807   3.220   2.424   0.556
 6970SOL     OW21808   5.206   4.547   0.127
 6970SOL    HW121809   5.302   4.572   0.137
 6970SOL    HW221810   5.176   4.566   0.033
 6971SOL     OW21811   5.409   0.842   1.256
 6971SOL    HW121812   5.325   0.812   1.210
 6971SOL    HW221813   5.407   0.811   1.352
 6972SOL     OW21814   5.754   4.963   4.365
 6972SOL    HW121815   5.781   4.973   4.269
 6972SOL    HW221816   5.740   5.053   4.406
 6973SOL     OW21817   1.645   4.463   3.387
 6973SOL    HW121818   1.661   4.504   3.477
 6973SOL    HW221819   1.552   4.481   3.358
 6974SOL     OW21820   3.348   3.554   4.747
 6974SOL    HW121821   3.433   3.504   4.763
 6974SOL    HW221822   3.363   3.652   4.762
 6975SOL     OW21823   4.174   0.655   6.197
 6975SOL    HW121824   4.245   0.721   6.222
 6975SOL    HW221825   4.087   0.684   6.237
 6976SOL     OW21826   2.078   4.679   6.681
 6976SOL    HW121827   2.153   4.684   6.747
 6976SOL    HW221828   2.019   4.759   6.692
 6977SOL     OW21829   3.316   2.000   2.459
 6977SOL    HW121830   3.328   1.901   2.469
 6977SOL    HW221831   3.245   2.018   2.391
 6978SOL     OW21832   0.437   0.710   1.932
 6978SOL    HW121833   0.398   0.619   1.925
 6978SOL    HW221834   0.491   0.716   2.016
 6979SOL     OW21835   0.273   4.964   2.500
 6979SOL    HW121836   0.365   4.995   2.525
 6979SOL    HW221837   0.280   4.886   2.438
 6980SOL     OW21838   3.326   0.537   4.348
 6980SOL    HW121839   3.340   0.572   4.441
 6980SOL    HW221840   3.380   0.592   4.284
 6981SOL     OW21841   1.831   5.398   0.684
 6981SOL    HW121842   1.813   5.495   0.693
 6981SOL    HW221843   1.768   5.346   0.742
 6982SOL     OW21844   0.432   0.089   4.776
 6982SOL    HW121845   0.456   7.016   4.792
 6982SOL    HW221846   0.457   0.115   4.683
 6983SOL     OW21847   6.485   0.130   4.439
 6983SOL    HW121848   6.458   0.225   4.423
 6983SOL    HW221849   6.580   0.117   4.411
 6984SOL     OW21850   1.762   1.122   6.074
 6984SOL    HW121851   1.762   1.029   6.111
 6984SOL    HW221852   1.723   1.121   5.982
 6985SOL     OW21853   4.787   5.842   2.280
 6985SOL    HW121854   4.748   5.876   2.365
 6985SOL    HW221855   4.821   5.919   2.226
 6986SOL     OW21856   2.221   6.497   6.041
 6986SOL    HW121857   2.142   6.523   5.986
 6986SOL    HW221858   2.289   6.453   5.982
 6987SOL     OW21859   0.797   3.579   6.699
 6987SOL    HW121860   0.779   3.661   6.753
 6987SOL    HW221861   0.875   3.595   6.638
 6988SOL     OW21862   5.332   1.334   3.808
 6988SOL    HW121863   5.312   1.429   3.787
 6988SOL    HW221864   5.323   1.279   3.725
 6989SOL     OW21865   1.727   2.177   3.870
 6989SOL    HW121866   1.725   2.251   3.937
 6989SOL    HW221867   1.761   2.212   3.783
 6990SOL     OW21868   3.893   3.128   6.875
 6990SOL    HW121869   3.859   3.054   6.934
 6990SOL    HW221870   3.871   3.216   6.916
 6991SOL     OW21871   2.781   4.299   5.984
 6991SOL    HW121872   2.831   4.373   5.938
 6991SOL    HW221873   2.814   4.290   6.078
 6992SOL     OW21874   5.669   6.966   3.727
 6992SOL    HW121875   5.664   6.972   3.826
 6992SOL    HW221876   5.715   0.024   3.691
 6993SOL     OW21877   0.428   0.114   2.938
 6993SOL    HW121878   0.509   0.124   2.881
 6993SOL    HW221879   0.357   0.065   2.888
 6994SOL     OW21880   1.803   2.959   6.442
 6994SOL    HW121881   1.877   2.902   6.478
 6994SOL    HW221882   1.792   3.039   6.501
 6995SOL     OW21883   5.842   5.795   3.205
 6995SOL    HW121884   5.806   5.744   3.127
 6995SOL    HW221885   5.827   5.742   3.289
 6996SOL     OW21886   2.237   0.578   5.471
 6996SOL    HW121887   2.263   0.486   5.440
 6996SOL    HW221888   2.169   0.570   5.544
 6997SOL     OW21889   4.721   0.188   5.058
 6997SOL    HW121890   4.730   0.089   5.050
 6997SOL    HW221891   4.625   0.212   5.067
 6998SOL     OW21892   1.058   3.474   3.006
 6998SOL    HW121893   1.044   3.495   2.910
 6998SOL    HW221894   1.057   3.375   3.020
 6999SOL     OW21895   3.467   1.930   5.705
 6999SOL    HW121896   3.441   1.879   5.623
 6999SOL    HW221897   3.386   1.951   5.759
 7000SOL     OW21898   0.696   6.406   2.363
 7000SOL    HW121899   0.714   6.351   2.281
 7000SOL    HW221900   0.654   6.493   2.336
 7001SOL     OW21901   2.510   2.886   5.695
 7001SOL    HW121902   2.523   2.791   5.724
 7001SOL    HW221903   2.535   2.894   5.598
 7002SOL     OW21904   1.325   4.741   2.999
 7002SOL    HW121905   1.404   4.742   3.061
 7002SOL    HW221906   1.305   4.647   2.973
 7003SOL     OW21907   3.084   6.255   0.780
 7003SOL    HW121908   3.098   6.304   0.694
 7003SOL    HW221909   2.988   6.264   0.808
 7004SOL     OW21910   1.552   3.961   1.109
 7004SOL    HW121911   1.651   3.964   1.123
 7004SOL    HW221912   1.507   4.020   1.176
 7005SOL     OW21913   5.171   6.159   6.557
 7005SOL    HW121914   5.251   6.213   6.534
 7005SOL    HW221915   5.096   6.180   6.493
 7006SOL     OW21916   4.421   4.607   4.740
 7006SOL    HW121917   4.470   4.559   4.667
 7006SOL    HW221918   4.397   4.541   4.812
 7007SOL     OW21919   4.388   6.047   3.462
 7007SOL    HW121920   4.414   6.127   3.409
 7007SOL    HW221921   4.297   6.061   3.501
 7008SOL     OW21922   1.285   4.902   3.979
 7008SOL    HW121923   1.288   4.813   4.025
 7008SOL    HW221924   1.248   4.891   3.887
 7009SOL     OW21925   0.486   4.650   1.918
 7009SOL    HW121926   0.584   4.666   1.924
 7009SOL    HW221927   0.469   4.563   1.872
 7010SOL     OW21928   3.443   4.968   6.362
 7010SOL    HW121929   3.360   4.944   6.312
 7010SOL    HW221930   3.514   4.899   6.344
 7011SOL     OW21931   2.824   0.765   5.804
 7011SOL    HW121932   2.730   0.750   5.771
 7011SOL    HW221933   2.880   0.686   5.781
 7012SOL     OW21934   1.338   0.879   1.470
 7012SOL    HW121935   1.317   0.920   1.381
 7012SOL    HW221936   1.433   0.848   1.470
 7013SOL     OW21937   1.099   0.060   1.863
 7013SOL    HW121938   1.050   0.129   1.916
 7013SOL    HW221939   1.058   6.993   1.881
 7014SOL     OW21940   2.633   4.407   1.236
 7014SOL    HW121941   2.591   4.472   1.299
 7014SOL    HW221942   2.713   4.366   1.279
 7015SOL     OW21943   5.177   2.655   2.835
 7015SOL    HW121944   5.259   2.689   2.881
 7015SOL    HW221945   5.099   2.661   2.898
 7016SOL     OW21946   4.620   5.053   0.837
 7016SOL    HW121947   4.560   5.038   0.758
 7016SOL    HW221948   4.708   5.088   0.806
 7017SOL     OW21949   3.172   1.847   2.974
 7017SOL    HW121950   3.160   1.933   2.926
 7017SOL    HW221951   3.210   1.864   3.064
 7018SOL     OW21952   0.610   4.763   5.094
 7018SOL    HW121953   0.610   4.750   5.193
 7018SOL    HW221954   0.545   4.835   5.070
 7019SOL     OW21955   2.549   5.573   6.837
 7019SOL    HW121956   2.475   5.578   6.904
 7019SOL    HW221957   2.618   5.642   6.858
 7020SOL     OW21958   6.480   6.368   6.530
 7020SOL    HW121959   6.504   6.405   6.440
 7020SOL    HW221960   6.409   6.299   6.519
 7021SOL     OW21961   2.529   1.756   6.294
 7021SOL    HW121962   2.604   1.727   6.236
 7021SOL    HW221963   2.455   1.793   6.238
 7022SOL     OW21964   5.490   4.626   0.133
 7022SOL    HW121965   5.574   4.602   0.183
 7022SOL    HW221966   5.514   4.649   0.039
 7023SOL     OW21967   6.437   3.653   2.428
 7023SOL    HW121968   6.523   3.685   2.389
 7023SOL    HW221969   6.420   3.699   2.515
 7024SOL     OW21970   2.024   5.976   0.495
 7024SOL    HW121971   2.009   5.923   0.412
 7024SOL    HW221972   2.112   6.023   0.489
 7025SOL     OW21973   3.000   1.909   6.498
 7025SOL    HW121974   3.093   1.906   6.536
 7025SOL    HW221975   3.002   1.880   6.403
 7026SOL     OW21976   3.774   1.728   1.211
 7026SOL    HW121977   3.778   1.788   1.131
 7026SOL    HW221978   3.771   1.783   1.294
 7027SOL     OW21979   3.969   6.514   4.383
 7027SOL    HW121980   3.896   6.526   4.450
 7027SOL    HW221981   3.982   6.598   4.331
 7028SOL     OW21982   4.069   6.688   4.023
 7028SOL    HW121983   4.044   6.747   4.099
 7028SOL    HW221984   4.000   6.616   4.013
 7029SOL     OW21985   3.046   0.299   6.678
 7029SOL    HW121986   3.041   0.202   6.654
 7029SOL    HW221987   3.111   0.345   6.618
 7030SOL     OW21988   0.843   3.458   4.819
 7030SOL    HW121989   0.816   3.523   4.891
 7030SOL    HW221990   0.763   3.406   4.790
 7031SOL     OW21991   1.582   5.856   4.222
 7031SOL    HW121992   1.487   5.826   4.211
 7031SOL    HW221993   1.596   5.890   4.315
 7032SOL     OW21994   6.042   0.913   2.172
 7032SOL    HW121995   6.110   0.965   2.223
 7032SOL    HW221996   6.020   0.829   2.223
 7033SOL     OW21997   6.955   1.016   3.793
 7033SOL    HW121998   6.866   1.047   3.827
 7033SOL    HW221999   7.000   0.961   3.863
 7034SOL     OW22000   7.006   6.719   2.871
 7034SOL    HW122001   0.053   6.680   2.930
 7034SOL    HW222002   6.974   6.806   2.909
 7035SOL     OW22003   6.439   5.521   2.694
 7035SOL    HW122004   6.494   5.604   2.706
 7035SOL    HW222005   6.355   5.544   2.645
 7036SOL     OW22006   0.191   5.041   2.060
 7036SOL    HW122007   0.156   5.033   2.153
 7036SOL    HW222008   0.265   4.975   2.047
 7037SOL     OW22009   1.198   6.271   6.055
 7037SOL    HW122010   1.285   6.226   6.078
 7037SOL    HW222011   1.171   6.244   5.963
 7038SOL     OW22012   0.789   3.919   4.346
 7038SOL    HW122013   0.699   3.935   4.387
 7038SOL    HW222014   0.829   3.836   4.385
 7039SOL     OW22015   3.929   1.076   6.634
 7039SOL    HW122016   3.851   1.067   6.572
 7039SOL    HW222017   3.900   1.054   6.727
 7040SOL     OW22018   5.287   2.058   6.183
 7040SOL    HW122019   5.366   2.011   6.144
 7040SOL    HW222020   5.222   2.079   6.109
 7041SOL     OW22021   1.957   1.920   2.735
 7041SOL    HW122022   1.862   1.918   2.766
 7041SOL    HW222023   2.018   1.926   2.814
 7042SOL     OW22024   3.199   6.556   6.786
 7042SOL    HW122025   3.116   6.514   6.750
 7042SOL    HW222026   3.254   6.486   6.833
 7043SOL     OW22027   2.470   1.915   2.972
 7043SOL    HW122028   2.549   1.939   2.915
 7043SOL    HW222029   2.477   1.963   3.060
 7044SOL     OW22030   4.744   4.771   3.091
 7044SOL    HW122031   4.693   4.698   3.046
 7044SOL    HW222032   4.820   4.800   3.033
 7045SOL     OW22033   5.644   5.473   1.293
 7045SOL    HW122034   5.665   5.540   1.221
 7045SOL    HW222035   5.615   5.387   1.252
 7046SOL     OW22036   3.899   0.776   4.945
 7046SOL    HW122037   3.799   0.783   4.946
 7046SOL    HW222038   3.935   0.799   5.036
 7047SOL     OW22039   1.471   0.834   4.255
 7047SOL    HW122040   1.501   0.778   4.332
 7047SOL    HW222041   1.374   0.855   4.263
 7048SOL     OW22042   6.352   6.112   0.108
 7048SOL    HW122043   6.441   6.156   0.124
 7048SOL    HW222044   6.365   6.014   0.094
 7049SOL     OW22045   2.456   1.275   0.768
 7049SOL    HW122046   2.414   1.354   0.813
 7049SOL    HW222047   2.430   1.192   0.816
 7050SOL     OW22048   3.976   3.947   4.415
 7050SOL    HW122049   3.989   3.903   4.503
 7050SOL    HW222050   4.028   4.032   4.411
 7051SOL     OW22051   0.315   6.903   2.130
 7051SOL    HW122052   0.300   6.997   2.100
 7051SOL    HW222053   0.226   6.859   2.145
 7052SOL     OW22054   0.292   2.256   3.862
 7052SOL    HW122055   0.325   2.212   3.945
 7052SOL    HW222056   0.211   2.311   3.882
 7053SOL     OW22057   0.642   4.066   6.504
 7053SOL    HW122058   0.578   4.143   6.505
 7053SOL    HW222059   0.677   4.051   6.596
 7054SOL     OW22060   6.661   6.662   1.666
 7054SOL    HW122061   6.644   6.650   1.568
 7054SOL    HW222062   6.668   6.572   1.710
 7055SOL     OW22063   4.399   0.719   4.427
 7055SOL    HW122064   4.352   0.633   4.445
 7055SOL    HW222065   4.384   0.746   4.332
 7056SOL     OW22066   5.263   4.825   4.166
 7056SOL    HW122067   5.311   4.912   4.165
 7056SOL    HW222068   5.164   4.841   4.167
 7057SOL     OW22069   0.113   5.898   3.479
 7057SOL    HW122070   0.018   5.875   3.459
 7057SOL    HW222071   0.173   5.852   3.414
 7058SOL     OW22072   0.882   5.057   5.644
 7058SOL    HW122073   0.963   5.008   5.613
 7058SOL    HW222074   0.854   5.123   5.573
 7059SOL     OW22075   1.162   0.322   2.442
 7059SOL    HW122076   1.083   0.384   2.436
 7059SOL    HW222077   1.246   0.377   2.448
 7060SOL     OW22078   3.589   6.285   1.700
 7060SOL    HW122079   3.503   6.244   1.667
 7060SOL    HW222080   3.595   6.380   1.669
 7061SOL     OW22081   0.776   0.371   3.025
 7061SOL    HW122082   0.848   0.439   3.033
 7061SOL    HW222083   0.702   0.407   2.967
 7062SOL     OW22084   5.369   1.929   5.135
 7062SOL    HW122085   5.294   1.896   5.078
 7062SOL    HW222086   5.346   1.916   5.231
 7063SOL     OW22087   2.893   6.573   1.113
 7063SOL    HW122088   2.845   6.640   1.056
 7063SOL    HW222089   2.992   6.586   1.105
 7064SOL     OW22090   3.777   2.461   1.406
 7064SOL    HW122091   3.820   2.429   1.322
 7064SOL    HW222092   3.797   2.396   1.480
 7065SOL     OW22093   4.746   3.788   1.813
 7065SOL    HW122094   4.791   3.877   1.806
 7065SOL    HW222095   4.731   3.750   1.722
 7066SOL     OW22096   4.100   6.926   0.772
 7066SOL    HW122097   4.063   6.968   0.689
 7066SOL    HW222098   4.118   6.829   0.755
 7067SOL     OW22099   0.779   3.937   5.457
 7067SOL    HW122100   0.859   3.888   5.421
 7067SOL    HW222101   0.777   3.929   5.556
 7068SOL     OW22102   1.546   1.191   3.989
 7068SOL    HW122103   1.620   1.231   3.934
 7068SOL    HW222104   1.462   1.244   3.975
 7069SOL     OW22105   0.568   4.424   5.243
 7069SOL    HW122106   0.529   4.456   5.157
 7069SOL    HW222107   0.629   4.347   5.225
 7070SOL     OW22108   6.067   4.821   4.777
 7070SOL    HW122109   6.073   4.852   4.682
 7070SOL    HW222110   6.154   4.780   4.804
 7071SOL     OW22111   1.295   5.927   5.413
 7071SOL    HW122112   1.271   5.910   5.317
 7071SOL    HW222113   1.392   5.908   5.426
 7072SOL     OW22114   0.074   6.663   6.744
 7072SOL    HW122115   0.090   6.720   6.663
 7072SOL    HW222116   0.134   6.692   6.818
 7073SOL     OW22117   0.488   0.665   5.188
 7073SOL    HW122118   0.520   0.572   5.171
 7073SOL    HW222119   0.498   0.687   5.285
 7074SOL     OW22120   3.501   2.153   1.428
 7074SOL    HW122121   3.435   2.079   1.422
 7074SOL    HW222122   3.494   2.197   1.517
 7075SOL     OW22123   1.637   5.716   3.964
 7075SOL    HW122124   1.606   5.723   3.869
 7075SOL    HW222125   1.581   5.775   4.022
 7076SOL     OW22126   3.168   2.044   6.260
 7076SOL    HW122127   3.076   2.079   6.244
 7076SOL    HW222128   3.221   2.110   6.313
 7077SOL     OW22129   2.343   5.469   5.786
 7077SOL    HW122130   2.330   5.568   5.792
 7077SOL    HW222131   2.280   5.423   5.848
 7078SOL     OW22132   5.758   0.991   3.212
 7078SOL    HW122133   5.760   1.020   3.308
 7078SOL    HW222134   5.703   1.054   3.159
 7079SOL     OW22135   6.460   6.458   6.272
 7079SOL    HW122136   6.501   6.379   6.227
 7079SOL    HW222137   6.518   6.538   6.258
 7080SOL     OW22138   4.708   2.004   3.889
 7080SOL    HW122139   4.716   2.056   3.804
 7080SOL    HW222140   4.613   2.007   3.920
 7081SOL     OW22141   3.136   1.309   5.587
 7081SOL    HW122142   3.119   1.270   5.497
 7081SOL    HW222143   3.231   1.339   5.594
 7082SOL     OW22144   6.042   1.124   6.260
 7082SOL    HW122145   6.129   1.130   6.308
 7082SOL    HW222146   6.005   1.216   6.246
 7083SOL     OW22147   3.479   0.269   6.021
 7083SOL    HW122148   3.387   0.231   6.016
 7083SOL    HW222149   3.545   0.202   5.988
 7084SOL     OW22150   6.837   6.431   6.354
 7084SOL    HW122151   6.833   6.484   6.438
 7084SOL    HW222152   6.904   6.472   6.292
 7085SOL     OW22153   2.243   2.407   2.164
 7085SOL    HW122154   2.301   2.469   2.113
 7085SOL    HW222155   2.180   2.459   2.222
 7086SOL     OW22156   5.691   0.587   6.367
 7086SOL    HW122157   5.790   0.578   6.371
 7086SOL    HW222158   5.650   0.539   6.446
 7087SOL     OW22159   1.078   3.146   4.863
 7087SOL    HW122160   1.078   3.213   4.938
 7087SOL    HW222161   1.130   3.182   4.786
 7088SOL     OW22162   5.789   3.284   4.303
 7088SOL    HW122163   5.884   3.256   4.291
 7088SOL    HW222164   5.741   3.217   4.359
 7089SOL     OW22165   3.496   1.841   6.934
 7089SOL    HW122166   3.472   1.848   6.838
 7089SOL    HW222167   3.499   1.932   6.975
 7090SOL     OW22168   2.377   2.279   5.065
 7090SOL    HW122169   2.340   2.280   5.158
 7090SOL    HW222170   2.464   2.229   5.065
 7091SOL     OW22171   6.561   0.504   0.472
 7091SOL    HW122172   6.528   0.478   0.563
 7091SOL    HW222173   6.649   0.460   0.455
 7092SOL     OW22174   3.426   4.147   1.260
 7092SOL    HW122175   3.330   4.150   1.287
 7092SOL    HW222176   3.434   4.161   1.162
 7093SOL     OW22177   3.279   3.823   4.771
 7093SOL    HW122178   3.264   3.921   4.760
 7093SOL    HW222179   3.202   3.783   4.820
 7094SOL     OW22180   0.673   6.733   5.764
 7094SOL    HW122181   0.764   6.725   5.724
 7094SOL    HW222182   0.621   6.802   5.714
 7095SOL     OW22183   0.562   3.363   6.226
 7095SOL    HW122184   0.642   3.343   6.169
 7095SOL    HW222185   0.479   3.359   6.170
 7096SOL     OW22186   4.348   2.374   3.977
 7096SOL    HW122187   4.381   2.427   4.055
 7096SOL    HW222188   4.381   2.414   3.892
 7097SOL     OW22189   0.222   0.728   1.605
 7097SOL    HW122190   0.132   0.772   1.615
 7097SOL    HW222191   0.285   0.767   1.672
 7098SOL     OW22192   1.797   6.004   6.214
 7098SOL    HW122193   1.720   5.940   6.219
 7098SOL    HW222194   1.851   5.984   6.132
 7099SOL     OW22195   1.058   1.320   5.378
 7099SOL    HW122196   1.040   1.418   5.387
 7099SOL    HW222197   1.056   1.277   5.468
 7100SOL     OW22198   4.946   3.608   1.131
 7100SOL    HW122199   4.984   3.697   1.107
 7100SOL    HW222200   5.020   3.541   1.139
 7101SOL     OW22201   2.844   0.592   4.963
 7101SOL    HW122202   2.870   0.520   4.899
 7101SOL    HW222203   2.751   0.623   4.942
 7102SOL     OW22204   3.623   1.226   1.037
 7102SOL    HW122205   3.604   1.324   1.043
 7102SOL    HW222206   3.540   1.174   1.055
 7103SOL     OW22207   3.594   6.857   0.445
 7103SOL    HW122208   3.537   6.834   0.524
 7103SOL    HW222209   3.690   6.865   0.475
 7104SOL     OW22210   1.742   2.161   3.220
 7104SOL    HW122211   1.788   2.224   3.282
 7104SOL    HW222212   1.646   2.152   3.247
 7105SOL     OW22213   3.493   3.219   4.683
 7105SOL    HW122214   3.465   3.241   4.589
 7105SOL    HW222215   3.510   3.120   4.689
 7106SOL     OW22216   3.897   2.950   4.875
 7106SOL    HW122217   3.813   2.897   4.885
 7106SOL    HW222218   3.962   2.925   4.948
 7107SOL     OW22219   2.729   1.408   0.391
 7107SOL    HW122220   2.653   1.364   0.342
 7107SOL    HW222221   2.732   1.374   0.485
 7108SOL     OW22222   5.546   6.484   1.012
 7108SOL    HW122223   5.532   6.461   1.108
 7108SOL    HW222224   5.459   6.508   0.970
 7109SOL     OW22225   3.260   0.059   6.137
 7109SOL    HW122226   3.254   0.060   6.237
 7109SOL    HW222227   3.176   0.099   6.099
 7110SOL     OW22228   4.581   5.379   4.252
 7110SOL    HW122229   4.539   5.469   4.242
 7110SOL    HW222230   4.681   5.387   4.244
 7111SOL     OW22231   2.145   3.150   4.153
 7111SOL    HW122232   2.094   3.111   4.230
 7111SOL    HW222233   2.159   3.080   4.084
 7112SOL     OW22234   1.096   6.257   3.917
 7112SOL    HW122235   1.066   6.169   3.955
 7112SOL    HW222236   1.195   6.255   3.904
 7113SOL     OW22237   3.779   3.543   4.524
 7113SOL    HW122238   3.766   3.446   4.545
 7113SOL    HW222239   3.698   3.578   4.477
 7114SOL     OW22240   4.102   1.547   1.664
 7114SOL    HW122241   4.135   1.623   1.608
 7114SOL    HW222242   4.007   1.527   1.641
 7115SOL     OW22243   4.902   1.657   1.543
 7115SOL    HW122244   4.827   1.618   1.490
 7115SOL    HW222245   4.946   1.585   1.597
 7116SOL     OW22246   5.242   3.935   3.242
 7116SOL    HW122247   5.275   3.928   3.148
 7116SOL    HW222248   5.292   3.872   3.301
 7117SOL     OW22249   6.205   5.953   2.320
 7117SOL    HW122250   6.209   5.926   2.416
 7117SOL    HW222251   6.293   5.991   2.293
 7118SOL     OW22252   5.673   3.344   0.753
 7118SOL    HW122253   5.625   3.281   0.814
 7118SOL    HW222254   5.722   3.292   0.683
 7119SOL     OW22255   6.462   0.917   3.349
 7119SOL    HW122256   6.496   0.995   3.297
 7119SOL    HW222257   6.515   0.908   3.433
 7120SOL     OW22258   4.454   1.774   4.021
 7120SOL    HW122259   4.441   1.683   3.982
 7120SOL    HW222260   4.499   1.833   3.955
 7121SOL     OW22261   2.702   6.657   3.867
 7121SOL    HW122262   2.614   6.632   3.825
 7121SOL    HW222263   2.686   6.716   3.945
 7122SOL     OW22264   6.531   0.736   6.850
 7122SOL    HW122265   6.534   0.637   6.867
 7122SOL    HW222266   6.527   0.785   6.937
 7123SOL     OW22267   3.202   5.289   1.290
 7123SOL    HW122268   3.233   5.239   1.371
 7123SOL    HW222269   3.264   5.365   1.272
 7124SOL     OW22270   0.627   5.326   6.782
 7124SOL    HW122271   0.706   5.386   6.768
 7124SOL    HW222272   0.545   5.370   6.745
 7125SOL     OW22273   6.663   6.465   2.665
 7125SOL    HW122274   6.682   6.559   2.638
 7125SOL    HW222275   6.686   6.402   2.591
 7126SOL     OW22276   1.682   4.295   0.234
 7126SOL    HW122277   1.621   4.362   0.277
 7126SOL    HW222278   1.640   4.259   0.151
 7127SOL     OW22279   3.448   6.171   4.541
 7127SOL    HW122280   3.517   6.100   4.550
 7127SOL    HW222281   3.360   6.129   4.516
 7128SOL     OW22282   3.294   4.291   1.060
 7128SOL    HW122283   3.209   4.299   1.113
 7128SOL    HW222284   3.368   4.338   1.109
 7129SOL     OW22285   2.967   0.077   1.822
 7129SOL    HW122286   2.874   0.115   1.814
 7129SOL    HW222287   3.027   0.147   1.862
 7130SOL     OW22288   2.467   4.925   3.523
 7130SOL    HW122289   2.508   4.837   3.497
 7130SOL    HW222290   2.538   4.996   3.523
 7131SOL     OW22291   2.427   0.950   2.740
 7131SOL    HW122292   2.349   0.916   2.687
 7131SOL    HW222293   2.456   1.039   2.704
 7132SOL     OW22294   3.858   3.910   3.244
 7132SOL    HW122295   3.852   3.963   3.329
 7132SOL    HW222296   3.771   3.915   3.195
 7133SOL     OW22297   4.967   5.214   3.524
 7133SOL    HW122298   5.066   5.221   3.536
 7133SOL    HW222299   4.925   5.303   3.542
 7134SOL     OW22300   6.248   5.324   4.140
 7134SOL    HW122301   6.153   5.303   4.164
 7134SOL    HW222302   6.280   5.401   4.194
 7135SOL     OW22303   1.517   1.682   4.674
 7135SOL    HW122304   1.542   1.778   4.663
 7135SOL    HW222305   1.425   1.667   4.639
 7136SOL     OW22306   1.743   1.638   0.527
 7136SOL    HW122307   1.684   1.585   0.586
 7136SOL    HW222308   1.759   1.589   0.442
 7137SOL     OW22309   4.786   0.668   4.307
 7137SOL    HW122310   4.757   0.714   4.391
 7137SOL    HW222311   4.883   0.685   4.291
 7138SOL     OW22312   2.585   4.079   1.379
 7138SOL    HW122313   2.559   3.993   1.422
 7138SOL    HW222314   2.503   4.129   1.350
 7139SOL     OW22315   4.562   3.086   1.656
 7139SOL    HW122316   4.468   3.120   1.660
 7139SOL    HW222317   4.585   3.039   1.741
 7140SOL     OW22318   6.637   4.559   5.068
 7140SOL    HW122319   6.556   4.554   5.009
 7140SOL    HW222320   6.608   4.561   5.163
 7141SOL     OW22321   2.981   0.021   0.882
 7141SOL    HW122322   3.066   0.030   0.829
 7141SOL    HW222323   2.906   0.063   0.831
 7142SOL     OW22324   4.318   6.701   3.766
 7142SOL    HW122325   4.258   6.659   3.698
 7142SOL    HW222326   4.412   6.670   3.749
 7143SOL     OW22327   1.647   4.143   6.166
 7143SOL    HW122328   1.699   4.057   6.169
 7143SOL    HW222329   1.628   4.174   6.259
 7144SOL     OW22330   1.035   1.580   3.462
 7144SOL    HW122331   1.097   1.643   3.507
 7144SOL    HW222332   1.041   1.490   3.505
 7145SOL     OW22333   4.756   0.134   6.642
 7145SOL    HW122334   4.752   0.193   6.561
 7145SOL    HW222335   4.677   0.072   6.642
 7146SOL     OW22336   2.611   6.131   0.181
 7146SOL    HW122337   2.614   6.158   0.277
 7146SOL    HW222338   2.616   6.031   0.175
 7147SOL     OW22339   0.120   0.661   3.181
 7147SOL    HW122340   0.172   0.618   3.107
 7147SOL    HW222341   0.060   0.732   3.144
 7148SOL     OW22342   1.255   0.306   1.749
 7148SOL    HW122343   1.231   0.234   1.814
 7148SOL    HW222344   1.239   0.273   1.656
 7149SOL     OW22345   6.720   1.602   3.414
 7149SOL    HW122346   6.665   1.686   3.412
 7149SOL    HW222347   6.670   1.531   3.464
 7150SOL     OW22348   5.678   2.347   0.077
 7150SOL    HW122349   5.778   2.343   0.078
 7150SOL    HW222350   5.641   2.262   0.114
 7151SOL     OW22351   2.614   5.943   2.025
 7151SOL    HW122352   2.709   5.916   2.011
 7151SOL    HW222353   2.555   5.888   1.966
 7152SOL     OW22354   1.100   2.655   4.170
 7152SOL    HW122355   1.190   2.647   4.128
 7152SOL    HW222356   1.062   2.564   4.185
 7153SOL     OW22357   4.458   1.110   4.279
 7153SOL    HW122358   4.441   1.011   4.274
 7153SOL    HW222359   4.396   1.151   4.345
 7154SOL     OW22360   3.950   5.948   4.000
 7154SOL    HW122361   3.914   6.014   4.066
 7154SOL    HW222362   3.965   5.861   4.046
 7155SOL     OW22363   1.331   6.873   2.006
 7155SOL    HW122364   1.416   6.832   2.041
 7155SOL    HW222365   1.348   6.915   1.917
 7156SOL     OW22366   6.730   5.474   5.189
 7156SOL    HW122367   6.741   5.376   5.175
 7156SOL    HW222368   6.807   5.523   5.148
 7157SOL     OW22369   5.327   5.435   0.796
 7157SOL    HW122370   5.336   5.407   0.892
 7157SOL    HW222371   5.361   5.361   0.737
 7158SOL     OW22372   0.561   6.628   3.168
 7158SOL    HW122373   0.651   6.601   3.200
 7158SOL    HW222374   0.511   6.675   3.241
 7159SOL     OW22375   0.600   5.145   7.012
 7159SOL    HW122376   0.534   5.172   0.059
 7159SOL    HW222377   0.612   5.220   6.947
 7160SOL     OW22378   6.575   0.436   1.665
 7160SOL    HW122379   6.615   0.375   1.733
 7160SOL    HW222380   6.523   0.383   1.598
 7161SOL     OW22381   3.360   3.001   4.380
 7161SOL    HW122382   3.356   3.099   4.395
 7161SOL    HW222383   3.440   2.979   4.325
 7162SOL     OW22384   3.723   4.982   4.153
 7162SOL    HW122385   3.774   4.916   4.097
 7162SOL    HW222386   3.650   5.023   4.099
 7163SOL     OW22387   3.215   0.435   3.605
 7163SOL    HW122388   3.122   0.403   3.585
 7163SOL    HW222389   3.276   0.356   3.613
 7164SOL     OW22390   2.041   1.108   3.400
 7164SOL    HW122391   2.053   1.080   3.496
 7164SOL    HW222392   2.103   1.182   3.378
 7165SOL     OW22393   5.308   0.801   0.950
 7165SOL    HW122394   5.252   0.756   1.020
 7165SOL    HW222395   5.331   0.736   0.878
 7166SOL     OW22396   5.194   5.067   0.992
 7166SOL    HW122397   5.283   5.056   0.947
 7166SOL    HW222398   5.193   5.012   1.076
 7167SOL     OW22399   4.833   3.289   5.194
 7167SOL    HW122400   4.803   3.382   5.176
 7167SOL    HW222401   4.926   3.276   5.160
 7168SOL     OW22402   1.098   0.430   3.914
 7168SOL    HW122403   1.095   0.478   4.002
 7168SOL    HW222404   1.191   0.433   3.878
 7169SOL     OW22405   1.617   2.969   5.821
 7169SOL    HW122406   1.581   2.904   5.888
 7169SOL    HW222407   1.698   3.014   5.859
 7170SOL     OW22408   5.775   5.295   3.290
 7170SOL    HW122409   5.688   5.343   3.284
 7170SOL    HW222410   5.811   5.281   3.198
 7171SOL     OW22411   4.565   3.112   5.321
 7171SOL    HW122412   4.563   3.055   5.403
 7171SOL    HW222413   4.579   3.208   5.347
 7172SOL     OW22414   1.400   6.799   0.481
 7172SOL    HW122415   1.419   6.838   0.571
 7172SOL    HW222416   1.474   6.822   0.418
 7173SOL     OW22417   6.829   6.200   5.338
 7173SOL    HW122418   6.896   6.266   5.372
 7173SOL    HW222419   6.876   6.122   5.298
 7174SOL     OW22420   2.089   5.238   0.124
 7174SOL    HW122421   2.145   5.161   0.154
 7174SOL    HW222422   2.045   5.281   0.203
 7175SOL     OW22423   4.944   3.947   0.093
 7175SOL    HW122424   5.030   3.961   0.142
 7175SOL    HW222425   4.894   4.034   0.089
 7176SOL     OW22426   6.391   4.352   1.436
 7176SOL    HW122427   6.475   4.400   1.462
 7176SOL    HW222428   6.414   4.272   1.382
 7177SOL     OW22429   1.071   5.587   3.210
 7177SOL    HW122430   1.148   5.627   3.160
 7177SOL    HW222431   1.098   5.570   3.305
 7178SOL     OW22432   1.010   2.536   4.561
 7178SOL    HW122433   0.988   2.627   4.595
 7178SOL    HW222434   1.056   2.484   4.633
 7179SOL     OW22435   2.913   3.898   5.509
 7179SOL    HW122436   2.906   3.998   5.507
 7179SOL    HW222437   2.833   3.860   5.555
 7180SOL     OW22438   0.657   6.373   1.808
 7180SOL    HW122439   0.702   6.462   1.807
 7180SOL    HW222440   0.726   6.301   1.796
 7181SOL     OW22441   4.613   0.282   1.160
 7181SOL    HW122442   4.682   0.288   1.088
 7181SOL    HW222443   4.628   0.355   1.227
 7182SOL     OW22444   2.322   4.390   5.513
 7182SOL    HW122445   2.326   4.316   5.447
 7182SOL    HW222446   2.233   4.391   5.558
 7183SOL     OW22447   1.450   4.750   3.636
 7183SOL    HW122448   1.530   4.785   3.588
 7183SOL    HW222449   1.474   4.663   3.680
 7184SOL     OW22450   2.062   6.375   4.130
 7184SOL    HW122451   2.100   6.286   4.154
 7184SOL    HW222452   2.063   6.387   4.031
 7185SOL     OW22453   4.506   2.621   6.901
 7185SOL    HW122454   4.511   2.559   6.979
 7185SOL    HW222455   4.481   2.569   6.819
 7186SOL     OW22456   6.596   5.758   5.335
 7186SOL    HW122457   6.587   5.856   5.352
 7186SOL    HW222458   6.643   5.744   5.248
 7187SOL     OW22459   1.829   4.344   2.383
 7187SOL    HW122460   1.842   4.294   2.468
 7187SOL    HW222461   1.883   4.429   2.385
 7188SOL     OW22462   5.041   0.884   1.944
 7188SOL    HW122463   4.968   0.953   1.937
 7188SOL    HW222464   5.123   0.918   1.900
 7189SOL     OW22465   0.329   1.491   5.662
 7189SOL    HW122466   0.344   1.426   5.737
 7189SOL    HW222467   0.397   1.564   5.667
 7190SOL     OW22468   5.624   3.796   3.456
 7190SOL    HW122469   5.672   3.883   3.446
 7190SOL    HW222470   5.528   3.808   3.430
 7191SOL     OW22471   1.155   4.080   2.459
 7191SOL    HW122472   1.105   4.013   2.513
 7191SOL    HW222473   1.130   4.070   2.363
 7192SOL     OW22474   2.854   4.907   6.685
 7192SOL    HW122475   2.826   4.848   6.761
 7192SOL    HW222476   2.778   4.913   6.619
 7193SOL     OW22477   3.878   2.166   4.356
 7193SOL    HW122478   3.939   2.234   4.316
 7193SOL    HW222479   3.807   2.142   4.289
 7194SOL     OW22480   2.511   2.217   1.604
 7194SOL    HW122481   2.487   2.211   1.701
 7194SOL    HW222482   2.536   2.311   1.582
 7195SOL     OW22483   0.824   5.466   0.783
 7195SOL    HW122484   0.902   5.430   0.833
 7195SOL    HW222485   0.753   5.494   0.848
 7196SOL     OW22486   2.945   3.390   2.661
 7196SOL    HW122487   3.011   3.332   2.709
 7196SOL    HW222488   2.958   3.380   2.562
 7197SOL     OW22489   6.872   1.853   5.489
 7197SOL    HW122490   6.807   1.925   5.514
 7197SOL    HW222491   6.953   1.860   5.548
 7198SOL     OW22492   1.417   6.537   6.301
 7198SOL    HW122493   1.503   6.503   6.337
 7198SOL    HW222494   1.344   6.470   6.318
 7199SOL     OW22495   6.960   6.951   2.656
 7199SOL    HW122496   0.009   7.022   2.655
 7199SOL    HW222497   6.969   6.897   2.739
 7200SOL     OW22498   2.002   0.933   1.371
 7200SOL    HW122499   2.081   0.990   1.350
 7200SOL    HW222500   1.933   0.944   1.300
 7201SOL     OW22501   1.444   4.139   4.040
 7201SOL    HW122502   1.491   4.116   4.125
 7201SOL    HW222503   1.432   4.238   4.035
 7202SOL     OW22504   3.724   0.639   6.263
 7202SOL    HW122505   3.628   0.656   6.286
 7202SOL    HW222506   3.755   0.556   6.309
 7203SOL     OW22507   5.815   0.906   6.623
 7203SOL    HW122508   5.875   0.837   6.663
 7203SOL    HW222509   5.719   0.883   6.643
 7204SOL     OW22510   6.110   1.242   3.248
 7204SOL    HW122511   6.019   1.256   3.288
 7204SOL    HW222512   6.161   1.328   3.251
 7205SOL     OW22513   1.867   4.879   2.834
 7205SOL    HW122514   1.863   4.892   2.933
 7205SOL    HW222515   1.779   4.843   2.802
 7206SOL     OW22516   6.364   1.129   0.806
 7206SOL    HW122517   6.430   1.141   0.731
 7206SOL    HW222518   6.355   1.215   0.856
 7207SOL     OW22519   3.172   6.634   1.096
 7207SOL    HW122520   3.134   6.726   1.105
 7207SOL    HW222521   3.267   6.639   1.066
 7208SOL     OW22522   3.234   0.255   5.479
 7208SOL    HW122523   3.253   0.198   5.399
 7208SOL    HW222524   3.171   0.329   5.453
 7209SOL     OW22525   3.874   2.977   4.366
 7209SOL    HW122526   3.842   2.956   4.459
 7209SOL    HW222527   3.858   3.074   4.347
 7210SOL     OW22528   4.784   1.187   3.800
 7210SOL    HW122529   4.727   1.152   3.875
 7210SOL    HW222530   4.870   1.136   3.797
 7211SOL     OW22531   1.305   5.527   3.673
 7211SOL    HW122532   1.262   5.443   3.706
 7211SOL    HW222533   1.319   5.521   3.574
 7212SOL     OW22534   6.086   6.514   4.494
 7212SOL    HW122535   6.067   6.612   4.501
 7212SOL    HW222536   6.038   6.476   4.415
 7213SOL     OW22537   5.761   0.874   5.546
 7213SOL    HW122538   5.689   0.865   5.615
 7213SOL    HW222539   5.848   0.847   5.586
 7214SOL     OW22540   1.537   4.990   5.260
 7214SOL    HW122541   1.537   4.894   5.230
 7214SOL    HW222542   1.618   5.036   5.223
 7215SOL     OW22543   0.599   3.679   4.195
 7215SOL    HW122544   0.623   3.723   4.282
 7215SOL    HW222545   0.510   3.713   4.165
 7216SOL     OW22546   2.458   0.479   0.080
 7216SOL    HW122547   2.510   0.394   0.076
 7216SOL    HW222548   2.483   0.538   0.004
 7217SOL     OW22549   1.092   3.090   2.612
 7217SOL    HW122550   1.028   3.095   2.535
 7217SOL    HW222551   1.040   3.074   2.696
 7218SOL     OW22552   4.619   2.551   5.621
 7218SOL    HW122553   4.650   2.609   5.545
 7218SOL    HW222554   4.666   2.579   5.705
 7219SOL     OW22555   4.560   6.682   2.500
 7219SOL    HW122556   4.653   6.716   2.509
 7219SOL    HW222557   4.562   6.590   2.459
 7220SOL     OW22558   6.328   1.009   2.592
 7220SOL    HW122559   6.264   0.940   2.625
 7220SOL    HW222560   6.392   0.967   2.528
 7221SOL     OW22561   5.161   3.818   6.000
 7221SOL    HW122562   5.114   3.874   5.931
 7221SOL    HW222563   5.096   3.751   6.037
 7222SOL     OW22564   0.321   5.731   1.163
 7222SOL    HW122565   0.365   5.778   1.087
 7222SOL    HW222566   0.349   5.774   1.249
 7223SOL     OW22567   3.406   1.339   5.864
 7223SOL    HW122568   3.504   1.344   5.881
 7223SOL    HW222569   3.367   1.431   5.862
 7224SOL     OW22570   5.407   0.054   4.701
 7224SOL    HW122571   5.441   0.084   4.611
 7224SOL    HW222572   5.316   0.015   4.691
 7225SOL     OW22573   2.030   6.277   6.764
 7225SOL    HW122574   2.104   6.344   6.761
 7225SOL    HW222575   2.032   6.220   6.682
 7226SOL     OW22576   0.092   6.760   0.310
 7226SOL    HW122577   0.135   6.850   0.299
 7226SOL    HW222578   0.163   6.691   0.322
 7227SOL     OW22579   0.117   2.586   6.745
 7227SOL    HW122580   0.116   2.593   6.645
 7227SOL    HW222581   0.166   2.503   6.772
 7228SOL     OW22582   0.777   0.476   2.271
 7228SOL    HW122583   0.843   0.487   2.345
 7228SOL    HW222584   0.689   0.445   2.308
 7229SOL     OW22585   0.912   6.996   4.042
 7229SOL    HW122586   0.824   0.001   4.003
 7229SOL    HW222587   0.979   6.986   3.969
 7230SOL     OW22588   5.136   4.807   3.862
 7230SOL    HW122589   5.079   4.732   3.896
 7230SOL    HW222590   5.232   4.778   3.862
 7231SOL     OW22591   5.853   1.322   5.961
 7231SOL    HW122592   5.890   1.230   5.947
 7231SOL    HW222593   5.878   1.354   6.052
 7232SOL     OW22594   4.069   4.732   2.109
 7232SOL    HW122595   4.004   4.672   2.155
 7232SOL    HW222596   4.051   4.827   2.134
 7233SOL     OW22597   0.085   2.987   6.025
 7233SOL    HW122598   0.015   2.931   5.981
 7233SOL    HW222599   0.112   3.061   5.963
 7234SOL     OW22600   6.088   1.923   1.771
 7234SOL    HW122601   6.124   1.971   1.692
 7234SOL    HW222602   6.125   1.830   1.774
 7235SOL     OW22603   5.415   4.307   5.016
 7235SOL    HW122604   5.464   4.393   5.002
 7235SOL    HW222605   5.317   4.324   5.016
 7236SOL     OW22606   3.665   0.862   2.765
 7236SOL    HW122607   3.727   0.806   2.710
 7236SOL    HW222608   3.608   0.803   2.823
 7237SOL     OW22609   5.846   5.859   5.952
 7237SOL    HW122610   5.826   5.782   6.012
 7237SOL    HW222611   5.926   5.908   5.986
 7238SOL     OW22612   2.432   2.250   1.918
 7238SOL    HW122613   2.357   2.192   1.950
 7238SOL    HW222614   2.520   2.210   1.945
 7239SOL     OW22615   2.922   1.646   2.064
 7239SOL    HW122616   2.996   1.713   2.059
 7239SOL    HW222617   2.902   1.613   1.972
 7240SOL     OW22618   2.581   4.228   0.451
 7240SOL    HW122619   2.530   4.310   0.478
 7240SOL    HW222620   2.671   4.229   0.494
 7241SOL     OW22621   3.466   6.809   4.811
 7241SOL    HW122622   3.440   6.774   4.901
 7241SOL    HW222623   3.387   6.851   4.768
 7242SOL     OW22624   5.601   4.273   6.687
 7242SOL    HW122625   5.566   4.367   6.683
 7242SOL    HW222626   5.524   4.209   6.680
 7243SOL     OW22627   0.973   5.719   0.581
 7243SOL    HW122628   0.882   5.747   0.611
 7243SOL    HW222629   0.967   5.638   0.523
 7244SOL     OW22630   5.881   1.631   1.212
 7244SOL    HW122631   5.895   1.620   1.310
 7244SOL    HW222632   5.933   1.710   1.179
 7245SOL     OW22633   7.010   1.781   4.213
 7245SOL    HW122634   0.075   1.804   4.169
 7245SOL    HW222635   6.983   1.857   4.273
 7246SOL     OW22636   6.809   6.713   5.805
 7246SOL    HW122637   6.839   6.668   5.721
 7246SOL    HW222638   6.712   6.694   5.821
 7247SOL     OW22639   3.153   5.769   2.566
 7247SOL    HW122640   3.213   5.708   2.618
 7247SOL    HW222641   3.059   5.761   2.600
 7248SOL     OW22642   3.768   0.709   4.408
 7248SOL    HW122643   3.753   0.805   4.434
 7248SOL    HW222644   3.866   0.688   4.414
 7249SOL     OW22645   6.214   4.944   6.992
 7249SOL    HW122646   6.159   4.974   6.914
 7249SOL    HW222647   6.176   4.981   0.054
 7250SOL     OW22648   3.298   4.537   6.200
 7250SOL    HW122649   3.367   4.557   6.130
 7250SOL    HW222650   3.217   4.496   6.157
 7251SOL     OW22651   5.690   0.484   5.197
 7251SOL    HW122652   5.688   0.387   5.174
 7251SOL    HW222653   5.601   0.525   5.176
 7252SOL     OW22654   3.758   3.080   5.238
 7252SOL    HW122655   3.841   3.078   5.295
 7252SOL    HW222656   3.758   3.164   5.183
 7253SOL     OW22657   4.603   5.812   1.250
 7253SOL    HW122658   4.539   5.739   1.276
 7253SOL    HW222659   4.697   5.781   1.266
 7254SOL     OW22660   4.062   6.496   4.851
 7254SOL    HW122661   4.084   6.565   4.919
 7254SOL    HW222662   3.982   6.525   4.798
 7255SOL     OW22663   3.161   3.621   2.847
 7255SOL    HW122664   3.207   3.545   2.800
 7255SOL    HW222665   3.153   3.698   2.785
 7256SOL     OW22666   4.685   4.968   3.670
 7256SOL    HW122667   4.726   4.983   3.579
 7256SOL    HW222668   4.723   4.884   3.709
 7257SOL     OW22669   6.176   3.292   3.179
 7257SOL    HW122670   6.273   3.269   3.176
 7257SOL    HW222671   6.160   3.375   3.126
 7258SOL     OW22672   3.721   6.913   4.214
 7258SOL    HW122673   3.761   6.976   4.281
 7258SOL    HW222674   3.631   6.883   4.247
 7259SOL     OW22675   2.211   4.462   6.536
 7259SOL    HW122676   2.232   4.417   6.623
 7259SOL    HW222677   2.184   4.557   6.553
 7260SOL     OW22678   3.511   1.989   2.266
 7260SOL    HW122679   3.592   2.045   2.283
 7260SOL    HW222680   3.445   2.002   2.339
 7261SOL     OW22681   1.745   4.119   2.029
 7261SOL    HW122682   1.778   4.100   2.121
 7261SOL    HW222683   1.758   4.038   1.972
 7262SOL     OW22684   5.677   1.647   4.911
 7262SOL    HW122685   5.593   1.655   4.858
 7262SOL    HW222686   5.751   1.613   4.853
 7263SOL     OW22687   2.973   5.983   1.959
 7263SOL    HW122688   2.916   5.976   1.877
 7263SOL    HW222689   3.063   5.943   1.941
 7264SOL     OW22690   0.797   0.098   5.580
 7264SOL    HW122691   0.777   0.002   5.602
 7264SOL    HW222692   0.755   0.121   5.492
 7265SOL     OW22693   4.221   5.162   5.878
 7265SOL    HW122694   4.151   5.216   5.925
 7265SOL    HW222695   4.280   5.117   5.946
 7266SOL     OW22696   4.643   0.945   1.857
 7266SOL    HW122697   4.560   0.977   1.902
 7266SOL    HW222698   4.675   1.016   1.793
 7267SOL     OW22699   6.833   4.029   3.776
 7267SOL    HW122700   6.897   4.102   3.803
 7267SOL    HW222701   6.860   3.944   3.820
 7268SOL     OW22702   3.160   6.911   1.094
 7268SOL    HW122703   3.075   6.938   1.051
 7268SOL    HW222704   3.237   6.946   1.041
 7269SOL     OW22705   1.757   6.101   1.935
 7269SOL    HW122706   1.830   6.055   1.985
 7269SOL    HW222707   1.783   6.197   1.921
 7270SOL     OW22708   3.085   1.329   2.556
 7270SOL    HW122709   3.064   1.386   2.635
 7270SOL    HW222710   3.018   1.254   2.550
 7271SOL     OW22711   6.916   3.570   3.459
 7271SOL    HW122712   6.972   3.515   3.521
 7271SOL    HW222713   6.857   3.631   3.512
 7272SOL     OW22714   5.832   2.554   2.127
 7272SOL    HW122715   5.746   2.598   2.156
 7272SOL    HW222716   5.858   2.484   2.194
 7273SOL     OW22717   5.320   4.864   0.224
 7273SOL    HW122718   5.389   4.793   0.209
 7273SOL    HW222719   5.270   4.880   0.139
 7274SOL     OW22720   6.571   4.822   5.311
 7274SOL    HW122721   6.560   4.724   5.328
 7274SOL    HW222722   6.493   4.872   5.348
 7275SOL     OW22723   6.635   6.744   0.615
 7275SOL    HW122724   6.667   6.707   0.702
 7275SOL    HW222725   6.589   6.673   0.563
 7276SOL     OW22726   2.621   1.940   3.747
 7276SOL    HW122727   2.662   1.988   3.824
 7276SOL    HW222728   2.533   1.982   3.725
 7277SOL     OW22729   5.288   1.879   4.584
 7277SOL    HW122730   5.338   1.928   4.512
 7277SOL    HW222731   5.237   1.944   4.640
 7278SOL     OW22732   2.764   1.572   2.761
 7278SOL    HW122733   2.786   1.482   2.797
 7278SOL    HW222734   2.678   1.567   2.709
 7279SOL     OW22735   5.474   4.782   1.291
 7279SOL    HW122736   5.528   4.725   1.353
 7279SOL    HW222737   5.405   4.833   1.343
 7280SOL     OW22738   6.234   2.250   5.515
 7280SOL    HW122739   6.210   2.224   5.421
 7280SOL    HW222740   6.260   2.347   5.516
 7281SOL     OW22741   3.912   5.932   2.541
 7281SOL    HW122742   3.989   5.937   2.478
 7281SOL    HW222743   3.937   5.973   2.629
 7282SOL     OW22744   6.880   4.504   2.301
 7282SOL    HW122745   6.945   4.563   2.349
 7282SOL    HW222746   6.912   4.489   2.208
 7283SOL     OW22747   4.033   5.047   3.399
 7283SOL    HW122748   4.061   4.967   3.346
 7283SOL    HW222749   4.003   5.120   3.337
 7284SOL     OW22750   6.857   1.371   3.555
 7284SOL    HW122751   6.955   1.352   3.550
 7284SOL    HW222752   6.810   1.330   3.477
 7285SOL     OW22753   4.954   2.896   1.890
 7285SOL    HW122754   4.863   2.909   1.929
 7285SOL    HW222755   4.947   2.892   1.790
 7286SOL     OW22756   0.127   1.074   2.292
 7286SOL    HW122757   0.093   1.089   2.199
 7286SOL    HW222758   0.196   1.001   2.291
 7287SOL     OW22759   1.475   2.693   3.513
 7287SOL    HW122760   1.522   2.605   3.504
 7287SOL    HW222761   1.416   2.707   3.434
 7288SOL     OW22762   2.672   2.267   2.839
 7288SOL    HW122763   2.618   2.193   2.799
 7288SOL    HW222764   2.677   2.254   2.938
 7289SOL     OW22765   6.246   1.799   1.340
 7289SOL    HW122766   6.333   1.838   1.371
 7289SOL    HW222767   6.264   1.721   1.281
 7290SOL     OW22768   3.542   1.739   5.392
 7290SOL    HW122769   3.488   1.819   5.418
 7290SOL    HW222770   3.587   1.755   5.305
 7291SOL     OW22771   4.352   0.992   0.684
 7291SOL    HW122772   4.424   1.006   0.752
 7291SOL    HW222773   4.264   0.982   0.730
 7292SOL     OW22774   2.637   0.803   2.821
 7292SOL    HW122775   2.675   0.739   2.754
 7292SOL    HW222776   2.562   0.854   2.779
 7293SOL     OW22777   1.011   0.706   4.856
 7293SOL    HW122778   1.005   0.616   4.900
 7293SOL    HW222779   1.035   0.775   4.924
 7294SOL     OW22780   2.630   6.624   2.339
 7294SOL    HW122781   2.708   6.575   2.379
 7294SOL    HW222782   2.657   6.718   2.320
 7295SOL     OW22783   5.909   5.623   2.022
 7295SOL    HW122784   5.957   5.618   2.110
 7295SOL    HW222785   5.950   5.558   1.958
 7296SOL     OW22786   4.901   4.457   2.148
 7296SOL    HW122787   4.987   4.428   2.106
 7296SOL    HW222788   4.824   4.425   2.092
 7297SOL     OW22789   4.107   6.398   1.229
 7297SOL    HW122790   4.088   6.487   1.187
 7297SOL    HW222791   4.205   6.391   1.247
 7298SOL     OW22792   4.336   5.389   0.009
 7298SOL    HW122793   4.392   5.307   0.002
 7298SOL    HW222794   4.338   5.439   6.944
 7299SOL     OW22795   1.200   2.428   6.325
 7299SOL    HW122796   1.269   2.417   6.397
 7299SOL    HW222797   1.111   2.446   6.368
 7300SOL     OW22798   0.630   5.020   1.962
 7300SOL    HW122799   0.638   5.051   1.867
 7300SOL    HW222800   0.721   4.997   1.997
 7301SOL     OW22801   4.733   1.067   5.274
 7301SOL    HW122802   4.772   1.113   5.354
 7301SOL    HW222803   4.635   1.053   5.288
 7302SOL     OW22804   5.244   1.366   6.088
 7302SOL    HW122805   5.319   1.422   6.053
 7302SOL    HW222806   5.158   1.391   6.043
 7303SOL     OW22807   2.097   1.678   1.407
 7303SOL    HW122808   2.192   1.679   1.375
 7303SOL    HW222809   2.055   1.767   1.390
 7304SOL     OW22810   2.983   5.724   1.707
 7304SOL    HW122811   3.066   5.746   1.758
 7304SOL    HW222812   2.972   5.624   1.702
 7305SOL     OW22813   6.529   1.206   0.575
 7305SOL    HW122814   6.556   1.129   0.517
 7305SOL    HW222815   6.601   1.275   0.575
 7306SOL     OW22816   0.976   2.838   1.660
 7306SOL    HW122817   0.943   2.904   1.594
 7306SOL    HW222818   1.074   2.822   1.645
 7307SOL     OW22819   2.166   0.136   1.376
 7307SOL    HW122820   2.195   0.183   1.459
 7307SOL    HW222821   2.098   0.066   1.398
 7308SOL     OW22822   5.136   1.126   3.218
 7308SOL    HW122823   5.117   1.137   3.316
 7308SOL    HW222824   5.182   1.208   3.184
 7309SOL     OW22825   1.711   4.798   3.505
 7309SOL    HW122826   1.799   4.778   3.463
 7309SOL    HW222827   1.698   4.898   3.508
 7310SOL     OW22828   3.217   2.426   6.283
 7310SOL    HW122829   3.291   2.369   6.318
 7310SOL    HW222830   3.185   2.489   6.354
 7311SOL     OW22831   6.849   6.428   6.899
 7311SOL    HW122832   6.766   6.434   6.954
 7311SOL    HW222833   6.909   6.505   6.920
 7312SOL     OW22834   6.923   1.968   4.411
 7312SOL    HW122835   6.825   1.984   4.426
 7312SOL    HW222836   6.976   2.033   4.465
 7313SOL     OW22837   2.609   0.571   2.276
 7313SOL    HW122838   2.647   0.480   2.293
 7313SOL    HW222839   2.569   0.574   2.185
 7314SOL     OW22840   0.435   4.146   6.306
 7314SOL    HW122841   0.535   4.141   6.311
 7314SOL    HW222842   0.409   4.226   6.252
 7315SOL     OW22843   1.361   4.695   2.446
 7315SOL    HW122844   1.312   4.620   2.491
 7315SOL    HW222845   1.330   4.782   2.483
 7316SOL     OW22846   3.179   2.155   0.989
 7316SOL    HW122847   3.190   2.059   0.964
 7316SOL    HW222848   3.223   2.172   1.077
 7317SOL     OW22849   3.932   1.312   0.958
 7317SOL    HW122850   3.834   1.292   0.966
 7317SOL    HW222851   3.951   1.401   0.999
 7318SOL     OW22852   4.130   6.394   0.858
 7318SOL    HW122853   4.045   6.396   0.910
 7318SOL    HW222854   4.207   6.416   0.918
 7319SOL     OW22855   5.382   4.859   6.822
 7319SOL    HW122856   5.383   4.914   6.739
 7319SOL    HW222857   5.291   4.821   6.836
 7320SOL     OW22858   0.433   2.652   1.492
 7320SOL    HW122859   0.471   2.684   1.579
 7320SOL    HW222860   0.430   2.728   1.426
 7321SOL     OW22861   2.043   0.456   6.517
 7321SOL    HW122862   2.076   0.518   6.588
 7321SOL    HW222863   1.951   0.484   6.489
 7322SOL     OW22864   0.639   2.456   2.995
 7322SOL    HW122865   0.657   2.448   3.093
 7322SOL    HW222866   0.660   2.549   2.964
 7323SOL     OW22867   1.177   2.919   1.382
 7323SOL    HW122868   1.099   2.894   1.324
 7323SOL    HW222869   1.154   3.001   1.434
 7324SOL     OW22870   5.879   4.863   3.028
 7324SOL    HW122871   5.795   4.829   2.986
 7324SOL    HW222872   5.863   4.954   3.066
 7325SOL     OW22873   4.399   1.157   6.076
 7325SOL    HW122874   4.338   1.081   6.052
 7325SOL    HW222875   4.357   1.212   6.147
 7326SOL     OW22876   3.459   0.125   0.559
 7326SOL    HW122877   3.540   0.083   0.599
 7326SOL    HW222878   3.442   0.213   0.603
 7327SOL     OW22879   0.805   3.970   3.526
 7327SOL    HW122880   0.885   3.974   3.466
 7327SOL    HW222881   0.729   3.926   3.477
 7328SOL     OW22882   4.199   5.007   4.717
 7328SOL    HW122883   4.150   4.982   4.633
 7328SOL    HW222884   4.138   5.057   4.778
 7329SOL     OW22885   3.536   3.668   1.552
 7329SOL    HW122886   3.604   3.655   1.479
 7329SOL    HW222887   3.452   3.707   1.512
 7330SOL     OW22888   3.075   2.894   1.819
 7330SOL    HW122889   3.132   2.954   1.876
 7330SOL    HW222890   3.084   2.922   1.723
 7331SOL     OW22891   5.265   1.028   2.871
 7331SOL    HW122892   5.315   1.041   2.956
 7331SOL    HW222893   5.311   1.075   2.797
 7332SOL     OW22894   3.376   5.573   6.016
 7332SOL    HW122895   3.405   5.566   5.921
 7332SOL    HW222896   3.279   5.551   6.023
 7333SOL     OW22897   0.164   1.906   0.882
 7333SOL    HW122898   0.199   1.954   0.962
 7333SOL    HW222899   0.071   1.936   0.863
 7334SOL     OW22900   2.707   0.233   4.365
 7334SOL    HW122901   2.793   0.284   4.360
 7334SOL    HW222902   2.702   0.185   4.453
 7335SOL     OW22903   6.595   3.147   2.305
 7335SOL    HW122904   6.599   3.048   2.290
 7335SOL    HW222905   6.540   3.190   2.233
 7336SOL     OW22906   1.947   6.888   2.084
 7336SOL    HW122907   1.921   6.940   2.165
 7336SOL    HW222908   1.880   6.905   2.011
 7337SOL     OW22909   2.022   1.727   3.329
 7337SOL    HW122910   2.027   1.825   3.312
 7337SOL    HW222911   1.950   1.708   3.396
 7338SOL     OW22912   6.104   2.975   1.678
 7338SOL    HW122913   6.181   2.940   1.624
 7338SOL    HW222914   6.059   3.048   1.627
 7339SOL     OW22915   6.496   5.094   4.337
 7339SOL    HW122916   6.503   5.194   4.338
 7339SOL    HW222917   6.467   5.064   4.246
 7340SOL     OW22918   2.601   6.838   0.872
 7340SOL    HW122919   2.592   6.813   0.776
 7340SOL    HW222920   2.528   6.901   0.897
 7341SOL     OW22921   6.044   4.937   4.305
 7341SOL    HW122922   6.046   4.947   4.205
 7341SOL    HW222923   5.952   4.914   4.335
 7342SOL     OW22924   0.736   5.808   0.681
 7342SOL    HW122925   0.664   5.763   0.734
 7342SOL    HW222926   0.781   5.877   0.738
 7343SOL     OW22927   5.377   3.598   2.543
 7343SOL    HW122928   5.440   3.572   2.470
 7343SOL    HW222929   5.356   3.695   2.535
 7344SOL     OW22930   1.915   0.689   0.454
 7344SOL    HW122931   1.849   0.651   0.389
 7344SOL    HW222932   1.873   0.697   0.544
 7345SOL     OW22933   3.992   5.730   0.072
 7345SOL    HW122934   3.983   5.738   6.995
 7345SOL    HW222935   4.017   5.818   0.111
 7346SOL     OW22936   3.994   4.729   1.842
 7346SOL    HW122937   4.069   4.683   1.795
 7346SOL    HW222938   4.023   4.755   1.934
 7347SOL     OW22939   6.226   1.673   3.515
 7347SOL    HW122940   6.168   1.646   3.591
 7347SOL    HW222941   6.281   1.752   3.542
 7348SOL     OW22942   1.187   1.775   3.544
 7348SOL    HW122943   1.271   1.810   3.586
 7348SOL    HW222944   1.188   1.795   3.446
 7349SOL     OW22945   3.237   1.347   0.484
 7349SOL    HW122946   3.178   1.266   0.483
 7349SOL    HW222947   3.287   1.353   0.397
 7350SOL     OW22948   2.325   1.479   2.759
 7350SOL    HW122949   2.260   1.528   2.817
 7350SOL    HW222950   2.390   1.429   2.817
 7351SOL     OW22951   3.919   4.488   6.544
 7351SOL    HW122952   3.932   4.389   6.535
 7351SOL    HW222953   3.822   4.511   6.535
 7352SOL     OW22954   6.907   1.053   2.402
 7352SOL    HW122955   6.999   1.056   2.362
 7352SOL    HW222956   6.900   1.122   2.474
 7353SOL     OW22957   5.207   2.194   5.135
 7353SOL    HW122958   5.296   2.213   5.177
 7353SOL    HW222959   5.202   2.097   5.112
 7354SOL     OW22960   5.501   4.358   5.854
 7354SOL    HW122961   5.478   4.341   5.759
 7354SOL    HW222962   5.594   4.395   5.860
 7355SOL     OW22963   2.026   5.262   1.911
 7355SOL    HW122964   2.052   5.168   1.932
 7355SOL    HW222965   2.109   5.318   1.899
 7356SOL     OW22966   6.153   1.590   5.518
 7356SOL    HW122967   6.164   1.683   5.552
 7356SOL    HW222968   6.100   1.591   5.434
 7357SOL     OW22969   6.998   1.950   6.827
 7357SOL    HW122970   6.904   1.916   6.827
 7357SOL    HW222971   6.999   2.045   6.858
 7358SOL     OW22972   3.070   1.209   4.224
 7358SOL    HW122973   3.004   1.135   4.239
 7358SOL    HW222974   3.087   1.219   4.126
 7359SOL     OW22975   4.077   3.226   3.697
 7359SOL    HW122976   4.133   3.145   3.714
 7359SOL    HW222977   4.000   3.202   3.637
 7360SOL     OW22978   0.315   3.173   5.477
 7360SOL    HW122979   0.397   3.174   5.419
 7360SOL    HW222980   0.252   3.243   5.445
 7361SOL     OW22981   5.320   6.243   2.605
 7361SOL    HW122982   5.280   6.154   2.628
 7361SOL    HW222983   5.263   6.289   2.536
 7362SOL     OW22984   1.754   5.666   6.012
 7362SOL    HW122985   1.703   5.693   5.931
 7362SOL    HW222986   1.697   5.679   6.093
 7363SOL     OW22987   4.830   3.233   6.154
 7363SOL    HW122988   4.791   3.323   6.174
 7363SOL    HW222989   4.928   3.243   6.136
 7364SOL     OW22990   4.380   6.750   1.851
 7364SOL    HW122991   4.390   6.848   1.832
 7364SOL    HW222992   4.445   6.722   1.921
 7365SOL     OW22993   3.474   0.560   2.380
 7365SOL    HW122994   3.431   0.602   2.300
 7365SOL    HW222995   3.449   0.611   2.462
 7366SOL     OW22996   1.094   5.479   7.008
 7366SOL    HW122997   1.180   5.441   6.972
 7366SOL    HW222998   1.021   5.461   6.942
 7367SOL     OW22999   4.648   3.731   0.576
 7367SOL    HW123000   4.595   3.684   0.645
 7367SOL    HW223001   4.732   3.766   0.616
 7368SOL     OW23002   3.442   4.223   4.535
 7368SOL    HW123003   3.426   4.295   4.467
 7368SOL    HW223004   3.540   4.201   4.536
 7369SOL     OW23005   4.046   3.376   0.290
 7369SOL    HW123006   4.019   3.376   0.194
 7369SOL    HW223007   4.139   3.413   0.299
 7370SOL     OW23008   2.592   6.458   1.130
 7370SOL    HW123009   2.590   6.401   1.212
 7370SOL    HW223010   2.668   6.522   1.136
 7371SOL     OW23011   2.156   5.039   4.892
 7371SOL    HW123012   2.194   4.981   4.964
 7371SOL    HW223013   2.171   4.996   4.803
 7372SOL     OW23014   3.586   0.114   5.656
 7372SOL    HW123015   3.629   0.141   5.742
 7372SOL    HW223016   3.654   0.114   5.583
 7373SOL     OW23017   3.685   0.929   1.599
 7373SOL    HW123018   3.676   0.997   1.526
 7373SOL    HW223019   3.778   0.933   1.636
 7374SOL     OW23020   1.497   2.835   6.037
 7374SOL    HW123021   1.506   2.743   6.077
 7374SOL    HW223022   1.539   2.901   6.099
 7375SOL     OW23023   1.365   0.490   3.826
 7375SOL    HW123024   1.368   0.589   3.839
 7375SOL    HW223025   1.439   0.462   3.766
 7376SOL     OW23026   2.231   3.532   5.851
 7376SOL    HW123027   2.145   3.528   5.802
 7376SOL    HW223028   2.215   3.558   5.946
 7377SOL     OW23029   4.073   4.426   1.070
 7377SOL    HW123030   3.993   4.483   1.086
 7377SOL    HW223031   4.052   4.358   1.000
 7378SOL     OW23032   6.515   1.011   5.309
 7378SOL    HW123033   6.445   0.940   5.303
 7378SOL    HW223034   6.566   1.001   5.394
 7379SOL     OW23035   2.964   1.154   1.718
 7379SOL    HW123036   2.995   1.131   1.811
 7379SOL    HW223037   2.902   1.082   1.685
 7380SOL     OW23038   0.059   3.943   6.314
 7380SOL    HW123039   0.125   3.868   6.311
 7380SOL    HW223040   6.995   3.909   6.351
 7381SOL     OW23041   5.504   1.811   1.421
 7381SOL    HW123042   5.587   1.782   1.470
 7381SOL    HW223043   5.505   1.910   1.410
 7382SOL     OW23044   0.259   5.883   4.137
 7382SOL    HW123045   0.215   5.805   4.181
 7382SOL    HW223046   0.190   5.940   4.092
 7383SOL     OW23047   0.018   6.025   3.173
 7383SOL    HW123048   0.014   6.117   3.135
 7383SOL    HW223049   0.107   6.010   3.216
 7384SOL     OW23050   5.283   0.261   2.312
 7384SOL    HW123051   5.315   0.207   2.390
 7384SOL    HW223052   5.185   0.278   2.320
 7385SOL     OW23053   5.183   6.139   1.565
 7385SOL    HW123054   5.253   6.099   1.625
 7385SOL    HW223055   5.109   6.176   1.621
 7386SOL     OW23056   0.686   2.345   5.310
 7386SOL    HW123057   0.755   2.276   5.328
 7386SOL    HW223058   0.707   2.429   5.361
 7387SOL     OW23059   3.526   6.199   3.468
 7387SOL    HW123060   3.540   6.152   3.381
 7387SOL    HW223061   3.555   6.294   3.460
 7388SOL     OW23062   6.463   5.393   3.419
 7388SOL    HW123063   6.368   5.425   3.422
 7388SOL    HW223064   6.521   5.459   3.466
 7389SOL     OW23065   1.263   4.141   6.278
 7389SOL    HW123066   1.295   4.151   6.184
 7389SOL    HW223067   1.196   4.067   6.284
 7390SOL     OW23068   1.695   6.652   5.003
 7390SOL    HW123069   1.676   6.711   5.081
 7390SOL    HW223070   1.609   6.631   4.955
 7391SOL     OW23071   5.583   3.618   6.731
 7391SOL    HW123072   5.496   3.583   6.767
 7391SOL    HW223073   5.651   3.619   6.804
 7392SOL     OW23074   1.455   4.406   4.113
 7392SOL    HW123075   1.394   4.462   4.170
 7392SOL    HW223076   1.549   4.420   4.142
 7393SOL     OW23077   0.428   4.022   2.553
 7393SOL    HW123078   0.525   4.008   2.532
 7393SOL    HW223079   0.372   3.986   2.479
 7394SOL     OW23080   3.366   4.072   6.763
 7394SOL    HW123081   3.450   4.081   6.817
 7394SOL    HW223082   3.289   4.109   6.815
 7395SOL     OW23083   0.911   0.034   0.773
 7395SOL    HW123084   0.853   0.032   0.855
 7395SOL    HW223085   0.982   6.987   0.781
 7396SOL     OW23086   0.623   6.689   6.775
 7396SOL    HW123087   0.710   6.682   6.726
 7396SOL    HW223088   0.568   6.763   6.737
 7397SOL     OW23089   5.688   5.196   4.863
 7397SOL    HW123090   5.621   5.123   4.882
 7397SOL    HW223091   5.742   5.214   4.945
 7398SOL     OW23092   4.291   4.782   3.584
 7398SOL    HW123093   4.326   4.752   3.673
 7398SOL    HW223094   4.245   4.870   3.594
 7399SOL     OW23095   5.030   3.919   5.790
 7399SOL    HW123096   4.940   3.961   5.799
 7399SOL    HW223097   5.023   3.835   5.736
 7400SOL     OW23098   2.228   5.230   6.735
 7400SOL    HW123099   2.221   5.296   6.810
 7400SOL    HW223100   2.224   5.279   6.647
 7401SOL     OW23101   6.804   1.606   3.729
 7401SOL    HW123102   6.851   1.693   3.713
 7401SOL    HW223103   6.827   1.542   3.655
 7402SOL     OW23104   2.980   0.653   3.555
 7402SOL    HW123105   2.902   0.707   3.588
 7402SOL    HW223106   3.060   0.713   3.547
 7403SOL     OW23107   1.547   3.638   2.790
 7403SOL    HW123108   1.584   3.712   2.846
 7403SOL    HW223109   1.602   3.556   2.802
 7404SOL     OW23110   1.573   0.110   1.791
 7404SOL    HW123111   1.585   0.138   1.696
 7404SOL    HW223112   1.502   0.041   1.797
 7405SOL     OW23113   2.699   4.798   6.022
 7405SOL    HW123114   2.641   4.850   6.084
 7405SOL    HW223115   2.777   4.761   6.073
 7406SOL     OW23116   0.714   4.980   1.477
 7406SOL    HW123117   0.637   4.941   1.426
 7406SOL    HW223118   0.782   5.015   1.413
 7407SOL     OW23119   1.585   6.417   6.527
 7407SOL    HW123120   1.627   6.360   6.598
 7407SOL    HW223121   1.489   6.432   6.549
 7408SOL     OW23122   1.833   4.342   5.714
 7408SOL    HW123123   1.808   4.258   5.666
 7408SOL    HW223124   1.828   4.326   5.813
 7409SOL     OW23125   2.424   5.384   4.966
 7409SOL    HW123126   2.490   5.342   4.904
 7409SOL    HW223127   2.401   5.475   4.933
 7410SOL     OW23128   6.878   4.807   0.544
 7410SOL    HW123129   6.793   4.858   0.529
 7410SOL    HW223130   6.905   4.815   0.640
 7411SOL     OW23131   3.898   5.985   5.102
 7411SOL    HW123132   3.815   6.011   5.152
 7411SOL    HW223133   3.905   6.041   5.019
 7412SOL     OW23134   1.125   1.673   0.354
 7412SOL    HW123135   1.065   1.618   0.412
 7412SOL    HW223136   1.070   1.740   0.303
 7413SOL     OW23137   6.401   3.742   4.540
 7413SOL    HW123138   6.318   3.691   4.518
 7413SOL    HW223139   6.433   3.790   4.459
 7414SOL     OW23140   6.715   6.724   2.596
 7414SOL    HW123141   6.676   6.775   2.673
 7414SOL    HW223142   6.782   6.780   2.549
 7415SOL     OW23143   1.981   2.527   3.384
 7415SOL    HW123144   2.075   2.548   3.358
 7415SOL    HW223145   1.927   2.611   3.386
 7416SOL     OW23146   3.960   0.646   4.112
 7416SOL    HW123147   3.949   0.550   4.135
 7416SOL    HW223148   3.871   0.692   4.119
 7417SOL     OW23149   1.164   6.315   0.159
 7417SOL    HW123150   1.249   6.263   0.146
 7417SOL    HW223151   1.186   6.409   0.183
 7418SOL     OW23152   1.843   3.476   0.795
 7418SOL    HW123153   1.912   3.509   0.730
 7418SOL    HW223154   1.757   3.524   0.779
 7419SOL     OW23155   6.405   0.900   4.773
 7419SOL    HW123156   6.463   0.894   4.692
 7419SOL    HW223157   6.311   0.922   4.745
 7420SOL     OW23158   6.879   6.212   1.924
 7420SOL    HW123159   6.862   6.309   1.939
 7420SOL    HW223160   6.910   6.197   1.830
 7421SOL     OW23161   3.913   3.907   0.993
 7421SOL    HW123162   3.865   3.894   0.907
 7421SOL    HW223163   3.914   3.822   1.045
 7422SOL     OW23164   0.211   3.600   0.467
 7422SOL    HW123165   0.256   3.526   0.418
 7422SOL    HW223166   0.242   3.688   0.430
 7423SOL     OW23167   1.857   5.490   6.684
 7423SOL    HW123168   1.778   5.442   6.722
 7423SOL    HW223169   1.830   5.541   6.603
 7424SOL     OW23170   5.722   1.200   4.693
 7424SOL    HW123171   5.688   1.240   4.778
 7424SOL    HW223172   5.710   1.101   4.696
 7425SOL     OW23173   3.268   6.032   6.041
 7425SOL    HW123174   3.351   5.995   5.999
 7425SOL    HW223175   3.190   5.973   6.017
 7426SOL     OW23176   1.116   1.496   6.423
 7426SOL    HW123177   1.021   1.466   6.436
 7426SOL    HW223178   1.176   1.416   6.417
 7427SOL     OW23179   4.082   5.440   4.579
 7427SOL    HW123180   4.141   5.430   4.499
 7427SOL    HW223181   3.988   5.419   4.553
 7428SOL     OW23182   3.804   1.814   5.805
 7428SOL    HW123183   3.811   1.882   5.878
 7428SOL    HW223184   3.739   1.743   5.832
 7429SOL     OW23185   0.135   0.082   3.071
 7429SOL    HW123186   0.130   0.120   3.163
 7429SOL    HW223187   0.141   7.005   3.076
 7430SOL     OW23188   6.346   4.212   4.757
 7430SOL    HW123189   6.353   4.115   4.736
 7430SOL    HW223190   6.308   4.260   4.678
 7431SOL     OW23191   0.965   4.540   2.166
 7431SOL    HW123192   1.059   4.519   2.139
 7431SOL    HW223193   0.946   4.498   2.255
 7432SOL     OW23194   0.611   6.676   5.055
 7432SOL    HW123195   0.708   6.683   5.079
 7432SOL    HW223196   0.587   6.749   4.990
 7433SOL     OW23197   6.280   5.528   0.896
 7433SOL    HW123198   6.202   5.465   0.895
 7433SOL    HW223199   6.348   5.497   0.962
 7434SOL     OW23200   4.483   1.078   6.361
 7434SOL    HW123201   4.418   1.152   6.345
 7434SOL    HW223202   4.576   1.113   6.351
 7435SOL     OW23203   2.376   6.358   0.010
 7435SOL    HW123204   2.383   6.374   0.108
 7435SOL    HW223205   2.339   6.267   7.015
 7436SOL     OW23206   5.076   2.689   0.352
 7436SOL    HW123207   5.070   2.736   0.440
 7436SOL    HW223208   5.170   2.658   0.337
 7437SOL     OW23209   0.831   6.022   5.850
 7437SOL    HW123210   0.766   6.088   5.888
 7437SOL    HW223211   0.821   5.935   5.898
 7438SOL     OW23212   6.833   4.948   1.650
 7438SOL    HW123213   6.868   4.980   1.738
 7438SOL    HW223214   6.805   4.852   1.658
 7439SOL     OW23215   1.887   6.761   3.917
 7439SOL    HW123216   1.796   6.723   3.900
 7439SOL    HW223217   1.921   6.805   3.834
 7440SOL     OW23218   1.785   2.478   3.766
 7440SOL    HW123219   1.838   2.461   3.849
 7440SOL    HW223220   1.713   2.544   3.785
 7441SOL     OW23221   5.820   0.810   3.657
 7441SOL    HW123222   5.856   0.878   3.592
 7441SOL    HW223223   5.881   0.802   3.735
 7442SOL     OW23224   1.249   1.100   6.676
 7442SOL    HW123225   1.220   1.078   6.769
 7442SOL    HW223226   1.289   1.019   6.634
 7443SOL     OW23227   0.405   1.357   0.182
 7443SOL    HW123228   0.397   1.266   0.222
 7443SOL    HW223229   0.495   1.368   0.140
 7444SOL     OW23230   0.498   3.113   6.406
 7444SOL    HW123231   0.564   3.042   6.381
 7444SOL    HW223232   0.527   3.200   6.367
 7445SOL     OW23233   5.348   1.976   2.277
 7445SOL    HW123234   5.350   2.020   2.187
 7445SOL    HW223235   5.309   1.884   2.267
 7446SOL     OW23236   6.707   3.588   1.162
 7446SOL    HW123237   6.688   3.519   1.232
 7446SOL    HW223238   6.726   3.675   1.206
 7447SOL     OW23239   1.229   3.841   5.986
 7447SOL    HW123240   1.313   3.895   5.995
 7447SOL    HW223241   1.194   3.848   5.893
 7448SOL     OW23242   6.599   6.854   6.013
 7448SOL    HW123243   6.547   6.887   5.934
 7448SOL    HW223244   6.637   6.932   6.063
 7449SOL     OW23245   5.654   1.763   2.249
 7449SOL    HW123246   5.604   1.779   2.334
 7449SOL    HW223247   5.591   1.767   2.172
 7450SOL     OW23248   4.712   1.498   3.035
 7450SOL    HW123249   4.784   1.486   3.104
 7450SOL    HW223250   4.631   1.535   3.080
 7451SOL     OW23251   2.257   0.767   4.130
 7451SOL    HW123252   2.355   0.763   4.111
 7451SOL    HW223253   2.210   0.807   4.052
 7452SOL     OW23254   1.981   6.250   5.080
 7452SOL    HW123255   1.975   6.153   5.054
 7452SOL    HW223256   1.949   6.262   5.174
 7453SOL     OW23257   5.539   6.240   4.740
 7453SOL    HW123258   5.607   6.286   4.798
 7453SOL    HW223259   5.572   6.148   4.718
 7454SOL     OW23260   0.686   3.520   1.150
 7454SOL    HW123261   0.657   3.424   1.149
 7454SOL    HW223262   0.749   3.535   1.227
 7455SOL     OW23263   4.769   2.438   0.402
 7455SOL    HW123264   4.856   2.395   0.427
 7455SOL    HW223265   4.771   2.534   0.428
 7456SOL     OW23266   1.851   3.466   4.916
 7456SOL    HW123267   1.941   3.472   4.872
 7456SOL    HW223268   1.862   3.472   5.015
 7457SOL     OW23269   6.154   0.603   5.511
 7457SOL    HW123270   6.181   0.584   5.416
 7457SOL    HW223271   6.234   0.594   5.570
 7458SOL     OW23272   2.536   0.956   0.636
 7458SOL    HW123273   2.594   0.902   0.697
 7458SOL    HW223274   2.476   1.015   0.691
 7459SOL     OW23275   4.889   0.744   4.964
 7459SOL    HW123276   4.922   0.649   4.958
 7459SOL    HW223277   4.859   0.763   5.057
 7460SOL     OW23278   0.559   4.425   0.285
 7460SOL    HW123279   0.646   4.411   0.237
 7460SOL    HW223280   0.547   4.354   0.354
 7461SOL     OW23281   5.324   0.934   4.748
 7461SOL    HW123282   5.315   0.983   4.661
 7461SOL    HW223283   5.420   0.922   4.771
 7462SOL     OW23284   1.993   1.702   2.202
 7462SOL    HW123285   1.949   1.784   2.165
 7462SOL    HW223286   2.091   1.719   2.212
 7463SOL     OW23287   3.883   3.771   2.140
 7463SOL    HW123288   3.958   3.780   2.075
 7463SOL    HW223289   3.814   3.709   2.102
 7464SOL     OW23290   5.237   6.295   0.511
 7464SOL    HW123291   5.142   6.322   0.496
 7464SOL    HW223292   5.291   6.375   0.539
 7465SOL     OW23293   2.983   0.214   1.511
 7465SOL    HW123294   2.891   0.230   1.547
 7465SOL    HW223295   2.990   0.120   1.479
 7466SOL     OW23296   0.967   0.477   0.216
 7466SOL    HW123297   0.923   0.549   0.163
 7466SOL    HW223298   1.012   0.413   0.154
 7467SOL     OW23299   0.208   1.710   0.719
 7467SOL    HW123300   0.219   1.793   0.773
 7467SOL    HW223301   0.115   1.674   0.733
 7468SOL     OW23302   6.085   1.473   3.047
 7468SOL    HW123303   6.012   1.505   2.986
 7468SOL    HW223304   6.140   1.405   3.000
 7469SOL     OW23305   1.028   1.168   0.914
 7469SOL    HW123306   1.052   1.209   1.002
 7469SOL    HW223307   0.954   1.102   0.927
 7470SOL     OW23308   6.916   2.171   2.170
 7470SOL    HW123309   6.823   2.204   2.188
 7470SOL    HW223310   6.943   2.105   2.240
 7471SOL     OW23311   6.073   6.456   5.658
 7471SOL    HW123312   6.110   6.435   5.748
 7471SOL    HW223313   6.000   6.391   5.636
 7472SOL     OW23314   3.602   0.423   3.803
 7472SOL    HW123315   3.580   0.332   3.839
 7472SOL    HW223316   3.601   0.489   3.878
 7473SOL     OW23317   6.933   3.686   4.066
 7473SOL    HW123318   6.874   3.749   4.116
 7473SOL    HW223319   6.923   3.702   3.968
 7474SOL     OW23320   3.934   1.082   3.106
 7474SOL    HW123321   3.875   1.160   3.087
 7474SOL    HW223322   3.931   1.061   3.204
 7475SOL     OW23323   3.415   1.014   1.040
 7475SOL    HW123324   3.392   0.991   1.134
 7475SOL    HW223325   3.368   1.098   1.013
 7476SOL     OW23326   3.597   6.634   4.328
 7476SOL    HW123327   3.538   6.562   4.366
 7476SOL    HW223328   3.619   6.612   4.233
 7477SOL     OW23329   4.069   1.721   4.147
 7477SOL    HW123330   4.123   1.638   4.159
 7477SOL    HW223331   3.981   1.711   4.192
 7478SOL     OW23332   1.529   4.463   0.341
 7478SOL    HW123333   1.561   4.554   0.369
 7478SOL    HW223334   1.466   4.472   0.264
 7479SOL     OW23335   4.552   0.726   6.801
 7479SOL    HW123336   4.598   0.648   6.759
 7479SOL    HW223337   4.618   0.801   6.814
 7480SOL     OW23338   6.555   5.168   1.231
 7480SOL    HW123339   6.613   5.151   1.310
 7480SOL    HW223340   6.557   5.089   1.169
 7481SOL     OW23341   5.494   5.300   0.585
 7481SOL    HW123342   5.418   5.294   0.519
 7481SOL    HW223343   5.558   5.371   0.555
 7482SOL     OW23344   5.078   0.715   3.033
 7482SOL    HW123345   5.084   0.813   3.054
 7482SOL    HW223346   5.068   0.703   2.934
 7483SOL     OW23347   3.293   1.080   5.153
 7483SOL    HW123348   3.336   1.078   5.063
 7483SOL    HW223349   3.354   1.128   5.217
 7484SOL     OW23350   2.067   6.681   1.919
 7484SOL    HW123351   2.030   6.741   1.848
 7484SOL    HW223352   2.078   6.732   2.004
 7485SOL     OW23353   2.780   5.589   6.452
 7485SOL    HW123354   2.848   5.526   6.489
 7485SOL    HW223355   2.699   5.538   6.423
 7486SOL     OW23356   2.705   6.499   5.686
 7486SOL    HW123357   2.712   6.599   5.676
 7486SOL    HW223358   2.615   6.469   5.655
 7487SOL     OW23359   3.213   6.128   4.413
 7487SOL    HW123360   3.178   6.220   4.429
 7487SOL    HW223361   3.193   6.101   4.319
 7488SOL     OW23362   3.776   0.330   6.292
 7488SOL    HW123363   3.872   0.304   6.279
 7488SOL    HW223364   3.718   0.251   6.274
 7489SOL     OW23365   5.198   3.507   3.961
 7489SOL    HW123366   5.267   3.534   3.893
 7489SOL    HW223367   5.221   3.418   3.999
 7490SOL     OW23368   5.086   1.020   1.231
 7490SOL    HW123369   5.104   1.051   1.138
 7490SOL    HW223370   5.065   1.099   1.289
 7491SOL     OW23371   6.436   5.964   6.513
 7491SOL    HW123372   6.505   5.933   6.447
 7491SOL    HW223373   6.456   5.926   6.603
 7492SOL     OW23374   1.679   2.615   4.999
 7492SOL    HW123375   1.761   2.664   5.029
 7492SOL    HW223376   1.683   2.602   4.899
 7493SOL     OW23377   5.209   3.759   6.436
 7493SOL    HW123378   5.195   3.818   6.515
 7493SOL    HW223379   5.137   3.689   6.434
 7494SOL     OW23380   5.103   6.985   1.957
 7494SOL    HW123381   5.072   7.012   1.866
 7494SOL    HW223382   5.027   6.989   2.021
 7495SOL     OW23383   1.637   2.356   1.019
 7495SOL    HW123384   1.539   2.376   1.027
 7495SOL    HW223385   1.649   2.262   0.988
 7496SOL     OW23386   1.160   4.594   6.145
 7496SOL    HW123387   1.223   4.516   6.141
 7496SOL    HW223388   1.108   4.599   6.060
 7497SOL     OW23389   1.579   4.227   2.341
 7497SOL    HW123390   1.490   4.260   2.372
 7497SOL    HW223391   1.651   4.287   2.376
 7498SOL     OW23392   3.598   1.558   4.744
 7498SOL    HW123393   3.694   1.586   4.736
 7498SOL    HW223394   3.576   1.540   4.839
 7499SOL     OW23395   5.458   6.759   4.200
 7499SOL    HW123396   5.551   6.740   4.229
 7499SOL    HW223397   5.407   6.674   4.193
 7500SOL     OW23398   5.055   5.857   1.518
 7500SOL    HW123399   5.119   5.921   1.476
 7500SOL    HW223400   5.036   5.887   1.612
 7501SOL     OW23401   0.134   3.879   3.756
 7501SOL    HW123402   0.229   3.867   3.786
 7501SOL    HW223403   0.132   3.930   3.670
 7502SOL     OW23404   2.600   1.239   5.086
 7502SOL    HW123405   2.583   1.178   5.164
 7502SOL    HW223406   2.638   1.325   5.119
 7503SOL     OW23407   3.129   1.484   0.225
 7503SOL    HW123408   3.203   1.501   0.160
 7503SOL    HW223409   3.125   1.559   0.291
 7504SOL     OW23410   3.767   6.572   3.147
 7504SOL    HW123411   3.671   6.550   3.130
 7504SOL    HW223412   3.777   6.614   3.237
 7505SOL     OW23413   1.619   1.526   4.915
 7505SOL    HW123414   1.569   1.575   4.843
 7505SOL    HW223415   1.672   1.451   4.873
 7506SOL     OW23416   3.622   1.181   2.222
 7506SOL    HW123417   3.580   1.247   2.285
 7506SOL    HW223418   3.711   1.153   2.257
 7507SOL     OW23419   0.881   6.260   6.131
 7507SOL    HW123420   0.912   6.274   6.226
 7507SOL    HW223421   0.935   6.188   6.089
 7508SOL     OW23422   5.782   0.213   2.604
 7508SOL    HW123423   5.801   0.115   2.595
 7508SOL    HW223424   5.710   0.238   2.538
 7509SOL     OW23425   4.656   3.764   6.078
 7509SOL    HW123426   4.727   3.775   6.148
 7509SOL    HW223427   4.572   3.730   6.121
 7510SOL     OW23428   3.857   3.879   4.892
 7510SOL    HW123429   3.848   3.978   4.891
 7510SOL    HW223430   3.773   3.838   4.857
 7511SOL     OW23431   1.705   0.456   1.739
 7511SOL    HW123432   1.765   0.515   1.685
 7511SOL    HW223433   1.687   0.372   1.689
 7512SOL     OW23434   2.379   2.850   1.778
 7512SOL    HW123435   2.348   2.782   1.712
 7512SOL    HW223436   2.406   2.933   1.730
 7513SOL     OW23437   1.064   2.241   0.048
 7513SOL    HW123438   1.141   2.203   0.100
 7513SOL    HW223439   1.099   2.282   6.986
 7514SOL     OW23440   2.897   5.428   2.407
 7514SOL    HW123441   2.834   5.419   2.330
 7514SOL    HW223442   2.890   5.347   2.465
 7515SOL     OW23443   0.095   6.408   2.470
 7515SOL    HW123444   0.130   6.481   2.530
 7515SOL    HW223445   0.051   6.449   2.390
 7516SOL     OW23446   0.704   0.915   3.321
 7516SOL    HW123447   0.783   0.855   3.336
 7516SOL    HW223448   0.643   0.910   3.400
 7517SOL     OW23449   0.066   3.473   1.022
 7517SOL    HW123450   7.005   3.421   1.002
 7517SOL    HW223451   0.104   3.510   0.937
 7518SOL     OW23452   4.642   5.603   4.017
 7518SOL    HW123453   4.723   5.558   4.052
 7518SOL    HW223454   4.573   5.610   4.090
 7519SOL     OW23455   2.133   5.990   3.918
 7519SOL    HW123456   2.048   6.001   3.968
 7519SOL    HW223457   2.114   5.958   3.825
 7520SOL     OW23458   1.622   6.266   3.741
 7520SOL    HW123459   1.633   6.366   3.742
 7520SOL    HW223460   1.696   6.224   3.794
 7521SOL     OW23461   4.634   4.386   5.456
 7521SOL    HW123462   4.710   4.344   5.406
 7521SOL    HW223463   4.660   4.399   5.552
 7522SOL     OW23464   2.278   1.065   1.292
 7522SOL    HW123465   2.247   1.136   1.229
 7522SOL    HW223466   2.353   1.101   1.348
 7523SOL     OW23467   5.966   0.222   6.301
 7523SOL    HW123468   5.985   0.145   6.241
 7523SOL    HW223469   5.868   0.241   6.301
 7524SOL     OW23470   0.610   1.810   5.393
 7524SOL    HW123471   0.559   1.775   5.471
 7524SOL    HW223472   0.704   1.831   5.421
 7525SOL     OW23473   1.217   0.994   0.836
 7525SOL    HW123474   1.174   0.907   0.812
 7525SOL    HW223475   1.147   1.059   0.864
 7526SOL     OW23476   3.779   3.186   4.947
 7526SOL    HW123477   3.847   3.253   4.978
 7526SOL    HW223478   3.824   3.116   4.892
 7527SOL     OW23479   5.474   4.735   3.336
 7527SOL    HW123480   5.454   4.819   3.286
 7527SOL    HW223481   5.455   4.748   3.433
 7528SOL     OW23482   5.311   2.548   0.283
 7528SOL    HW123483   5.382   2.548   0.354
 7528SOL    HW223484   5.340   2.606   0.207
 7529SOL     OW23485   3.691   1.121   5.483
 7529SOL    HW123486   3.755   1.066   5.537
 7529SOL    HW223487   3.651   1.191   5.540
 7530SOL     OW23488   0.576   4.203   2.042
 7530SOL    HW123489   0.658   4.178   1.991
 7530SOL    HW223490   0.504   4.229   1.979
 7531SOL     OW23491   4.293   1.820   3.555
 7531SOL    HW123492   4.337   1.887   3.497
 7531SOL    HW223493   4.227   1.767   3.501
 7532SOL     OW23494   5.212   5.719   2.351
 7532SOL    HW123495   5.188   5.817   2.355
 7532SOL    HW223496   5.309   5.710   2.329
 7533SOL     OW23497   3.282   1.165   4.525
 7533SOL    HW123498   3.235   1.245   4.487
 7533SOL    HW223499   3.223   1.121   4.592
 7534SOL     OW23500   4.340   6.645   4.878
 7534SOL    HW123501   4.328   6.548   4.898
 7534SOL    HW223502   4.254   6.694   4.893
 7535SOL     OW23503   3.015   2.582   6.194
 7535SOL    HW123504   3.057   2.671   6.212
 7535SOL    HW223505   3.082   2.510   6.214
 7536SOL     OW23506   4.408   5.693   4.629
 7536SOL    HW123507   4.384   5.731   4.719
 7536SOL    HW223508   4.418   5.593   4.637
 7537SOL     OW23509   2.087   4.544   5.772
 7537SOL    HW123510   2.035   4.494   5.703
 7537SOL    HW223511   2.173   4.496   5.790
 7538SOL     OW23512   2.950   3.510   2.983
 7538SOL    HW123513   2.883   3.473   2.919
 7538SOL    HW223514   3.019   3.562   2.933
 7539SOL     OW23515   2.121   2.843   5.074
 7539SOL    HW123516   2.154   2.842   5.169
 7539SOL    HW223517   2.200   2.846   5.013
 7540SOL     OW23518   2.823   1.086   0.130
 7540SOL    HW123519   2.855   1.146   0.203
 7540SOL    HW223520   2.880   1.004   0.127
 7541SOL     OW23521   6.453   2.127   5.671
 7541SOL    HW123522   6.410   2.183   5.600
 7541SOL    HW223523   6.383   2.093   5.734
 7542SOL     OW23524   1.090   6.780   5.894
 7542SOL    HW123525   1.136   6.696   5.923
 7542SOL    HW223526   1.122   6.805   5.802
 7543SOL     OW23527   4.097   3.184   0.468
 7543SOL    HW123528   4.079   3.249   0.394
 7543SOL    HW223529   4.051   3.097   0.449
 7544SOL     OW23530   2.210   2.267   3.130
 7544SOL    HW123531   2.193   2.223   3.042
 7544SOL    HW223532   2.124   2.279   3.178
 7545SOL     OW23533   5.437   0.209   3.444
 7545SOL    HW123534   5.362   0.144   3.432
 7545SOL    HW223535   5.399   0.301   3.455
 7546SOL     OW23536   4.797   0.908   6.819
 7546SOL    HW123537   4.833   0.822   6.855
 7546SOL    HW223538   4.820   0.983   6.881
 7547SOL     OW23539   3.551   0.488   0.447
 7547SOL    HW123540   3.557   0.406   0.390
 7547SOL    HW223541   3.640   0.532   0.452
 7548SOL     OW23542   2.320   2.641   1.585
 7548SOL    HW123543   2.230   2.627   1.627
 7548SOL    HW223544   2.363   2.552   1.568
 7549SOL     OW23545   5.644   2.230   3.215
 7549SOL    HW123546   5.573   2.164   3.192
 7549SOL    HW223547   5.639   2.308   3.152
 7550SOL     OW23548   2.514   5.823   2.981
 7550SOL    HW123549   2.604   5.832   2.937
 7550SOL    HW223550   2.497   5.727   3.001
 7551SOL     OW23551   5.065   3.125   6.403
 7551SOL    HW123552   5.049   3.062   6.326
 7551SOL    HW223553   5.155   3.167   6.394
 7552SOL     OW23554   2.733   4.990   4.288
 7552SOL    HW123555   2.787   5.045   4.351
 7552SOL    HW223556   2.714   4.901   4.330
 7553SOL     OW23557   3.783   5.761   5.982
 7553SOL    HW123558   3.832   5.687   6.028
 7553SOL    HW223559   3.713   5.798   6.043
 7554SOL     OW23560   6.072   1.061   0.063
 7554SOL    HW123561   6.150   1.105   0.107
 7554SOL    HW223562   6.000   1.129   0.047
 7555SOL     OW23563   0.487   6.516   5.518
 7555SOL    HW123564   0.536   6.475   5.441
 7555SOL    HW223565   0.465   6.445   5.586
 7556SOL     OW23566   0.149   2.687   4.440
 7556SOL    HW123567   0.142   2.778   4.399
 7556SOL    HW223568   0.225   2.687   4.506
 7557SOL     OW23569   4.865   4.176   6.305
 7557SOL    HW123570   4.965   4.188   6.309
 7557SOL    HW223571   4.831   4.147   6.394
 7558SOL     OW23572   1.854   3.376   3.261
 7558SOL    HW123573   1.771   3.395   3.211
 7558SOL    HW223574   1.841   3.398   3.358
 7559SOL     OW23575   0.277   4.614   0.922
 7559SOL    HW123576   0.306   4.647   1.012
 7559SOL    HW223577   0.299   4.683   0.853
 7560SOL     OW23578   5.277   7.002   0.803
 7560SOL    HW123579   5.264   6.928   0.869
 7560SOL    HW223580   5.282   6.964   0.711
 7561SOL     OW23581   6.129   3.179   0.753
 7561SOL    HW123582   6.221   3.180   0.792
 7561SOL    HW223583   6.116   3.095   0.700
 7562SOL     OW23584   5.129   6.750   5.296
 7562SOL    HW123585   5.228   6.736   5.291
 7562SOL    HW223586   5.103   6.772   5.390
 7563SOL     OW23587   2.325   0.834   2.299
 7563SOL    HW123588   2.288   0.848   2.391
 7563SOL    HW223589   2.350   0.922   2.259
 7564SOL     OW23590   5.147   0.144   3.263
 7564SOL    HW123591   5.099   0.193   3.336
 7564SOL    HW223592   5.103   0.165   3.176
 7565SOL     OW23593   4.568   4.860   6.810
 7565SOL    HW123594   4.507   4.929   6.849
 7565SOL    HW223595   4.518   4.805   6.743
 7566SOL     OW23596   1.234   5.943   4.361
 7566SOL    HW123597   1.153   5.910   4.314
 7566SOL    HW223598   1.249   5.888   4.443
 7567SOL     OW23599   3.113   4.972   6.989
 7567SOL    HW123600   3.036   5.020   6.946
 7567SOL    HW223601   3.078   4.917   0.043
 7568SOL     OW23602   4.574   5.803   3.732
 7568SOL    HW123603   4.642   5.827   3.802
 7568SOL    HW223604   4.620   5.795   3.643
 7569SOL     OW23605   3.901   6.283   0.108
 7569SOL    HW123606   3.837   6.360   0.118
 7569SOL    HW223607   3.940   6.259   0.197
 7570SOL     OW23608   5.866   5.573   3.830
 7570SOL    HW123609   5.851   5.603   3.924
 7570SOL    HW223610   5.963   5.559   3.814
 7571SOL     OW23611   5.364   4.260   1.458
 7571SOL    HW123612   5.402   4.196   1.391
 7571SOL    HW223613   5.428   4.334   1.474
 7572SOL     OW23614   3.552   0.397   4.612
 7572SOL    HW123615   3.493   0.473   4.640
 7572SOL    HW223616   3.513   0.311   4.643
 7573SOL     OW23617   0.884   6.104   4.245
 7573SOL    HW123618   0.785   6.105   4.231
 7573SOL    HW223619   0.904   6.101   4.342
 7574SOL     OW23620   5.383   6.173   3.416
 7574SOL    HW123621   5.460   6.125   3.458
 7574SOL    HW223622   5.304   6.169   3.477
 7575SOL     OW23623   3.940   1.264   5.510
 7575SOL    HW123624   3.942   1.206   5.428
 7575SOL    HW223625   3.984   1.351   5.491
 7576SOL     OW23626   5.860   2.966   0.561
 7576SOL    HW123627   5.905   2.951   0.473
 7576SOL    HW223628   5.823   3.058   0.565
 7577SOL     OW23629   6.252   1.247   4.988
 7577SOL    HW123630   6.342   1.207   5.001
 7577SOL    HW223631   6.192   1.222   5.065
 7578SOL     OW23632   1.895   5.152   4.910
 7578SOL    HW123633   1.859   5.121   4.822
 7578SOL    HW223634   1.988   5.117   4.923
 7579SOL     OW23635   3.578   1.691   2.455
 7579SOL    HW123636   3.551   1.662   2.363
 7579SOL    HW223637   3.678   1.694   2.461
 7580SOL     OW23638   2.101   4.326   2.900
 7580SOL    HW123639   2.030   4.393   2.880
 7580SOL    HW223640   2.119   4.271   2.819
 7581SOL     OW23641   5.159   1.027   0.898
 7581SOL    HW123642   5.207   0.942   0.916
 7581SOL    HW223643   5.200   1.101   0.951
 7582SOL     OW23644   3.049   1.280   0.874
 7582SOL    HW123645   3.080   1.323   0.958
 7582SOL    HW223646   2.962   1.321   0.845
 7583SOL     OW23647   5.487   3.183   1.922
 7583SOL    HW123648   5.514   3.167   2.017
 7583SOL    HW223649   5.393   3.152   1.908
 7584SOL     OW23650   2.901   6.749   1.491
 7584SOL    HW123651   2.966   6.730   1.564
 7584SOL    HW223652   2.913   6.682   1.418
 7585SOL     OW23653   1.402   4.452   6.599
 7585SOL    HW123654   1.341   4.492   6.668
 7585SOL    HW223655   1.495   4.451   6.635
 7586SOL     OW23656   3.162   0.427   3.066
 7586SOL    HW123657   3.202   0.497   3.126
 7586SOL    HW223658   3.222   0.412   2.988
 7587SOL     OW23659   0.858   2.069   6.400
 7587SOL    HW123660   0.909   1.983   6.391
 7587SOL    HW223661   0.922   2.142   6.426
 7588SOL     OW23662   0.300   4.750   2.881
 7588SOL    HW123663   0.283   4.694   2.962
 7588SOL    HW223664   0.249   4.836   2.888
 7589SOL     OW23665   6.087   5.898   0.324
 7589SOL    HW123666   6.086   5.803   0.355
 7589SOL    HW223667   6.071   5.900   0.225
 7590SOL     OW23668   2.354   1.363   5.989
 7590SOL    HW123669   2.431   1.426   5.993
 7590SOL    HW223670   2.270   1.415   5.972
 7591SOL     OW23671   6.725   4.614   6.457
 7591SOL    HW123672   6.657   4.577   6.520
 7591SOL    HW223673   6.816   4.602   6.496
 7592SOL     OW23674   6.191   5.137   6.577
 7592SOL    HW123675   6.140   5.201   6.520
 7592SOL    HW223676   6.245   5.076   6.519
 7593SOL     OW23677   5.311   2.102   0.273
 7593SOL    HW123678   5.348   2.014   0.241
 7593SOL    HW223679   5.301   2.100   0.372
 7594SOL     OW23680   1.015   6.026   4.027
 7594SOL    HW123681   1.046   5.932   4.024
 7594SOL    HW223682   0.963   6.042   4.111
 7595SOL     OW23683   6.715   3.249   6.566
 7595SOL    HW123684   6.735   3.332   6.514
 7595SOL    HW223685   6.725   3.170   6.506
 7596SOL     OW23686   5.201   4.233   1.944
 7596SOL    HW123687   5.164   4.146   1.975
 7596SOL    HW223688   5.231   4.224   1.849
 7597SOL     OW23689   3.964   5.261   1.694
 7597SOL    HW123690   4.019   5.178   1.687
 7597SOL    HW223691   3.971   5.314   1.610
 7598SOL     OW23692   0.164   0.779   3.481
 7598SOL    HW123693   0.169   0.698   3.424
 7598SOL    HW223694   0.257   0.814   3.498
 7599SOL     OW23695   6.394   1.930   3.227
 7599SOL    HW123696   6.473   1.971   3.273
 7599SOL    HW223697   6.405   1.830   3.226
 7600SOL     OW23698   1.690   1.265   1.893
 7600SOL    HW123699   1.617   1.332   1.876
 7600SOL    HW223700   1.754   1.303   1.960
 7601SOL     OW23701   1.673   6.188   4.241
 7601SOL    HW123702   1.712   6.270   4.282
 7601SOL    HW223703   1.714   6.107   4.283
 7602SOL     OW23704   1.349   4.341   4.687
 7602SOL    HW123705   1.293   4.299   4.616
 7602SOL    HW223706   1.440   4.299   4.687
 7603SOL     OW23707   1.265   6.468   1.556
 7603SOL    HW123708   1.341   6.498   1.498
 7603SOL    HW223709   1.197   6.542   1.562
 7604SOL     OW23710   4.278   5.792   4.897
 7604SOL    HW123711   4.239   5.709   4.859
 7604SOL    HW223712   4.207   5.860   4.911
 7605SOL     OW23713   0.092   4.053   6.907
 7605SOL    HW123714   0.168   4.039   6.970
 7605SOL    HW223715   0.021   4.107   6.953
 7606SOL     OW23716   6.489   2.704   2.469
 7606SOL    HW123717   6.472   2.720   2.566
 7606SOL    HW223718   6.414   2.652   2.430
 7607SOL     OW23719   5.013   0.207   6.578
 7607SOL    HW123720   5.003   0.216   6.479
 7607SOL    HW223721   4.926   0.180   6.618
 7608SOL     OW23722   2.912   3.468   4.531
 7608SOL    HW123723   3.007   3.453   4.559
 7608SOL    HW223724   2.852   3.410   4.586
 7609SOL     OW23725   0.961   3.561   3.577
 7609SOL    HW123726   0.931   3.594   3.488
 7609SOL    HW223727   1.052   3.521   3.570
 7610SOL     OW23728   5.623   0.164   0.871
 7610SOL    HW123729   5.603   0.208   0.783
 7610SOL    HW223730   5.601   0.227   0.946
 7611SOL     OW23731   1.380   1.711   0.259
 7611SOL    HW123732   1.373   1.749   0.166
 7611SOL    HW223733   1.288   1.687   0.291
 7612SOL     OW23734   4.096   2.254   3.529
 7612SOL    HW123735   4.181   2.299   3.502
 7612SOL    HW223736   4.091   2.248   3.628
 7613SOL     OW23737   4.930   0.963   1.521
 7613SOL    HW123738   4.937   1.029   1.596
 7613SOL    HW223739   4.868   0.999   1.451
 7614SOL     OW23740   4.016   2.209   0.871
 7614SOL    HW123741   4.069   2.232   0.952
 7614SOL    HW223742   4.063   2.136   0.820
 7615SOL     OW23743   4.082   5.196   6.309
 7615SOL    HW123744   4.063   5.241   6.221
 7615SOL    HW223745   3.997   5.174   6.355
 7616SOL     OW23746   6.534   3.651   3.389
 7616SOL    HW123747   6.477   3.570   3.379
 7616SOL    HW223748   6.513   3.697   3.476
 7617SOL     OW23749   3.270   4.886   3.136
 7617SOL    HW123750   3.179   4.904   3.175
 7617SOL    HW223751   3.335   4.868   3.210
 7618SOL     OW23752   1.723   2.182   6.474
 7618SOL    HW123753   1.701   2.224   6.563
 7618SOL    HW223754   1.721   2.252   6.403
 7619SOL     OW23755   6.356   3.715   5.239
 7619SOL    HW123756   6.400   3.801   5.264
 7619SOL    HW223757   6.355   3.654   5.317
 7620SOL     OW23758   4.009   6.896   1.015
 7620SOL    HW123759   4.057   6.912   0.929
 7620SOL    HW223760   3.980   6.984   1.054
 7621SOL     OW23761   2.239   0.792   1.209
 7621SOL    HW123762   2.196   0.806   1.120
 7621SOL    HW223763   2.272   0.880   1.244
 7622SOL     OW23764   4.125   3.122   1.138
 7622SOL    HW123765   4.218   3.088   1.123
 7622SOL    HW223766   4.101   3.112   1.234
 7623SOL     OW23767   4.640   6.775   6.049
 7623SOL    HW123768   4.668   6.847   6.111
 7623SOL    HW223769   4.596   6.815   5.969
 7624SOL     OW23770   1.029   1.182   2.852
 7624SOL    HW123771   0.940   1.158   2.813
 7624SOL    HW223772   1.079   1.239   2.787
 7625SOL     OW23773   5.025   0.540   1.330
 7625SOL    HW123774   4.929   0.525   1.309
 7625SOL    HW223775   5.035   0.617   1.394
 7626SOL     OW23776   1.695   6.429   4.377
 7626SOL    HW123777   1.735   6.483   4.452
 7626SOL    HW223778   1.685   6.486   4.296
 7627SOL     OW23779   6.918   2.805   0.896
 7627SOL    HW123780   6.879   2.782   0.807
 7627SOL    HW223781   6.861   2.766   0.968
 7628SOL     OW23782   2.816   1.382   0.767
 7628SOL    HW123783   2.764   1.395   0.851
 7628SOL    HW223784   2.849   1.471   0.735
 7629SOL     OW23785   6.920   5.707   2.841
 7629SOL    HW123786   6.911   5.666   2.750
 7629SOL    HW223787   6.936   5.806   2.831
 7630SOL     OW23788   6.605   0.490   2.064
 7630SOL    HW123789   6.529   0.546   2.030
 7630SOL    HW223790   6.574   0.396   2.075
 7631SOL     OW23791   0.760   1.508   4.089
 7631SOL    HW123792   0.749   1.596   4.135
 7631SOL    HW223793   0.679   1.452   4.104
 7632SOL     OW23794   4.446   2.258   0.744
 7632SOL    HW123795   4.463   2.270   0.646
 7632SOL    HW223796   4.479   2.339   0.794
 7633SOL     OW23797   5.380   3.501   6.479
 7633SOL    HW123798   5.308   3.561   6.515
 7633SOL    HW223799   5.468   3.530   6.516
 7634SOL     OW23800   2.027   0.728   2.440
 7634SOL    HW123801   2.023   0.697   2.345
 7634SOL    HW223802   1.959   0.680   2.495
 7635SOL     OW23803   2.499   5.058   5.740
 7635SOL    HW123804   2.568   4.986   5.750
 7635SOL    HW223805   2.464   5.083   5.831
 7636SOL     OW23806   0.605   0.378   4.539
 7636SOL    HW123807   0.604   0.293   4.591
 7636SOL    HW223808   0.648   0.361   4.450
 7637SOL     OW23809   1.465   6.327   4.076
 7637SOL    HW123810   1.431   6.263   4.007
 7637SOL    HW223811   1.539   6.285   4.128
 7638SOL     OW23812   5.491   5.377   2.498
 7638SOL    HW123813   5.583   5.344   2.521
 7638SOL    HW223814   5.482   5.385   2.399
 7639SOL     OW23815   0.885   1.612   5.299
 7639SOL    HW123816   0.925   1.552   5.230
 7639SOL    HW223817   0.787   1.595   5.305
 7640SOL     OW23818   2.456   1.666   0.173
 7640SOL    HW123819   2.543   1.643   0.129
 7640SOL    HW223820   2.454   1.764   0.194
 7641SOL     OW23821   6.030   3.523   2.101
 7641SOL    HW123822   5.940   3.482   2.089
 7641SOL    HW223823   6.061   3.510   2.195
 7642SOL     OW23824   2.440   1.991   2.167
 7642SOL    HW123825   2.489   2.048   2.233
 7642SOL    HW223826   2.342   2.010   2.172
 7643SOL     OW23827   4.782   2.936   2.817
 7643SOL    HW123828   4.749   2.846   2.791
 7643SOL    HW223829   4.804   2.988   2.734
 7644SOL     OW23830   0.116   2.905   3.162
 7644SOL    HW123831   0.205   2.860   3.157
 7644SOL    HW223832   0.104   2.945   3.253
 7645SOL     OW23833   4.323   4.336   0.088
 7645SOL    HW123834   4.408   4.285   0.107
 7645SOL    HW223835   4.290   4.378   0.173
 7646SOL     OW23836   2.205   2.147   2.084
 7646SOL    HW123837   2.121   2.092   2.084
 7646SOL    HW223838   2.189   2.232   2.133
 7647SOL     OW23839   2.167   3.946   1.873
 7647SOL    HW123840   2.189   3.859   1.828
 7647SOL    HW223841   2.105   3.998   1.815
 7648SOL     OW23842   4.185   1.211   3.863
 7648SOL    HW123843   4.166   1.263   3.779
 7648SOL    HW223844   4.174   1.114   3.845
 7649SOL     OW23845   2.854   0.731   2.303
 7649SOL    HW123846   2.939   0.744   2.354
 7649SOL    HW223847   2.828   0.634   2.306
 7650SOL     OW23848   6.673   3.883   1.980
 7650SOL    HW123849   6.752   3.857   1.925
 7650SOL    HW223850   6.591   3.837   1.945
 7651SOL     OW23851   3.198   0.624   6.521
 7651SOL    HW123852   3.222   0.527   6.517
 7651SOL    HW223853   3.208   0.656   6.616
 7652SOL     OW23854   0.332   3.761   3.448
 7652SOL    HW123855   0.425   3.790   3.428
 7652SOL    HW223856   0.333   3.670   3.489
 7653SOL     OW23857   2.751   2.067   1.732
 7653SOL    HW123858   2.819   2.125   1.686
 7653SOL    HW223859   2.663   2.075   1.684
 7654SOL     OW23860   5.272   3.330   4.163
 7654SOL    HW123861   5.212   3.289   4.231
 7654SOL    HW223862   5.347   3.266   4.143
 7655SOL     OW23863   3.281   6.523   4.978
 7655SOL    HW123864   3.257   6.615   4.945
 7655SOL    HW223865   3.224   6.455   4.931
 7656SOL     OW23866   6.992   5.958   5.328
 7656SOL    HW123867   6.943   5.892   5.385
 7656SOL    HW223868   0.024   6.018   5.386
 7657SOL     OW23869   3.503   1.723   3.542
 7657SOL    HW123870   3.409   1.753   3.562
 7657SOL    HW223871   3.563   1.751   3.617
 7658SOL     OW23872   4.211   0.958   6.000
 7658SOL    HW123873   4.116   0.963   6.030
 7658SOL    HW223874   4.216   0.910   5.913
 7659SOL     OW23875   5.753   6.807   0.556
 7659SOL    HW123876   5.732   6.890   0.607
 7659SOL    HW223877   5.759   6.829   0.458
 7660SOL     OW23878   5.384   6.106   2.865
 7660SOL    HW123879   5.465   6.048   2.875
 7660SOL    HW223880   5.366   6.120   2.767
 7661SOL     OW23881   6.422   2.831   3.472
 7661SOL    HW123882   6.446   2.898   3.402
 7661SOL    HW223883   6.392   2.879   3.555
 7662SOL     OW23884   0.756   4.620   2.018
 7662SOL    HW123885   0.709   4.698   2.058
 7662SOL    HW223886   0.840   4.601   2.069
 7663SOL     OW23887   0.611   4.589   6.076
 7663SOL    HW123888   0.694   4.644   6.074
 7663SOL    HW223889   0.608   4.536   6.161
 7664SOL     OW23890   3.171   5.815   3.509
 7664SOL    HW123891   3.200   5.888   3.447
 7664SOL    HW223892   3.103   5.758   3.463
 7665SOL     OW23893   2.836   0.497   4.526
 7665SOL    HW123894   2.860   0.594   4.525
 7665SOL    HW223895   2.866   0.455   4.612
 7666SOL     OW23896   1.260   0.705   1.041
 7666SOL    HW123897   1.268   0.630   1.107
 7666SOL    HW223898   1.346   0.716   0.992
 7667SOL     OW23899   4.816   6.914   6.843
 7667SOL    HW123900   4.807   7.013   6.833
 7667SOL    HW223901   4.901   6.884   6.798
 7668SOL     OW23902   3.680   4.281   1.062
 7668SOL    HW123903   3.683   4.355   0.994
 7668SOL    HW223904   3.770   4.237   1.066
 7669SOL     OW23905   4.842   0.306   3.799
 7669SOL    HW123906   4.767   0.356   3.757
 7669SOL    HW223907   4.809   0.218   3.834
 7670SOL     OW23908   1.482   5.463   0.673
 7670SOL    HW123909   1.406   5.528   0.682
 7670SOL    HW223910   1.569   5.511   0.685
 7671SOL     OW23911   6.384   2.097   3.807
 7671SOL    HW123912   6.421   2.181   3.847
 7671SOL    HW223913   6.420   2.018   3.858
 7672SOL     OW23914   5.393   0.970   3.506
 7672SOL    HW123915   5.376   1.064   3.534
 7672SOL    HW223916   5.460   0.929   3.567
 7673SOL     OW23917   0.483   4.266   0.746
 7673SOL    HW123918   0.573   4.268   0.702
 7673SOL    HW223919   0.459   4.173   0.771
 7674SOL     OW23920   6.398   1.789   5.164
 7674SOL    HW123921   6.443   1.808   5.251
 7674SOL    HW223922   6.351   1.701   5.170
 7675SOL     OW23923   4.478   7.007   2.569
 7675SOL    HW123924   4.382   6.981   2.561
 7675SOL    HW223925   4.536   6.928   2.551
 7676SOL     OW23926   1.508   0.875   6.869
 7676SOL    HW123927   1.423   0.928   6.867
 7676SOL    HW223928   1.490   0.783   6.903
 7677SOL     OW23929   1.510   3.364   2.572
 7677SOL    HW123930   1.459   3.364   2.658
 7677SOL    HW223931   1.497   3.452   2.526
 7678SOL     OW23932   0.093   0.838   0.500
 7678SOL    HW123933   0.128   0.898   0.571
 7678SOL    HW223934   0.138   0.749   0.506
 7679SOL     OW23935   0.795   5.059   5.098
 7679SOL    HW123936   0.837   5.008   5.173
 7679SOL    HW223937   0.855   5.057   5.018
 7680SOL     OW23938   3.249   3.659   0.251
 7680SOL    HW123939   3.176   3.704   0.199
 7680SOL    HW223940   3.223   3.654   0.348
 7681SOL     OW23941   2.751   1.899   0.057
 7681SOL    HW123942   2.669   1.925   0.108
 7681SOL    HW223943   2.786   1.812   0.092
 7682SOL     OW23944   3.168   6.955   1.988
 7682SOL    HW123945   3.124   6.988   1.905
 7682SOL    HW223946   3.227   0.004   2.026
 7683SOL     OW23947   6.217   2.034   2.794
 7683SOL    HW123948   6.305   2.034   2.747
 7683SOL    HW223949   6.229   2.069   2.888
 7684SOL     OW23950   4.388   2.122   6.362
 7684SOL    HW123951   4.448   2.156   6.290
 7684SOL    HW223952   4.296   2.159   6.349
 7685SOL     OW23953   3.621   3.072   0.701
 7685SOL    HW123954   3.643   3.133   0.625
 7685SOL    HW223955   3.705   3.034   0.739
 7686SOL     OW23956   4.505   6.940   3.838
 7686SOL    HW123957   4.533   6.855   3.883
 7686SOL    HW223958   4.439   6.920   3.766
 7687SOL     OW23959   4.980   5.489   5.547
 7687SOL    HW123960   4.898   5.488   5.489
 7687SOL    HW223961   5.012   5.583   5.557
 7688SOL     OW23962   6.838   6.449   4.980
 7688SOL    HW123963   6.795   6.443   5.070
 7688SOL    HW223964   6.769   6.470   4.911
 7689SOL     OW23965   4.502   6.854   4.933
 7689SOL    HW123966   4.455   6.771   4.906
 7689SOL    HW223967   4.599   6.847   4.911
 7690SOL     OW23968   5.993   4.273   3.202
 7690SOL    HW123969   5.938   4.351   3.233
 7690SOL    HW223970   6.023   4.220   3.282
 7691SOL     OW23971   5.181   2.997   4.328
 7691SOL    HW123972   5.113   2.945   4.276
 7691SOL    HW223973   5.139   3.081   4.363
 7692SOL     OW23974   1.806   6.692   1.585
 7692SOL    HW123975   1.776   6.722   1.676
 7692SOL    HW223976   1.899   6.723   1.569
 7693SOL     OW23977   4.483   1.433   6.398
 7693SOL    HW123978   4.400   1.397   6.356
 7693SOL    HW223979   4.512   1.515   6.350
 7694SOL     OW23980   6.921   5.060   4.300
 7694SOL    HW123981   6.860   4.999   4.248
 7694SOL    HW223982   7.012   5.019   4.305
 7695SOL     OW23983   4.574   6.943   1.081
 7695SOL    HW123984   4.523   6.982   1.158
 7695SOL    HW223985   4.564   6.844   1.081
 7696SOL     OW23986   6.668   2.904   4.672
 7696SOL    HW123987   6.732   2.895   4.748
 7696SOL    HW223988   6.639   3.000   4.665
 7697SOL     OW23989   2.478   1.665   3.140
 7697SOL    HW123990   2.455   1.750   3.091
 7697SOL    HW223991   2.575   1.665   3.163
 7698SOL     OW23992   6.404   2.912   5.287
 7698SOL    HW123993   6.443   3.001   5.264
 7698SOL    HW223994   6.474   2.855   5.331
 7699SOL     OW23995   2.602   5.839   0.381
 7699SOL    HW123996   2.609   5.840   0.282
 7699SOL    HW223997   2.534   5.906   0.411
 7700SOL     OW23998   4.864   6.698   5.113
 7700SOL    HW123999   4.849   6.650   5.199
 7700SOL    HW224000   4.958   6.682   5.082
 7701SOL     OW24001   0.379   1.701   4.720
 7701SOL    HW124002   0.310   1.772   4.732
 7701SOL    HW224003   0.455   1.737   4.666
 7702SOL     OW24004   3.009   5.879   5.923
 7702SOL    HW124005   2.986   5.791   5.882
 7702SOL    HW224006   2.946   5.898   5.999
 7703SOL     OW24007   0.531   1.689   5.651
 7703SOL    HW124008   0.532   1.757   5.725
 7703SOL    HW224009   0.625   1.665   5.628
 7704SOL     OW24010   3.963   4.226   6.657
 7704SOL    HW124011   4.042   4.240   6.716
 7704SOL    HW224012   3.879   4.237   6.710
 7705SOL     OW24013   3.594   5.235   5.122
 7705SOL    HW124014   3.663   5.164   5.133
 7705SOL    HW224015   3.561   5.235   5.027
 7706SOL     OW24016   6.084   0.858   5.350
 7706SOL    HW124017   6.034   0.944   5.359
 7706SOL    HW224018   6.020   0.781   5.356
 7707SOL     OW24019   6.764   5.608   6.455
 7707SOL    HW124020   6.821   5.568   6.527
 7707SOL    HW224021   6.751   5.706   6.474
 7708SOL     OW24022   4.742   6.269   4.622
 7708SOL    HW124023   4.644   6.263   4.604
 7708SOL    HW224024   4.757   6.306   4.714
 7709SOL     OW24025   4.382   2.355   1.811
 7709SOL    HW124026   4.282   2.352   1.817
 7709SOL    HW224027   4.421   2.273   1.852
 7710SOL     OW24028   2.421   0.426   0.486
 7710SOL    HW124029   2.416   0.516   0.445
 7710SOL    HW224030   2.431   0.357   0.415
 7711SOL     OW24031   5.845   6.606   5.666
 7711SOL    HW124032   5.819   6.545   5.592
 7711SOL    HW224033   5.941   6.589   5.691
 7712SOL     OW24034   5.893   5.181   0.997
 7712SOL    HW124035   5.856   5.116   1.064
 7712SOL    HW224036   5.881   5.144   0.905
 7713SOL     OW24037   1.621   4.005   6.489
 7713SOL    HW124038   1.555   4.078   6.505
 7713SOL    HW224039   1.589   3.947   6.414
 7714SOL     OW24040   6.071   4.069   4.081
 7714SOL    HW124041   6.127   4.151   4.069
 7714SOL    HW224042   6.073   4.042   4.177
 7715SOL     OW24043   4.912   6.881   1.557
 7715SOL    HW124044   4.842   6.837   1.614
 7715SOL    HW224045   4.977   6.929   1.616
 7716SOL     OW24046   4.597   2.256   2.912
 7716SOL    HW124047   4.537   2.201   2.855
 7716SOL    HW224048   4.687   2.262   2.869
 7717SOL     OW24049   3.314   1.875   5.458
 7717SOL    HW124050   3.293   1.936   5.382
 7717SOL    HW224051   3.231   1.826   5.485
 7718SOL     OW24052   2.707   0.999   3.600
 7718SOL    HW124053   2.620   0.982   3.646
 7718SOL    HW224054   2.731   0.920   3.544
 7719SOL     OW24055   0.022   1.463   4.491
 7719SOL    HW124056   6.978   1.527   4.452
 7719SOL    HW224057   0.114   1.489   4.461
 7720SOL     OW24058   5.984   6.294   1.275
 7720SOL    HW124059   6.061   6.283   1.212
 7720SOL    HW224060   5.949   6.387   1.268
 7721SOL     OW24061   2.276   4.148   3.653
 7721SOL    HW124062   2.287   4.156   3.554
 7721SOL    HW224063   2.298   4.054   3.680
 7722SOL     OW24064   6.360   4.323   3.574
 7722SOL    HW124065   6.343   4.409   3.525
 7722SOL    HW224066   6.387   4.252   3.508
 7723SOL     OW24067   6.650   3.239   0.604
 7723SOL    HW124068   6.637   3.158   0.660
 7723SOL    HW224069   6.746   3.249   0.581
 7724SOL     OW24070   1.262   4.664   1.017
 7724SOL    HW124071   1.332   4.666   0.945
 7724SOL    HW224072   1.177   4.627   0.979
 7725SOL     OW24073   5.954   2.877   3.399
 7725SOL    HW124074   5.877   2.820   3.372
 7725SOL    HW224075   5.997   2.916   3.318
 7726SOL     OW24076   0.694   4.472   3.422
 7726SOL    HW124077   0.657   4.380   3.412
 7726SOL    HW224078   0.746   4.496   3.340
 7727SOL     OW24079   6.683   2.908   3.055
 7727SOL    HW124080   6.742   2.989   3.048
 7727SOL    HW224081   6.739   2.829   3.078
 7728SOL     OW24082   1.881   3.109   3.224
 7728SOL    HW124083   1.792   3.076   3.191
 7728SOL    HW224084   1.874   3.208   3.242
 7729SOL     OW24085   4.892   2.506   1.344
 7729SOL    HW124086   4.817   2.558   1.304
 7729SOL    HW224087   4.973   2.565   1.352
 7730SOL     OW24088   5.177   6.953   2.784
 7730SOL    HW124089   5.247   7.018   2.813
 7730SOL    HW224090   5.194   6.864   2.826
 7731SOL     OW24091   6.028   1.447   6.904
 7731SOL    HW124092   6.013   1.405   6.815
 7731SOL    HW224093   6.117   1.418   6.940
 7732SOL     OW24094   4.361   6.095   0.351
 7732SOL    HW124095   4.340   5.998   0.350
 7732SOL    HW224096   4.309   6.141   0.278
 7733SOL     OW24097   3.545   0.486   1.296
 7733SOL    HW124098   3.578   0.578   1.321
 7733SOL    HW224099   3.511   0.440   1.378
 7734SOL     OW24100   1.552   2.433   3.484
 7734SOL    HW124101   1.594   2.343   3.495
 7734SOL    HW224102   1.519   2.442   3.390
 7735SOL     OW24103   5.091   4.533   6.512
 7735SOL    HW124104   5.109   4.628   6.486
 7735SOL    HW224105   5.177   4.483   6.517
 7736SOL     OW24106   5.589   4.835   0.469
 7736SOL    HW124107   5.572   4.925   0.429
 7736SOL    HW224108   5.655   4.785   0.414
 7737SOL     OW24109   4.957   1.895   0.931
 7737SOL    HW124110   4.872   1.857   0.893
 7737SOL    HW224111   4.941   1.990   0.958
 7738SOL     OW24112   2.746   5.536   0.072
 7738SOL    HW124113   2.790   5.609   0.125
 7738SOL    HW224114   2.649   5.533   0.094
 7739SOL     OW24115   0.214   2.278   1.285
 7739SOL    HW124116   0.276   2.350   1.255
 7739SOL    HW224117   0.157   2.249   1.208
 7740SOL     OW24118   0.113   0.285   2.623
 7740SOL    HW124119   0.169   0.272   2.542
 7740SOL    HW224120   0.141   0.368   2.671
 7741SOL     OW24121   1.316   6.218   4.331
 7741SOL    HW124122   1.300   6.120   4.315
 7741SOL    HW224123   1.340   6.262   4.245
 7742SOL     OW24124   6.353   1.881   3.609
 7742SOL    HW124125   6.417   1.819   3.654
 7742SOL    HW224126   6.349   1.967   3.660
 7743SOL     OW24127   4.596   2.613   4.464
 7743SOL    HW124128   4.691   2.598   4.489
 7743SOL    HW224129   4.536   2.580   4.537
 7744SOL     OW24130   6.555   0.302   3.081
 7744SOL    HW124131   6.463   0.342   3.089
 7744SOL    HW224132   6.565   0.261   2.991
 7745SOL     OW24133   3.884   3.046   6.190
 7745SOL    HW124134   3.922   3.138   6.197
 7745SOL    HW224135   3.798   3.041   6.241
 7746SOL     OW24136   1.556   0.737   0.210
 7746SOL    HW124137   1.626   0.667   0.220
 7746SOL    HW224138   1.474   0.709   0.260
 7747SOL     OW24139   5.286   6.530   0.905
 7747SOL    HW124140   5.203   6.495   0.949
 7747SOL    HW224141   5.300   6.483   0.818
 7748SOL     OW24142   2.510   4.395   6.140
 7748SOL    HW124143   2.567   4.469   6.177
 7748SOL    HW224144   2.562   4.344   6.072
 7749SOL     OW24145   5.306   2.623   5.557
 7749SOL    HW124146   5.310   2.692   5.485
 7749SOL    HW224147   5.275   2.536   5.519
 7750SOL     OW24148   0.376   5.803   1.405
 7750SOL    HW124149   0.327   5.889   1.411
 7750SOL    HW224150   0.386   5.762   1.496
 7751SOL     OW24151   0.914   2.833   2.167
 7751SOL    HW124152   0.949   2.744   2.194
 7751SOL    HW224153   0.918   2.841   2.067
 7752SOL     OW24154   4.310   1.531   4.130
 7752SOL    HW124155   4.370   1.570   4.199
 7752SOL    HW224156   4.352   1.448   4.092
 7753SOL     OW24157   2.638   1.470   5.233
 7753SOL    HW124158   2.731   1.507   5.227
 7753SOL    HW224159   2.573   1.543   5.216
 7754SOL     OW24160   4.678   6.498   1.954
 7754SOL    HW124161   4.592   6.494   2.004
 7754SOL    HW224162   4.736   6.420   1.978
 7755SOL     OW24163   1.345   4.116   6.026
 7755SOL    HW124164   1.342   4.142   5.929
 7755SOL    HW224165   1.434   4.142   6.064
 7756SOL     OW24166   3.446   5.999   1.435
 7756SOL    HW124167   3.420   6.094   1.419
 7756SOL    HW224168   3.444   5.949   1.348
 7757SOL     OW24169   0.315   4.707   2.405
 7757SOL    HW124170   0.371   4.683   2.484
 7757SOL    HW224171   0.355   4.667   2.322
 7758SOL     OW24172   1.685   0.594   5.024
 7758SOL    HW124173   1.643   0.667   4.971
 7758SOL    HW224174   1.744   0.633   5.094
 7759SOL     OW24175   2.710   2.180   6.744
 7759SOL    HW124176   2.666   2.251   6.690
 7759SOL    HW224177   2.802   2.210   6.771
 7760SOL     OW24178   4.455   3.272   1.170
 7760SOL    HW124179   4.363   3.307   1.191
 7760SOL    HW224180   4.446   3.180   1.131
 7761SOL     OW24181   5.162   5.649   4.743
 7761SOL    HW124182   5.107   5.697   4.810
 7761SOL    HW224183   5.134   5.674   4.651
 7762SOL     OW24184   6.694   0.945   2.901
 7762SOL    HW124185   6.634   0.943   2.981
 7762SOL    HW224186   6.658   1.010   2.834
 7763SOL     OW24187   2.541   0.097   4.597
 7763SOL    HW124188   2.596   0.014   4.593
 7763SOL    HW224189   2.449   0.078   4.562
 7764SOL     OW24190   3.116   3.844   5.340
 7764SOL    HW124191   3.123   3.744   5.337
 7764SOL    HW224192   3.030   3.870   5.384
 7765SOL     OW24193   6.930   3.169   4.417
 7765SOL    HW124194   6.908   3.088   4.362
 7765SOL    HW224195   6.892   3.250   4.374
 7766SOL     OW24196   6.282   3.655   6.552
 7766SOL    HW124197   6.360   3.593   6.564
 7766SOL    HW224198   6.315   3.748   6.535
 7767SOL     OW24199   2.759   0.734   3.057
 7767SOL    HW124200   2.698   0.751   3.135
 7767SOL    HW224201   2.704   0.721   2.974
 7768SOL     OW24202   4.473   5.308   3.298
 7768SOL    HW124203   4.551   5.352   3.343
 7768SOL    HW224204   4.506   5.254   3.221
 7769SOL     OW24205   3.423   2.566   5.372
 7769SOL    HW124206   3.352   2.509   5.331
 7769SOL    HW224207   3.405   2.578   5.469
 7770SOL     OW24208   2.082   3.480   4.775
 7770SOL    HW124209   2.132   3.437   4.851
 7770SOL    HW224210   2.139   3.478   4.693
 7771SOL     OW24211   2.475   2.215   6.251
 7771SOL    HW124212   2.568   2.177   6.255
 7771SOL    HW224213   2.416   2.162   6.312
 7772SOL     OW24214   4.830   6.730   1.962
 7772SOL    HW124215   4.903   6.721   1.894
 7772SOL    HW224216   4.770   6.650   1.958
 7773SOL     OW24217   3.470   6.639   0.006
 7773SOL    HW124218   3.508   6.655   0.097
 7773SOL    HW224219   3.522   6.567   6.983
 7774SOL     OW24220   4.134   1.978   2.755
 7774SOL    HW124221   4.061   2.031   2.799
 7774SOL    HW224222   4.099   1.936   2.672
 7775SOL     OW24223   3.056   0.478   6.891
 7775SOL    HW124224   3.047   0.395   6.835
 7775SOL    HW224225   3.133   0.533   6.857
 7776SOL     OW24226   1.703   1.059   5.045
 7776SOL    HW124227   1.668   1.151   5.061
 7776SOL    HW224228   1.803   1.059   5.052
 7777SOL     OW24229   6.014   5.277   3.463
 7777SOL    HW124230   6.022   5.289   3.562
 7777SOL    HW224231   5.919   5.295   3.435
 7778SOL     OW24232   6.739   5.028   2.500
 7778SOL    HW124233   6.665   5.056   2.561
 7778SOL    HW224234   6.826   5.062   2.536
 7779SOL     OW24235   4.073   5.985   2.292
 7779SOL    HW124236   4.007   5.926   2.246
 7779SOL    HW224237   4.038   6.079   2.295
 7780SOL     OW24238   6.337   6.082   4.642
 7780SOL    HW124239   6.368   6.152   4.578
 7780SOL    HW224240   6.281   6.125   4.713
 7781SOL     OW24241   1.762   2.470   0.619
 7781SOL    HW124242   1.808   2.482   0.531
 7781SOL    HW224243   1.715   2.382   0.621
 7782SOL     OW24244   5.600   3.726   3.886
 7782SOL    HW124245   5.602   3.634   3.925
 7782SOL    HW224246   5.691   3.767   3.894
 7783SOL     OW24247   1.271   0.269   5.108
 7783SOL    HW124248   1.231   0.181   5.082
 7783SOL    HW224249   1.299   0.318   5.025
 7784SOL     OW24250   1.937   2.574   2.512
 7784SOL    HW124251   1.846   2.611   2.531
 7784SOL    HW224252   1.957   2.500   2.576
 7785SOL     OW24253   0.759   6.852   2.402
 7785SOL    HW124254   0.724   6.835   2.495
 7785SOL    HW224255   0.682   6.853   2.338
 7786SOL     OW24256   3.799   0.763   6.593
 7786SOL    HW124257   3.869   0.700   6.559
 7786SOL    HW224258   3.822   0.792   6.685
 7787SOL     OW24259   2.241   2.384   1.153
 7787SOL    HW124260   2.319   2.327   1.128
 7787SOL    HW224261   2.203   2.426   1.070
 7788SOL     OW24262   0.176   4.500   1.610
 7788SOL    HW124263   0.225   4.437   1.549
 7788SOL    HW224264   0.233   4.580   1.629
 7789SOL     OW24265   3.450   1.710   6.417
 7789SOL    HW124266   3.395   1.685   6.497
 7789SOL    HW224267   3.510   1.786   6.440
 7790SOL     OW24268   4.740   4.581   1.773
 7790SOL    HW124269   4.820   4.522   1.787
 7790SOL    HW224270   4.767   4.676   1.781
 7791SOL     OW24271   2.672   5.051   2.081
 7791SOL    HW124272   2.636   5.141   2.058
 7791SOL    HW224273   2.655   5.032   2.177
 7792SOL     OW24274   0.905   1.791   2.310
 7792SOL    HW124275   0.936   1.792   2.405
 7792SOL    HW224276   0.821   1.736   2.303
 7793SOL     OW24277   4.608   0.850   6.491
 7793SOL    HW124278   4.695   0.885   6.525
 7793SOL    HW224279   4.559   0.923   6.443
 7794SOL     OW24280   0.649   6.471   3.543
 7794SOL    HW124281   0.594   6.520   3.611
 7794SOL    HW224282   0.726   6.427   3.587
 7795SOL     OW24283   2.958   5.869   6.694
 7795SOL    HW124284   2.905   5.874   6.609
 7795SOL    HW224285   2.981   5.961   6.724
 7796SOL     OW24286   3.952   3.884   6.295
 7796SOL    HW124287   3.970   3.804   6.352
 7796SOL    HW224288   4.011   3.959   6.323
 7797SOL     OW24289   0.842   6.361   2.578
 7797SOL    HW124290   0.788   6.383   2.496
 7797SOL    HW224291   0.905   6.436   2.596
 7798SOL     OW24292   0.995   3.154   0.741
 7798SOL    HW124293   1.020   3.225   0.675
 7798SOL    HW224294   1.056   3.075   0.729
 7799SOL     OW24295   2.647   5.625   3.282
 7799SOL    HW124296   2.694   5.691   3.341
 7799SOL    HW224297   2.574   5.581   3.333
 7800SOL     OW24298   0.592   6.734   1.705
 7800SOL    HW124299   0.554   6.696   1.620
 7800SOL    HW224300   0.677   6.688   1.727
 7801SOL     OW24301   1.390   2.385   2.591
 7801SOL    HW124302   1.459   2.450   2.623
 7801SOL    HW224303   1.357   2.414   2.501
 7802SOL     OW24304   0.260   4.021   4.351
 7802SOL    HW124305   0.235   3.942   4.296
 7802SOL    HW224306   0.233   4.005   4.446
 7803SOL     OW24307   4.134   2.817   5.699
 7803SOL    HW124308   4.080   2.816   5.615
 7803SOL    HW224309   4.102   2.744   5.760
 7804SOL     OW24310   3.152   1.980   5.263
 7804SOL    HW124311   3.143   2.080   5.269
 7804SOL    HW224312   3.176   1.955   5.169
 7805SOL     OW24313   5.689   2.742   0.552
 7805SOL    HW124314   5.746   2.673   0.596
 7805SOL    HW224315   5.707   2.831   0.594
 7806SOL     OW24316   6.771   2.609   5.287
 7806SOL    HW124317   6.752   2.512   5.272
 7806SOL    HW224318   6.870   2.623   5.295
 7807SOL     OW24319   2.106   4.695   6.358
 7807SOL    HW124320   2.072   4.677   6.450
 7807SOL    HW224321   2.043   4.655   6.291
 7808SOL     OW24322   4.857   3.817   2.986
 7808SOL    HW124323   4.850   3.788   2.890
 7808SOL    HW224324   4.888   3.912   2.990
 7809SOL     OW24325   5.127   4.879   3.587
 7809SOL    HW124326   5.095   4.880   3.682
 7809SOL    HW224327   5.147   4.786   3.559
 7810SOL     OW24328   3.549   6.607   5.460
 7810SOL    HW124329   3.590   6.603   5.551
 7810SOL    HW224330   3.608   6.659   5.399
 7811SOL     OW24331   1.472   5.794   2.743
 7811SOL    HW124332   1.426   5.760   2.661
 7811SOL    HW224333   1.546   5.855   2.717
 7812SOL     OW24334   3.122   1.776   5.969
 7812SOL    HW124335   3.096   1.683   5.944
 7812SOL    HW224336   3.072   1.803   6.051
 7813SOL     OW24337   5.801   0.691   0.594
 7813SOL    HW124338   5.794   0.735   0.505
 7813SOL    HW224339   5.879   0.728   0.644
 7814SOL     OW24340   6.686   3.281   1.931
 7814SOL    HW124341   6.610   3.239   1.980
 7814SOL    HW224342   6.756   3.212   1.913
 7815SOL     OW24343   6.107   3.835   5.297
 7815SOL    HW124344   6.168   3.764   5.263
 7815SOL    HW224345   6.107   3.912   5.234
 7816SOL     OW24346   0.222   0.624   5.282
 7816SOL    HW124347   0.219   0.709   5.334
 7816SOL    HW224348   0.311   0.615   5.237
 7817SOL     OW24349   2.732   2.851   6.547
 7817SOL    HW124350   2.741   2.950   6.553
 7817SOL    HW224351   2.644   2.823   6.583
 7818SOL     OW24352   5.700   1.003   2.313
 7818SOL    HW124353   5.616   0.986   2.364
 7818SOL    HW224354   5.704   0.941   2.235
 7819SOL     OW24355   1.635   3.610   4.043
 7819SOL    HW124356   1.580   3.632   4.123
 7819SOL    HW224357   1.598   3.529   3.998
 7820SOL     OW24358   2.040   6.822   6.283
 7820SOL    HW124359   2.011   6.852   6.192
 7820SOL    HW224360   2.027   6.897   6.348
 7821SOL     OW24361   5.298   5.711   6.739
 7821SOL    HW124362   5.386   5.713   6.787
 7821SOL    HW224363   5.262   5.804   6.732
 7822SOL     OW24364   1.045   0.402   4.915
 7822SOL    HW124365   1.008   0.335   4.850
 7822SOL    HW224366   1.030   0.370   5.008
 7823SOL     OW24367   1.992   3.147   5.669
 7823SOL    HW124368   2.081   3.101   5.665
 7823SOL    HW224369   2.004   3.244   5.647
 7824SOL     OW24370   5.055   2.699   3.221
 7824SOL    HW124371   5.122   2.641   3.266
 7824SOL    HW224372   5.027   2.656   3.135
 7825SOL     OW24373   3.299   3.484   2.483
 7825SOL    HW124374   3.278   3.447   2.573
 7825SOL    HW224375   3.246   3.568   2.469
 7826SOL     OW24376   6.884   0.154   0.607
 7826SOL    HW124377   6.817   0.221   0.574
 7826SOL    HW224378   6.858   0.063   0.575
 7827SOL     OW24379   5.280   4.362   1.078
 7827SOL    HW124380   5.208   4.341   1.144
 7827SOL    HW224381   5.240   4.375   0.987
 7828SOL     OW24382   0.477   6.196   1.081
 7828SOL    HW124383   0.556   6.184   1.141
 7828SOL    HW224384   0.507   6.227   0.991
 7829SOL     OW24385   4.079   3.033   1.811
 7829SOL    HW124386   4.085   3.022   1.911
 7829SOL    HW224387   4.011   2.970   1.775
 7830SOL     OW24388   5.847   2.894   6.928
 7830SOL    HW124389   5.849   2.887   0.005
 7830SOL    HW224390   5.867   2.989   6.901
 7831SOL     OW24391   1.572   2.713   6.960
 7831SOL    HW124392   1.513   2.673   6.889
 7831SOL    HW224393   1.591   2.808   6.937
 7832SOL     OW24394   2.756   2.592   5.676
 7832SOL    HW124395   2.788   2.568   5.584
 7832SOL    HW224396   2.762   2.691   5.689
 7833SOL     OW24397   0.936   6.745   0.306
 7833SOL    HW124398   0.898   6.798   0.382
 7833SOL    HW224399   1.028   6.778   0.286
 7834SOL     OW24400   0.498   0.530   1.128
 7834SOL    HW124401   0.523   0.613   1.079
 7834SOL    HW224402   0.416   0.491   1.087
 7835SOL     OW24403   2.102   2.582   5.140
 7835SOL    HW124404   2.107   2.675   5.104
 7835SOL    HW224405   2.161   2.574   5.220
 7836SOL     OW24406   1.955   6.779   0.093
 7836SOL    HW124407   1.898   6.740   0.166
 7836SOL    HW224408   1.911   6.862   0.058
 7837SOL     OW24409   6.063   0.283   2.739
 7837SOL    HW124410   6.133   0.217   2.709
 7837SOL    HW224411   5.976   0.261   2.695
 7838SOL     OW24412   3.815   0.018   3.980
 7838SOL    HW124413   3.760   6.992   4.048
 7838SOL    HW224414   3.873   0.086   4.026
 7839SOL     OW24415   6.261   4.790   4.428
 7839SOL    HW124416   6.185   4.818   4.369
 7839SOL    HW224417   6.229   4.724   4.496
 7840SOL     OW24418   5.675   3.279   5.118
 7840SOL    HW124419   5.720   3.342   5.055
 7840SOL    HW224420   5.588   3.249   5.079
 7841SOL     OW24421   1.027   1.852   6.410
 7841SOL    HW124422   1.108   1.810   6.450
 7841SOL    HW224423   0.945   1.814   6.453
 7842SOL     OW24424   2.981   0.921   2.800
 7842SOL    HW124425   3.039   0.895   2.877
 7842SOL    HW224426   2.908   0.854   2.788
 7843SOL     OW24427   5.200   3.372   0.874
 7843SOL    HW124428   5.228   3.280   0.903
 7843SOL    HW224429   5.279   3.421   0.838
 7844SOL     OW24430   4.474   1.027   3.865
 7844SOL    HW124431   4.498   1.106   3.808
 7844SOL    HW224432   4.425   0.960   3.810
 7845SOL     OW24433   6.775   1.133   4.171
 7845SOL    HW124434   6.814   1.042   4.183
 7845SOL    HW224435   6.841   1.201   4.204
 7846SOL     OW24436   3.094   6.955   2.422
 7846SOL    HW124437   3.005   6.913   2.408
 7846SOL    HW224438   3.145   6.955   2.335
 7847SOL     OW24439   6.771   0.723   0.074
 7847SOL    HW124440   6.756   0.631   0.037
 7847SOL    HW224441   6.686   0.775   0.070
 7848SOL     OW24442   4.871   4.398   1.458
 7848SOL    HW124443   4.927   4.325   1.497
 7848SOL    HW224444   4.859   4.470   1.527
 7849SOL     OW24445   6.369   3.952   4.706
 7849SOL    HW124446   6.424   3.919   4.783
 7849SOL    HW224447   6.346   3.874   4.647
 7850SOL     OW24448   1.301   0.738   4.816
 7850SOL    HW124449   1.325   0.828   4.781
 7850SOL    HW224450   1.208   0.714   4.789
 7851SOL     OW24451   5.711   6.722   7.012
 7851SOL    HW124452   5.655   6.647   0.024
 7851SOL    HW224453   5.775   6.688   6.944
 7852SOL     OW24454   2.583   5.878   0.112
 7852SOL    HW124455   2.496   5.830   0.119
 7852SOL    HW224456   2.620   5.868   0.020
 7853SOL     OW24457   2.719   3.348   0.627
 7853SOL    HW124458   2.699   3.430   0.573
 7853SOL    HW224459   2.645   3.282   0.617
 7854SOL     OW24460   3.178   4.027   2.643
 7854SOL    HW124461   3.146   3.966   2.716
 7854SOL    HW224462   3.277   4.013   2.630
 7855SOL     OW24463   4.415   6.322   5.913
 7855SOL    HW124464   4.447   6.241   5.962
 7855SOL    HW224465   4.456   6.404   5.953
 7856SOL     OW24466   4.677   3.455   6.198
 7856SOL    HW124467   4.684   3.512   6.280
 7856SOL    HW224468   4.592   3.402   6.201
 7857SOL     OW24469   0.002   1.529   5.585
 7857SOL    HW124470   0.017   1.575   5.498
 7857SOL    HW224471   6.964   1.451   5.571
 7858SOL     OW24472   6.054   3.890   3.087
 7858SOL    HW124473   6.019   3.982   3.070
 7858SOL    HW224474   6.104   3.858   3.006
 7859SOL     OW24475   1.236   5.707   0.078
 7859SOL    HW124476   1.166   5.638   0.057
 7859SOL    HW224477   1.282   5.682   0.163
 7860SOL     OW24478   4.045   6.966   2.027
 7860SOL    HW124479   4.082   6.874   2.009
 7860SOL    HW224480   3.950   6.969   1.998
 7861SOL     OW24481   4.825   4.435   0.518
 7861SOL    HW124482   4.915   4.425   0.560
 7861SOL    HW224483   4.806   4.356   0.460
 7862SOL     OW24484   3.099   4.649   1.785
 7862SOL    HW124485   3.124   4.721   1.850
 7862SOL    HW224486   3.015   4.605   1.815
 7863SOL     OW24487   6.762   5.583   1.869
 7863SOL    HW124488   6.736   5.676   1.844
 7863SOL    HW224489   6.847   5.585   1.922
 7864SOL     OW24490   0.583   5.443   4.773
 7864SOL    HW124491   0.529   5.362   4.747
 7864SOL    HW224492   0.533   5.526   4.745
 7865SOL     OW24493   3.583   0.126   3.128
 7865SOL    HW124494   3.563   0.125   3.226
 7865SOL    HW224495   3.657   0.062   3.108
 7866SOL     OW24496   2.874   2.279   4.186
 7866SOL    HW124497   2.971   2.286   4.162
 7866SOL    HW224498   2.865   2.263   4.284
 7867SOL     OW24499   5.763   4.238   1.913
 7867SOL    HW124500   5.722   4.218   1.825
 7867SOL    HW224501   5.813   4.158   1.946
 7868SOL     OW24502   5.421   6.856   0.528
 7868SOL    HW124503   5.410   6.791   0.454
 7868SOL    HW224504   5.512   6.896   0.525
 7869SOL     OW24505   0.348   3.366   2.045
 7869SOL    HW124506   0.252   3.394   2.042
 7869SOL    HW224507   0.372   3.316   1.962
 7870SOL     OW24508   6.995   6.000   4.063
 7870SOL    HW124509   6.970   5.973   3.970
 7870SOL    HW224510   6.942   6.082   4.088
 7871SOL     OW24511   5.122   2.991   3.149
 7871SOL    HW124512   5.044   3.004   3.088
 7871SOL    HW224513   5.100   2.920   3.216
 7872SOL     OW24514   6.782   3.169   3.087
 7872SOL    HW124515   6.773   3.249   3.027
 7872SOL    HW224516   6.862   3.180   3.146
 7873SOL     OW24517   0.155   4.944   5.370
 7873SOL    HW124518   0.202   5.015   5.423
 7873SOL    HW224519   0.057   4.958   5.376
 7874SOL     OW24520   5.725   1.204   0.527
 7874SOL    HW124521   5.684   1.128   0.476
 7874SOL    HW224522   5.653   1.266   0.558
 7875SOL     OW24523   4.367   2.812   0.024
 7875SOL    HW124524   4.276   2.779   0.047
 7875SOL    HW224525   4.412   2.746   6.986
 7876SOL     OW24526   6.504   0.671   3.987
 7876SOL    HW124527   6.540   0.737   3.921
 7876SOL    HW224528   6.434   0.615   3.943
 7877SOL     OW24529   0.073   2.173   2.553
 7877SOL    HW124530   0.056   2.263   2.512
 7877SOL    HW224531   0.040   2.102   2.491
 7878SOL     OW24532   4.723   4.111   1.592
 7878SOL    HW124533   4.703   4.209   1.594
 7878SOL    HW224534   4.637   4.060   1.599
 7879SOL     OW24535   5.350   0.415   4.009
 7879SOL    HW124536   5.345   0.358   3.926
 7879SOL    HW224537   5.443   0.413   4.045
 7880SOL     OW24538   0.600   0.151   6.617
 7880SOL    HW124539   0.529   0.146   6.688
 7880SOL    HW224540   0.576   0.089   6.542
 7881SOL     OW24541   0.148   4.912   4.268
 7881SOL    HW124542   0.247   4.902   4.284
 7881SOL    HW224543   0.133   4.950   4.177
 7882SOL     OW24544   0.011   4.022   2.317
 7882SOL    HW124545   0.031   4.118   2.335
 7882SOL    HW224546   0.012   3.971   2.403
 7883SOL     OW24547   3.340   1.507   4.261
 7883SOL    HW124548   3.293   1.573   4.203
 7883SOL    HW224549   3.275   1.464   4.323
 7884SOL     OW24550   0.373   3.768   4.094
 7884SOL    HW124551   0.292   3.729   4.137
 7884SOL    HW224552   0.347   3.814   4.009
 7885SOL     OW24553   6.013   5.534   3.168
 7885SOL    HW124554   5.976   5.595   3.239
 7885SOL    HW224555   5.974   5.558   3.080
 7886SOL     OW24556   4.835   3.087   2.611
 7886SOL    HW124557   4.819   3.185   2.602
 7886SOL    HW224558   4.854   3.048   2.521
 7887SOL     OW24559   2.307   3.162   1.072
 7887SOL    HW124560   2.352   3.246   1.044
 7887SOL    HW224561   2.306   3.097   0.995
 7888SOL     OW24562   5.521   2.089   4.579
 7888SOL    HW124563   5.610   2.075   4.537
 7888SOL    HW224564   5.532   2.138   4.665
 7889SOL     OW24565   5.961   5.442   0.538
 7889SOL    HW124566   5.865   5.437   0.565
 7889SOL    HW224567   5.979   5.374   0.467
 7890SOL     OW24568   1.582   3.354   4.724
 7890SOL    HW124569   1.619   3.273   4.678
 7890SOL    HW224570   1.656   3.419   4.743
 7891SOL     OW24571   0.553   1.568   4.439
 7891SOL    HW124572   0.595   1.491   4.487
 7891SOL    HW224573   0.602   1.583   4.353
 7892SOL     OW24574   0.614   2.584   5.452
 7892SOL    HW124575   0.542   2.568   5.385
 7892SOL    HW224576   0.679   2.651   5.417
 7893SOL     OW24577   6.295   0.833   0.528
 7893SOL    HW124578   6.263   0.927   0.540
 7893SOL    HW224579   6.240   0.771   0.586
 7894SOL     OW24580   3.339   1.354   6.434
 7894SOL    HW124581   3.364   1.265   6.472
 7894SOL    HW224582   3.410   1.421   6.457
 7895SOL     OW24583   4.314   6.542   3.979
 7895SOL    HW124584   4.332   6.611   3.909
 7895SOL    HW224585   4.216   6.542   4.000
 7896SOL     OW24586   2.894   2.125   1.102
 7896SOL    HW124587   2.978   2.108   1.153
 7896SOL    HW224588   2.914   2.180   1.021
 7897SOL     OW24589   3.718   3.701   0.026
 7897SOL    HW124590   3.749   3.660   6.963
 7897SOL    HW224591   3.639   3.650   0.060
 7898SOL     OW24592   5.313   0.520   3.550
 7898SOL    HW124593   5.407   0.507   3.582
 7898SOL    HW224594   5.282   0.612   3.574
 7899SOL     OW24595   5.548   4.208   2.384
 7899SOL    HW124596   5.626   4.233   2.327
 7899SOL    HW224597   5.521   4.286   2.440
 7900SOL     OW24598   0.121   4.326   1.266
 7900SOL    HW124599   0.124   4.226   1.258
 7900SOL    HW224600   0.198   4.357   1.321
 7901SOL     OW24601   6.266   1.403   5.943
 7901SOL    HW124602   6.305   1.428   5.855
 7901SOL    HW224603   6.237   1.307   5.940
 7902SOL     OW24604   0.714   6.244   3.236
 7902SOL    HW124605   0.796   6.246   3.179
 7902SOL    HW224606   0.650   6.176   3.200
 7903SOL     OW24607   2.626   2.453   5.251
 7903SOL    HW124608   2.718   2.476   5.282
 7903SOL    HW224609   2.631   2.413   5.160
 7904SOL     OW24610   5.002   0.780   2.192
 7904SOL    HW124611   5.006   0.681   2.181
 7904SOL    HW224612   5.020   0.825   2.105
 7905SOL     OW24613   5.552   0.708   0.723
 7905SOL    HW124614   5.513   0.777   0.662
 7905SOL    HW224615   5.648   0.694   0.701
 7906SOL     OW24616   2.084   5.524   0.662
 7906SOL    HW124617   2.040   5.581   0.731
 7906SOL    HW224618   2.016   5.466   0.618
 7907SOL     OW24619   6.490   0.005   2.806
 7907SOL    HW124620   6.440   0.091   2.811
 7907SOL    HW224621   6.439   6.957   2.856
 7908SOL     OW24622   0.448   0.377   6.865
 7908SOL    HW124623   0.532   0.410   6.909
 7908SOL    HW224624   0.440   0.279   6.880
 7909SOL     OW24625   5.599   4.352   2.112
 7909SOL    HW124626   5.674   4.364   2.177
 7909SOL    HW224627   5.634   4.317   2.026
 7910SOL     OW24628   1.845   3.201   0.278
 7910SOL    HW124629   1.819   3.285   0.325
 7910SOL    HW224630   1.878   3.223   0.186
 7911SOL     OW24631   0.475   3.910   1.065
 7911SOL    HW124632   0.442   4.003   1.048
 7911SOL    HW224633   0.433   3.875   1.149
 7912SOL     OW24634   5.735   5.761   0.797
 7912SOL    HW124635   5.696   5.775   0.706
 7912SOL    HW224636   5.835   5.753   0.789
 7913SOL     OW24637   0.691   3.762   1.024
 7913SOL    HW124638   0.612   3.823   1.035
 7913SOL    HW224639   0.676   3.679   1.078
 7914SOL     OW24640   6.491   5.555   4.988
 7914SOL    HW124641   6.554   5.630   5.009
 7914SOL    HW224642   6.538   5.487   4.932
 7915SOL     OW24643   3.697   6.520   2.670
 7915SOL    HW124644   3.619   6.572   2.636
 7915SOL    HW224645   3.669   6.466   2.750
 7916SOL     OW24646   1.812   0.401   4.159
 7916SOL    HW124647   1.909   0.402   4.133
 7916SOL    HW224648   1.762   0.339   4.098
 7917SOL     OW24649   4.077   3.342   0.963
 7917SOL    HW124650   4.096   3.266   1.025
 7917SOL    HW224651   3.979   3.361   0.963
 7918SOL     OW24652   2.328   1.484   4.629
 7918SOL    HW124653   2.268   1.542   4.684
 7918SOL    HW224654   2.393   1.438   4.689
 7919SOL     OW24655   1.686   5.980   2.706
 7919SOL    HW124656   1.757   5.921   2.666
 7919SOL    HW224657   1.704   6.075   2.682
 7920SOL     OW24658   4.969   6.738   0.916
 7920SOL    HW124659   4.963   6.831   0.954
 7920SOL    HW224660   4.885   6.716   0.867
 7921SOL     OW24661   5.147   1.457   1.831
 7921SOL    HW124662   5.242   1.463   1.802
 7921SOL    HW224663   5.141   1.413   1.920
 7922SOL     OW24664   0.894   6.167   1.299
 7922SOL    HW124665   0.980   6.137   1.340
 7922SOL    HW224666   0.895   6.147   1.201
 7923SOL     OW24667   4.069   1.898   0.318
 7923SOL    HW124668   4.069   1.945   0.406
 7923SOL    HW224669   4.018   1.812   0.326
 7924SOL     OW24670   6.405   0.015   0.441
 7924SOL    HW124671   6.348   0.095   0.426
 7924SOL    HW224672   6.426   0.006   0.538
 7925SOL     OW24673   2.059   6.625   0.469
 7925SOL    HW124674   2.084   6.566   0.392
 7925SOL    HW224675   2.067   6.573   0.554
 7926SOL     OW24676   4.421   5.508   6.759
 7926SOL    HW124677   4.510   5.501   6.803
 7926SOL    HW224678   4.426   5.471   6.666
 7927SOL     OW24679   4.745   0.105   1.751
 7927SOL    HW124680   4.731   0.015   1.709
 7927SOL    HW224681   4.746   0.096   1.850
 7928SOL     OW24682   6.744   1.197   3.378
 7928SOL    HW124683   6.791   1.109   3.376
 7928SOL    HW224684   6.729   1.230   3.285
 7929SOL     OW24685   3.522   4.578   5.635
 7929SOL    HW124686   3.495   4.536   5.549
 7929SOL    HW224687   3.534   4.507   5.705
 7930SOL     OW24688   4.449   6.031   5.560
 7930SOL    HW124689   4.488   6.121   5.580
 7930SOL    HW224690   4.350   6.038   5.549
 7931SOL     OW24691   3.551   2.282   0.304
 7931SOL    HW124692   3.627   2.264   0.367
 7931SOL    HW224693   3.493   2.200   0.299
 7932SOL     OW24694   1.350   5.507   2.446
 7932SOL    HW124695   1.433   5.491   2.392
 7932SOL    HW224696   1.309   5.420   2.470
 7933SOL     OW24697   0.331   0.990   6.486
 7933SOL    HW124698   0.274   0.995   6.404
 7933SOL    HW224699   0.320   0.901   6.529
 7934SOL     OW24700   0.929   4.518   0.727
 7934SOL    HW124701   1.000   4.506   0.796
 7934SOL    HW224702   0.957   4.473   0.642
 7935SOL     OW24703   5.183   3.209   3.299
 7935SOL    HW124704   5.098   3.208   3.352
 7935SOL    HW224705   5.177   3.141   3.226
 7936SOL     OW24706   2.889   6.124   4.413
 7936SOL    HW124707   2.941   6.203   4.380
 7936SOL    HW224708   2.839   6.083   4.336
 7937SOL     OW24709   3.113   6.959   0.032
 7937SOL    HW124710   3.167   7.005   6.984
 7937SOL    HW224711   3.090   6.867   0.002
 7938SOL     OW24712   3.459   6.561   4.715
 7938SOL    HW124713   3.485   6.642   4.769
 7938SOL    HW224714   3.421   6.492   4.776
 7939SOL     OW24715   0.482   1.682   4.148
 7939SOL    HW124716   0.412   1.662   4.217
 7939SOL    HW224717   0.447   1.656   4.058
 7940SOL     OW24718   4.954   0.919   3.199
 7940SOL    HW124719   5.005   1.004   3.212
 7940SOL    HW224720   5.007   0.843   3.237
 7941SOL     OW24721   3.931   6.875   1.664
 7941SOL    HW124722   4.007   6.938   1.678
 7941SOL    HW224723   3.884   6.860   1.751
 7942SOL     OW24724   1.593   4.700   1.377
 7942SOL    HW124725   1.581   4.740   1.468
 7942SOL    HW224726   1.689   4.708   1.350
 7943SOL     OW24727   1.375   6.044   6.275
 7943SOL    HW124728   1.394   6.005   6.184
 7943SOL    HW224729   1.295   5.998   6.314
 7944SOL     OW24730   1.920   2.902   0.727
 7944SOL    HW124731   1.873   2.989   0.710
 7944SOL    HW224732   1.853   2.828   0.728
 7945SOL     OW24733   5.561   4.432   2.897
 7945SOL    HW124734   5.581   4.377   2.816
 7945SOL    HW224735   5.495   4.503   2.874
 7946SOL     OW24736   4.071   1.380   5.800
 7946SOL    HW124737   4.018   1.404   5.719
 7946SOL    HW224738   4.026   1.304   5.848
 7947SOL     OW24739   1.047   3.302   5.464
 7947SOL    HW124740   1.110   3.230   5.435
 7947SOL    HW224741   1.017   3.354   5.383
 7948SOL     OW24742   1.032   4.820   2.199
 7948SOL    HW124743   1.128   4.827   2.170
 7948SOL    HW224744   1.001   4.726   2.188
 7949SOL     OW24745   3.386   5.407   6.596
 7949SOL    HW124746   3.339   5.326   6.559
 7949SOL    HW224747   3.343   5.490   6.561
 7950SOL     OW24748   5.467   5.313   5.258
 7950SOL    HW124749   5.442   5.271   5.170
 7950SOL    HW224750   5.414   5.270   5.331
 7951SOL     OW24751   2.911   5.462   3.134
 7951SOL    HW124752   2.890   5.373   3.093
 7951SOL    HW224753   2.901   5.457   3.233
 7952SOL     OW24754   5.088   3.141   0.055
 7952SOL    HW124755   5.138   3.055   0.043
 7952SOL    HW224756   5.153   3.216   0.069
 7953SOL     OW24757   2.720   0.890   0.827
 7953SOL    HW124758   2.697   0.930   0.916
 7953SOL    HW224759   2.819   0.876   0.822
 7954SOL     OW24760   3.481   2.962   6.722
 7954SOL    HW124761   3.462   2.865   6.730
 7954SOL    HW224762   3.473   2.990   6.626
 7955SOL     OW24763   1.735   0.995   6.757
 7955SOL    HW124764   1.653   0.939   6.774
 7955SOL    HW224765   1.783   0.960   6.677
 7956SOL     OW24766   6.427   6.145   1.324
 7956SOL    HW124767   6.414   6.103   1.414
 7956SOL    HW224768   6.479   6.230   1.335
 7957SOL     OW24769   4.489   0.521   5.577
 7957SOL    HW124770   4.553   0.447   5.558
 7957SOL    HW224771   4.476   0.530   5.675
 7958SOL     OW24772   5.810   2.387   0.525
 7958SOL    HW124773   5.779   2.435   0.443
 7958SOL    HW224774   5.788   2.290   0.517
 7959SOL     OW24775   5.842   1.638   6.230
 7959SOL    HW124776   5.894   1.697   6.169
 7959SOL    HW224777   5.744   1.655   6.217
 7960SOL     OW24778   0.439   0.456   5.630
 7960SOL    HW124779   0.482   0.535   5.674
 7960SOL    HW224780   0.366   0.487   5.569
 7961SOL     OW24781   0.025   0.354   0.235
 7961SOL    HW124782   7.009   0.445   0.254
 7961SOL    HW224783   0.016   0.297   0.316
 7962SOL     OW24784   5.581   6.872   5.793
 7962SOL    HW124785   5.614   6.890   5.700
 7962SOL    HW224786   5.658   6.846   5.851
 7963SOL     OW24787   0.284   4.903   5.129
 7963SOL    HW124788   0.238   4.848   5.059
 7963SOL    HW224789   0.227   4.906   5.211
 7964SOL     OW24790   6.083   3.850   2.486
 7964SOL    HW124791   6.055   3.945   2.469
 7964SOL    HW224792   6.032   3.814   2.564
 7965SOL     OW24793   3.625   1.896   6.474
 7965SOL    HW124794   3.710   1.845   6.490
 7965SOL    HW224795   3.643   1.974   6.414
 7966SOL     OW24796   4.864   3.956   5.074
 7966SOL    HW124797   4.782   3.977   5.128
 7966SOL    HW224798   4.871   3.857   5.061
 7967SOL     OW24799   1.283   4.474   2.607
 7967SOL    HW124800   1.359   4.504   2.666
 7967SOL    HW224801   1.197   4.489   2.655
 7968SOL     OW24802   6.428   2.559   4.439
 7968SOL    HW124803   6.513   2.558   4.492
 7968SOL    HW224804   6.365   2.625   4.479
 7969SOL     OW24805   4.647   5.406   6.868
 7969SOL    HW124806   4.708   5.400   6.947
 7969SOL    HW224807   4.597   5.320   6.859
 7970SOL     OW24808   5.925   2.832   2.597
 7970SOL    HW124809   5.910   2.913   2.540
 7970SOL    HW224810   6.022   2.826   2.622
 7971SOL     OW24811   2.571   0.920   0.124
 7971SOL    HW124812   2.508   0.933   0.201
 7971SOL    HW224813   2.643   0.990   0.128
 7972SOL     OW24814   3.759   3.651   3.328
 7972SOL    HW124815   3.746   3.651   3.427
 7972SOL    HW224816   3.812   3.732   3.302
 7973SOL     OW24817   6.854   3.815   2.916
 7973SOL    HW124818   6.916   3.739   2.936
 7973SOL    HW224819   6.907   3.893   2.883
 7974SOL     OW24820   6.519   2.393   5.716
 7974SOL    HW124821   6.520   2.293   5.712
 7974SOL    HW224822   6.460   2.422   5.791
 7975SOL     OW24823   5.122   0.345   1.126
 7975SOL    HW124824   5.207   0.344   1.178
 7975SOL    HW224825   5.059   0.413   1.165
 7976SOL     OW24826   0.845   0.215   6.675
 7976SOL    HW124827   0.854   0.283   6.603
 7976SOL    HW224828   0.753   0.175   6.672
 7977SOL     OW24829   5.811   6.004   2.597
 7977SOL    HW124830   5.793   5.927   2.658
 7977SOL    HW224831   5.809   6.089   2.649
 7978SOL     OW24832   0.012   4.188   0.737
 7978SOL    HW124833   6.950   4.241   0.722
 7978SOL    HW224834   0.082   4.248   0.775
 7979SOL     OW24835   1.590   2.979   4.802
 7979SOL    HW124836   1.511   3.038   4.787
 7979SOL    HW224837   1.562   2.883   4.799
 7980SOL     OW24838   4.073   5.465   6.726
 7980SOL    HW124839   4.160   5.443   6.683
 7980SOL    HW224840   4.015   5.384   6.730
 7981SOL     OW24841   1.379   4.438   3.024
 7981SOL    HW124842   1.328   4.420   2.940
 7981SOL    HW224843   1.458   4.377   3.029
 7982SOL     OW24844   0.169   1.904   5.539
 7982SOL    HW124845   0.142   1.961   5.461
 7982SOL    HW224846   0.186   1.962   5.618
 7983SOL     OW24847   4.871   1.048   2.098
 7983SOL    HW124848   4.864   0.950   2.118
 7983SOL    HW224849   4.788   1.079   2.051
 7984SOL     OW24850   1.002   2.013   2.169
 7984SOL    HW124851   1.088   2.044   2.210
 7984SOL    HW224852   0.977   1.925   2.208
 7985SOL     OW24853   2.612   2.063   5.426
 7985SOL    HW124854   2.612   2.161   5.445
 7985SOL    HW224855   2.680   2.018   5.483
 7986SOL     OW24856   2.708   1.240   3.792
 7986SOL    HW124857   2.676   1.244   3.887
 7986SOL    HW224858   2.676   1.155   3.750
 7987SOL     OW24859   1.158   3.367   0.566
 7987SOL    HW124860   1.153   3.383   0.665
 7987SOL    HW224861   1.225   3.428   0.525
 7988SOL     OW24862   0.167   1.598   0.470
 7988SOL    HW124863   0.147   1.503   0.494
 7988SOL    HW224864   0.184   1.651   0.553
 7989SOL     OW24865   0.826   4.729   0.357
 7989SOL    HW124866   0.731   4.718   0.329
 7989SOL    HW224867   0.835   4.810   0.416
 7990SOL     OW24868   3.087   5.104   5.444
 7990SOL    HW124869   3.073   5.043   5.366
 7990SOL    HW224870   3.005   5.159   5.458
 7991SOL     OW24871   6.264   1.951   4.418
 7991SOL    HW124872   6.290   1.884   4.487
 7991SOL    HW224873   6.168   1.936   4.392
 7992SOL     OW24874   2.923   0.640   0.667
 7992SOL    HW124875   2.832   0.599   0.677
 7992SOL    HW224876   2.936   0.709   0.739
 7993SOL     OW24877   6.546   6.029   0.722
 7993SOL    HW124878   6.524   6.020   0.819
 7993SOL    HW224879   6.564   6.125   0.701
 7994SOL     OW24880   5.484   0.383   3.059
 7994SOL    HW124881   5.423   0.438   3.116
 7994SOL    HW224882   5.500   0.429   2.972
 7995SOL     OW24883   7.006   4.590   1.421
 7995SOL    HW124884   0.032   4.600   1.507
 7995SOL    HW224885   6.959   4.502   1.420
 7996SOL     OW24886   3.360   0.703   2.657
 7996SOL    HW124887   3.415   0.684   2.738
 7996SOL    HW224888   3.356   0.801   2.641
 7997SOL     OW24889   0.439   2.588   0.507
 7997SOL    HW124890   0.416   2.634   0.421
 7997SOL    HW224891   0.499   2.511   0.488
 7998SOL     OW24892   2.414   0.956   0.394
 7998SOL    HW124893   2.478   0.937   0.468
 7998SOL    HW224894   2.331   0.901   0.407
 7999SOL     OW24895   0.952   0.659   5.332
 7999SOL    HW124896   1.027   0.603   5.298
 7999SOL    HW224897   0.930   0.730   5.265
 8000SOL     OW24898   5.512   5.453   0.130
 8000SOL    HW124899   5.470   5.476   0.042
 8000SOL    HW224900   5.508   5.532   0.190
 8001SOL     OW24901   4.958   6.528   1.111
 8001SOL    HW124902   4.969   6.570   1.201
 8001SOL    HW224903   4.950   6.599   1.042
 8002SOL     OW24904   1.052   7.010   5.390
 8002SOL    HW124905   1.061   6.979   5.485
 8002SOL    HW224906   1.143   7.014   5.348
 8003SOL     OW24907   2.806   6.692   2.894
 8003SOL    HW124908   2.868   6.661   2.966
 8003SOL    HW224909   2.821   6.789   2.877
 8004SOL     OW24910   1.447   3.170   3.638
 8004SOL    HW124911   1.411   3.077   3.635
 8004SOL    HW224912   1.376   3.232   3.671
 8005SOL     OW24913   2.721   0.767   3.446
 8005SOL    HW124914   2.730   0.673   3.414
 8005SOL    HW224915   2.659   0.817   3.385
 8006SOL     OW24916   3.443   4.487   5.345
 8006SOL    HW124917   3.428   4.583   5.319
 8006SOL    HW224918   3.540   4.465   5.338
 8007SOL     OW24919   6.245   0.969   6.865
 8007SOL    HW124920   6.172   1.010   6.811
 8007SOL    HW224921   6.241   1.005   6.958
 8008SOL     OW24922   5.090   6.724   5.755
 8008SOL    HW124923   5.160   6.667   5.710
 8008SOL    HW224924   5.125   6.755   5.843
 8009SOL     OW24925   5.051   1.226   0.078
 8009SOL    HW124926   5.109   1.307   0.071
 8009SOL    HW224927   5.108   1.144   0.089
 8010SOL     OW24928   2.638   2.316   5.522
 8010SOL    HW124929   2.594   2.358   5.601
 8010SOL    HW224930   2.656   2.386   5.452
 8011SOL     OW24931   3.990   1.951   2.206
 8011SOL    HW124932   4.072   1.910   2.168
 8011SOL    HW224933   3.914   1.886   2.201
 8012SOL     OW24934   1.074   2.630   5.281
 8012SOL    HW124935   1.068   2.667   5.374
 8012SOL    HW224936   0.982   2.607   5.248
 8013SOL     OW24937   2.274   2.756   2.663
 8013SOL    HW124938   2.207   2.732   2.733
 8013SOL    HW224939   2.332   2.678   2.643
 8014SOL     OW24940   1.737   1.158   2.743
 8014SOL    HW124941   1.805   1.220   2.703
 8014SOL    HW224942   1.751   1.065   2.708
 8015SOL     OW24943   2.010   6.771   5.467
 8015SOL    HW124944   1.987   6.682   5.506
 8015SOL    HW224945   1.972   6.778   5.375
 8016SOL     OW24946   4.431   1.657   4.536
 8016SOL    HW124947   4.485   1.622   4.613
 8016SOL    HW224948   4.381   1.581   4.495
 8017SOL     OW24949   6.463   6.930   0.685
 8017SOL    HW124950   6.456   6.914   0.783
 8017SOL    HW224951   6.543   6.881   0.649
 8018SOL     OW24952   4.532   2.152   0.273
 8018SOL    HW124953   4.630   2.170   0.271
 8018SOL    HW224954   4.502   2.118   0.184
 8019SOL     OW24955   2.760   3.201   1.493
 8019SOL    HW124956   2.685   3.258   1.526
 8019SOL    HW224957   2.724   3.126   1.438
 8020SOL     OW24958   0.259   0.155   5.230
 8020SOL    HW124959   0.199   0.226   5.269
 8020SOL    HW224960   0.261   0.163   5.131
 8021SOL     OW24961   1.383   2.454   2.317
 8021SOL    HW124962   1.344   2.414   2.234
 8021SOL    HW224963   1.401   2.551   2.302
 8022SOL     OW24964   4.422   1.481   1.832
 8022SOL    HW124965   4.402   1.560   1.775
 8022SOL    HW224966   4.465   1.510   1.918
 8023SOL     OW24967   4.172   6.270   3.366
 8023SOL    HW124968   4.266   6.281   3.332
 8023SOL    HW224969   4.173   6.216   3.450
 8024SOL     OW24970   2.137   6.601   6.440
 8024SOL    HW124971   2.095   6.667   6.377
 8024SOL    HW224972   2.227   6.574   6.406
 8025SOL     OW24973   1.767   5.001   1.315
 8025SOL    HW124974   1.669   4.988   1.322
 8025SOL    HW224975   1.813   4.912   1.319
 8026SOL     OW24976   1.128   5.735   6.678
 8026SOL    HW124977   1.218   5.745   6.721
 8026SOL    HW224978   1.109   5.638   6.663
 8027SOL     OW24979   3.602   0.053   0.125
 8027SOL    HW124980   3.529   7.019   0.163
 8027SOL    HW224981   3.613   0.032   0.028
 8028SOL     OW24982   2.808   5.654   5.185
 8028SOL    HW124983   2.872   5.579   5.196
 8028SOL    HW224984   2.722   5.619   5.146
 8029SOL     OW24985   6.362   0.290   0.645
 8029SOL    HW124986   6.323   0.272   0.554
 8029SOL    HW224987   6.288   0.295   0.712
 8030SOL     OW24988   0.123   3.997   0.575
 8030SOL    HW124989   0.090   4.067   0.638
 8030SOL    HW224990   0.094   3.907   0.608
 8031SOL     OW24991   6.635   1.187   2.347
 8031SOL    HW124992   6.695   1.175   2.426
 8031SOL    HW224993   6.638   1.105   2.290
 8032SOL     OW24994   5.363   2.666   1.568
 8032SOL    HW124995   5.442   2.654   1.628
 8032SOL    HW224996   5.294   2.722   1.613
 8033SOL     OW24997   4.230   3.811   0.878
 8033SOL    HW124998   4.162   3.795   0.807
 8033SOL    HW224999   4.261   3.723   0.916
 8034SOL     OW25000   5.664   0.535   5.490
 8034SOL    HW125001   5.589   0.601   5.489
 8034SOL    HW225002   5.690   0.513   5.396
 8035SOL     OW25003   5.752   1.716   2.717
 8035SOL    HW125004   5.682   1.743   2.651
 8035SOL    HW225005   5.806   1.796   2.743
 8036SOL     OW25006   6.489   2.646   3.680
 8036SOL    HW125007   6.500   2.698   3.595
 8036SOL    HW225008   6.437   2.562   3.661
 8037SOL     OW25009   1.212   2.490   6.047
 8037SOL    HW125010   1.172   2.424   5.984
 8037SOL    HW225011   1.211   2.453   6.140
 8038SOL     OW25012   0.067   5.750   2.581
 8038SOL    HW125013   7.009   5.753   2.523
 8038SOL    HW225014   0.063   5.825   2.647
 8039SOL     OW25015   0.881   2.264   5.599
 8039SOL    HW125016   0.869   2.239   5.503
 8039SOL    HW225017   0.793   2.259   5.646
 8040SOL     OW25018   2.082   5.842   6.460
 8040SOL    HW125019   2.050   5.936   6.463
 8040SOL    HW225020   2.107   5.812   6.552
 8041SOL     OW25021   3.267   1.248   3.196
 8041SOL    HW125022   3.340   1.180   3.194
 8041SOL    HW225023   3.186   1.209   3.239
 8042SOL     OW25024   3.935   4.292   5.418
 8042SOL    HW125025   3.898   4.264   5.330
 8042SOL    HW225026   3.923   4.218   5.485
 8043SOL     OW25027   5.455   5.048   0.366
 8043SOL    HW125028   5.407   4.969   0.328
 8043SOL    HW225029   5.447   5.125   0.304
 8044SOL     OW25030   3.337   4.094   1.689
 8044SOL    HW125031   3.349   3.996   1.701
 8044SOL    HW225032   3.426   4.140   1.697
 8045SOL     OW25033   0.468   1.339   2.698
 8045SOL    HW125034   0.490   1.402   2.773
 8045SOL    HW225035   0.439   1.390   2.618
 8046SOL     OW25036   0.679   5.289   2.008
 8046SOL    HW125037   0.677   5.202   1.959
 8046SOL    HW225038   0.765   5.297   2.059
 8047SOL     OW25039   4.121   6.624   5.929
 8047SOL    HW125040   4.198   6.604   5.989
 8047SOL    HW225041   4.044   6.565   5.953
 8048SOL     OW25042   3.545   3.200   0.172
 8048SOL    HW125043   3.637   3.215   0.208
 8048SOL    HW225044   3.519   3.104   0.185
 8049SOL     OW25045   1.710   1.120   0.725
 8049SOL    HW125046   1.619   1.090   0.696
 8049SOL    HW225047   1.779   1.054   0.694
 8050SOL     OW25048   1.320   4.600   5.819
 8050SOL    HW125049   1.235   4.582   5.867
 8050SOL    HW225050   1.383   4.524   5.833
 8051SOL     OW25051   3.362   5.515   3.817
 8051SOL    HW125052   3.392   5.608   3.796
 8051SOL    HW225053   3.314   5.515   3.905
 8052SOL     OW25054   2.130   2.881   2.200
 8052SOL    HW125055   2.130   2.830   2.286
 8052SOL    HW225056   2.206   2.851   2.142
 8053SOL     OW25057   2.463   2.638   6.474
 8053SOL    HW125058   2.560   2.617   6.463
 8053SOL    HW225059   2.416   2.627   6.387
 8054SOL     OW25060   5.396   4.050   5.109
 8054SOL    HW125061   5.426   4.145   5.109
 8054SOL    HW225062   5.300   4.045   5.080
 8055SOL     OW25063   0.014   0.409   5.357
 8055SOL    HW125064   6.946   0.405   5.399
 8055SOL    HW225065   0.061   0.493   5.387
 8056SOL     OW25066   2.308   1.141   4.599
 8056SOL    HW125067   2.215   1.109   4.620
 8056SOL    HW225068   2.372   1.104   4.667
 8057SOL     OW25069   2.475   2.587   2.102
 8057SOL    HW125070   2.509   2.541   2.020
 8057SOL    HW225071   2.551   2.633   2.149
 8058SOL     OW25072   3.062   6.778   3.020
 8058SOL    HW125073   3.034   6.717   3.094
 8058SOL    HW225074   3.159   6.765   2.999
 8059SOL     OW25075   2.722   3.056   6.266
 8059SOL    HW125076   2.810   3.014   6.243
 8059SOL    HW225077   2.655   2.984   6.285
 8060SOL     OW25078   6.407   0.039   5.505
 8060SOL    HW125079   6.499   7.022   5.497
 8060SOL    HW225080   6.339   6.988   5.502
 8061SOL     OW25081   0.158   1.059   1.810
 8061SOL    HW125082   0.166   0.982   1.747
 8061SOL    HW225083   0.073   1.050   1.862
 8062SOL     OW25084   4.644   5.918   5.392
 8062SOL    HW125085   4.676   6.011   5.370
 8062SOL    HW225086   4.566   5.923   5.454
 8063SOL     OW25087   3.411   6.258   3.013
 8063SOL    HW125088   3.428   6.179   3.072
 8063SOL    HW225089   3.312   6.270   3.002
 8064SOL     OW25090   6.003   1.975   0.377
 8064SOL    HW125091   6.064   1.904   0.341
 8064SOL    HW225092   5.973   1.949   0.468
 8065SOL     OW25093   3.206   5.830   5.081
 8065SOL    HW125094   3.227   5.879   5.166
 8065SOL    HW225095   3.288   5.823   5.025
 8066SOL     OW25096   0.569   0.022   4.526
 8066SOL    HW125097   0.660   7.018   4.559
 8066SOL    HW225098   0.543   6.985   4.451
 8067SOL     OW25099   4.911   3.214   3.398
 8067SOL    HW125100   4.923   3.186   3.493
 8067SOL    HW225101   4.920   3.313   3.391
 8068SOL     OW25102   6.513   4.073   1.356
 8068SOL    HW125103   6.475   4.029   1.275
 8068SOL    HW225104   6.599   4.029   1.381
 8069SOL     OW25105   2.447   4.399   2.391
 8069SOL    HW125106   2.458   4.432   2.485
 8069SOL    HW225107   2.483   4.468   2.328
 8070SOL     OW25108   5.172   4.998   0.034
 8070SOL    HW125109   5.118   5.045   0.104
 8070SOL    HW225110   5.188   5.060   6.979
 8071SOL     OW25111   3.206   6.293   5.823
 8071SOL    HW125112   3.242   6.219   5.880
 8071SOL    HW225113   3.106   6.285   5.817
 8072SOL     OW25114   1.903   2.667   6.296
 8072SOL    HW125115   1.890   2.716   6.209
 8072SOL    HW225116   1.923   2.733   6.368
 8073SOL     OW25117   3.678   0.076   6.300
 8073SOL    HW125118   3.611   0.031   6.240
 8073SOL    HW225119   3.714   0.009   6.365
 8074SOL     OW25120   1.298   1.484   6.850
 8074SOL    HW125121   1.353   1.408   6.885
 8074SOL    HW225122   1.254   1.532   6.927
 8075SOL     OW25123   0.533   6.474   0.452
 8075SOL    HW125124   0.596   6.512   0.383
 8075SOL    HW225125   0.547   6.375   0.458
 8076SOL     OW25126   6.832   6.439   0.295
 8076SOL    HW125127   6.858   6.365   0.357
 8076SOL    HW225128   6.904   6.509   0.295
 8077SOL     OW25129   4.236   5.338   0.903
 8077SOL    HW125130   4.266   5.434   0.906
 8077SOL    HW225131   4.171   5.326   0.829
 8078SOL     OW25132   0.777   0.664   1.888
 8078SOL    HW125133   0.856   0.657   1.949
 8078SOL    HW225134   0.755   0.760   1.871
 8079SOL     OW25135   1.526   2.244   4.905
 8079SOL    HW125136   1.545   2.298   4.987
 8079SOL    HW225137   1.611   2.201   4.873
 8080SOL     OW25138   0.975   3.465   2.754
 8080SOL    HW125139   1.017   3.480   2.665
 8080SOL    HW225140   0.896   3.404   2.744
 8081SOL     OW25141   6.352   5.637   4.761
 8081SOL    HW125142   6.333   5.560   4.700
 8081SOL    HW225143   6.371   5.603   4.853
 8082SOL     OW25144   3.534   2.063   2.022
 8082SOL    HW125145   3.537   2.042   2.119
 8082SOL    HW225146   3.607   2.127   1.998
 8083SOL     OW25147   5.691   2.195   5.244
 8083SOL    HW125148   5.690   2.206   5.343
 8083SOL    HW225149   5.682   2.099   5.220
 8084SOL     OW25150   2.462   0.527   6.255
 8084SOL    HW125151   2.544   0.571   6.217
 8084SOL    HW225152   2.416   0.475   6.184
 8085SOL     OW25153   0.749   5.994   4.516
 8085SOL    HW125154   0.816   6.047   4.569
 8085SOL    HW225155   0.737   5.904   4.558
 8086SOL     OW25156   0.305   1.411   2.224
 8086SOL    HW125157   0.217   1.398   2.270
 8086SOL    HW225158   0.289   1.447   2.131
 8087SOL     OW25159   1.178   0.879   0.336
 8087SOL    HW125160   1.140   0.872   0.428
 8087SOL    HW225161   1.250   0.948   0.335
 8088SOL     OW25162   5.399   6.747   5.279
 8088SOL    HW125163   5.434   6.798   5.201
 8088SOL    HW225164   5.473   6.692   5.319
 8089SOL     OW25165   5.505   2.430   5.734
 8089SOL    HW125166   5.507   2.392   5.827
 8089SOL    HW225167   5.588   2.485   5.720
 8090SOL     OW25168   4.342   1.818   5.835
 8090SOL    HW125169   4.418   1.835   5.898
 8090SOL    HW225170   4.304   1.727   5.852
 8091SOL     OW25171   1.551   4.695   4.550
 8091SOL    HW125172   1.471   4.637   4.540
 8091SOL    HW225173   1.524   4.784   4.587
 8092SOL     OW25174   5.023   2.413   6.036
 8092SOL    HW125175   5.026   2.441   5.940
 8092SOL    HW225176   5.086   2.469   6.089
 8093SOL     OW25177   3.658   6.708   2.357
 8093SOL    HW125178   3.725   6.639   2.330
 8093SOL    HW225179   3.630   6.761   2.277
 8094SOL     OW25180   1.419   3.957   3.846
 8094SOL    HW125181   1.422   4.042   3.898
 8094SOL    HW225182   1.475   3.888   3.892
 8095SOL     OW25183   1.408   4.134   5.738
 8095SOL    HW125184   1.325   4.165   5.691
 8095SOL    HW225185   1.440   4.050   5.696
 8096SOL     OW25186   0.900   6.522   2.015
 8096SOL    HW125187   0.976   6.570   2.059
 8096SOL    HW225188   0.840   6.588   1.972
 8097SOL     OW25189   3.431   5.625   5.279
 8097SOL    HW125190   3.496   5.559   5.316
 8097SOL    HW225191   3.411   5.603   5.184
 8098SOL     OW25192   0.798   5.282   4.686
 8098SOL    HW125193   0.736   5.357   4.708
 8098SOL    HW225194   0.744   5.200   4.667
 8099SOL     OW25195   2.649   5.697   4.551
 8099SOL    HW125196   2.721   5.670   4.487
 8099SOL    HW225197   2.593   5.618   4.574
 8100SOL     OW25198   0.087   0.640   6.194
 8100SOL    HW125199   0.015   0.571   6.208
 8100SOL    HW225200   0.110   0.646   6.097
 8101SOL     OW25201   2.426   6.195   1.831
 8101SOL    HW125202   2.426   6.195   1.931
 8101SOL    HW225203   2.342   6.151   1.798
 8102SOL     OW25204   1.166   2.862   4.340
 8102SOL    HW125205   1.144   2.775   4.296
 8102SOL    HW225206   1.098   2.881   4.412
 8103SOL     OW25207   3.247   1.526   1.949
 8103SOL    HW125208   3.339   1.504   1.979
 8103SOL    HW225209   3.220   1.614   1.988
 8104SOL     OW25210   2.666   6.428   6.698
 8104SOL    HW125211   2.629   6.446   6.789
 8104SOL    HW225212   2.593   6.394   6.639
 8105SOL     OW25213   6.755   1.806   2.511
 8105SOL    HW125214   6.817   1.758   2.574
 8105SOL    HW225215   6.675   1.837   2.562
 8106SOL     OW25216   2.035   5.746   4.909
 8106SOL    HW125217   2.018   5.697   4.995
 8106SOL    HW225218   1.963   5.725   4.843
 8107SOL     OW25219   1.478   5.252   4.905
 8107SOL    HW125220   1.463   5.236   5.002
 8107SOL    HW225221   1.528   5.175   4.865
 8108SOL     OW25222   0.121   1.216   6.750
 8108SOL    HW125223   0.104   1.149   6.822
 8108SOL    HW225224   0.075   1.301   6.772
 8109SOL     OW25225   6.499   3.287   6.959
 8109SOL    HW125226   6.505   3.357   6.889
 8109SOL    HW225227   6.572   3.220   6.945
 8110SOL     OW25228   4.425   5.297   0.649
 8110SOL    HW125229   4.462   5.374   0.702
 8110SOL    HW225230   4.370   5.240   0.710
 8111SOL     OW25231   6.018   1.010   3.158
 8111SOL    HW125232   6.049   1.091   3.207
 8111SOL    HW225233   5.922   0.994   3.178
 8112SOL     OW25234   0.769   2.796   5.433
 8112SOL    HW125235   0.810   2.886   5.445
 8112SOL    HW225236   0.828   2.726   5.472
 8113SOL     OW25237   5.977   2.756   0.672
 8113SOL    HW125238   6.058   2.720   0.625
 8113SOL    HW225239   5.949   2.842   0.628
 8114SOL     OW25240   1.802   4.287   1.752
 8114SOL    HW125241   1.757   4.321   1.669
 8114SOL    HW225242   1.742   4.304   1.830
 8115SOL     OW25243   2.328   0.204   0.063
 8115SOL    HW125244   2.284   0.258   7.014
 8115SOL    HW225245   2.427   0.216   0.058
 8116SOL     OW25246   3.245   4.993   1.367
 8116SOL    HW125247   3.239   5.018   1.271
 8116SOL    HW225248   3.196   5.060   1.423
 8117SOL     OW25249   2.846   6.976   2.958
 8117SOL    HW125250   2.918   6.944   3.019
 8117SOL    HW225251   2.822   0.047   2.981
 8118SOL     OW25252   6.122   3.472   0.366
 8118SOL    HW125253   6.086   3.476   0.459
 8118SOL    HW225254   6.126   3.564   0.328
 8119SOL     OW25255   6.133   5.749   6.295
 8119SOL    HW125256   6.089   5.707   6.374
 8119SOL    HW225257   6.228   5.720   6.290
 8120SOL     OW25258   2.167   5.946   1.072
 8120SOL    HW125259   2.203   6.038   1.083
 8120SOL    HW225260   2.140   5.931   0.977
 8121SOL     OW25261   1.343   3.625   3.066
 8121SOL    HW125262   1.253   3.592   3.095
 8121SOL    HW225263   1.336   3.722   3.040
 8122SOL     OW25264   0.935   4.409   2.415
 8122SOL    HW125265   0.902   4.335   2.357
 8122SOL    HW225266   0.963   4.372   2.504
 8123SOL     OW25267   0.533   2.202   6.254
 8123SOL    HW125268   0.450   2.214   6.309
 8123SOL    HW225269   0.509   2.160   6.166
 8124SOL     OW25270   5.547   4.925   3.683
 8124SOL    HW125271   5.493   4.849   3.649
 8124SOL    HW225272   5.547   4.924   3.783
 8125SOL     OW25273   0.991   0.057   2.798
 8125SOL    HW125274   0.985   0.143   2.747
 8125SOL    HW225275   0.930   0.060   2.877
 8126SOL     OW25276   3.924   5.172   4.093
 8126SOL    HW125277   3.879   5.259   4.113
 8126SOL    HW225278   3.862   5.096   4.114
 8127SOL     OW25279   2.961   2.862   0.652
 8127SOL    HW125280   3.000   2.925   0.719
 8127SOL    HW225281   2.948   2.910   0.565
 8128SOL     OW25282   3.208   2.934   2.318
 8128SOL    HW125283   3.299   2.902   2.346
 8128SOL    HW225284   3.140   2.866   2.345
 8129SOL     OW25285   1.571   2.814   0.536
 8129SOL    HW125286   1.604   2.810   0.441
 8129SOL    HW225287   1.499   2.746   0.549
 8130SOL     OW25288   1.553   5.580   6.463
 8130SOL    HW125289   1.492   5.504   6.487
 8130SOL    HW225290   1.533   5.659   6.521
 8131SOL     OW25291   2.127   3.489   1.027
 8131SOL    HW125292   2.065   3.417   0.999
 8131SOL    HW225293   2.220   3.467   0.998
 8132SOL     OW25294   6.690   6.899   4.048
 8132SOL    HW125295   6.701   6.938   3.956
 8132SOL    HW225296   6.604   6.932   4.088
 8133SOL     OW25297   3.777   5.063   1.027
 8133SOL    HW125298   3.690   5.059   0.978
 8133SOL    HW225299   3.832   4.983   1.004
 8134SOL     OW25300   6.160   0.506   5.238
 8134SOL    HW125301   6.155   0.592   5.188
 8134SOL    HW225302   6.237   0.452   5.203
 8135SOL     OW25303   2.558   6.812   1.833
 8135SOL    HW125304   2.657   6.823   1.842
 8135SOL    HW225305   2.518   6.789   1.922
 8136SOL     OW25306   4.819   4.849   2.466
 8136SOL    HW125307   4.768   4.892   2.541
 8136SOL    HW225308   4.755   4.805   2.403
 8137SOL     OW25309   3.877   1.600   4.745
 8137SOL    HW125310   3.926   1.531   4.800
 8137SOL    HW225311   3.934   1.627   4.668
 8138SOL     OW25312   5.684   0.817   2.108
 8138SOL    HW125313   5.719   0.754   2.039
 8138SOL    HW225314   5.594   0.851   2.080
 8139SOL     OW25315   1.150   1.354   2.663
 8139SOL    HW125316   1.136   1.268   2.614
 8139SOL    HW225317   1.210   1.414   2.610
 8140SOL     OW25318   3.986   1.347   4.048
 8140SOL    HW125319   4.042   1.266   4.031
 8140SOL    HW225320   3.920   1.328   4.121
 8141SOL     OW25321   4.042   5.445   5.488
 8141SOL    HW125322   4.093   5.361   5.509
 8141SOL    HW225323   4.000   5.436   5.398
 8142SOL     OW25324   5.715   5.151   0.473
 8142SOL    HW125325   5.693   5.206   0.554
 8142SOL    HW225326   5.647   5.168   0.402
 8143SOL     OW25327   5.372   4.175   5.985
 8143SOL    HW125328   5.434   4.246   5.951
 8143SOL    HW225329   5.420   4.117   6.051
 8144SOL     OW25330   5.490   6.804   6.767
 8144SOL    HW125331   5.570   6.808   6.706
 8144SOL    HW225332   5.437   6.721   6.747
 8145SOL     OW25333   6.303   5.405   2.323
 8145SOL    HW125334   6.319   5.487   2.378
 8145SOL    HW225335   6.255   5.336   2.378
 8146SOL     OW25336   3.422   1.054   5.734
 8146SOL    HW125337   3.433   1.061   5.833
 8146SOL    HW225338   3.440   1.143   5.693
 8147SOL     OW25339   5.032   1.896   4.363
 8147SOL    HW125340   5.104   1.869   4.300
 8147SOL    HW225341   5.049   1.989   4.395
 8148SOL     OW25342   5.614   2.501   3.105
 8148SOL    HW125343   5.548   2.546   3.165
 8148SOL    HW225344   5.667   2.569   3.055
 8149SOL     OW25345   4.408   4.916   3.131
 8149SOL    HW125346   4.353   4.833   3.135
 8149SOL    HW225347   4.452   4.931   3.220
 8150SOL     OW25348   0.888   5.401   6.795
 8150SOL    HW125349   0.919   5.390   6.700
 8150SOL    HW225350   0.915   5.322   6.848
 8151SOL     OW25351   1.046   2.134   5.036
 8151SOL    HW125352   0.970   2.100   4.981
 8151SOL    HW225353   1.130   2.088   5.010
 8152SOL     OW25354   2.048   0.469   3.224
 8152SOL    HW125355   1.968   0.508   3.269
 8152SOL    HW225356   2.131   0.502   3.269
 8153SOL     OW25357   2.509   6.410   0.793
 8153SOL    HW125358   2.608   6.422   0.793
 8153SOL    HW225359   2.467   6.479   0.851
 8154SOL     OW25360   1.985   6.202   3.453
 8154SOL    HW125361   1.910   6.140   3.431
 8154SOL    HW225362   1.949   6.282   3.502
 8155SOL     OW25363   3.018   3.280   3.162
 8155SOL    HW125364   2.962   3.348   3.115
 8155SOL    HW225365   2.991   3.275   3.258
 8156SOL     OW25366   5.656   0.772   5.038
 8156SOL    HW125367   5.643   0.748   5.134
 8156SOL    HW225368   5.753   0.779   5.017
 8157SOL     OW25369   5.667   3.968   6.802
 8157SOL    HW125370   5.639   3.925   6.716
 8157SOL    HW225371   5.755   4.013   6.790
 8158SOL     OW25372   1.516   5.813   1.519
 8158SOL    HW125373   1.478   5.727   1.552
 8158SOL    HW225374   1.572   5.796   1.438
 8159SOL     OW25375   2.202   5.486   1.824
 8159SOL    HW125376   2.151   5.532   1.751
 8159SOL    HW225377   2.288   5.450   1.787
 8160SOL     OW25378   4.166   2.100   1.605
 8160SOL    HW125379   4.188   2.139   1.695
 8160SOL    HW225380   4.084   2.043   1.613
 8161SOL     OW25381   4.773   1.264   0.253
 8161SOL    HW125382   4.822   1.247   0.167
 8161SOL    HW225383   4.785   1.185   0.314
 8162SOL     OW25384   5.456   6.776   1.416
 8162SOL    HW125385   5.375   6.807   1.366
 8162SOL    HW225386   5.486   6.848   1.478
 8163SOL     OW25387   2.303   4.403   5.048
 8163SOL    HW125388   2.395   4.442   5.052
 8163SOL    HW225389   2.292   4.351   4.963
 8164SOL     OW25390   3.981   2.678   1.651
 8164SOL    HW125391   4.073   2.710   1.677
 8164SOL    HW225392   3.957   2.716   1.561
 8165SOL     OW25393   1.933   4.190   1.183
 8165SOL    HW125394   1.853   4.214   1.127
 8165SOL    HW225395   1.933   4.245   1.266
 8166SOL     OW25396   2.901   0.473   1.612
 8166SOL    HW125397   2.830   0.409   1.641
 8166SOL    HW225398   2.909   0.472   1.513
 8167SOL     OW25399   5.793   2.232   3.871
 8167SOL    HW125400   5.804   2.216   3.773
 8167SOL    HW225401   5.769   2.146   3.917
 8168SOL     OW25402   3.656   1.057   2.945
 8168SOL    HW125403   3.655   1.148   2.904
 8168SOL    HW225404   3.682   0.989   2.876
 8169SOL     OW25405   4.028   3.670   6.425
 8169SOL    HW125406   4.038   3.597   6.358
 8169SOL    HW225407   4.059   3.638   6.514
 8170SOL     OW25408   1.134   5.762   4.091
 8170SOL    HW125409   1.124   5.721   4.000
 8170SOL    HW225410   1.063   5.727   4.152
 8171SOL     OW25411   0.950   2.198   6.023
 8171SOL    HW125412   1.017   2.125   6.035
 8171SOL    HW225413   0.974   2.252   5.942
 8172SOL     OW25414   0.518   6.587   0.708
 8172SOL    HW125415   0.500   6.684   0.691
 8172SOL    HW225416   0.516   6.537   0.621
 8173SOL     OW25417   4.143   2.652   0.016
 8173SOL    HW125418   4.175   2.593   6.964
 8173SOL    HW225419   4.044   2.662   0.009
 8174SOL     OW25420   5.551   0.569   2.221
 8174SOL    HW125421   5.463   0.614   2.236
 8174SOL    HW225422   5.622   0.638   2.205
 8175SOL     OW25423   0.720   2.382   6.353
 8175SOL    HW125424   0.668   2.465   6.368
 8175SOL    HW225425   0.663   2.315   6.305
 8176SOL     OW25426   2.921   5.969   2.236
 8176SOL    HW125427   2.845   6.021   2.273
 8176SOL    HW225428   2.932   5.990   2.138
 8177SOL     OW25429   0.015   6.272   5.076
 8177SOL    HW125430   6.984   6.352   5.049
 8177SOL    HW225431   0.081   6.300   5.146
 8178SOL     OW25432   1.732   6.322   6.736
 8178SOL    HW125433   1.832   6.331   6.741
 8178SOL    HW225434   1.705   6.234   6.774
 8179SOL     OW25435   3.526   2.539   0.158
 8179SOL    HW125436   3.521   2.460   0.219
 8179SOL    HW225437   3.560   2.619   0.208
 8180SOL     OW25438   6.689   6.424   5.211
 8180SOL    HW125439   6.723   6.347   5.265
 8180SOL    HW225440   6.602   6.398   5.168
 8181SOL     OW25441   2.800   2.294   3.489
 8181SOL    HW125442   2.818   2.339   3.576
 8181SOL    HW225443   2.721   2.336   3.445
 8182SOL     OW25444   4.264   2.160   5.170
 8182SOL    HW125445   4.282   2.249   5.211
 8182SOL    HW225446   4.349   2.119   5.137
 8183SOL     OW25447   1.893   3.692   4.406
 8183SOL    HW125448   1.887   3.762   4.336
 8183SOL    HW225449   1.808   3.690   4.459
 8184SOL     OW25450   6.743   6.625   5.527
 8184SOL    HW125451   6.835   6.623   5.487
 8184SOL    HW225452   6.702   6.534   5.520
 8185SOL     OW25453   3.163   1.189   2.259
 8185SOL    HW125454   3.098   1.180   2.334
 8185SOL    HW225455   3.179   1.099   2.217
 8186SOL     OW25456   3.508   5.957   5.955
 8186SOL    HW125457   3.551   5.951   6.045
 8186SOL    HW225458   3.555   5.896   5.891
 8187SOL     OW25459   2.053   1.711   4.983
 8187SOL    HW125460   1.955   1.728   4.983
 8187SOL    HW225461   2.070   1.616   5.009
 8188SOL     OW25462   6.242   2.463   3.063
 8188SOL    HW125463   6.145   2.463   3.042
 8188SOL    HW225464   6.257   2.510   3.150
 8189SOL     OW25465   6.605   4.309   2.607
 8189SOL    HW125466   6.593   4.385   2.543
 8189SOL    HW225467   6.516   4.265   2.623
 8190SOL     OW25468   4.999   3.508   3.424
 8190SOL    HW125469   5.099   3.515   3.417
 8190SOL    HW225470   4.957   3.588   3.381
 8191SOL     OW25471   0.927   4.969   3.826
 8191SOL    HW125472   0.990   5.030   3.779
 8191SOL    HW225473   0.961   4.875   3.822
 8192SOL     OW25474   2.368   5.196   2.161
 8192SOL    HW125475   2.438   5.200   2.089
 8192SOL    HW225476   2.397   5.131   2.231
 8193SOL     OW25477   3.786   6.712   5.316
 8193SOL    HW125478   3.868   6.667   5.350
 8193SOL    HW225479   3.763   6.676   5.225
 8194SOL     OW25480   0.025   0.700   6.937
 8194SOL    HW125481   6.992   0.754   7.001
 8194SOL    HW225482   0.039   0.751   6.853
 8195SOL     OW25483   6.580   6.491   0.471
 8195SOL    HW125484   6.490   6.524   0.446
 8195SOL    HW225485   6.640   6.493   0.392
 8196SOL     OW25486   3.190   6.611   6.265
 8196SOL    HW125487   3.287   6.629   6.285
 8196SOL    HW225488   3.167   6.651   6.176
 8197SOL     OW25489   0.770   0.571   6.198
 8197SOL    HW125490   0.724   0.498   6.148
 8197SOL    HW225491   0.716   0.655   6.191
 8198SOL     OW25492   2.897   6.911   3.279
 8198SOL    HW125493   2.991   6.888   3.302
 8198SOL    HW225494   2.843   6.827   3.272
 8199SOL     OW25495   6.477   3.529   0.402
 8199SOL    HW125496   6.528   3.462   0.348
 8199SOL    HW225497   6.517   3.533   0.494
 8200SOL     OW25498   5.089   4.371   0.884
 8200SOL    HW125499   5.063   4.358   0.789
 8200SOL    HW225500   5.014   4.414   0.934
 8201SOL     OW25501   5.995   0.194   3.312
 8201SOL    HW125502   6.018   0.280   3.357
 8201SOL    HW225503   5.896   0.183   3.308
 8202SOL     OW25504   1.235   3.762   3.752
 8202SOL    HW125505   1.153   3.753   3.808
 8202SOL    HW225506   1.291   3.837   3.786
 8203SOL     OW25507   5.673   3.611   1.569
 8203SOL    HW125508   5.660   3.554   1.488
 8203SOL    HW225509   5.616   3.575   1.644
 8204SOL     OW25510   3.348   0.110   1.790
 8204SOL    HW125511   3.386   0.115   1.882
 8204SOL    HW225512   3.420   0.128   1.723
 8205SOL     OW25513   5.632   5.544   2.041
 8205SOL    HW125514   5.727   5.568   2.024
 8205SOL    HW225515   5.573   5.590   1.975
 8206SOL     OW25516   4.523   2.121   4.474
 8206SOL    HW125517   4.537   2.153   4.567
 8206SOL    HW225518   4.457   2.180   4.428
 8207SOL     OW25519   2.802   6.223   6.823
 8207SOL    HW125520   2.766   6.304   6.776
 8207SOL    HW225521   2.730   6.182   6.878
 8208SOL     OW25522   1.271   4.537   1.304
 8208SOL    HW125523   1.274   4.599   1.226
 8208SOL    HW225524   1.250   4.445   1.273
 8209SOL     OW25525   0.249   0.194   4.964
 8209SOL    HW125526   0.282   0.289   4.958
 8209SOL    HW225527   0.304   0.137   4.904
 8210SOL     OW25528   2.914   1.887   6.866
 8210SOL    HW125529   2.855   1.849   6.795
 8210SOL    HW225530   2.858   1.928   6.938
 8211SOL     OW25531   3.061   3.161   4.620
 8211SOL    HW125532   3.149   3.199   4.593
 8211SOL    HW225533   3.072   3.106   4.703
 8212SOL     OW25534   3.236   0.244   1.187
 8212SOL    HW125535   3.140   0.218   1.198
 8212SOL    HW225536   3.263   0.234   1.091
 8213SOL     OW25537   4.628   4.338   1.690
 8213SOL    HW125538   4.628   4.438   1.697
 8213SOL    HW225539   4.557   4.301   1.749
 8214SOL     OW25540   4.203   5.826   4.415
 8214SOL    HW125541   4.286   5.773   4.433
 8214SOL    HW225542   4.134   5.805   4.483
 8215SOL     OW25543   4.166   6.830   0.406
 8215SOL    HW125544   4.092   6.795   0.349
 8215SOL    HW225545   4.183   6.926   0.384
 8216SOL     OW25546   5.688   4.919   1.593
 8216SOL    HW125547   5.692   4.944   1.690
 8216SOL    HW225548   5.730   4.992   1.538
 8217SOL     OW25549   2.510   6.461   3.746
 8217SOL    HW125550   2.421   6.487   3.781
 8217SOL    HW225551   2.543   6.381   3.796
 8218SOL     OW25552   2.363   6.981   5.215
 8218SOL    HW125553   2.327   6.889   5.229
 8218SOL    HW225554   2.311   0.004   5.143
 8219SOL     OW25555   3.589   4.029   0.912
 8219SOL    HW125556   3.615   4.123   0.934
 8219SOL    HW225557   3.652   3.992   0.844
 8220SOL     OW25558   3.764   3.250   4.253
 8220SOL    HW125559   3.755   3.326   4.188
 8220SOL    HW225560   3.779   3.286   4.345
 8221SOL     OW25561   5.562   3.777   3.152
 8221SOL    HW125562   5.571   3.681   3.179
 8221SOL    HW225563   5.630   3.832   3.201
 8222SOL     OW25564   6.036   3.407   0.634
 8222SOL    HW125565   6.051   3.482   0.699
 8222SOL    HW225566   6.073   3.322   0.672
 8223SOL     OW25567   0.766   5.991   5.584
 8223SOL    HW125568   0.795   6.014   5.677
 8223SOL    HW225569   0.792   5.897   5.563
 8224SOL     OW25570   5.610   1.811   0.500
 8224SOL    HW125571   5.581   1.905   0.515
 8224SOL    HW225572   5.630   1.797   0.403
 8225SOL     OW25573   5.376   1.148   0.704
 8225SOL    HW125574   5.416   1.077   0.761
 8225SOL    HW225575   5.327   1.214   0.762
 8226SOL     OW25576   4.220   0.283   0.476
 8226SOL    HW125577   4.217   0.271   0.377
 8226SOL    HW225578   4.183   0.372   0.500
 8227SOL     OW25579   4.929   2.698   2.960
 8227SOL    HW125580   4.885   2.753   3.031
 8227SOL    HW225581   4.862   2.671   2.891
 8228SOL     OW25582   2.211   0.306   4.747
 8228SOL    HW125583   2.174   0.326   4.656
 8228SOL    HW225584   2.255   0.388   4.783
 8229SOL     OW25585   4.467   4.275   0.741
 8229SOL    HW125586   4.554   4.286   0.790
 8229SOL    HW225587   4.395   4.254   0.806
 8230SOL     OW25588   6.088   0.431   6.009
 8230SOL    HW125589   6.026   0.509   6.025
 8230SOL    HW225590   6.104   0.383   6.095
 8231SOL     OW25591   2.544   1.636   2.603
 8231SOL    HW125592   2.475   1.669   2.539
 8231SOL    HW225593   2.505   1.563   2.659
 8232SOL     OW25594   3.728   5.442   2.736
 8232SOL    HW125595   3.807   5.485   2.691
 8232SOL    HW225596   3.652   5.507   2.739
 8233SOL     OW25597   0.557   1.313   6.142
 8233SOL    HW125598   0.513   1.234   6.186
 8233SOL    HW225599   0.533   1.396   6.192
 8234SOL     OW25600   0.997   2.257   0.991
 8234SOL    HW125601   1.077   2.197   0.985
 8234SOL    HW225602   1.018   2.345   0.949
 8235SOL     OW25603   1.166   6.172   1.401
 8235SOL    HW125604   1.192   6.235   1.327
 8235SOL    HW225605   1.199   6.207   1.488
 8236SOL     OW25606   0.492   6.445   1.329
 8236SOL    HW125607   0.442   6.461   1.243
 8236SOL    HW225608   0.546   6.362   1.322
 8237SOL     OW25609   3.836   5.083   0.340
 8237SOL    HW125610   3.747   5.129   0.339
 8237SOL    HW225611   3.901   5.136   0.395
 8238SOL     OW25612   1.085   4.182   0.241
 8238SOL    HW125613   1.089   4.205   0.338
 8238SOL    HW225614   0.994   4.149   0.218
 8239SOL     OW25615   1.632   1.333   5.104
 8239SOL    HW125616   1.564   1.333   5.178
 8239SOL    HW225617   1.628   1.421   5.056
 8240SOL     OW25618   3.313   3.327   4.918
 8240SOL    HW125619   3.237   3.346   4.980
 8240SOL    HW225620   3.285   3.347   4.824
 8241SOL     OW25621   1.732   3.817   6.075
 8241SOL    HW125622   1.727   3.787   6.170
 8241SOL    HW225623   1.818   3.865   6.060
 8242SOL     OW25624   0.790   3.110   3.294
 8242SOL    HW125625   0.802   3.112   3.393
 8242SOL    HW225626   0.870   3.067   3.252
 8243SOL     OW25627   0.325   5.872   4.450
 8243SOL    HW125628   0.319   5.884   4.351
 8243SOL    HW225629   0.330   5.962   4.494
 8244SOL     OW25630   0.585   0.898   4.830
 8244SOL    HW125631   0.512   0.931   4.770
 8244SOL    HW225632   0.664   0.873   4.775
 8245SOL     OW25633   5.201   2.013   3.589
 8245SOL    HW125634   5.227   2.020   3.493
 8245SOL    HW225635   5.109   1.975   3.597
 8246SOL     OW25636   2.136   5.010   6.947
 8246SOL    HW125637   2.059   5.039   6.890
 8246SOL    HW225638   2.221   5.049   6.910
 8247SOL     OW25639   2.887   5.220   2.998
 8247SOL    HW125640   2.929   5.208   2.908
 8247SOL    HW225641   2.797   5.177   2.998
 8248SOL     OW25642   6.993   5.097   2.930
 8248SOL    HW125643   6.905   5.081   2.975
 8248SOL    HW225644   6.993   5.188   2.889
 8249SOL     OW25645   3.082   1.431   6.506
 8249SOL    HW125646   3.058   1.432   6.603
 8249SOL    HW225647   3.178   1.405   6.495
 8250SOL     OW25648   1.189   1.372   0.285
 8250SOL    HW125649   1.140   1.391   0.370
 8250SOL    HW225650   1.285   1.394   0.296
 8251SOL     OW25651   0.724   2.298   4.654
 8251SOL    HW125652   0.776   2.356   4.718
 8251SOL    HW225653   0.716   2.345   4.566
 8252SOL     OW25654   1.286   2.054   6.321
 8252SOL    HW125655   1.357   1.990   6.290
 8252SOL    HW225656   1.308   2.086   6.413
 8253SOL     OW25657   4.755   5.901   0.208
 8253SOL    HW125658   4.699   5.959   0.267
 8253SOL    HW225659   4.783   5.819   0.259
 8254SOL     OW25660   5.182   4.851   6.533
 8254SOL    HW125661   5.149   4.907   6.457
 8254SOL    HW225662   5.263   4.800   6.505
 8255SOL     OW25663   1.187   6.981   6.298
 8255SOL    HW125664   1.247   6.917   6.251
 8255SOL    HW225665   1.232   0.048   6.303
 8256SOL     OW25666   1.148   5.082   4.374
 8256SOL    HW125667   1.115   5.102   4.281
 8256SOL    HW225668   1.214   5.151   4.401
 8257SOL     OW25669   5.178   3.665   3.063
 8257SOL    HW125670   5.123   3.732   3.113
 8257SOL    HW225671   5.165   3.678   2.965
 8258SOL     OW25672   6.762   3.560   1.792
 8258SOL    HW125673   6.792   3.506   1.871
 8258SOL    HW225674   6.664   3.580   1.801
 8259SOL     OW25675   5.161   1.531   4.560
 8259SOL    HW125676   5.079   1.570   4.518
 8259SOL    HW225677   5.152   1.531   4.659
 8260SOL     OW25678   4.388   1.567   1.355
 8260SOL    HW125679   4.409   1.521   1.269
 8260SOL    HW225680   4.369   1.663   1.339
 8261SOL     OW25681   5.911   0.768   2.362
 8261SOL    HW125682   5.856   0.704   2.416
 8261SOL    HW225683   5.860   0.853   2.348
 8262SOL     OW25684   5.810   3.842   1.572
 8262SOL    HW125685   5.825   3.846   1.671
 8262SOL    HW225686   5.742   3.771   1.552
 8263SOL     OW25687   6.788   2.518   5.692
 8263SOL    HW125688   6.702   2.568   5.681
 8263SOL    HW225689   6.865   2.578   5.671
 8264SOL     OW25690   3.133   0.163   3.227
 8264SOL    HW125691   3.201   0.107   3.272
 8264SOL    HW225692   3.178   0.234   3.172
 8265SOL     OW25693   5.205   6.839   0.149
 8265SOL    HW125694   5.208   6.885   0.238
 8265SOL    HW225695   5.298   6.829   0.114
 8266SOL     OW25696   2.193   0.897   3.881
 8266SOL    HW125697   2.165   0.866   3.790
 8266SOL    HW225698   2.273   0.957   3.873
 8267SOL     OW25699   1.854   4.212   2.614
 8267SOL    HW125700   1.925   4.147   2.591
 8267SOL    HW225701   1.770   4.163   2.638
 8268SOL     OW25702   3.845   5.133   6.421
 8268SOL    HW125703   3.754   5.173   6.434
 8268SOL    HW225704   3.843   5.036   6.447
 8269SOL     OW25705   5.878   2.944   3.887
 8269SOL    HW125706   5.975   2.969   3.886
 8269SOL    HW225707   5.836   2.971   3.800
 8270SOL     OW25708   3.706   6.955   6.555
 8270SOL    HW125709   3.731   0.014   6.606
 8270SOL    HW225710   3.606   6.947   6.550
 8271SOL     OW25711   3.571   5.980   6.427
 8271SOL    HW125712   3.504   5.997   6.499
 8271SOL    HW225713   3.655   6.031   6.447
 8272SOL     OW25714   0.857   0.344   1.655
 8272SOL    HW125715   0.765   0.381   1.642
 8272SOL    HW225716   0.914   0.411   1.703
 8273SOL     OW25717   3.605   0.794   6.787
 8273SOL    HW125718   3.623   0.777   6.690
 8273SOL    HW225719   3.668   0.741   6.843
 8274SOL     OW25720   5.321   6.613   5.610
 8274SOL    HW125721   5.382   6.566   5.546
 8274SOL    HW225722   5.372   6.643   5.690
 8275SOL     OW25723   5.571   0.530   3.380
 8275SOL    HW125724   5.479   0.528   3.340
 8275SOL    HW225725   5.622   0.607   3.342
 8276SOL     OW25726   0.321   2.160   6.641
 8276SOL    HW125727   0.270   2.245   6.629
 8276SOL    HW225728   0.414   2.180   6.669
 8277SOL     OW25729   1.340   6.470   6.622
 8277SOL    HW125730   1.355   6.406   6.698
 8277SOL    HW225731   1.246   6.506   6.627
 8278SOL     OW25732   3.080   1.269   6.997
 8278SOL    HW125733   3.001   1.218   0.007
 8278SOL    HW225734   3.148   1.275   0.047
 8279SOL     OW25735   4.401   5.032   5.039
 8279SOL    HW125736   4.390   4.949   4.984
 8279SOL    HW225737   4.493   5.067   5.029
 8280SOL     OW25738   5.347   3.631   0.190
 8280SOL    HW125739   5.315   3.712   0.141
 8280SOL    HW225740   5.363   3.654   0.286
 8281SOL     OW25741   2.701   5.321   0.246
 8281SOL    HW125742   2.688   5.388   0.319
 8281SOL    HW225743   2.640   5.244   0.260
 8282SOL     OW25744   3.063   3.090   0.847
 8282SOL    HW125745   3.085   3.127   0.757
 8282SOL    HW225746   3.145   3.051   0.888
 8283SOL     OW25747   0.081   5.595   3.238
 8283SOL    HW125748   7.021   5.637   3.201
 8283SOL    HW225749   0.154   5.599   3.170
 8284SOL     OW25750   2.876   1.891   1.880
 8284SOL    HW125751   2.822   1.807   1.877
 8284SOL    HW225752   2.837   1.958   1.816
 8285SOL     OW25753   2.907   4.308   6.221
 8285SOL    HW125754   2.971   4.239   6.253
 8285SOL    HW225755   2.829   4.312   6.284
 8286SOL     OW25756   5.660   1.886   5.602
 8286SOL    HW125757   5.589   1.818   5.619
 8286SOL    HW225758   5.647   1.926   5.512
 8287SOL     OW25759   2.195   0.196   3.662
 8287SOL    HW125760   2.226   0.196   3.757
 8287SOL    HW225761   2.261   0.147   3.605
 8288SOL     OW25762   2.589   0.415   3.068
 8288SOL    HW125763   2.612   0.448   3.160
 8288SOL    HW225764   2.503   0.457   3.038
 8289SOL     OW25765   6.664   0.985   5.885
 8289SOL    HW125766   6.701   1.042   5.958
 8289SOL    HW225767   6.699   0.892   5.895
 8290SOL     OW25768   4.506   2.776   1.760
 8290SOL    HW125769   4.531   2.860   1.809
 8290SOL    HW225770   4.585   2.745   1.707
 8291SOL     OW25771   3.954   5.216   6.734
 8291SOL    HW125772   3.895   5.173   6.802
 8291SOL    HW225773   3.923   5.192   6.642
 8292SOL     OW25774   0.634   3.315   4.726
 8292SOL    HW125775   0.597   3.317   4.633
 8292SOL    HW225776   0.560   3.302   4.791
 8293SOL     OW25777   3.003   4.836   3.434
 8293SOL    HW125778   3.016   4.858   3.530
 8293SOL    HW225779   2.991   4.921   3.382
 8294SOL     OW25780   4.638   3.496   5.617
 8294SOL    HW125781   4.659   3.500   5.715
 8294SOL    HW225782   4.680   3.575   5.571
 8295SOL     OW25783   4.971   4.371   2.385
 8295SOL    HW125784   4.945   4.427   2.307
 8295SOL    HW225785   4.925   4.404   2.468
 8296SOL     OW25786   4.110   6.375   1.994
 8296SOL    HW125787   4.143   6.342   1.905
 8296SOL    HW225788   4.011   6.364   1.999
 8297SOL     OW25789   5.792   4.454   3.262
 8297SOL    HW125790   5.706   4.406   3.247
 8297SOL    HW225791   5.776   4.533   3.322
 8298SOL     OW25792   6.612   0.008   6.385
 8298SOL    HW125793   6.609   6.931   6.395
 8298SOL    HW225794   6.527   0.047   6.419
 8299SOL     OW25795   0.337   3.535   1.134
 8299SOL    HW125796   0.249   3.516   1.090
 8299SOL    HW225797   0.338   3.629   1.168
 8300SOL     OW25798   5.353   4.620   2.853
 8300SOL    HW125799   5.300   4.553   2.801
 8300SOL    HW225800   5.303   4.644   2.936
 8301SOL     OW25801   4.777   6.609   0.339
 8301SOL    HW125802   4.806   6.608   0.243
 8301SOL    HW225803   4.732   6.696   0.359
 8302SOL     OW25804   3.261   6.611   5.236
 8302SOL    HW125805   3.260   6.575   5.143
 8302SOL    HW225806   3.246   6.709   5.234
 8303SOL     OW25807   0.240   6.074   2.847
 8303SOL    HW125808   0.270   6.123   2.929
 8303SOL    HW225809   0.320   6.037   2.800
 8304SOL     OW25810   5.899   4.460   2.984
 8304SOL    HW125811   5.801   4.440   2.987
 8304SOL    HW225812   5.937   4.452   3.076
 8305SOL     OW25813   4.713   6.646   4.878
 8305SOL    HW125814   4.658   6.569   4.908
 8305SOL    HW225815   4.778   6.671   4.951
 8306SOL     OW25816   6.248   1.085   2.204
 8306SOL    HW125817   6.333   1.064   2.252
 8306SOL    HW225818   6.266   1.149   2.130
 8307SOL     OW25819   1.673   3.470   3.078
 8307SOL    HW125820   1.578   3.468   3.049
 8307SOL    HW225821   1.733   3.458   2.999
 8308SOL     OW25822   1.384   5.273   0.831
 8308SOL    HW125823   1.293   5.240   0.806
 8308SOL    HW225824   1.411   5.346   0.767
 8309SOL     OW25825   6.313   5.164   4.729
 8309SOL    HW125826   6.403   5.199   4.703
 8309SOL    HW225827   6.262   5.138   4.646
 8310SOL     OW25828   1.776   6.658   0.969
 8310SOL    HW125829   1.710   6.590   1.002
 8310SOL    HW225830   1.772   6.662   0.869
 8311SOL     OW25831   5.559   6.504   3.361
 8311SOL    HW125832   5.465   6.489   3.329
 8311SOL    HW225833   5.580   6.601   3.360
 8312SOL     OW25834   5.143   1.826   0.263
 8312SOL    HW125835   5.236   1.834   0.227
 8312SOL    HW225836   5.138   1.870   0.353
 8313SOL     OW25837   5.414   2.265   5.282
 8313SOL    HW125838   5.406   2.186   5.343
 8313SOL    HW225839   5.509   2.272   5.249
 8314SOL     OW25840   5.074   6.367   4.233
 8314SOL    HW125841   5.037   6.356   4.326
 8314SOL    HW225842   5.008   6.413   4.175
 8315SOL     OW25843   3.534   4.192   4.799
 8315SOL    HW125844   3.472   4.236   4.733
 8315SOL    HW225845   3.480   4.154   4.874
 8316SOL     OW25846   2.093   2.168   6.251
 8316SOL    HW125847   2.065   2.236   6.183
 8316SOL    HW225848   2.065   2.200   6.342
 8317SOL     OW25849   1.588   1.777   3.633
 8317SOL    HW125850   1.531   1.720   3.693
 8317SOL    HW225851   1.640   1.842   3.689
 8318SOL     OW25852   4.571   0.373   6.699
 8318SOL    HW125853   4.621   0.290   6.724
 8318SOL    HW225854   4.624   0.454   6.723
 8319SOL     OW25855   1.251   6.293   6.849
 8319SOL    HW125856   1.318   6.313   6.920
 8319SOL    HW225857   1.161   6.325   6.879
 8320SOL     OW25858   3.233   2.856   5.000
 8320SOL    HW125859   3.200   2.779   4.945
 8320SOL    HW225860   3.296   2.823   5.070
 8321SOL     OW25861   0.496   6.999   1.120
 8321SOL    HW125862   0.587   7.022   1.083
 8321SOL    HW225863   0.506   6.969   1.215
 8322SOL     OW25864   0.596   0.106   0.024
 8322SOL    HW125865   0.694   0.119   0.018
 8322SOL    HW225866   0.563   0.137   0.114
 8323SOL     OW25867   5.796   4.386   0.913
 8323SOL    HW125868   5.782   4.464   0.852
 8323SOL    HW225869   5.759   4.303   0.872
 8324SOL     OW25870   5.003   5.529   6.276
 8324SOL    HW125871   4.979   5.563   6.367
 8324SOL    HW225872   5.024   5.606   6.216
 8325SOL     OW25873   1.326   5.387   6.501
 8325SOL    HW125874   1.230   5.372   6.521
 8325SOL    HW225875   1.381   5.312   6.538
 8326SOL     OW25876   1.429   3.295   0.251
 8326SOL    HW125877   1.453   3.327   0.159
 8326SOL    HW225878   1.466   3.203   0.264
 8327SOL     OW25879   0.784   6.705   4.635
 8327SOL    HW125880   0.807   6.608   4.647
 8327SOL    HW225881   0.750   6.719   4.542
 8328SOL     OW25882   1.194   0.492   0.474
 8328SOL    HW125883   1.190   0.527   0.380
 8328SOL    HW225884   1.149   0.403   0.478
 8329SOL     OW25885   1.994   2.916   4.626
 8329SOL    HW125886   2.094   2.910   4.622
 8329SOL    HW225887   1.966   2.952   4.715
 8330SOL     OW25888   4.070   1.399   6.845
 8330SOL    HW125889   4.101   1.367   6.755
 8330SOL    HW225890   4.048   1.320   6.902
 8331SOL     OW25891   1.739   2.533   5.972
 8331SOL    HW125892   1.734   2.542   5.873
 8331SOL    HW225893   1.779   2.617   6.011
 8332SOL     OW25894   6.173   5.189   1.218
 8332SOL    HW125895   6.170   5.089   1.227
 8332SOL    HW225896   6.080   5.226   1.224
 8333SOL     OW25897   2.252   4.480   0.110
 8333SOL    HW125898   2.286   4.496   0.203
 8333SOL    HW225899   2.284   4.391   0.078
 8334SOL     OW25900   3.688   2.136   6.361
 8334SOL    HW125901   3.678   2.202   6.436
 8334SOL    HW225902   3.644   2.173   6.279
 8335SOL     OW25903   5.258   3.946   6.256
 8335SOL    HW125904   5.250   3.880   6.330
 8335SOL    HW225905   5.209   3.911   6.176
 8336SOL     OW25906   0.772   4.155   4.174
 8336SOL    HW125907   0.830   4.131   4.096
 8336SOL    HW225908   0.763   4.076   4.234
 8337SOL     OW25909   0.689   0.990   4.462
 8337SOL    HW125910   0.656   0.917   4.402
 8337SOL    HW225911   0.633   0.992   4.545
 8338SOL     OW25912   4.495   5.884   1.700
 8338SOL    HW125913   4.433   5.848   1.630
 8338SOL    HW225914   4.507   5.816   1.772
 8339SOL     OW25915   6.066   0.212   1.215
 8339SOL    HW125916   5.987   0.241   1.270
 8339SOL    HW225917   6.064   0.112   1.205
 8340SOL     OW25918   6.465   2.158   6.580
 8340SOL    HW125919   6.436   2.243   6.626
 8340SOL    HW225920   6.390   2.124   6.524
 8341SOL     OW25921   3.697   0.905   0.537
 8341SOL    HW125922   3.599   0.912   0.553
 8341SOL    HW225923   3.746   0.948   0.613
 8342SOL     OW25924   4.779   0.545   0.324
 8342SOL    HW125925   4.742   0.506   0.408
 8342SOL    HW225926   4.748   0.639   0.314
 8343SOL     OW25927   5.435   3.943   4.054
 8343SOL    HW125928   5.462   4.025   4.003
 8343SOL    HW225929   5.512   3.879   4.058
 8344SOL     OW25930   1.122   5.110   5.355
 8344SOL    HW125931   1.136   5.208   5.346
 8344SOL    HW225932   1.161   5.063   5.276
 8345SOL     OW25933   4.603   0.852   3.552
 8345SOL    HW125934   4.526   0.804   3.510
 8345SOL    HW225935   4.628   0.808   3.638
 8346SOL     OW25936   6.098   4.006   4.789
 8346SOL    HW125937   6.063   3.913   4.796
 8346SOL    HW225938   6.194   4.003   4.759
 8347SOL     OW25939   2.375   0.831   6.982
 8347SOL    HW125940   2.446   0.863   0.023
 8347SOL    HW225941   2.341   0.908   6.928
 8348SOL     OW25942   3.592   6.408   1.986
 8348SOL    HW125943   3.564   6.503   1.971
 8348SOL    HW225944   3.570   6.354   1.904
 8349SOL     OW25945   0.097   6.671   2.180
 8349SOL    HW125946   0.084   6.572   2.178
 8349SOL    HW225947   0.082   6.705   2.273
 8350SOL     OW25948   2.177   0.124   0.580
 8350SOL    HW125949   2.183   0.223   0.564
 8350SOL    HW225950   2.160   0.107   0.677
 8351SOL     OW25951   0.016   3.235   3.228
 8351SOL    HW125952   0.088   3.193   3.283
 8351SOL    HW225953   6.965   3.268   3.287
 8352SOL     OW25954   2.603   6.345   2.078
 8352SOL    HW125955   2.515   6.375   2.041
 8352SOL    HW225956   2.591   6.258   2.126
 8353SOL     OW25957   1.509   5.016   2.126
 8353SOL    HW125958   1.545   5.082   2.059
 8353SOL    HW225959   1.423   5.051   2.164
 8354SOL     OW25960   3.351   0.563   3.199
 8354SOL    HW125961   3.372   0.660   3.210
 8354SOL    HW225962   3.336   0.522   3.289
 8355SOL     OW25963   2.561   6.365   6.416
 8355SOL    HW125964   2.653   6.339   6.386
 8355SOL    HW225965   2.523   6.292   6.474
 8356SOL     OW25966   2.188   5.243   0.810
 8356SOL    HW125967   2.199   5.339   0.787
 8356SOL    HW225968   2.128   5.199   0.743
 8357SOL     OW25969   4.959   6.205   5.337
 8357SOL    HW125970   5.015   6.286   5.354
 8357SOL    HW225971   4.947   6.192   5.239
 8358SOL     OW25972   0.931   1.086   4.819
 8358SOL    HW125973   0.954   1.058   4.726
 8358SOL    HW225974   0.862   1.158   4.817
 8359SOL     OW25975   3.872   2.121   5.437
 8359SOL    HW125976   3.788   2.135   5.385
 8359SOL    HW225977   3.940   2.188   5.409
 8360SOL     OW25978   4.568   0.604   1.417
 8360SOL    HW125979   4.633   0.607   1.341
 8360SOL    HW225980   4.614   0.571   1.499
 8361SOL     OW25981   4.109   0.928   6.980
 8361SOL    HW125982   4.113   0.865   0.035
 8361SOL    HW225983   4.096   0.875   6.895
 8362SOL     OW25984   6.894   4.329   1.418
 8362SOL    HW125985   6.875   4.263   1.491
 8362SOL    HW225986   6.984   4.310   1.379
 8363SOL     OW25987   2.913   3.188   0.037
 8363SOL    HW125988   2.948   3.266   7.007
 8363SOL    HW225989   2.968   3.176   0.120
 8364SOL     OW25990   0.240   3.539   4.545
 8364SOL    HW125991   0.306   3.468   4.519
 8364SOL    HW225992   0.155   3.496   4.575
 8365SOL     OW25993   1.744   2.195   2.178
 8365SOL    HW125994   1.708   2.148   2.097
 8365SOL    HW225995   1.714   2.290   2.177
 8366SOL     OW25996   4.991   4.971   2.114
 8366SOL    HW125997   5.024   4.937   2.202
 8366SOL    HW225998   4.905   4.926   2.091
 8367SOL     OW25999   3.469   5.382   4.167
 8367SOL    HW126000   3.517   5.411   4.084
 8367SOL    HW226001   3.529   5.392   4.246
 8368SOL     OW26002   6.564   6.243   0.035
 8368SOL    HW126003   6.497   6.252   6.983
 8368SOL    HW226004   6.609   6.331   0.049
 8369SOL     OW26005   2.672   6.884   1.443
 8369SOL    HW126006   2.605   6.818   1.477
 8369SOL    HW226007   2.764   6.855   1.470
 8370SOL     OW26008   2.502   3.584   6.985
 8370SOL    HW126009   2.552   3.627   0.037
 8370SOL    HW226010   2.543   3.495   6.965
 8371SOL     OW26011   1.926   3.983   6.020
 8371SOL    HW126012   1.989   3.907   6.014
 8371SOL    HW226013   1.975   4.065   6.049
 8372SOL     OW26014   2.753   5.811   2.829
 8372SOL    HW126015   2.803   5.733   2.792
 8372SOL    HW226016   2.754   5.887   2.763
 8373SOL     OW26017   0.127   1.302   4.092
 8373SOL    HW126018   0.141   1.400   4.100
 8373SOL    HW226019   0.043   1.276   4.138
 8374SOL     OW26020   1.167   0.529   4.258
 8374SOL    HW126021   1.130   0.461   4.321
 8374SOL    HW226022   1.240   0.488   4.204
 8375SOL     OW26023   3.361   0.519   4.781
 8375SOL    HW126024   3.316   0.609   4.775
 8375SOL    HW226025   3.435   0.524   4.848
 8376SOL     OW26026   2.141   0.517   2.865
 8376SOL    HW126027   2.151   0.419   2.847
 8376SOL    HW226028   2.224   0.564   2.839
 8377SOL     OW26029   4.229   5.195   0.179
 8377SOL    HW126030   4.168   5.139   0.123
 8377SOL    HW226031   4.268   5.269   0.124
 8378SOL     OW26032   5.683   6.190   4.233
 8378SOL    HW126033   5.754   6.187   4.162
 8378SOL    HW226034   5.674   6.284   4.267
 8379SOL     OW26035   6.056   0.820   1.666
 8379SOL    HW126036   6.117   0.774   1.602
 8379SOL    HW226037   6.088   0.914   1.680
 8380SOL     OW26038   6.547   5.617   0.540
 8380SOL    HW126039   6.501   5.531   0.562
 8380SOL    HW226040   6.493   5.694   0.574
 8381SOL     OW26041   0.401   2.052   2.302
 8381SOL    HW126042   0.411   1.963   2.257
 8381SOL    HW226043   0.397   2.124   2.233
 8382SOL     OW26044   1.855   0.672   1.213
 8382SOL    HW126045   1.910   0.647   1.134
 8382SOL    HW226046   1.905   0.739   1.269
 8383SOL     OW26047   2.727   6.635   6.270
 8383SOL    HW126048   2.714   6.560   6.205
 8383SOL    HW226049   2.749   6.719   6.220
 8384SOL     OW26050   0.588   3.141   2.274
 8384SOL    HW126051   0.601   3.059   2.219
 8384SOL    HW226052   0.615   3.122   2.369
 8385SOL     OW26053   3.765   3.567   1.416
 8385SOL    HW126054   3.807   3.511   1.344
 8385SOL    HW226055   3.755   3.512   1.499
 8386SOL     OW26056   2.271   6.032   2.184
 8386SOL    HW126057   2.366   6.063   2.178
 8386SOL    HW226058   2.270   5.933   2.200
 8387SOL     OW26059   1.565   1.307   2.533
 8387SOL    HW126060   1.556   1.299   2.632
 8387SOL    HW226061   1.497   1.372   2.499
 8388SOL     OW26062   3.983   6.405   1.472
 8388SOL    HW126063   4.014   6.494   1.508
 8388SOL    HW226064   4.024   6.390   1.382
 8389SOL     OW26065   0.585   2.442   3.910
 8389SOL    HW126066   0.525   2.391   3.972
 8389SOL    HW226067   0.535   2.465   3.827
 8390SOL     OW26068   3.493   1.051   6.019
 8390SOL    HW126069   3.430   1.012   6.087
 8390SOL    HW226070   3.549   1.121   6.062
 8391SOL     OW26071   5.599   5.974   1.280
 8391SOL    HW126072   5.546   5.923   1.213
 8391SOL    HW226073   5.683   6.008   1.238
 8392SOL     OW26074   5.286   6.456   5.929
 8392SOL    HW126075   5.364   6.518   5.918
 8392SOL    HW226076   5.247   6.468   6.020
 8393SOL     OW26077   6.763   5.579   3.048
 8393SOL    HW126078   6.809   5.660   3.087
 8393SOL    HW226079   6.787   5.571   2.952
 8394SOL     OW26080   0.598   1.971   3.016
 8394SOL    HW126081   0.563   2.063   2.996
 8394SOL    HW226082   0.652   1.939   2.938
 8395SOL     OW26083   6.954   5.789   5.934
 8395SOL    HW126084   6.998   5.716   5.986
 8395SOL    HW226085   6.909   5.750   5.854
 8396SOL     OW26086   4.743   3.288   1.668
 8396SOL    HW126087   4.746   3.352   1.745
 8396SOL    HW226088   4.676   3.217   1.686
 8397SOL     OW26089   2.029   5.653   3.290
 8397SOL    HW126090   2.106   5.699   3.246
 8397SOL    HW226091   2.045   5.554   3.290
 8398SOL     OW26092   4.595   1.990   0.626
 8398SOL    HW126093   4.508   1.974   0.579
 8398SOL    HW226094   4.577   2.007   0.723
 8399SOL     OW26095   5.820   6.078   0.611
 8399SOL    HW126096   5.863   6.076   0.520
 8399SOL    HW226097   5.747   6.147   0.612
 8400SOL     OW26098   6.544   0.653   3.078
 8400SOL    HW126099   6.543   0.607   2.990
 8400SOL    HW226100   6.455   0.641   3.123
 8401SOL     OW26101   2.839   4.589   6.533
 8401SOL    HW126102   2.885   4.567   6.619
 8401SOL    HW226103   2.865   4.681   6.504
 8402SOL     OW26104   4.380   2.122   0.033
 8402SOL    HW126105   4.308   2.056   0.054
 8402SOL    HW226106   4.454   2.075   7.006
 8403SOL     OW26107   2.074   1.604   4.600
 8403SOL    HW126108   2.039   1.550   4.677
 8403SOL    HW226109   2.094   1.544   4.523
 8404SOL     OW26110   4.286   5.200   5.626
 8404SOL    HW126111   4.215   5.167   5.564
 8404SOL    HW226112   4.258   5.185   5.720
 8405SOL     OW26113   0.532   2.595   5.014
 8405SOL    HW126114   0.568   2.635   4.929
 8405SOL    HW226115   0.580   2.510   5.034
 8406SOL     OW26116   5.434   3.287   1.389
 8406SOL    HW126117   5.398   3.270   1.297
 8406SOL    HW226118   5.375   3.243   1.457
 8407SOL     OW26119   4.703   4.281   2.987
 8407SOL    HW126120   4.727   4.274   3.084
 8407SOL    HW226121   4.680   4.190   2.951
 8408SOL     OW26122   5.001   2.339   4.707
 8408SOL    HW126123   4.922   2.342   4.769
 8408SOL    HW226124   5.062   2.415   4.727
 8409SOL     OW26125   0.657   2.123   3.800
 8409SOL    HW126126   0.713   2.205   3.810
 8409SOL    HW226127   0.634   2.086   3.890
 8410SOL     OW26128   3.916   0.168   1.649
 8410SOL    HW126129   3.957   0.203   1.734
 8410SOL    HW226130   3.879   0.245   1.597
 8411SOL     OW26131   1.616   3.395   4.306
 8411SOL    HW126132   1.713   3.418   4.310
 8411SOL    HW226133   1.578   3.425   4.218
 8412SOL     OW26134   5.488   2.240   3.908
 8412SOL    HW126135   5.581   2.257   3.940
 8412SOL    HW226136   5.430   2.216   3.986
 8413SOL     OW26137   3.531   5.062   0.853
 8413SOL    HW126138   3.517   5.106   0.764
 8413SOL    HW226139   3.470   5.104   0.920
 8414SOL     OW26140   3.899   6.602   2.901
 8414SOL    HW126141   3.867   6.591   2.995
 8414SOL    HW226142   3.911   6.512   2.859
 8415SOL     OW26143   6.964   4.070   2.818
 8415SOL    HW126144   0.028   4.106   2.852
 8415SOL    HW226145   6.904   4.146   2.792
 8416SOL     OW26146   5.297   3.879   2.592
 8416SOL    HW126147   5.364   3.953   2.588
 8416SOL    HW226148   5.217   3.903   2.537
 8417SOL     OW26149   2.746   5.864   6.035
 8417SOL    HW126150   2.726   5.923   6.113
 8417SOL    HW226151   2.739   5.768   6.063
 8418SOL     OW26152   6.613   5.269   2.781
 8418SOL    HW126153   6.538   5.309   2.834
 8418SOL    HW226154   6.616   5.170   2.799
 8419SOL     OW26155   4.612   0.394   3.688
 8419SOL    HW126156   4.556   0.346   3.621
 8419SOL    HW226157   4.570   0.385   3.779
 8420SOL     OW26158   4.134   1.269   6.597
 8420SOL    HW126159   4.066   1.199   6.621
 8420SOL    HW226160   4.226   1.232   6.608
 8421SOL     OW26161   2.180   6.978   1.992
 8421SOL    HW126162   2.238   6.923   2.053
 8421SOL    HW226163   2.084   6.963   2.014
 8422SOL     OW26164   4.068   6.625   1.065
 8422SOL    HW126165   4.041   6.721   1.052
 8422SOL    HW226166   3.986   6.567   1.058
 8423SOL     OW26167   3.132   4.216   1.290
 8423SOL    HW126168   3.085   4.141   1.243
 8423SOL    HW226169   3.094   4.226   1.383
 8424SOL     OW26170   3.444   1.381   2.367
 8424SOL    HW126171   3.467   1.471   2.331
 8424SOL    HW226172   3.352   1.356   2.337
 8425SOL     OW26173   5.959   4.608   6.997
 8425SOL    HW126174   5.902   4.544   0.026
 8425SOL    HW226175   6.030   4.558   6.947
 8426SOL     OW26176   4.038   3.648   3.167
 8426SOL    HW126177   4.074   3.669   3.258
 8426SOL    HW226178   3.973   3.718   3.140
 8427SOL     OW26179   2.374   3.809   6.613
 8427SOL    HW126180   2.375   3.773   6.519
 8427SOL    HW226181   2.284   3.847   6.633
 8428SOL     OW26182   6.339   4.130   2.343
 8428SOL    HW126183   6.278   4.050   2.336
 8428SOL    HW226184   6.373   4.137   2.437
 8429SOL     OW26185   2.034   6.307   2.913
 8429SOL    HW126186   2.128   6.291   2.941
 8429SOL    HW226187   2.024   6.402   2.882
 8430SOL     OW26188   4.304   4.600   3.098
 8430SOL    HW126189   4.360   4.521   3.120
 8430SOL    HW226190   4.250   4.626   3.178
 8431SOL     OW26191   3.567   4.698   1.178
 8431SOL    HW126192   3.503   4.637   1.225
 8431SOL    HW226193   3.524   4.731   1.093
 8432SOL     OW26194   4.192   6.906   0.054
 8432SOL    HW126195   4.280   6.877   0.092
 8432SOL    HW226196   4.208   6.965   6.997
 8433SOL     OW26197   1.365   2.252   6.124
 8433SOL    HW126198   1.307   2.237   6.204
 8433SOL    HW226199   1.318   2.220   6.042
 8434SOL     OW26200   5.462   0.093   5.314
 8434SOL    HW126201   5.400   0.023   5.348
 8434SOL    HW226202   5.410   0.174   5.287
 8435SOL     OW26203   4.458   1.777   1.196
 8435SOL    HW126204   4.473   1.757   1.099
 8435SOL    HW226205   4.396   1.855   1.204
 8436SOL     OW26206   4.195   4.231   1.640
 8436SOL    HW126207   4.102   4.231   1.678
 8436SOL    HW226208   4.261   4.230   1.715
 8437SOL     OW26209   0.340   1.107   1.376
 8437SOL    HW126210   0.310   1.116   1.471
 8437SOL    HW226211   0.343   1.010   1.351
 8438SOL     OW26212   1.489   6.431   1.860
 8438SOL    HW126213   1.584   6.461   1.864
 8438SOL    HW226214   1.431   6.507   1.832
 8439SOL     OW26215   0.324   5.969   2.099
 8439SOL    HW126216   0.396   5.954   2.031
 8439SOL    HW226217   0.345   6.052   2.152
 8440SOL     OW26218   1.088   0.874   2.700
 8440SOL    HW126219   1.024   0.859   2.625
 8440SOL    HW226220   1.152   0.947   2.675
 8441SOL     OW26221   4.813   5.376   6.613
 8441SOL    HW126222   4.883   5.424   6.665
 8441SOL    HW226223   4.723   5.398   6.650
 8442SOL     OW26224   2.458   4.760   6.756
 8442SOL    HW126225   2.397   4.720   6.825
 8442SOL    HW226226   2.422   4.849   6.728
 8443SOL     OW26227   1.773   0.613   3.064
 8443SOL    HW126228   1.800   0.606   2.968
 8443SOL    HW226229   1.803   0.700   3.101
 8444SOL     OW26230   3.599   5.995   3.631
 8444SOL    HW126231   3.558   6.073   3.584
 8444SOL    HW226232   3.674   6.027   3.690
 8445SOL     OW26233   3.856   5.035   2.428
 8445SOL    HW126234   3.817   4.986   2.505
 8445SOL    HW226235   3.841   4.983   2.344
 8446SOL     OW26236   5.867   4.457   2.555
 8446SOL    HW126237   5.966   4.459   2.543
 8446SOL    HW226238   5.839   4.533   2.614
 8447SOL     OW26239   4.506   2.529   2.272
 8447SOL    HW126240   4.418   2.487   2.294
 8447SOL    HW226241   4.513   2.541   2.173
 8448SOL     OW26242   0.993   3.583   6.504
 8448SOL    HW126243   1.040   3.509   6.552
 8448SOL    HW226244   0.991   3.564   6.406
 8449SOL     OW26245   1.733   2.860   4.518
 8449SOL    HW126246   1.705   2.777   4.566
 8449SOL    HW226247   1.820   2.892   4.555
 8450SOL     OW26248   2.003   5.262   2.565
 8450SOL    HW126249   2.039   5.232   2.477
 8450SOL    HW226250   2.047   5.210   2.639
 8451SOL     OW26251   3.683   2.391   1.026
 8451SOL    HW126252   3.756   2.388   1.093
 8451SOL    HW226253   3.604   2.440   1.063
 8452SOL     OW26254   6.562   6.297   0.649
 8452SOL    HW126255   6.586   6.365   0.579
 8452SOL    HW226256   6.465   6.304   0.670
 8453SOL     OW26257   6.398   4.077   6.410
 8453SOL    HW126258   6.334   4.015   6.456
 8453SOL    HW226259   6.356   4.168   6.403
 8454SOL     OW26260   1.634   0.165   4.415
 8454SOL    HW126261   1.643   0.077   4.368
 8454SOL    HW226262   1.710   0.176   4.479
 8455SOL     OW26263   4.953   1.289   1.235
 8455SOL    HW126264   5.033   1.345   1.257
 8455SOL    HW226265   4.944   1.280   1.136
 8456SOL     OW26266   5.569   5.869   2.955
 8456SOL    HW126267   5.523   5.881   3.043
 8456SOL    HW226268   5.657   5.823   2.970
 8457SOL     OW26269   0.060   5.598   6.096
 8457SOL    HW126270   0.025   5.504   6.095
 8457SOL    HW226271   0.154   5.598   6.132
 8458SOL     OW26272   1.306   1.906   0.666
 8458SOL    HW126273   1.394   1.863   0.647
 8458SOL    HW226274   1.232   1.842   0.647
 8459SOL     OW26275   3.485   5.858   2.081
 8459SOL    HW126276   3.452   5.791   2.148
 8459SOL    HW226277   3.435   5.944   2.093
 8460SOL     OW26278   4.571   1.342   0.868
 8460SOL    HW126279   4.490   1.283   0.877
 8460SOL    HW226280   4.554   1.411   0.798
 8461SOL     OW26281   6.330   3.941   1.629
 8461SOL    HW126282   6.266   3.919   1.702
 8461SOL    HW226283   6.361   4.035   1.639
 8462SOL     OW26284   3.211   5.223   0.082
 8462SOL    HW126285   3.195   5.148   0.018
 8462SOL    HW226286   3.134   5.286   0.080
 8463SOL     OW26287   6.763   1.289   0.253
 8463SOL    HW126288   6.736   1.240   0.335
 8463SOL    HW226289   6.848   1.339   0.270
 8464SOL     OW26290   0.196   3.731   0.035
 8464SOL    HW126291   0.151   3.718   6.970
 8464SOL    HW226292   0.158   3.811   0.080
 8465SOL     OW26293   4.053   3.174   1.410
 8465SOL    HW126294   4.029   3.202   1.503
 8465SOL    HW226295   3.971   3.146   1.360
 8466SOL     OW26296   5.960   1.067   5.758
 8466SOL    HW126297   5.974   0.976   5.720
 8466SOL    HW226298   5.942   1.061   5.856
 8467SOL     OW26299   3.264   0.907   1.283
 8467SOL    HW126300   3.181   0.882   1.233
 8467SOL    HW226301   3.239   0.949   1.370
 8468SOL     OW26302   6.181   3.224   0.319
 8468SOL    HW126303   6.156   3.321   0.323
 8468SOL    HW226304   6.278   3.214   0.340
 8469SOL     OW26305   3.972   2.871   6.014
 8469SOL    HW126306   3.932   2.942   6.074
 8469SOL    HW226307   3.926   2.873   5.926
 8470SOL     OW26308   1.650   5.275   1.434
 8470SOL    HW126309   1.687   5.223   1.510
 8470SOL    HW226310   1.560   5.311   1.459
 8471SOL     OW26311   3.657   2.158   5.288
 8471SOL    HW126312   3.561   2.183   5.277
 8471SOL    HW226313   3.673   2.068   5.248
 8472SOL     OW26314   5.663   1.775   5.937
 8472SOL    HW126315   5.698   1.691   5.895
 8472SOL    HW226316   5.739   1.837   5.957
 8473SOL     OW26317   4.408   4.676   6.338
 8473SOL    HW126318   4.464   4.759   6.331
 8473SOL    HW226319   4.466   4.596   6.325
 8474SOL     OW26320   3.674   3.694   2.783
 8474SOL    HW126321   3.734   3.615   2.798
 8474SOL    HW226322   3.715   3.775   2.825
 8475SOL     OW26323   6.759   2.789   2.000
 8475SOL    HW126324   6.769   2.866   1.936
 8475SOL    HW226325   6.737   2.706   1.949
 8476SOL     OW26326   6.194   6.749   1.882
 8476SOL    HW126327   6.122   6.737   1.951
 8476SOL    HW226328   6.153   6.746   1.791
 8477SOL     OW26329   6.144   6.550   1.589
 8477SOL    HW126330   6.082   6.625   1.567
 8477SOL    HW226331   6.102   6.463   1.564
 8478SOL     OW26332   6.460   0.075   5.078
 8478SOL    HW126333   6.371   0.040   5.108
 8478SOL    HW226334   6.531   0.007   5.099
 8479SOL     OW26335   0.781   2.736   1.801
 8479SOL    HW126336   0.838   2.748   1.719
 8479SOL    HW226337   0.770   2.824   1.847
 8480SOL     OW26338   4.869   4.447   0.117
 8480SOL    HW126339   4.772   4.472   0.109
 8480SOL    HW226340   4.905   4.483   0.203
 8481SOL     OW26341   3.877   2.109   3.583
 8481SOL    HW126342   3.949   2.177   3.568
 8481SOL    HW226343   3.830   2.092   3.497
 8482SOL     OW26344   4.454   1.291   0.054
 8482SOL    HW126345   4.361   1.255   0.066
 8482SOL    HW226346   4.451   1.391   0.054
 8483SOL     OW26347   2.937   5.300   3.397
 8483SOL    HW126348   3.000   5.229   3.429
 8483SOL    HW226349   2.849   5.290   3.443
 8484SOL     OW26350   6.267   6.035   3.847
 8484SOL    HW126351   6.347   6.093   3.832
 8484SOL    HW226352   6.198   6.054   3.776
 8485SOL     OW26353   2.553   2.794   0.515
 8485SOL    HW126354   2.550   2.733   0.436
 8485SOL    HW226355   2.600   2.879   0.491
 8486SOL     OW26356   1.071   1.137   2.520
 8486SOL    HW126357   1.122   1.162   2.437
 8486SOL    HW226358   1.033   1.046   2.509
 8487SOL     OW26359   6.306   1.819   5.819
 8487SOL    HW126360   6.259   1.734   5.840
 8487SOL    HW226361   6.345   1.857   5.903
 8488SOL     OW26362   5.398   4.610   1.903
 8488SOL    HW126363   5.408   4.565   1.815
 8488SOL    HW226364   5.359   4.546   1.970
 8489SOL     OW26365   4.951   1.160   1.718
 8489SOL    HW126366   4.990   1.247   1.686
 8489SOL    HW226367   4.878   1.178   1.783
 8490SOL     OW26368   1.998   0.625   6.995
 8490SOL    HW126369   1.923   0.686   6.968
 8490SOL    HW226370   2.043   0.663   0.054
 8491SOL     OW26371   3.357   5.764   2.294
 8491SOL    HW126372   3.420   5.689   2.315
 8491SOL    HW226373   3.263   5.732   2.299
 8492SOL     OW26374   6.119   5.747   4.395
 8492SOL    HW126375   6.201   5.768   4.448
 8492SOL    HW226376   6.086   5.830   4.351
 8493SOL     OW26377   3.849   0.337   6.989
 8493SOL    HW126378   3.886   0.266   6.929
 8493SOL    HW226379   3.890   0.328   0.057
 8494SOL     OW26380   6.239   5.088   2.184
 8494SOL    HW126381   6.207   5.006   2.138
 8494SOL    HW226382   6.207   5.088   2.279
 8495SOL     OW26383   6.520   5.466   0.134
 8495SOL    HW126384   6.468   5.536   0.184
 8495SOL    HW226385   6.566   5.508   0.056
 8496SOL     OW26386   5.279   2.051   2.746
 8496SOL    HW126387   5.205   2.034   2.680
 8496SOL    HW226388   5.349   2.109   2.703
 8497SOL     OW26389   6.333   1.037   3.816
 8497SOL    HW126390   6.383   0.952   3.832
 8497SOL    HW226391   6.363   1.106   3.882
 8498SOL     OW26392   4.934   0.436   4.052
 8498SOL    HW126393   4.969   0.392   4.135
 8498SOL    HW226394   4.894   0.367   3.992
 8499SOL     OW26395   6.388   6.765   6.177
 8499SOL    HW126396   6.350   6.687   6.127
 8499SOL    HW226397   6.476   6.790   6.138
 8500SOL     OW26398   1.820   0.528   4.597
 8500SOL    HW126399   1.764   0.497   4.520
 8500SOL    HW226400   1.851   0.621   4.580
 8501SOL     OW26401   0.748   2.063   6.125
 8501SOL    HW126402   0.727   2.118   6.206
 8501SOL    HW226403   0.827   2.101   6.078
 8502SOL     OW26404   0.471   2.796   6.963
 8502SOL    HW126405   0.525   2.878   6.946
 8502SOL    HW226406   0.376   2.811   6.935
 8503SOL     OW26407   5.646   0.345   4.096
 8503SOL    HW126408   5.745   0.332   4.104
 8503SOL    HW226409   5.601   0.256   4.094
 8504SOL     OW26410   1.701   5.234   2.636
 8504SOL    HW126411   1.687   5.232   2.537
 8504SOL    HW226412   1.797   5.217   2.657
 8505SOL     OW26413   5.399   3.150   2.973
 8505SOL    HW126414   5.368   3.061   2.940
 8505SOL    HW226415   5.456   3.137   3.055
 8506SOL     OW26416   1.908   0.434   0.130
 8506SOL    HW126417   1.951   0.460   0.216
 8506SOL    HW226418   1.942   0.493   0.057
 8507SOL     OW26419   4.579   5.882   5.853
 8507SOL    HW126420   4.665   5.846   5.818
 8507SOL    HW226421   4.507   5.867   5.785
 8508SOL     OW26422   3.469   1.782   0.239
 8508SOL    HW126423   3.555   1.735   0.218
 8508SOL    HW226424   3.444   1.842   0.164
 8509SOL     OW26425   5.283   0.712   3.762
 8509SOL    HW126426   5.222   0.667   3.827
 8509SOL    HW226427   5.237   0.791   3.722
 8510SOL     OW26428   6.650   1.957   4.438
 8510SOL    HW126429   6.626   1.952   4.535
 8510SOL    HW226430   6.569   1.982   4.385
 8511SOL     OW26431   6.062   2.759   2.050
 8511SOL    HW126432   6.099   2.754   2.143
 8511SOL    HW226433   5.992   2.688   2.039
 8512SOL     OW26434   1.801   6.877   4.858
 8512SOL    HW126435   1.773   6.914   4.946
 8512SOL    HW226436   1.791   6.777   4.859
 8513SOL     OW26437   5.626   5.957   6.603
 8513SOL    HW126438   5.697   5.889   6.618
 8513SOL    HW226439   5.603   6.002   6.689
 8514SOL     OW26440   2.222   5.709   3.886
 8514SOL    HW126441   2.130   5.737   3.862
 8514SOL    HW226442   2.256   5.765   3.962
 8515SOL     OW26443   4.912   2.110   1.466
 8515SOL    HW126444   4.930   2.143   1.559
 8515SOL    HW226445   4.840   2.040   1.469
 8516SOL     OW26446   7.003   1.994   2.373
 8516SOL    HW126447   6.939   1.927   2.412
 8516SOL    HW226448   0.051   1.946   2.321
 8517SOL     OW26449   2.425   2.352   6.881
 8517SOL    HW126450   2.329   2.349   6.854
 8517SOL    HW226451   2.467   2.262   6.866
 8518SOL     OW26452   3.624   5.777   0.634
 8518SOL    HW126453   3.566   5.841   0.685
 8518SOL    HW226454   3.590   5.768   0.540
 8519SOL     OW26455   1.035   5.556   2.871
 8519SOL    HW126456   0.997   5.578   2.781
 8519SOL    HW226457   1.090   5.633   2.903
 8520SOL     OW26458   3.710   1.158   0.067
 8520SOL    HW126459   3.659   1.112   0.140
 8520SOL    HW226460   3.646   1.209   0.009
 8521SOL     OW26461   1.190   6.349   6.310
 8521SOL    HW126462   1.185   6.325   6.213
 8521SOL    HW226463   1.167   6.268   6.366
 8522SOL     OW26464   1.264   5.819   5.177
 8522SOL    HW126465   1.300   5.730   5.150
 8522SOL    HW226466   1.232   5.868   5.095
 8523SOL     OW26467   1.498   0.305   6.767
 8523SOL    HW126468   1.487   0.218   6.817
 8523SOL    HW226469   1.536   0.373   6.829
 8524SOL     OW26470   1.021   2.952   6.208
 8524SOL    HW126471   1.083   2.877   6.186
 8524SOL    HW226472   1.069   3.020   6.262
 8525SOL     OW26473   5.829   3.173   2.844
 8525SOL    HW126474   5.757   3.177   2.775
 8525SOL    HW226475   5.918   3.185   2.799
 8526SOL     OW26476   1.881   2.970   2.036
 8526SOL    HW126477   1.974   2.934   2.040
 8526SOL    HW226478   1.878   3.059   2.080
 8527SOL     OW26479   4.496   0.905   4.594
 8527SOL    HW126480   4.470   0.822   4.546
 8527SOL    HW226481   4.592   0.900   4.620
 8528SOL     OW26482   4.736   2.526   6.563
 8528SOL    HW126483   4.772   2.524   6.656
 8528SOL    HW226484   4.807   2.498   6.499
 8529SOL     OW26485   0.429   4.590   0.034
 8529SOL    HW126486   0.481   4.532   0.096
 8529SOL    HW226487   0.479   4.675   0.019
 8530SOL     OW26488   1.771   3.590   5.585
 8530SOL    HW126489   1.783   3.689   5.583
 8530SOL    HW226490   1.716   3.562   5.506
 8531SOL     OW26491   4.577   4.882   2.885
 8531SOL    HW126492   4.640   4.926   2.949
 8531SOL    HW226493   4.510   4.828   2.935
 8532SOL     OW26494   2.379   3.654   6.085
 8532SOL    HW126495   2.388   3.565   6.129
 8532SOL    HW226496   2.457   3.668   6.024
 8533SOL     OW26497   3.560   0.381   5.343
 8533SOL    HW126498   3.520   0.299   5.303
 8533SOL    HW226499   3.493   0.428   5.400
 8534SOL     OW26500   1.559   2.846   3.022
 8534SOL    HW126501   1.619   2.769   2.999
 8534SOL    HW226502   1.542   2.901   2.940
 8535SOL     OW26503   0.482   2.207   4.607
 8535SOL    HW126504   0.578   2.228   4.624
 8535SOL    HW226505   0.432   2.292   4.590
 8536SOL     OW26506   0.425   1.622   6.048
 8536SOL    HW126507   0.476   1.707   6.042
 8536SOL    HW226508   0.409   1.598   6.144
 8537SOL     OW26509   5.440   0.194   2.100
 8537SOL    HW126510   5.408   0.226   2.190
 8537SOL    HW226511   5.437   0.095   2.097
 8538SOL     OW26512   5.592   1.276   4.909
 8538SOL    HW126513   5.599   1.233   4.999
 8538SOL    HW226514   5.523   1.348   4.911
 8539SOL     OW26515   6.908   3.431   2.009
 8539SOL    HW126516   6.895   3.481   2.095
 8539SOL    HW226517   6.843   3.355   2.005
 8540SOL     OW26518   4.723   0.228   6.980
 8540SOL    HW126519   4.806   0.282   6.992
 8540SOL    HW226520   4.643   0.284   7.001
 8541SOL     OW26521   3.232   0.512   5.165
 8541SOL    HW126522   3.140   0.549   5.180
 8541SOL    HW226523   3.298   0.568   5.214
 8542SOL     OW26524   1.642   4.502   6.757
 8542SOL    HW126525   1.714   4.437   6.734
 8542SOL    HW226526   1.645   4.523   6.854
 8543SOL     OW26527   2.271   2.146   6.557
 8543SOL    HW126528   2.274   2.125   6.655
 8543SOL    HW226529   2.189   2.200   6.538
 8544SOL     OW26530   5.372   4.456   5.414
 8544SOL    HW126531   5.310   4.406   5.474
 8544SOL    HW226532   5.454   4.482   5.465
 8545SOL     OW26533   2.906   0.759   6.680
 8545SOL    HW126534   2.895   0.660   6.666
 8545SOL    HW226535   2.821   0.797   6.716
 8546SOL     OW26536   5.314   0.144   1.482
 8546SOL    HW126537   5.385   0.187   1.539
 8546SOL    HW226538   5.230   0.197   1.487
 8547SOL     OW26539   6.044   6.138   5.303
 8547SOL    HW126540   6.076   6.095   5.387
 8547SOL    HW226541   6.110   6.209   5.276
 8548SOL     OW26542   0.042   3.113   5.768
 8548SOL    HW126543   7.020   3.106   5.679
 8548SOL    HW226544   0.136   3.145   5.756
 8549SOL     OW26545   1.929   0.222   3.648
 8549SOL    HW126546   1.928   0.213   3.748
 8549SOL    HW226547   2.022   0.239   3.617
 8550SOL     OW26548   6.590   4.182   5.942
 8550SOL    HW126549   6.641   4.097   5.950
 8550SOL    HW226550   6.654   4.259   5.942
 8551SOL     OW26551   2.113   1.363   6.343
 8551SOL    HW126552   2.158   1.441   6.297
 8551SOL    HW226553   2.036   1.332   6.288
 8552SOL     OW26554   2.726   1.781   3.108
 8552SOL    HW126555   2.667   1.847   3.060
 8552SOL    HW226556   2.804   1.759   3.049
 8553SOL     OW26557   4.907   3.251   6.849
 8553SOL    HW126558   4.938   3.284   6.760
 8553SOL    HW226559   4.959   3.169   6.875
 8554SOL     OW26560   1.455   1.098   1.025
 8554SOL    HW126561   1.366   1.054   1.040
 8554SOL    HW226562   1.445   1.197   1.035
 8555SOL     OW26563   4.402   1.284   4.028
 8555SOL    HW126564   4.487   1.233   4.024
 8555SOL    HW226565   4.337   1.246   3.962
 8556SOL     OW26566   2.216   6.199   0.445
 8556SOL    HW126567   2.256   6.285   0.480
 8556SOL    HW226568   2.184   6.213   0.352
 8557SOL     OW26569   0.635   0.700   0.420
 8557SOL    HW126570   0.631   0.615   0.368
 8557SOL    HW226571   0.669   0.774   0.362
 8558SOL     OW26572   3.216   5.936   4.601
 8558SOL    HW126573   3.199   5.978   4.512
 8558SOL    HW226574   3.161   5.981   4.671
 8559SOL     OW26575   0.953   5.188   2.946
 8559SOL    HW126576   1.010   5.183   2.864
 8559SOL    HW226577   0.995   5.251   3.011
 8560SOL     OW26578   3.211   4.453   1.599
 8560SOL    HW126579   3.154   4.371   1.606
 8560SOL    HW226580   3.156   4.534   1.622
 8561SOL     OW26581   4.551   0.187   2.119
 8561SOL    HW126582   4.500   0.230   2.044
 8561SOL    HW226583   4.549   0.246   2.199
 8562SOL     OW26584   4.992   1.890   6.755
 8562SOL    HW126585   4.909   1.919   6.708
 8562SOL    HW226586   5.005   1.792   6.743
 8563SOL     OW26587   2.442   4.950   1.910
 8563SOL    HW126588   2.527   4.994   1.936
 8563SOL    HW226589   2.416   4.884   1.980
 8564SOL     OW26590   4.324   0.494   6.758
 8564SOL    HW126591   4.326   0.591   6.734
 8564SOL    HW226592   4.381   0.443   6.694
 8565SOL     OW26593   2.114   4.740   0.894
 8565SOL    HW126594   2.075   4.768   0.806
 8565SOL    HW226595   2.214   4.733   0.885
 8566SOL     OW26596   3.402   0.904   2.377
 8566SOL    HW126597   3.500   0.900   2.359
 8566SOL    HW226598   3.386   0.931   2.472
 8567SOL     OW26599   1.948   2.955   1.595
 8567SOL    HW126600   1.920   2.893   1.668
 8567SOL    HW226601   2.028   2.918   1.547
 8568SOL     OW26602   6.250   0.508   6.279
 8568SOL    HW126603   6.318   0.549   6.218
 8568SOL    HW226604   6.212   0.578   6.339
 8569SOL     OW26605   4.541   2.270   6.211
 8569SOL    HW126606   4.619   2.252   6.151
 8569SOL    HW226607   4.480   2.335   6.166
 8570SOL     OW26608   1.758   2.478   3.114
 8570SOL    HW126609   1.736   2.452   3.208
 8570SOL    HW226610   1.792   2.398   3.064
 8571SOL     OW26611   1.660   0.864   3.013
 8571SOL    HW126612   1.690   0.960   3.016
 8571SOL    HW226613   1.679   0.826   2.923
 8572SOL     OW26614   2.971   4.178   5.533
 8572SOL    HW126615   3.053   4.188   5.589
 8572SOL    HW226616   2.972   4.246   5.460
 8573SOL     OW26617   3.950   6.209   0.370
 8573SOL    HW126618   3.903   6.217   0.457
 8573SOL    HW226619   3.986   6.116   0.359
 8574SOL     OW26620   5.185   0.702   4.843
 8574SOL    HW126621   5.266   0.643   4.841
 8574SOL    HW226622   5.205   0.787   4.794
 8575SOL     OW26623   3.114   6.339   3.271
 8575SOL    HW126624   3.109   6.264   3.205
 8575SOL    HW226625   3.024   6.353   3.313
 8576SOL     OW26626   1.194   4.949   3.246
 8576SOL    HW126627   1.281   4.983   3.211
 8576SOL    HW226628   1.211   4.868   3.303
 8577SOL     OW26629   1.953   1.641   0.718
 8577SOL    HW126630   1.897   1.636   0.635
 8577SOL    HW226631   1.928   1.565   0.779
 8578SOL     OW26632   6.895   6.753   6.070
 8578SOL    HW126633   6.880   6.848   6.099
 8578SOL    HW226634   6.879   6.746   5.971
 8579SOL     OW26635   3.140   6.474   2.933
 8579SOL    HW126636   3.235   6.504   2.941
 8579SOL    HW226637   3.109   6.488   2.839
 8580SOL     OW26638   2.596   0.566   1.078
 8580SOL    HW126639   2.650   0.489   1.112
 8580SOL    HW226640   2.510   0.571   1.127
 8581SOL     OW26641   3.069   5.151   1.543
 8581SOL    HW126642   2.984   5.164   1.491
 8581SOL    HW226643   3.120   5.237   1.546
 8582SOL     OW26644   3.845   4.575   5.947
 8582SOL    HW126645   3.756   4.540   5.915
 8582SOL    HW226646   3.884   4.511   6.013
 8583SOL     OW26647   4.659   0.542   2.690
 8583SOL    HW126648   4.647   0.570   2.594
 8583SOL    HW226649   4.579   0.571   2.743
 8584SOL     OW26650   6.725   1.505   4.652
 8584SOL    HW126651   6.788   1.548   4.587
 8584SOL    HW226652   6.748   1.534   4.745
 8585SOL     OW26653   5.498   2.223   2.669
 8585SOL    HW126654   5.431   2.251   2.600
 8585SOL    HW226655   5.561   2.157   2.629
 8586SOL     OW26656   6.249   5.953   0.960
 8586SOL    HW126657   6.296   5.871   0.927
 8586SOL    HW226658   6.203   5.998   0.884
 8587SOL     OW26659   1.179   1.866   0.005
 8587SOL    HW126660   1.101   1.916   0.042
 8587SOL    HW226661   1.162   1.844   6.932
 8588SOL     OW26662   2.364   1.483   6.916
 8588SOL    HW126663   2.327   1.495   7.008
 8588SOL    HW226664   2.422   1.401   6.914
 8589SOL     OW26665   6.723   2.609   6.655
 8589SOL    HW126666   6.648   2.670   6.631
 8589SOL    HW226667   6.795   2.661   6.701
 8590SOL     OW26668   1.454   1.012   3.797
 8590SOL    HW126669   1.522   0.972   3.736
 8590SOL    HW226670   1.500   1.057   3.873
 8591SOL     OW26671   6.224   3.937   6.557
 8591SOL    HW126672   6.252   3.916   6.651
 8591SOL    HW226673   6.126   3.921   6.547
 8592SOL     OW26674   1.187   1.640   6.061
 8592SOL    HW126675   1.238   1.715   6.020
 8592SOL    HW226676   1.094   1.669   6.080
 8593SOL     OW26677   3.963   1.453   0.471
 8593SOL    HW126678   3.916   1.393   0.407
 8593SOL    HW226679   3.974   1.407   0.559
 8594SOL     OW26680   6.238   3.062   5.443
 8594SOL    HW126681   6.304   2.995   5.409
 8594SOL    HW226682   6.247   3.146   5.389
 8595SOL     OW26683   6.454   6.620   2.187
 8595SOL    HW126684   6.402   6.570   2.117
 8595SOL    HW226685   6.405   6.615   2.274
 8596SOL     OW26686   1.292   1.298   3.956
 8596SOL    HW126687   1.267   1.371   3.892
 8596SOL    HW226688   1.211   1.244   3.978
 8597SOL     OW26689   5.416   3.287   6.972
 8597SOL    HW126690   5.510   3.319   6.987
 8597SOL    HW226691   5.359   3.315   0.027
 8598SOL     OW26692   6.389   6.926   4.343
 8598SOL    HW126693   6.452   6.868   4.394
 8598SOL    HW226694   6.417   7.022   4.351
 8599SOL     OW26695   0.330   3.169   4.086
 8599SOL    HW126696   0.280   3.092   4.048
 8599SOL    HW226697   0.290   3.195   4.174
 8600SOL     OW26698   4.201   2.218   1.221
 8600SOL    HW126699   4.243   2.222   1.130
 8600SOL    HW226700   4.239   2.289   1.279
 8601SOL     OW26701   1.154   6.616   2.905
 8601SOL    HW126702   1.058   6.608   2.877
 8601SOL    HW226703   1.199   6.527   2.893
 8602SOL     OW26704   2.329   6.610   5.381
 8602SOL    HW126705   2.357   6.605   5.285
 8602SOL    HW226706   2.250   6.671   5.390
 8603SOL     OW26707   0.069   0.234   0.478
 8603SOL    HW126708   0.152   0.208   0.528
 8603SOL    HW226709   7.012   0.223   0.537
 8604SOL     OW26710   0.358   4.347   6.127
 8604SOL    HW126711   0.302   4.388   6.055
 8604SOL    HW226712   0.430   4.412   6.154
 8605SOL     OW26713   6.918   5.573   4.597
 8605SOL    HW126714   6.954   5.480   4.594
 8605SOL    HW226715   6.986   5.637   4.560
 8606SOL     OW26716   1.890   2.528   0.389
 8606SOL    HW126717   1.822   2.469   0.346
 8606SOL    HW226718   1.903   2.610   0.333
 8607SOL     OW26719   2.269   4.365   1.613
 8607SOL    HW126720   2.345   4.427   1.632
 8607SOL    HW226721   2.192   4.388   1.673
 8608SOL     OW26722   2.263   5.123   2.986
 8608SOL    HW126723   2.214   5.181   3.051
 8608SOL    HW226724   2.230   5.142   2.893
 8609SOL     OW26725   4.676   1.208   4.115
 8609SOL    HW126726   4.728   1.289   4.089
 8609SOL    HW226727   4.598   1.235   4.172
 8610SOL     OW26728   0.635   6.240   2.921
 8610SOL    HW126729   0.569   6.315   2.915
 8610SOL    HW226730   0.629   6.197   3.011
 8611SOL     OW26731   3.050   1.450   4.768
 8611SOL    HW126732   3.056   1.502   4.682
 8611SOL    HW226733   3.125   1.476   4.828
 8612SOL     OW26734   3.640   4.048   4.062
 8612SOL    HW126735   3.637   4.041   3.962
 8612SOL    HW226736   3.550   4.075   4.096
 8613SOL     OW26737   3.527   2.931   1.366
 8613SOL    HW126738   3.556   2.841   1.399
 8613SOL    HW226739   3.471   2.975   1.436
 8614SOL     OW26740   1.340   2.259   3.035
 8614SOL    HW126741   1.345   2.164   3.064
 8614SOL    HW226742   1.426   2.285   2.991
 8615SOL     OW26743   4.205   1.265   4.283
 8615SOL    HW126744   4.204   1.180   4.230
 8615SOL    HW226745   4.250   1.336   4.230
 8616SOL     OW26746   4.646   4.551   2.987
 8616SOL    HW126747   4.675   4.456   2.984
 8616SOL    HW226748   4.590   4.572   2.907
 8617SOL     OW26749   3.562   0.180   3.926
 8617SOL    HW126750   3.644   0.125   3.941
 8617SOL    HW226751   3.528   0.213   4.014
 8618SOL     OW26752   5.690   4.878   0.717
 8618SOL    HW126753   5.735   4.790   0.731
 8618SOL    HW226754   5.636   4.874   0.633
 8619SOL     OW26755   4.784   4.825   0.738
 8619SOL    HW126756   4.872   4.855   0.700
 8619SOL    HW226757   4.775   4.858   0.832
 8620SOL     OW26758   1.886   0.016   5.171
 8620SOL    HW126759   1.893   0.069   5.255
 8620SOL    HW226760   1.919   0.072   5.094
 8621SOL     OW26761   5.463   2.388   1.674
 8621SOL    HW126762   5.496   2.294   1.682
 8621SOL    HW226763   5.476   2.435   1.761
 8622SOL     OW26764   6.653   4.763   2.575
 8622SOL    HW126765   6.696   4.840   2.528
 8622SOL    HW226766   6.665   4.773   2.674
 8623SOL     OW26767   0.695   3.409   4.333
 8623SOL    HW126768   0.760   3.343   4.295
 8623SOL    HW226769   0.680   3.483   4.267
 8624SOL     OW26770   2.746   3.899   5.199
 8624SOL    HW126771   2.772   3.877   5.293
 8624SOL    HW226772   2.656   3.942   5.198
 8625SOL     OW26773   4.085   2.472   5.557
 8625SOL    HW126774   4.176   2.511   5.573
 8625SOL    HW226775   4.016   2.544   5.562
 8626SOL     OW26776   3.821   4.210   0.687
 8626SOL    HW126777   3.874   4.132   0.654
 8626SOL    HW226778   3.724   4.195   0.668
 8627SOL     OW26779   1.705   0.585   2.272
 8627SOL    HW126780   1.625   0.525   2.267
 8627SOL    HW226781   1.689   0.667   2.218
 8628SOL     OW26782   0.946   6.442   0.908
 8628SOL    HW126783   0.881   6.488   0.968
 8628SOL    HW226784   0.913   6.350   0.887
 8629SOL     OW26785   6.466   6.758   5.207
 8629SOL    HW126786   6.529   6.814   5.260
 8629SOL    HW226787   6.483   6.772   5.109
 8630SOL     OW26788   5.156   3.088   2.544
 8630SOL    HW126789   5.112   3.013   2.595
 8630SOL    HW226790   5.133   3.175   2.588
 8631SOL     OW26791   2.762   7.000   0.307
 8631SOL    HW126792   2.753   6.968   0.402
 8631SOL    HW226793   2.701   6.947   0.248
 8632SOL     OW26794   5.581   5.007   5.760
 8632SOL    HW126795   5.593   4.965   5.850
 8632SOL    HW226796   5.548   5.101   5.770
 8633SOL     OW26797   5.366   4.144   6.577
 8633SOL    HW126798   5.268   4.139   6.556
 8633SOL    HW226799   5.398   4.054   6.607
 8634SOL     OW26800   4.734   3.397   0.150
 8634SOL    HW126801   4.742   3.431   0.244
 8634SOL    HW226802   4.812   3.429   0.096
 8635SOL     OW26803   5.917   2.332   5.990
 8635SOL    HW126804   5.946   2.414   6.040
 8635SOL    HW226805   5.954   2.334   5.897
 8636SOL     OW26806   5.239   6.444   1.375
 8636SOL    HW126807   5.178   6.522   1.391
 8636SOL    HW226808   5.186   6.366   1.343
 8637SOL     OW26809   1.365   2.110   0.472
 8637SOL    HW126810   1.294   2.045   0.499
 8637SOL    HW226811   1.437   2.061   0.424
 8638SOL     OW26812   4.873   2.567   4.501
 8638SOL    HW126813   4.915   2.617   4.426
 8638SOL    HW226814   4.873   2.623   4.584
 8639SOL     OW26815   3.399   4.373   6.780
 8639SOL    HW126816   3.393   4.343   6.875
 8639SOL    HW226817   3.386   4.296   6.719
 8640SOL     OW26818   2.790   3.603   1.622
 8640SOL    HW126819   2.779   3.578   1.526
 8640SOL    HW226820   2.719   3.559   1.677
 8641SOL     OW26821   4.564   6.372   2.330
 8641SOL    HW126822   4.576   6.383   2.429
 8641SOL    HW226823   4.540   6.277   2.310
 8642SOL     OW26824   1.131   5.671   3.849
 8642SOL    HW126825   1.186   5.596   3.812
 8642SOL    HW226826   1.130   5.746   3.783
 8643SOL     OW26827   3.856   5.982   1.229
 8643SOL    HW126828   3.879   6.075   1.197
 8643SOL    HW226829   3.938   5.925   1.224
 8644SOL     OW26830   6.576   1.780   6.690
 8644SOL    HW126831   6.649   1.758   6.754
 8644SOL    HW226832   6.493   1.730   6.715
 8645SOL     OW26833   5.618   3.883   2.450
 8645SOL    HW126834   5.672   3.800   2.459
 8645SOL    HW226835   5.552   3.872   2.376
 8646SOL     OW26836   0.368   2.229   4.986
 8646SOL    HW126837   0.355   2.166   5.063
 8646SOL    HW226838   0.451   2.282   4.999
 8647SOL     OW26839   2.572   5.313   1.983
 8647SOL    HW126840   2.633   5.259   1.924
 8647SOL    HW226841   2.524   5.381   1.927
 8648SOL     OW26842   5.262   5.333   0.419
 8648SOL    HW126843   5.307   5.421   0.434
 8648SOL    HW226844   5.226   5.330   0.325
 8649SOL     OW26845   4.332   0.464   1.503
 8649SOL    HW126846   4.425   0.499   1.498
 8649SOL    HW226847   4.290   0.469   1.413
 8650SOL     OW26848   2.055   6.956   4.831
 8650SOL    HW126849   2.090   7.015   4.903
 8650SOL    HW226850   1.959   6.934   4.849
 8651SOL     OW26851   3.417   1.760   0.828
 8651SOL    HW126852   3.464   1.845   0.855
 8651SOL    HW226853   3.438   1.739   0.733
 8652SOL     OW26854   1.086   3.449   3.307
 8652SOL    HW126855   0.987   3.460   3.298
 8652SOL    HW226856   1.124   3.418   3.220
 8653SOL     OW26857   6.931   1.640   6.083
 8653SOL    HW126858   6.961   1.681   5.996
 8653SOL    HW226859   6.887   1.711   6.139
 8654SOL     OW26860   0.611   4.677   1.448
 8654SOL    HW126861   0.651   4.640   1.364
 8654SOL    HW226862   0.614   4.607   1.519
 8655SOL     OW26863   0.371   0.432   4.943
 8655SOL    HW126864   0.354   0.525   4.911
 8655SOL    HW226865   0.465   0.425   4.977
 8656SOL     OW26866   4.702   0.116   0.930
 8656SOL    HW126867   4.635   0.112   0.856
 8656SOL    HW226868   4.667   0.066   1.009
 8657SOL     OW26869   4.910   1.487   3.244
 8657SOL    HW126870   4.872   1.552   3.310
 8657SOL    HW226871   5.010   1.485   3.252
 8658SOL     OW26872   6.797   4.501   0.509
 8658SOL    HW126873   6.802   4.599   0.491
 8658SOL    HW226874   6.841   4.482   0.597
 8659SOL     OW26875   4.363   0.851   2.503
 8659SOL    HW126876   4.401   0.943   2.494
 8659SOL    HW226877   4.274   0.857   2.548
 8660SOL     OW26878   6.509   3.656   1.900
 8660SOL    HW126879   6.413   3.652   1.870
 8660SOL    HW226880   6.523   3.592   1.975
 8661SOL     OW26881   6.417   3.974   2.804
 8661SOL    HW126882   6.493   3.963   2.869
 8661SOL    HW226883   6.340   3.917   2.832
 8662SOL     OW26884   2.589   4.650   3.114
 8662SOL    HW126885   2.501   4.664   3.159
 8662SOL    HW226886   2.663   4.669   3.179
 8663SOL     OW26887   3.896   5.508   2.534
 8663SOL    HW126888   3.985   5.499   2.488
 8663SOL    HW226889   3.846   5.585   2.494
 8664SOL     OW26890   3.177   6.044   4.149
 8664SOL    HW126891   3.229   5.966   4.184
 8664SOL    HW226892   3.227   6.085   4.073
 8665SOL     OW26893   5.314   3.212   6.601
 8665SOL    HW126894   5.343   3.124   6.639
 8665SOL    HW226895   5.337   3.215   6.504
 8666SOL     OW26896   4.738   6.261   2.847
 8666SOL    HW126897   4.639   6.274   2.855
 8666SOL    HW226898   4.779   6.251   2.937
 8667SOL     OW26899   5.130   2.238   3.743
 8667SOL    HW126900   5.161   2.179   3.668
 8667SOL    HW226901   5.081   2.183   3.810
 8668SOL     OW26902   5.248   2.700   5.021
 8668SOL    HW126903   5.288   2.725   5.109
 8668SOL    HW226904   5.149   2.691   5.032
 8669SOL     OW26905   5.851   6.285   5.871
 8669SOL    HW126906   5.792   6.223   5.922
 8669SOL    HW226907   5.926   6.232   5.830
 8670SOL     OW26908   5.981   4.089   5.747
 8670SOL    HW126909   5.932   4.160   5.696
 8670SOL    HW226910   5.998   4.011   5.687
 8671SOL     OW26911   6.952   1.780   2.749
 8671SOL    HW126912   0.018   1.824   2.734
 8671SOL    HW226913   6.893   1.841   2.802
 8672SOL     OW26914   0.928   0.824   3.413
 8672SOL    HW126915   0.987   0.897   3.447
 8672SOL    HW226916   0.885   0.777   3.490
 8673SOL     OW26917   0.659   1.375   1.091
 8673SOL    HW126918   0.677   1.464   1.051
 8673SOL    HW226919   0.598   1.323   1.031
 8674SOL     OW26920   6.675   4.470   3.431
 8674SOL    HW126921   6.736   4.427   3.364
 8674SOL    HW226922   6.664   4.567   3.408
 8675SOL     OW26923   3.855   1.852   5.534
 8675SOL    HW126924   3.874   1.950   5.524
 8675SOL    HW226925   3.814   1.835   5.624
 8676SOL     OW26926   5.513   1.578   0.598
 8676SOL    HW126927   5.475   1.495   0.558
 8676SOL    HW226928   5.535   1.643   0.525
 8677SOL     OW26929   1.810   6.505   5.981
 8677SOL    HW126930   1.835   6.563   6.059
 8677SOL    HW226931   1.841   6.412   5.996
 8678SOL     OW26932   1.362   1.466   0.866
 8678SOL    HW126933   1.452   1.476   0.907
 8678SOL    HW226934   1.300   1.421   0.931
 8679SOL     OW26935   1.801   1.670   4.573
 8679SOL    HW126936   1.898   1.648   4.584
 8679SOL    HW226937   1.747   1.610   4.631
 8680SOL     OW26938   6.535   1.349   6.639
 8680SOL    HW126939   6.479   1.318   6.716
 8680SOL    HW226940   6.618   1.393   6.674
 8681SOL     OW26941   5.783   5.839   1.900
 8681SOL    HW126942   5.829   5.756   1.930
 8681SOL    HW226943   5.822   5.918   1.948
 8682SOL     OW26944   1.013   0.980   1.236
 8682SOL    HW126945   1.003   1.077   1.215
 8682SOL    HW226946   0.925   0.944   1.269
 8683SOL     OW26947   1.587   4.226   4.576
 8683SOL    HW126948   1.651   4.256   4.647
 8683SOL    HW226949   1.609   4.273   4.490
 8684SOL     OW26950   0.843   3.989   4.905
 8684SOL    HW126951   0.918   3.956   4.962
 8684SOL    HW226952   0.759   3.941   4.931
 8685SOL     OW26953   4.986   2.385   5.098
 8685SOL    HW126954   5.069   2.330   5.109
 8685SOL    HW226955   4.973   2.442   5.179
 8686SOL     OW26956   0.141   5.545   2.740
 8686SOL    HW126957   0.209   5.482   2.700
 8686SOL    HW226958   0.130   5.624   2.681
 8687SOL     OW26959   5.310   3.373   4.813
 8687SOL    HW126960   5.257   3.318   4.747
 8687SOL    HW226961   5.249   3.408   4.883
 8688SOL     OW26962   0.779   4.035   6.269
 8688SOL    HW126963   0.734   4.043   6.358
 8688SOL    HW226964   0.719   4.074   6.199
 8689SOL     OW26965   3.972   3.869   6.789
 8689SOL    HW126966   3.892   3.896   6.735
 8689SOL    HW226967   4.055   3.883   6.735
 8690SOL     OW26968   1.983   2.275   3.321
 8690SOL    HW126969   1.962   2.239   3.411
 8690SOL    HW226970   1.976   2.375   3.323
 8691SOL     OW26971   3.113   2.543   5.425
 8691SOL    HW126972   3.164   2.496   5.353
 8691SOL    HW226973   3.177   2.588   5.488
 8692SOL     OW26974   4.380   1.844   5.369
 8692SOL    HW126975   4.451   1.794   5.318
 8692SOL    HW226976   4.302   1.862   5.309
 8693SOL     OW26977   6.436   0.358   6.611
 8693SOL    HW126978   6.439   0.279   6.550
 8693SOL    HW226979   6.494   0.431   6.574
 8694SOL     OW26980   6.123   3.442   4.322
 8694SOL    HW126981   6.134   3.526   4.375
 8694SOL    HW226982   6.043   3.451   4.262
 8695SOL     OW26983   3.681   4.235   5.906
 8695SOL    HW126984   3.669   4.138   5.887
 8695SOL    HW226985   3.764   4.249   5.960
 8696SOL     OW26986   3.460   5.582   6.287
 8696SOL    HW126987   3.449   5.576   6.188
 8696SOL    HW226988   3.535   5.523   6.316
 8697SOL     OW26989   1.372   3.173   5.957
 8697SOL    HW126990   1.275   3.147   5.958
 8697SOL    HW226991   1.417   3.130   5.879
 8698SOL     OW26992   5.659   5.732   5.279
 8698SOL    HW126993   5.678   5.792   5.356
 8698SOL    HW226994   5.722   5.753   5.204
 8699SOL     OW26995   1.713   3.158   6.633
 8699SOL    HW126996   1.796   3.134   6.682
 8699SOL    HW226997   1.641   3.181   6.698
 8700SOL     OW26998   0.899   6.871   4.967
 8700SOL    HW126999   0.900   6.791   5.026
 8700SOL    HW227000   0.853   6.947   5.014
 8701SOL     OW27001   0.774   2.593   0.493
 8701SOL    HW127002   0.858   2.538   0.486
 8701SOL    HW227003   0.695   2.535   0.472
 8702SOL     OW27004   5.662   4.719   1.829
 8702SOL    HW127005   5.687   4.813   1.852
 8702SOL    HW227006   5.562   4.713   1.819
 8703SOL     OW27007   2.828   5.200   1.427
 8703SOL    HW127008   2.838   5.276   1.363
 8703SOL    HW227009   2.746   5.147   1.404
 8704SOL     OW27010   0.557   0.737   4.363
 8704SOL    HW127011   0.596   0.661   4.415
 8704SOL    HW227012   0.470   0.709   4.323
 8705SOL     OW27013   4.266   2.543   0.235
 8705SOL    HW127014   4.355   2.542   0.190
 8705SOL    HW227015   4.197   2.579   0.172
 8706SOL     OW27016   4.540   3.100   6.701
 8706SOL    HW127017   4.459   3.042   6.702
 8706SOL    HW227018   4.544   3.154   6.785
 8707SOL     OW27019   1.759   2.163   4.796
 8707SOL    HW127020   1.841   2.105   4.789
 8707SOL    HW227021   1.731   2.192   4.705
 8708SOL     OW27022   6.279   2.332   1.676
 8708SOL    HW127023   6.233   2.311   1.763
 8708SOL    HW227024   6.261   2.258   1.611
 8709SOL     OW27025   6.557   0.398   5.464
 8709SOL    HW127026   6.491   0.405   5.539
 8709SOL    HW227027   6.616   0.318   5.479
 8710SOL     OW27028   2.422   1.230   3.118
 8710SOL    HW127029   2.503   1.197   3.168
 8710SOL    HW227030   2.443   1.317   3.074
 8711SOL     OW27031   1.834   0.653   1.577
 8711SOL    HW127032   1.859   0.747   1.601
 8711SOL    HW227033   1.913   0.606   1.539
 8712SOL     OW27034   1.866   3.064   5.895
 8712SOL    HW127035   1.889   3.106   5.808
 8712SOL    HW227036   1.925   3.099   5.967
 8713SOL     OW27037   0.411   5.254   1.708
 8713SOL    HW127038   0.409   5.305   1.793
 8713SOL    HW227039   0.432   5.316   1.632
 8714SOL     OW27040   0.174   6.036   6.988
 8714SOL    HW127041   0.266   6.003   6.964
 8714SOL    HW227042   0.149   5.999   0.055
 8715SOL     OW27043   2.557   3.413   1.322
 8715SOL    HW127044   2.462   3.429   1.349
 8715SOL    HW227045   2.569   3.318   1.294
 8716SOL     OW27046   6.652   6.796   1.886
 8716SOL    HW127047   6.556   6.821   1.901
 8716SOL    HW227048   6.662   6.760   1.793
 8717SOL     OW27049   2.641   4.259   0.928
 8717SOL    HW127050   2.709   4.307   0.982
 8717SOL    HW227051   2.564   4.320   0.908
 8718SOL     OW27052   2.551   4.530   6.650
 8718SOL    HW127053   2.639   4.565   6.616
 8718SOL    HW227054   2.503   4.603   6.700
 8719SOL     OW27055   4.213   0.225   5.769
 8719SOL    HW127056   4.169   0.308   5.735
 8719SOL    HW227057   4.155   0.146   5.748
 8720SOL     OW27058   6.574   4.907   5.049
 8720SOL    HW127059   6.593   4.856   4.965
 8720SOL    HW227060   6.548   4.843   5.121
 8721SOL     OW27061   0.361   0.348   6.268
 8721SOL    HW127062   0.362   0.250   6.289
 8721SOL    HW227063   0.438   0.393   6.312
 8722SOL     OW27064   3.541   1.541   1.352
 8722SOL    HW127065   3.577   1.616   1.296
 8722SOL    HW227066   3.468   1.494   1.302
 8723SOL     OW27067   4.785   0.040   2.325
 8723SOL    HW127068   4.801   6.983   2.383
 8723SOL    HW227069   4.723   0.103   2.372
 8724SOL     OW27070   4.046   1.135   5.001
 8724SOL    HW127071   4.119   1.067   4.992
 8724SOL    HW227072   4.017   1.140   5.096
 8725SOL     OW27073   0.074   6.503   3.624
 8725SOL    HW127074   7.022   6.460   3.675
 8725SOL    HW227075   0.052   6.599   3.606
 8726SOL     OW27076   0.503   1.203   0.970
 8726SOL    HW127077   0.409   1.181   0.996
 8726SOL    HW227078   0.542   1.126   0.919
 8727SOL     OW27079   4.583   5.274   6.085
 8727SOL    HW127080   4.498   5.234   6.050
 8727SOL    HW227081   4.642   5.201   6.119
 8728SOL     OW27082   6.942   0.290   3.563
 8728SOL    HW127083   7.020   0.295   3.625
 8728SOL    HW227084   6.957   0.352   3.486
 8729SOL     OW27085   4.074   6.388   6.629
 8729SOL    HW127086   3.979   6.377   6.602
 8729SOL    HW227087   4.109   6.303   6.667
 8730SOL     OW27088   4.908   5.237   2.176
 8730SOL    HW127089   4.943   5.150   2.142
 8730SOL    HW227090   4.965   5.269   2.252
 8731SOL     OW27091   0.716   1.534   3.136
 8731SOL    HW127092   0.767   1.616   3.109
 8731SOL    HW227093   0.731   1.462   3.069
 8732SOL     OW27094   5.648   6.558   0.675
 8732SOL    HW127095   5.706   6.549   0.755
 8732SOL    HW227096   5.665   6.646   0.631
 8733SOL     OW27097   6.160   5.305   1.609
 8733SOL    HW127098   6.218   5.333   1.533
 8733SOL    HW227099   6.068   5.342   1.597
 8734SOL     OW27100   0.360   3.870   1.994
 8734SOL    HW127101   0.270   3.877   2.036
 8734SOL    HW227102   0.372   3.945   1.929
 8735SOL     OW27103   1.445   3.644   5.574
 8735SOL    HW127104   1.439   3.560   5.628
 8735SOL    HW227105   1.507   3.629   5.497
 8736SOL     OW27106   1.013   5.845   3.160
 8736SOL    HW127107   1.098   5.883   3.122
 8736SOL    HW227108   1.023   5.746   3.171
 8737SOL     OW27109   1.544   6.848   6.964
 8737SOL    HW127110   1.549   6.782   6.889
 8737SOL    HW227111   1.634   6.890   6.977
 8738SOL     OW27112   1.073   3.020   3.470
 8738SOL    HW127113   1.097   3.116   3.482
 8738SOL    HW227114   1.049   2.981   3.559
 8739SOL     OW27115   4.975   4.373   5.602
 8739SOL    HW127116   4.958   4.299   5.537
 8739SOL    HW227117   4.893   4.391   5.656
 8740SOL     OW27118   3.155   0.848   5.195
 8740SOL    HW127119   3.146   0.843   5.294
 8740SOL    HW227120   3.196   0.936   5.170
 8741SOL     OW27121   0.996   0.303   2.686
 8741SOL    HW127122   1.093   0.316   2.668
 8741SOL    HW227123   0.962   0.376   2.745
 8742SOL     OW27124   2.683   1.869   2.772
 8742SOL    HW127125   2.688   1.776   2.737
 8742SOL    HW227126   2.757   1.924   2.732
 8743SOL     OW27127   0.522   1.925   1.901
 8743SOL    HW127128   0.616   1.928   1.936
 8743SOL    HW227129   0.514   1.851   1.835
 8744SOL     OW27130   3.305   4.284   6.399
 8744SOL    HW127131   3.272   4.377   6.388
 8744SOL    HW227132   3.385   4.269   6.340
 8745SOL     OW27133   5.741   1.487   5.765
 8745SOL    HW127134   5.735   1.419   5.692
 8745SOL    HW227135   5.775   1.444   5.848
 8746SOL     OW27136   4.359   5.193   4.577
 8746SOL    HW127137   4.424   5.122   4.549
 8746SOL    HW227138   4.267   5.154   4.583
 8747SOL     OW27139   0.632   0.750   1.595
 8747SOL    HW127140   0.559   0.808   1.631
 8747SOL    HW227141   0.657   0.681   1.663
 8748SOL     OW27142   0.206   1.879   3.495
 8748SOL    HW127143   0.154   1.812   3.548
 8748SOL    HW227144   0.275   1.922   3.553
 8749SOL     OW27145   2.884   1.245   4.797
 8749SOL    HW127146   2.949   1.318   4.778
 8749SOL    HW227147   2.792   1.283   4.802
 8750SOL     OW27148   4.048   3.069   6.456
 8750SOL    HW127149   4.060   2.975   6.425
 8750SOL    HW227150   3.958   3.080   6.496
 8751SOL     OW27151   1.437   5.894   1.831
 8751SOL    HW127152   1.454   5.956   1.908
 8751SOL    HW227153   1.522   5.878   1.781
 8752SOL     OW27154   5.345   3.868   6.684
 8752SOL    HW127155   5.389   3.846   6.771
 8752SOL    HW227156   5.268   3.930   6.700
 8753SOL     OW27157   2.730   2.795   0.198
 8753SOL    HW127158   2.671   2.820   0.121
 8753SOL    HW227159   2.679   2.736   0.260
 8754SOL     OW27160   2.526   5.110   0.234
 8754SOL    HW127161   2.430   5.134   0.219
 8754SOL    HW227162   2.531   5.022   0.282
 8755SOL     OW27163   6.652   2.500   2.454
 8755SOL    HW127164   6.698   2.501   2.365
 8755SOL    HW227165   6.580   2.569   2.455
 8756SOL     OW27166   1.673   1.688   2.115
 8756SOL    HW127167   1.698   1.594   2.141
 8756SOL    HW227168   1.742   1.751   2.152
 8757SOL     OW27169   5.560   6.408   5.485
 8757SOL    HW127170   5.557   6.346   5.564
 8757SOL    HW227171   5.550   6.354   5.401
 8758SOL     OW27172   3.357   5.814   4.831
 8758SOL    HW127173   3.454   5.803   4.810
 8758SOL    HW227174   3.318   5.883   4.770
 8759SOL     OW27175   5.885   0.883   0.371
 8759SOL    HW127176   5.922   0.867   0.279
 8759SOL    HW227177   5.949   0.939   0.423
 8760SOL     OW27178   2.409   2.467   4.229
 8760SOL    HW127179   2.483   2.434   4.171
 8760SOL    HW227180   2.405   2.410   4.312
 8761SOL     OW27181   4.682   0.862   2.225
 8761SOL    HW127182   4.680   0.958   2.197
 8761SOL    HW227183   4.609   0.812   2.178
 8762SOL     OW27184   1.522   4.541   2.731
 8762SOL    HW127185   1.542   4.565   2.826
 8762SOL    HW227186   1.553   4.614   2.670
 8763SOL     OW27187   0.600   1.063   6.354
 8763SOL    HW127188   0.650   0.991   6.305
 8763SOL    HW227189   0.510   1.029   6.380
 8764SOL     OW27190   3.240   4.955   5.605
 8764SOL    HW127191   3.217   4.858   5.596
 8764SOL    HW227192   3.175   5.010   5.553
 8765SOL     OW27193   4.997   0.649   4.627
 8765SOL    HW127194   5.040   0.639   4.717
 8765SOL    HW227195   4.952   0.563   4.602
 8766SOL     OW27196   5.106   5.705   6.073
 8766SOL    HW127197   5.081   5.785   6.019
 8766SOL    HW227198   5.132   5.630   6.012
 8767SOL     OW27199   2.813   0.870   4.157
 8767SOL    HW127200   2.750   0.816   4.213
 8767SOL    HW227201   2.878   0.809   4.112
 8768SOL     OW27202   6.233   2.022   6.785
 8768SOL    HW127203   6.303   1.994   6.719
 8768SOL    HW227204   6.171   2.088   6.741
 8769SOL     OW27205   6.230   0.546   0.441
 8769SOL    HW127206   6.159   0.536   0.371
 8769SOL    HW227207   6.320   0.525   0.402
 8770SOL     OW27208   4.853   3.860   0.708
 8770SOL    HW127209   4.952   3.870   0.692
 8770SOL    HW227210   4.822   3.931   0.771
 8771SOL     OW27211   0.300   3.832   0.329
 8771SOL    HW127212   0.286   3.928   0.305
 8771SOL    HW227213   0.324   3.780   0.247
 8772SOL     OW27214   5.770   7.003   4.074
 8772SOL    HW127215   5.814   0.067   4.050
 8772SOL    HW227216   5.672   7.009   4.055
 8773SOL     OW27217   0.124   1.209   3.840
 8773SOL    HW127218   0.054   1.140   3.821
 8773SOL    HW227219   0.130   1.226   3.938
 8774SOL     OW27220   1.865   1.439   0.890
 8774SOL    HW127221   1.921   1.490   0.955
 8774SOL    HW227222   1.831   1.356   0.934
 8775SOL     OW27223   5.456   1.976   4.028
 8775SOL    HW127224   5.414   1.957   3.939
 8775SOL    HW227225   5.388   1.962   4.100
 8776SOL     OW27226   4.291   2.832   0.689
 8776SOL    HW127227   4.192   2.836   0.676
 8776SOL    HW227228   4.332   2.916   0.654
 8777SOL     OW27229   0.423   1.996   3.615
 8777SOL    HW127230   0.508   1.942   3.621
 8777SOL    HW227231   0.419   2.059   3.693
 8778SOL     OW27232   3.779   5.102   6.928
 8778SOL    HW127233   3.728   5.016   6.916
 8778SOL    HW227234   3.727   5.177   6.889
 8779SOL     OW27235   4.390   4.949   4.036
 8779SOL    HW127236   4.451   5.018   4.076
 8779SOL    HW227237   4.429   4.858   4.050
 8780SOL     OW27238   5.725   5.258   3.720
 8780SOL    HW127239   5.816   5.281   3.755
 8780SOL    HW227240   5.718   5.160   3.706
 8781SOL     OW27241   3.343   6.772   1.674
 8781SOL    HW127242   3.403   6.841   1.633
 8781SOL    HW227243   3.283   6.734   1.604
 8782SOL     OW27244   5.262   1.534   2.130
 8782SOL    HW127245   5.245   1.605   2.061
 8782SOL    HW227246   5.337   1.476   2.100
 8783SOL     OW27247   5.064   3.313   4.716
 8783SOL    HW127248   5.036   3.409   4.710
 8783SOL    HW227249   5.027   3.272   4.799
 8784SOL     OW27250   5.462   0.537   0.921
 8784SOL    HW127251   5.520   0.585   0.855
 8784SOL    HW227252   5.369   0.530   0.884
 8785SOL     OW27253   0.588   4.892   6.229
 8785SOL    HW127254   0.594   4.871   6.131
 8785SOL    HW227255   0.492   4.900   6.256
 8786SOL     OW27256   4.708   1.650   2.227
 8786SOL    HW127257   4.785   1.586   2.231
 8786SOL    HW227258   4.744   1.744   2.229
 8787SOL     OW27259   3.598   6.242   0.790
 8787SOL    HW127260   3.633   6.223   0.881
 8787SOL    HW227261   3.504   6.210   0.783
 8788SOL     OW27262   0.312   0.199   4.027
 8788SOL    HW127263   0.335   0.128   3.962
 8788SOL    HW227264   0.341   0.172   4.119
 8789SOL     OW27265   6.648   3.571   5.534
 8789SOL    HW127266   6.718   3.635   5.566
 8789SOL    HW227267   6.620   3.512   5.609
 8790SOL     OW27268   5.469   3.045   6.008
 8790SOL    HW127269   5.492   2.953   6.040
 8790SOL    HW227270   5.379   3.044   5.965
 8791SOL     OW27271   3.411   5.594   5.755
 8791SOL    HW127272   3.479   5.666   5.765
 8791SOL    HW227273   3.356   5.610   5.673
 8792SOL     OW27274   5.272   5.150   1.338
 8792SOL    HW127275   5.180   5.132   1.373
 8792SOL    HW227276   5.338   5.139   1.413
 8793SOL     OW27277   7.007   5.329   4.262
 8793SOL    HW127278   7.020   5.369   4.171
 8793SOL    HW227279   6.970   5.236   4.252
 8794SOL     OW27280   0.362   0.942   2.335
 8794SOL    HW127281   0.364   0.866   2.270
 8794SOL    HW227282   0.396   0.910   2.424
 8795SOL     OW27283   1.287   5.615   6.301
 8795SOL    HW127284   1.284   5.541   6.368
 8795SOL    HW227285   1.237   5.694   6.337
 8796SOL     OW27286   6.622   3.705   3.132
 8796SOL    HW127287   6.587   3.712   3.226
 8796SOL    HW227288   6.615   3.794   3.087
 8797SOL     OW27289   4.606   6.887   4.233
 8797SOL    HW127290   4.698   6.876   4.271
 8797SOL    HW227291   4.601   6.838   4.146
 8798SOL     OW27292   3.400   6.025   5.696
 8798SOL    HW127293   3.488   6.072   5.694
 8798SOL    HW227294   3.392   5.972   5.781
 8799SOL     OW27295   1.571   5.414   2.175
 8799SOL    HW127296   1.471   5.404   2.176
 8799SOL    HW227297   1.599   5.463   2.092
 8800SOL     OW27298   6.722   5.398   6.266
 8800SOL    HW127299   6.737   5.489   6.305
 8800SOL    HW227300   6.641   5.357   6.307
 8801SOL     OW27301   5.823   3.218   5.382
 8801SOL    HW127302   5.882   3.138   5.375
 8801SOL    HW227303   5.782   3.238   5.293
 8802SOL     OW27304   1.120   6.596   6.497
 8802SOL    HW127305   1.121   6.670   6.429
 8802SOL    HW227306   1.120   6.508   6.451
 8803SOL     OW27307   5.989   7.007   6.655
 8803SOL    HW127308   6.033   0.063   6.610
 8803SOL    HW227309   5.970   0.007   6.750
 8804SOL     OW27310   1.651   6.335   2.474
 8804SOL    HW127311   1.665   6.240   2.498
 8804SOL    HW227312   1.738   6.377   2.447
 8805SOL     OW27313   5.340   5.279   3.090
 8805SOL    HW127314   5.288   5.219   3.150
 8805SOL    HW227315   5.427   5.302   3.133
 8806SOL     OW27316   1.996   0.615   1.006
 8806SOL    HW127317   2.074   0.552   1.011
 8806SOL    HW227318   2.027   0.702   0.967
 8807SOL     OW27319   5.036   2.218   1.738
 8807SOL    HW127320   5.102   2.287   1.710
 8807SOL    HW227321   5.085   2.140   1.778
 8808SOL     OW27322   2.124   2.492   0.520
 8808SOL    HW127323   2.144   2.539   0.606
 8808SOL    HW227324   2.025   2.485   0.508
 8809SOL     OW27325   0.298   3.668   3.057
 8809SOL    HW127326   0.252   3.602   3.117
 8809SOL    HW227327   0.247   3.677   2.972
 8810SOL     OW27328   0.802   0.999   6.163
 8810SOL    HW127329   0.902   0.995   6.164
 8810SOL    HW227330   0.772   1.093   6.177
 8811SOL     OW27331   3.472   5.539   2.417
 8811SOL    HW127332   3.548   5.562   2.356
 8811SOL    HW227333   3.464   5.440   2.426
 8812SOL     OW27334   5.191   1.377   6.354
 8812SOL    HW127335   5.278   1.360   6.401
 8812SOL    HW227336   5.206   1.378   6.255
 8813SOL     OW27337   1.849   4.217   3.450
 8813SOL    HW127338   1.800   4.292   3.408
 8813SOL    HW227339   1.922   4.253   3.509
 8814SOL     OW27340   5.135   6.600   6.122
 8814SOL    HW127341   5.160   6.684   6.075
 8814SOL    HW227342   5.050   6.564   6.083
 8815SOL     OW27343   5.720   1.498   6.781
 8815SOL    HW127344   5.803   1.549   6.805
 8815SOL    HW227345   5.742   1.401   6.775
 8816SOL     OW27346   0.989   6.503   4.703
 8816SOL    HW127347   1.035   6.457   4.626
 8816SOL    HW227348   1.034   6.590   4.722
 8817SOL     OW27349   1.617   2.908   3.385
 8817SOL    HW127350   1.597   2.851   3.464
 8817SOL    HW227351   1.556   2.883   3.309
 8818SOL     OW27352   1.510   0.223   4.175
 8818SOL    HW127353   1.415   0.195   4.169
 8818SOL    HW227354   1.550   0.188   4.260
 8819SOL     OW27355   5.517   4.053   6.157
 8819SOL    HW127356   5.592   4.092   6.211
 8819SOL    HW227357   5.451   4.011   6.219
 8820SOL     OW27358   3.184   0.294   4.778
 8820SOL    HW127359   3.256   0.359   4.753
 8820SOL    HW227360   3.156   0.309   4.873
 8821SOL     OW27361   0.469   4.321   6.567
 8821SOL    HW127362   0.396   4.258   6.593
 8821SOL    HW227363   0.486   4.385   6.642
 8822SOL     OW27364   6.354   6.701   4.165
 8822SOL    HW127365   6.257   6.693   4.143
 8822SOL    HW227366   6.368   6.776   4.230
 8823SOL     OW27367   3.828   1.193   2.410
 8823SOL    HW127368   3.778   1.248   2.476
 8823SOL    HW227369   3.859   1.108   2.453
 8824SOL     OW27370   2.217   0.850   2.580
 8824SOL    HW127371   2.164   0.795   2.516
 8824SOL    HW227372   2.157   0.915   2.626
 8825SOL     OW27373   7.000   5.987   0.146
 8825SOL    HW127374   6.916   6.041   0.139
 8825SOL    HW227375   6.978   5.893   0.172
 8826SOL     OW27376   1.366   3.537   0.427
 8826SOL    HW127377   1.382   3.461   0.363
 8826SOL    HW227378   1.379   3.624   0.380
 8827SOL     OW27379   4.060   6.657   1.966
 8827SOL    HW127380   4.143   6.697   1.927
 8827SOL    HW227381   4.078   6.562   1.992
 8828SOL     OW27382   3.301   3.400   6.343
 8828SOL    HW127383   3.288   3.331   6.272
 8828SOL    HW227384   3.325   3.355   6.429
 8829SOL     OW27385   6.810   1.472   2.252
 8829SOL    HW127386   6.770   1.563   2.249
 8829SOL    HW227387   6.755   1.413   2.311
 8830SOL     OW27388   3.082   1.177   3.754
 8830SOL    HW127389   3.075   1.087   3.798
 8830SOL    HW227390   3.029   1.176   3.670
 8831SOL     OW27391   0.453   2.451   2.090
 8831SOL    HW127392   0.407   2.501   2.017
 8831SOL    HW227393   0.385   2.399   2.143
 8832SOL     OW27394   5.996   1.018   4.342
 8832SOL    HW127395   6.071   0.958   4.371
 8832SOL    HW227396   5.995   1.100   4.399
 8833SOL     OW27397   3.548   2.606   1.144
 8833SOL    HW127398   3.503   2.680   1.095
 8833SOL    HW227399   3.635   2.639   1.182
 8834SOL     OW27400   5.247   4.376   5.642
 8834SOL    HW127401   5.269   4.291   5.690
 8834SOL    HW227402   5.148   4.386   5.634
 8835SOL     OW27403   6.842   0.718   5.995
 8835SOL    HW127404   6.820   0.650   5.925
 8835SOL    HW227405   6.769   0.720   6.063
 8836SOL     OW27406   4.554   1.963   0.907
 8836SOL    HW127407   4.469   1.911   0.910
 8836SOL    HW227408   4.556   2.027   0.983
 8837SOL     OW27409   5.194   0.079   1.205
 8837SOL    HW127410   5.272   0.139   1.224
 8837SOL    HW227411   5.116   0.134   1.175
 8838SOL     OW27412   0.185   3.945   2.670
 8838SOL    HW127413   0.218   4.018   2.730
 8838SOL    HW227414   0.251   3.931   2.596
 8839SOL     OW27415   4.639   5.572   3.022
 8839SOL    HW127416   4.546   5.559   3.056
 8839SOL    HW227417   4.701   5.581   3.100
 8840SOL     OW27418   6.816   0.869   1.151
 8840SOL    HW127419   6.749   0.798   1.171
 8840SOL    HW227420   6.803   0.901   1.057
 8841SOL     OW27421   3.000   1.637   1.581
 8841SOL    HW127422   2.999   1.680   1.491
 8841SOL    HW227423   3.023   1.706   1.650
 8842SOL     OW27424   3.568   2.918   3.944
 8842SOL    HW127425   3.471   2.934   3.926
 8842SOL    HW227426   3.589   2.946   4.038
 8843SOL     OW27427   2.676   5.305   6.962
 8843SOL    HW127428   2.673   5.311   0.039
 8843SOL    HW227429   2.694   5.395   6.923
 8844SOL     OW27430   4.529   2.007   4.929
 8844SOL    HW127431   4.546   2.045   5.020
 8844SOL    HW227432   4.578   1.920   4.919
 8845SOL     OW27433   0.304   5.024   1.643
 8845SOL    HW127434   0.214   5.036   1.601
 8845SOL    HW227435   0.345   5.114   1.661
 8846SOL     OW27436   5.486   4.654   4.104
 8846SOL    HW127437   5.403   4.703   4.131
 8846SOL    HW227438   5.541   4.712   4.044
 8847SOL     OW27439   2.331   1.773   3.432
 8847SOL    HW127440   2.264   1.808   3.366
 8847SOL    HW227441   2.420   1.814   3.414
 8848SOL     OW27442   3.647   1.502   1.010
 8848SOL    HW127443   3.684   1.534   0.923
 8848SOL    HW227444   3.663   1.571   1.080
 8849SOL     OW27445   2.262   4.899   4.662
 8849SOL    HW127446   2.240   4.901   4.564
 8849SOL    HW227447   2.260   4.805   4.695
 8850SOL     OW27448   2.837   0.898   1.661
 8850SOL    HW127449   2.915   0.837   1.666
 8850SOL    HW227450   2.752   0.846   1.672
 8851SOL     OW27451   0.079   4.887   2.736
 8851SOL    HW127452   0.152   4.941   2.779
 8851SOL    HW227453   0.112   4.847   2.651
 8852SOL     OW27454   4.971   2.446   5.374
 8852SOL    HW127455   4.991   2.536   5.413
 8852SOL    HW227456   4.939   2.385   5.447
 8853SOL     OW27457   4.474   1.032   5.836
 8853SOL    HW127458   4.564   1.001   5.806
 8853SOL    HW227459   4.484   1.084   5.920
 8854SOL     OW27460   1.335   2.167   6.590
 8854SOL    HW127461   1.346   2.265   6.605
 8854SOL    HW227462   1.389   2.117   6.658
 8855SOL     OW27463   6.210   4.789   6.616
 8855SOL    HW127464   6.279   4.720   6.637
 8855SOL    HW227465   6.254   4.876   6.596
 8856SOL     OW27466   5.857   0.978   4.868
 8856SOL    HW127467   5.831   0.948   4.776
 8856SOL    HW227468   5.946   1.023   4.865
 8857SOL     OW27469   6.938   2.703   4.120
 8857SOL    HW127470   6.872   2.628   4.118
 8857SOL    HW227471   6.945   2.744   4.029
 8858SOL     OW27472   0.180   3.451   6.634
 8858SOL    HW127473   0.140   3.370   6.591
 8858SOL    HW227474   0.232   3.424   6.715
 8859SOL     OW27475   1.969   5.516   5.644
 8859SOL    HW127476   2.043   5.478   5.588
 8859SOL    HW227477   2.004   5.594   5.696
 8860SOL     OW27478   1.540   2.177   2.416
 8860SOL    HW127479   1.628   2.175   2.370
 8860SOL    HW227480   1.499   2.268   2.406
 8861SOL     OW27481   3.461   3.585   0.106
 8861SOL    HW127482   3.424   3.597   0.014
 8861SOL    HW227483   3.386   3.585   0.173
 8862SOL     OW27484   5.897   1.725   4.124
 8862SOL    HW127485   5.822   1.752   4.063
 8862SOL    HW227486   5.984   1.734   4.076
 8863SOL     OW27487   2.211   5.453   5.503
 8863SOL    HW127488   2.246   5.423   5.414
 8863SOL    HW227489   2.279   5.435   5.574
 8864SOL     OW27490   1.172   2.314   6.804
 8864SOL    HW127491   1.269   2.314   6.781
 8864SOL    HW227492   1.141   2.408   6.817
 8865SOL     OW27493   3.524   2.738   6.358
 8865SOL    HW127494   3.577   2.662   6.320
 8865SOL    HW227495   3.432   2.739   6.317
 8866SOL     OW27496   3.463   6.441   4.469
 8866SOL    HW127497   3.477   6.343   4.481
 8866SOL    HW227498   3.478   6.488   4.556
 8867SOL     OW27499   0.042   3.090   3.738
 8867SOL    HW127500   6.999   3.040   3.681
 8867SOL    HW227501   0.115   3.127   3.679
 8868SOL     OW27502   3.910   3.914   0.035
 8868SOL    HW127503   3.835   3.849   0.044
 8868SOL    HW227504   3.934   3.924   6.961
 8869SOL     OW27505   5.195   2.701   3.855
 8869SOL    HW127506   5.267   2.768   3.872
 8869SOL    HW227507   5.236   2.613   3.832
 8870SOL     OW27508   4.458   1.196   0.529
 8870SOL    HW127509   4.451   1.167   0.434
 8870SOL    HW227510   4.412   1.128   0.588
 8871SOL     OW27511   2.573   1.593   3.914
 8871SOL    HW127512   2.613   1.638   3.834
 8871SOL    HW227513   2.552   1.662   3.984
 8872SOL     OW27514   1.668   3.689   4.552
 8872SOL    HW127515   1.686   3.677   4.650
 8872SOL    HW227516   1.570   3.685   4.536
 8873SOL     OW27517   0.205   5.490   4.726
 8873SOL    HW127518   0.162   5.443   4.649
 8873SOL    HW227519   0.211   5.588   4.706
 8874SOL     OW27520   3.357   0.679   0.386
 8874SOL    HW127521   3.343   0.653   0.290
 8874SOL    HW227522   3.422   0.616   0.428
 8875SOL     OW27523   2.002   2.342   4.570
 8875SOL    HW127524   1.922   2.297   4.608
 8875SOL    HW227525   2.065   2.273   4.534
 8876SOL     OW27526   1.096   0.152   4.760
 8876SOL    HW127527   1.113   0.125   4.855
 8876SOL    HW227528   1.183   0.154   4.710
 8877SOL     OW27529   2.657   6.956   4.886
 8877SOL    HW127530   2.564   6.950   4.848
 8877SOL    HW227531   2.655   6.932   4.983
 8878SOL     OW27532   6.272   4.300   6.543
 8878SOL    HW127533   6.282   4.394   6.576
 8878SOL    HW227534   6.332   4.239   6.594
 8879SOL     OW27535   4.790   6.506   5.317
 8879SOL    HW127536   4.870   6.453   5.345
 8879SOL    HW227537   4.741   6.457   5.245
 8880SOL     OW27538   6.915   4.976   5.176
 8880SOL    HW127539   6.890   4.895   5.228
 8880SOL    HW227540   6.951   4.948   5.086
 8881SOL     OW27541   6.123   1.012   0.835
 8881SOL    HW127542   6.119   0.969   0.925
 8881SOL    HW227543   6.213   1.053   0.822
 8882SOL     OW27544   5.575   1.670   6.613
 8882SOL    HW127545   5.609   1.588   6.660
 8882SOL    HW227546   5.476   1.675   6.623
 8883SOL     OW27547   6.577   1.246   5.677
 8883SOL    HW127548   6.519   1.298   5.614
 8883SOL    HW227549   6.526   1.227   5.760
 8884SOL     OW27550   6.676   0.324   6.189
 8884SOL    HW127551   6.585   0.314   6.230
 8884SOL    HW227552   6.666   0.343   6.091
 8885SOL     OW27553   5.311   3.985   1.954
 8885SOL    HW127554   5.384   3.998   1.887
 8885SOL    HW227555   5.324   4.047   2.031
 8886SOL     OW27556   3.037   6.752   6.469
 8886SOL    HW127557   3.081   6.699   6.395
 8886SOL    HW227558   2.950   6.710   6.493
 8887SOL     OW27559   2.573   1.673   0.860
 8887SOL    HW127560   2.651   1.656   0.920
 8887SOL    HW227561   2.508   1.598   0.867
 8888SOL     OW27562   3.177   1.779   2.050
 8888SOL    HW127563   3.164   1.818   2.141
 8888SOL    HW227564   3.267   1.804   2.015
 8889SOL     OW27565   3.636   7.013   4.770
 8889SOL    HW127566   3.579   6.933   4.749
 8889SOL    HW227567   3.713   6.986   4.828
 8890SOL     OW27568   1.126   4.991   4.722
 8890SOL    HW127569   1.038   4.969   4.679
 8890SOL    HW227570   1.155   5.082   4.692
 8891SOL     OW27571   4.415   2.916   6.377
 8891SOL    HW127572   4.381   2.882   6.464
 8891SOL    HW227573   4.489   2.981   6.393
 8892SOL     OW27574   1.655   6.390   2.769
 8892SOL    HW127575   1.659   6.489   2.774
 8892SOL    HW227576   1.725   6.356   2.706
 8893SOL     OW27577   0.545   1.306   1.340
 8893SOL    HW127578   0.463   1.249   1.335
 8893SOL    HW227579   0.588   1.310   1.249
 8894SOL     OW27580   4.160   2.684   6.465
 8894SOL    HW127581   4.191   2.588   6.466
 8894SOL    HW227582   4.229   2.742   6.508
 8895SOL     OW27583   1.126   0.107   2.268
 8895SOL    HW127584   1.122   0.163   2.351
 8895SOL    HW227585   1.208   0.050   2.271
 8896SOL     OW27586   1.901   3.227   4.721
 8896SOL    HW127587   1.910   3.175   4.806
 8896SOL    HW227588   1.818   3.198   4.673
 8897SOL     OW27589   1.185   2.650   1.523
 8897SOL    HW127590   1.182   2.711   1.444
 8897SOL    HW227591   1.278   2.614   1.534
 8898SOL     OW27592   5.148   3.865   3.816
 8898SOL    HW127593   5.110   3.957   3.810
 8898SOL    HW227594   5.083   3.805   3.862
 8899SOL     OW27595   1.516   4.261   0.024
 8899SOL    HW127596   1.589   4.224   6.989
 8899SOL    HW227597   1.445   4.300   6.988
 8900SOL     OW27598   5.730   1.972   3.981
 8900SOL    HW127599   5.765   1.928   3.898
 8900SOL    HW227600   5.631   1.959   3.987
 8901SOL     OW27601   1.780   6.890   2.808
 8901SOL    HW127602   1.828   6.852   2.729
 8901SOL    HW227603   1.736   6.976   2.782
 8902SOL     OW27604   1.305   5.336   6.033
 8902SOL    HW127605   1.358   5.420   6.044
 8902SOL    HW227606   1.301   5.288   6.120
 8903SOL     OW27607   2.232   1.286   3.314
 8903SOL    HW127608   2.241   1.386   3.312
 8903SOL    HW227609   2.287   1.246   3.240
 8904SOL     OW27610   1.337   6.209   3.278
 8904SOL    HW127611   1.293   6.295   3.254
 8904SOL    HW227612   1.305   6.137   3.217
 8905SOL     OW27613   2.554   3.755   5.388
 8905SOL    HW127614   2.531   3.831   5.328
 8905SOL    HW227615   2.509   3.672   5.354
 8906SOL     OW27616   6.271   5.827   5.487
 8906SOL    HW127617   6.327   5.908   5.504
 8906SOL    HW227618   6.226   5.799   5.571
 8907SOL     OW27619   3.112   2.877   5.554
 8907SOL    HW127620   3.118   2.972   5.583
 8907SOL    HW227621   3.078   2.872   5.460
 8908SOL     OW27622   0.550   2.944   1.490
 8908SOL    HW127623   0.586   2.998   1.566
 8908SOL    HW227624   0.613   2.869   1.469
 8909SOL     OW27625   1.956   0.805   6.356
 8909SOL    HW127626   2.055   0.789   6.360
 8909SOL    HW227627   1.939   0.902   6.338
 8910SOL     OW27628   3.417   3.577   6.864
 8910SOL    HW127629   3.338   3.563   6.805
 8910SOL    HW227630   3.488   3.510   6.842
 8911SOL     OW27631   3.758   2.136   3.843
 8911SOL    HW127632   3.787   2.135   3.747
 8911SOL    HW227633   3.836   2.160   3.901
 8912SOL     OW27634   4.613   2.736   5.890
 8912SOL    HW127635   4.584   2.698   5.978
 8912SOL    HW227636   4.534   2.743   5.829
 8913SOL     OW27637   5.390   4.072   1.048
 8913SOL    HW127638   5.353   4.062   0.956
 8913SOL    HW227639   5.361   4.160   1.086
 8914SOL     OW27640   3.806   1.867   4.819
 8914SOL    HW127641   3.803   1.923   4.736
 8914SOL    HW227642   3.830   1.773   4.794
 8915SOL     OW27643   1.269   4.838   2.103
 8915SOL    HW127644   1.352   4.786   2.122
 8915SOL    HW227645   1.275   4.881   2.013
 8916SOL     OW27646   6.668   3.507   2.663
 8916SOL    HW127647   6.714   3.596   2.666
 8916SOL    HW227648   6.651   3.482   2.567
 8917SOL     OW27649   6.091   5.475   6.767
 8917SOL    HW127650   6.079   5.382   6.803
 8917SOL    HW227651   6.186   5.503   6.778
 8918SOL     OW27652   5.641   5.515   6.456
 8918SOL    HW127653   5.654   5.419   6.428
 8918SOL    HW227654   5.544   5.534   6.468
 8919SOL     OW27655   2.813   5.052   0.845
 8919SOL    HW127656   2.744   5.061   0.917
 8919SOL    HW227657   2.831   4.955   0.829
 8920SOL     OW27658   6.167   5.685   5.692
 8920SOL    HW127659   6.240   5.680   5.760
 8920SOL    HW227660   6.108   5.605   5.699
 8921SOL     OW27661   1.658   6.579   4.171
 8921SOL    HW127662   1.570   6.604   4.210
 8921SOL    HW227663   1.718   6.659   4.171
 8922SOL     OW27664   0.337   4.194   6.838
 8922SOL    HW127665   0.412   4.244   6.880
 8922SOL    HW227666   0.251   4.242   6.856
 8923SOL     OW27667   2.062   4.240   5.984
 8923SOL    HW127668   1.966   4.268   5.982
 8923SOL    HW227669   2.118   4.310   5.940
 8924SOL     OW27670   2.734   5.219   5.309
 8924SOL    HW127671   2.790   5.254   5.384
 8924SOL    HW227672   2.641   5.201   5.342
 8925SOL     OW27673   6.928   6.996   2.096
 8925SOL    HW127674   6.872   6.996   2.179
 8925SOL    HW227675   7.020   0.006   2.118
 8926SOL     OW27676   5.582   2.219   0.817
 8926SOL    HW127677   5.505   2.282   0.833
 8926SOL    HW227678   5.598   2.212   0.719
 8927SOL     OW27679   2.419   2.318   4.677
 8927SOL    HW127680   2.480   2.356   4.607
 8927SOL    HW227681   2.373   2.392   4.726
 8928SOL     OW27682   0.812   6.861   5.360
 8928SOL    HW127683   0.713   6.875   5.351
 8928SOL    HW227684   0.860   6.945   5.337
 8929SOL     OW27685   5.817   3.631   3.403
 8929SOL    HW127686   5.794   3.572   3.326
 8929SOL    HW227687   5.738   3.686   3.429
 8930SOL     OW27688   1.226   4.938   5.183
 8930SOL    HW127689   1.292   4.923   5.109
 8930SOL    HW227690   1.183   4.851   5.207
 8931SOL     OW27691   4.343   1.193   0.933
 8931SOL    HW127692   4.253   1.174   0.971
 8931SOL    HW227693   4.414   1.163   0.997
 8932SOL     OW27694   0.011   0.358   6.718
 8932SOL    HW127695   7.021   0.386   6.814
 8932SOL    HW227696   6.944   0.350   6.674
 8933SOL     OW27697   1.822   0.401   4.864
 8933SOL    HW127698   1.787   0.479   4.916
 8933SOL    HW227699   1.806   0.416   4.767
 8934SOL     OW27700   3.109   5.955   2.897
 8934SOL    HW127701   3.129   5.865   2.937
 8934SOL    HW227702   3.172   5.972   2.820
 8935SOL     OW27703   4.866   2.164   3.420
 8935SOL    HW127704   4.838   2.118   3.336
 8935SOL    HW227705   4.869   2.263   3.404
 8936SOL     OW27706   1.294   5.374   2.186
 8936SOL    HW127707   1.289   5.277   2.210
 8936SOL    HW227708   1.223   5.424   2.236
 8937SOL     OW27709   5.088   0.088   3.847
 8937SOL    HW127710   5.144   0.107   3.928
 8937SOL    HW227711   5.073   0.172   3.796
 8938SOL     OW27712   6.496   1.052   1.332
 8938SOL    HW127713   6.481   0.966   1.282
 8938SOL    HW227714   6.462   1.128   1.276
 8939SOL     OW27715   0.137   2.986   4.026
 8939SOL    HW127716   0.064   3.008   3.962
 8939SOL    HW227717   0.184   2.903   3.996
 8940SOL     OW27718   6.440   2.590   0.980
 8940SOL    HW127719   6.365   2.542   0.935
 8940SOL    HW227720   6.496   2.637   0.912
 8941SOL     OW27721   4.221   2.783   1.711
 8941SOL    HW127722   4.203   2.881   1.721
 8941SOL    HW227723   4.317   2.764   1.732
 8942SOL     OW27724   5.709   4.728   4.476
 8942SOL    HW127725   5.709   4.822   4.440
 8942SOL    HW227726   5.728   4.664   4.402
 8943SOL     OW27727   4.572   3.827   0.115
 8943SOL    HW127728   4.559   3.881   0.198
 8943SOL    HW227729   4.666   3.792   0.112
 8944SOL     OW27730   5.769   5.829   4.819
 8944SOL    HW127731   5.713   5.747   4.827
 8944SOL    HW227732   5.715   5.902   4.776
 8945SOL     OW27733   5.524   4.561   4.940
 8945SOL    HW127734   5.541   4.592   4.846
 8945SOL    HW227735   5.596   4.595   5.000
 8946SOL     OW27736   5.027   1.265   4.956
 8946SOL    HW127737   4.986   1.174   4.965
 8946SOL    HW227738   4.965   1.323   4.903
 8947SOL     OW27739   1.661   5.353   6.817
 8947SOL    HW127740   1.672   5.273   6.759
 8947SOL    HW227741   1.685   5.331   6.911
 8948SOL     OW27742   6.830   0.715   2.804
 8948SOL    HW127743   6.821   0.725   2.705
 8948SOL    HW227744   6.821   0.805   2.847
 8949SOL     OW27745   3.665   6.597   0.555
 8949SOL    HW127746   3.617   6.675   0.597
 8949SOL    HW227747   3.759   6.594   0.589
 8950SOL     OW27748   4.298   3.769   0.392
 8950SOL    HW127749   4.237   3.798   0.318
 8950SOL    HW227750   4.390   3.806   0.376
 8951SOL     OW27751   2.011   2.028   4.669
 8951SOL    HW127752   2.044   1.943   4.710
 8951SOL    HW227753   2.089   2.079   4.631
 8952SOL     OW27754   1.854   3.748   4.154
 8952SOL    HW127755   1.784   3.680   4.134
 8952SOL    HW227756   1.929   3.741   4.087
 8953SOL     OW27757   1.254   4.722   1.511
 8953SOL    HW127758   1.272   4.657   1.438
 8953SOL    HW227759   1.269   4.815   1.477
 8954SOL     OW27760   1.876   5.094   5.811
 8954SOL    HW127761   1.864   5.190   5.787
 8954SOL    HW227762   1.869   5.038   5.729
 8955SOL     OW27763   5.765   2.696   4.261
 8955SOL    HW127764   5.741   2.671   4.167
 8955SOL    HW227765   5.686   2.681   4.320
 8956SOL     OW27766   0.975   5.367   6.218
 8956SOL    HW127767   0.885   5.333   6.244
 8956SOL    HW227768   0.984   5.462   6.248
 8957SOL     OW27769   0.709   5.873   3.336
 8957SOL    HW127770   0.676   5.885   3.430
 8957SOL    HW227771   0.809   5.875   3.335
 8958SOL     OW27772   1.598   3.561   5.359
 8958SOL    HW127773   1.637   3.639   5.311
 8958SOL    HW227774   1.571   3.491   5.293
 8959SOL     OW27775   6.875   2.692   3.121
 8959SOL    HW127776   6.867   2.592   3.122
 8959SOL    HW227777   6.968   2.718   3.146
 8960SOL     OW27778   5.350   4.515   3.224
 8960SOL    HW127779   5.405   4.435   3.201
 8960SOL    HW227780   5.409   4.587   3.261
 8961SOL     OW27781   2.007   0.446   5.611
 8961SOL    HW127782   1.951   0.454   5.528
 8961SOL    HW227783   1.962   0.493   5.686
 8962SOL     OW27784   0.701   6.005   1.860
 8962SOL    HW127785   0.670   6.010   1.955
 8962SOL    HW227786   0.623   6.018   1.798
 8963SOL     OW27787   4.662   6.647   4.626
 8963SOL    HW127788   4.567   6.616   4.621
 8963SOL    HW227789   4.684   6.673   4.720
 8964SOL     OW27790   1.201   3.228   4.634
 8964SOL    HW127791   1.291   3.233   4.678
 8964SOL    HW227792   1.213   3.227   4.534
 8965SOL     OW27793   4.037   5.737   6.803
 8965SOL    HW127794   4.054   5.638   6.797
 8965SOL    HW227795   4.036   5.776   6.711
 8966SOL     OW27796   4.586   5.282   5.309
 8966SOL    HW127797   4.549   5.341   5.238
 8966SOL    HW227798   4.599   5.190   5.273
 8967SOL     OW27799   2.910   0.107   4.060
 8967SOL    HW127800   2.898   0.011   4.036
 8967SOL    HW227801   2.976   0.115   4.134
 8968SOL     OW27802   4.012   4.982   2.153
 8968SOL    HW127803   4.045   5.036   2.231
 8968SOL    HW227804   3.956   5.040   2.094
 8969SOL     OW27805   0.649   0.917   2.568
 8969SOL    HW127806   0.565   0.971   2.571
 8969SOL    HW227807   0.663   0.871   2.656
 8970SOL     OW27808   1.938   0.761   4.555
 8970SOL    HW127809   1.934   0.808   4.467
 8970SOL    HW227810   2.031   0.765   4.591
 8971SOL     OW27811   4.042   5.251   0.422
 8971SOL    HW127812   3.989   5.328   0.389
 8971SOL    HW227813   4.115   5.230   0.357
 8972SOL     OW27814   6.112   4.514   0.291
 8972SOL    HW127815   6.154   4.501   0.201
 8972SOL    HW227816   6.065   4.430   0.318
 8973SOL     OW27817   1.416   2.739   3.222
 8973SOL    HW127818   1.320   2.719   3.202
 8973SOL    HW227819   1.458   2.783   3.143
 8974SOL     OW27820   2.180   4.050   4.613
 8974SOL    HW127821   2.181   3.971   4.674
 8974SOL    HW227822   2.218   4.024   4.524
 8975SOL     OW27823   6.804   6.176   6.253
 8975SOL    HW127824   6.821   6.274   6.238
 8975SOL    HW227825   6.865   6.123   6.194
 8976SOL     OW27826   6.880   6.490   1.936
 8976SOL    HW127827   6.917   6.582   1.947
 8976SOL    HW227828   6.787   6.495   1.899
 8977SOL     OW27829   6.635   4.876   5.944
 8977SOL    HW127830   6.565   4.930   5.897
 8977SOL    HW227831   6.593   4.821   6.015
 8978SOL     OW27832   5.762   5.708   6.585
 8978SOL    HW127833   5.709   5.646   6.528
 8978SOL    HW227834   5.780   5.665   6.674
 8979SOL     OW27835   1.247   4.686   5.548
 8979SOL    HW127836   1.297   4.749   5.489
 8979SOL    HW227837   1.232   4.728   5.637
 8980SOL     OW27838   3.625   0.651   5.586
 8980SOL    HW127839   3.549   0.593   5.617
 8980SOL    HW227840   3.642   0.721   5.655
 8981SOL     OW27841   4.246   3.050   0.088
 8981SOL    HW127842   4.243   3.049   0.188
 8981SOL    HW227843   4.317   2.988   0.056
 8982SOL     OW27844   0.355   1.579   1.705
 8982SOL    HW127845   0.299   1.531   1.637
 8982SOL    HW227846   0.452   1.570   1.681
 8983SOL     OW27847   1.061   6.713   2.127
 8983SOL    HW127848   1.153   6.722   2.164
 8983SOL    HW227849   1.010   6.798   2.142
 8984SOL     OW27850   6.336   0.552   4.191
 8984SOL    HW127851   6.251   0.552   4.138
 8984SOL    HW227852   6.407   0.599   4.139
 8985SOL     OW27853   4.719   2.660   0.922
 8985SOL    HW127854   4.676   2.715   0.851
 8985SOL    HW227855   4.755   2.720   0.993
 8986SOL     OW27856   0.364   5.656   6.954
 8986SOL    HW127857   0.386   5.588   6.884
 8986SOL    HW227858   0.381   5.748   6.919
 8987SOL     OW27859   2.077   0.747   2.173
 8987SOL    HW127860   2.029   0.737   2.086
 8987SOL    HW227861   2.167   0.789   2.157
 8988SOL     OW27862   1.796   5.332   1.775
 8988SOL    HW127863   1.862   5.314   1.847
 8988SOL    HW227864   1.834   5.397   1.709
 8989SOL     OW27865   5.468   1.417   2.003
 8989SOL    HW127866   5.553   1.410   2.055
 8989SOL    HW227867   5.480   1.374   1.914
 8990SOL     OW27868   3.467   0.341   1.545
 8990SOL    HW127869   3.370   0.362   1.531
 8990SOL    HW227870   3.504   0.400   1.617
 8991SOL     OW27871   2.055   2.253   0.783
 8991SOL    HW127872   1.984   2.295   0.839
 8991SOL    HW227873   2.033   2.265   0.687
 8992SOL     OW27874   0.925   3.806   0.359
 8992SOL    HW127875   0.987   3.819   0.281
 8992SOL    HW227876   0.871   3.889   0.372
 8993SOL     OW27877   6.213   3.780   4.014
 8993SOL    HW127878   6.239   3.873   4.040
 8993SOL    HW227879   6.167   3.736   4.091
 8994SOL     OW27880   1.255   5.253   2.898
 8994SOL    HW127881   1.192   5.325   2.929
 8994SOL    HW227882   1.315   5.290   2.828
 8995SOL     OW27883   2.130   3.951   4.901
 8995SOL    HW127884   2.197   3.979   4.970
 8995SOL    HW227885   2.074   3.876   4.938
 8996SOL     OW27886   1.065   4.267   1.989
 8996SOL    HW127887   1.031   4.269   1.895
 8996SOL    HW227888   1.121   4.349   2.005
 8997SOL     OW27889   4.396   1.479   5.395
 8997SOL    HW127890   4.423   1.565   5.437
 8997SOL    HW227891   4.348   1.423   5.462
 8998SOL     OW27892   0.937   2.668   6.334
 8998SOL    HW127893   1.026   2.702   6.304
 8998SOL    HW227894   0.909   2.591   6.277
 8999SOL     OW27895   6.380   1.282   4.385
 8999SOL    HW127896   6.382   1.322   4.294
 8999SOL    HW227897   6.441   1.204   4.389
 9000SOL     OW27898   3.148   4.283   0.695
 9000SOL    HW127899   3.175   4.215   0.764
 9000SOL    HW227900   3.058   4.259   0.659
 9001SOL     OW27901   1.392   4.459   3.548
 9001SOL    HW127902   1.450   4.467   3.630
 9001SOL    HW227903   1.299   4.486   3.572
 9002SOL     OW27904   4.959   4.486   5.334
 9002SOL    HW127905   5.049   4.505   5.293
 9002SOL    HW227906   4.969   4.476   5.433
 9003SOL     OW27907   5.871   2.686   6.451
 9003SOL    HW127908   5.825   2.712   6.367
 9003SOL    HW227909   5.859   2.588   6.467
 9004SOL     OW27910   4.370   6.334   1.291
 9004SOL    HW127911   4.359   6.262   1.360
 9004SOL    HW227912   4.462   6.373   1.297
 9005SOL     OW27913   4.747   1.984   2.779
 9005SOL    HW127914   4.657   1.971   2.821
 9005SOL    HW227915   4.814   1.924   2.824
 9006SOL     OW27916   1.532   6.041   1.182
 9006SOL    HW127917   1.449   5.996   1.214
 9006SOL    HW227918   1.508   6.112   1.115
 9007SOL     OW27919   2.455   6.369   4.659
 9007SOL    HW127920   2.375   6.418   4.692
 9007SOL    HW227921   2.476   6.293   4.722
 9008SOL     OW27922   6.473   4.848   2.333
 9008SOL    HW127923   6.475   4.822   2.429
 9008SOL    HW227924   6.394   4.807   2.288
 9009SOL     OW27925   3.582   6.515   0.901
 9009SOL    HW127926   3.574   6.440   0.835
 9009SOL    HW227927   3.556   6.483   0.992
 9010SOL     OW27928   1.390   6.178   4.807
 9010SOL    HW127929   1.409   6.264   4.855
 9010SOL    HW227930   1.363   6.197   4.713
 9011SOL     OW27931   4.346   2.227   0.997
 9011SOL    HW127932   4.423   2.200   1.054
 9011SOL    HW227933   4.376   2.238   0.903
 9012SOL     OW27934   0.078   5.624   1.137
 9012SOL    HW127935   0.157   5.666   1.182
 9012SOL    HW227936   0.028   5.695   1.087
 9013SOL     OW27937   5.471   5.731   3.449
 9013SOL    HW127938   5.402   5.747   3.519
 9013SOL    HW227939   5.486   5.633   3.439
 9014SOL     OW27940   2.595   0.934   1.072
 9014SOL    HW127941   2.634   1.024   1.091
 9014SOL    HW227942   2.620   0.871   1.145
 9015SOL     OW27943   0.397   0.984   5.608
 9015SOL    HW127944   0.377   1.034   5.693
 9015SOL    HW227945   0.443   1.045   5.544
 9016SOL     OW27946   6.713   6.281   6.702
 9016SOL    HW127947   6.670   6.307   6.616
 9016SOL    HW227948   6.751   6.363   6.746
 9017SOL     OW27949   6.772   2.983   3.436
 9017SOL    HW127950   6.771   3.074   3.393
 9017SOL    HW227951   6.690   2.933   3.410
 9018SOL     OW27952   3.695   2.450   5.399
 9018SOL    HW127953   3.602   2.486   5.399
 9018SOL    HW227954   3.695   2.355   5.370
 9019SOL     OW27955   2.034   0.273   0.976
 9019SOL    HW127956   2.090   0.311   1.050
 9019SOL    HW227957   1.987   0.347   0.930
 9020SOL     OW27958   0.274   4.850   3.198
 9020SOL    HW127959   0.320   4.922   3.147
 9020SOL    HW227960   0.201   4.889   3.254
 9021SOL     OW27961   6.765   5.575   4.843
 9021SOL    HW127962   6.834   5.578   4.772
 9021SOL    HW227963   6.718   5.487   4.840
 9022SOL     OW27964   3.045   0.601   0.135
 9022SOL    HW127965   3.014   0.532   0.070
 9022SOL    HW227966   2.966   0.637   0.185
 9023SOL     OW27967   3.501   2.955   3.197
 9023SOL    HW127968   3.589   2.931   3.158
 9023SOL    HW227969   3.470   3.043   3.160
 9024SOL     OW27970   1.780   6.496   0.501
 9024SOL    HW127971   1.878   6.514   0.508
 9024SOL    HW227972   1.731   6.550   0.569
 9025SOL     OW27973   6.075   4.856   0.593
 9025SOL    HW127974   6.036   4.841   0.684
 9025SOL    HW227975   6.141   4.784   0.572
 9026SOL     OW27976   3.407   2.755   5.179
 9026SOL    HW127977   3.395   2.675   5.238
 9026SOL    HW227978   3.504   2.777   5.172
 9027SOL     OW27979   2.252   2.959   3.336
 9027SOL    HW127980   2.197   3.041   3.352
 9027SOL    HW227981   2.277   2.918   3.424
 9028SOL     OW27982   2.743   4.730   4.648
 9028SOL    HW127983   2.747   4.706   4.551
 9028SOL    HW227984   2.672   4.799   4.662
 9029SOL     OW27985   5.215   6.001   3.062
 9029SOL    HW127986   5.261   6.065   3.001
 9029SOL    HW227987   5.209   5.911   3.018
 9030SOL     OW27988   2.482   1.101   1.692
 9030SOL    HW127989   2.399   1.155   1.707
 9030SOL    HW227990   2.496   1.040   1.770
 9031SOL     OW27991   2.374   6.571   6.344
 9031SOL    HW127992   2.408   6.664   6.357
 9031SOL    HW227993   2.448   6.506   6.360
 9032SOL     OW27994   1.882   1.798   1.714
 9032SOL    HW127995   1.891   1.726   1.783
 9032SOL    HW227996   1.969   1.846   1.705
 9033SOL     OW27997   1.299   3.719   2.702
 9033SOL    HW127998   1.282   3.637   2.646
 9033SOL    HW227999   1.391   3.714   2.740
 9034SOL     OW28000   2.985   6.619   6.079
 9034SOL    HW128001   2.947   6.623   6.171
 9034SOL    HW228002   2.914   6.589   6.015
 9035SOL     OW28003   0.144   1.236   4.622
 9035SOL    HW128004   0.071   1.168   4.633
 9035SOL    HW228005   0.106   1.318   4.577
 9036SOL     OW28006   1.330   1.726   4.958
 9036SOL    HW128007   1.408   1.783   4.932
 9036SOL    HW228008   1.315   1.734   5.057
 9037SOL     OW28009   1.919   3.441   6.103
 9037SOL    HW128010   1.842   3.437   6.167
 9037SOL    HW228011   1.959   3.350   6.095
 9038SOL     OW28012   5.275   6.268   5.371
 9038SOL    HW128013   5.249   6.286   5.276
 9038SOL    HW228014   5.364   6.223   5.374
 9039SOL     OW28015   1.788   5.329   5.695
 9039SOL    HW128016   1.772   5.290   5.605
 9039SOL    HW228017   1.842   5.413   5.686
 9040SOL     OW28018   2.075   1.317   2.728
 9040SOL    HW128019   2.002   1.370   2.684
 9040SOL    HW228020   2.155   1.376   2.743
 9041SOL     OW28021   2.140   3.026   6.913
 9041SOL    HW128022   2.214   3.093   6.914
 9041SOL    HW228023   2.105   3.013   7.005
 9042SOL     OW28024   2.998   5.058   3.209
 9042SOL    HW128025   3.012   5.104   3.122
 9042SOL    HW228026   2.902   5.069   3.238
 9043SOL     OW28027   0.109   2.394   5.994
 9043SOL    HW128028   0.111   2.369   5.897
 9043SOL    HW228029   0.020   2.434   6.016
 9044SOL     OW28030   6.234   6.049   0.486
 9044SOL    HW128031   6.211   6.135   0.441
 9044SOL    HW228032   6.188   5.974   0.438
 9045SOL     OW28033   3.063   6.368   4.366
 9045SOL    HW128034   2.989   6.434   4.358
 9045SOL    HW228035   3.141   6.398   4.311
 9046SOL     OW28036   3.262   4.093   4.936
 9046SOL    HW128037   3.282   4.067   5.030
 9046SOL    HW228038   3.164   4.090   4.920
 9047SOL     OW28039   1.387   4.809   4.933
 9047SOL    HW128040   1.332   4.744   4.880
 9047SOL    HW228041   1.449   4.758   4.992
 9048SOL     OW28042   0.966   2.908   4.518
 9048SOL    HW128043   0.981   2.844   4.594
 9048SOL    HW228044   0.912   2.986   4.550
 9049SOL     OW28045   5.394   5.550   6.549
 9049SOL    HW128046   5.350   5.625   6.598
 9049SOL    HW228047   5.325   5.485   6.517
 9050SOL     OW28048   0.321   4.999   6.043
 9050SOL    HW128049   0.309   4.937   6.121
 9050SOL    HW228050   0.399   4.968   5.988
 9051SOL     OW28051   5.156   6.526   6.391
 9051SOL    HW128052   5.166   6.615   6.435
 9051SOL    HW228053   5.168   6.536   6.292
 9052SOL     OW28054   1.765   5.030   5.121
 9052SOL    HW128055   1.816   5.063   5.042
 9052SOL    HW228056   1.798   4.939   5.146
 9053SOL     OW28057   3.233   1.900   3.265
 9053SOL    HW128058   3.184   1.987   3.264
 9053SOL    HW228059   3.331   1.917   3.260
 9054SOL     OW28060   3.069   0.453   0.807
 9054SOL    HW128061   3.062   0.533   0.748
 9054SOL    HW228062   3.072   0.370   0.751
 9055SOL     OW28063   1.440   2.187   3.748
 9055SOL    HW128064   1.383   2.240   3.810
 9055SOL    HW228065   1.537   2.203   3.768
 9056SOL     OW28066   5.477   1.088   3.049
 9056SOL    HW128067   5.528   1.013   3.008
 9056SOL    HW228068   5.537   1.167   3.062
 9057SOL     OW28069   4.916   5.306   6.160
 9057SOL    HW128070   4.849   5.344   6.097
 9057SOL    HW228071   4.957   5.380   6.214
 9058SOL     OW28072   1.675   3.142   4.576
 9058SOL    HW128073   1.694   3.108   4.484
 9058SOL    HW228074   1.639   3.067   4.632
 9059SOL     OW28075   0.594   1.451   1.973
 9059SOL    HW128076   0.616   1.513   2.048
 9059SOL    HW228077   0.495   1.433   1.973
 9060SOL     OW28078   0.224   4.363   0.786
 9060SOL    HW128079   0.250   4.441   0.842
 9060SOL    HW228080   0.306   4.318   0.751
 9061SOL     OW28081   5.792   4.535   1.691
 9061SOL    HW128082   5.741   4.586   1.760
 9061SOL    HW228083   5.889   4.557   1.698
 9062SOL     OW28084   0.477   5.567   3.550
 9062SOL    HW128085   0.503   5.472   3.533
 9062SOL    HW228086   0.477   5.585   3.648
 9063SOL     OW28087   3.852   1.757   1.498
 9063SOL    HW128088   3.823   1.674   1.546
 9063SOL    HW228089   3.949   1.751   1.474
 9064SOL     OW28090   0.470   4.922   3.557
 9064SOL    HW128091   0.473   4.941   3.655
 9064SOL    HW228092   0.380   4.947   3.521
 9065SOL     OW28093   2.332   5.032   5.528
 9065SOL    HW128094   2.387   5.031   5.611
 9065SOL    HW228095   2.286   4.943   5.519
 9066SOL     OW28096   4.762   4.592   5.188
 9066SOL    HW128097   4.807   4.663   5.134
 9066SOL    HW228098   4.830   4.532   5.228
 9067SOL     OW28099   0.370   6.926   4.285
 9067SOL    HW128100   0.396   6.829   4.284
 9067SOL    HW228101   0.275   6.933   4.316
 9068SOL     OW28102   4.789   6.931   5.000
 9068SOL    HW128103   4.869   6.932   4.940
 9068SOL    HW228104   4.801   6.860   5.070
 9069SOL     OW28105   5.218   1.815   2.025
 9069SOL    HW128106   5.316   1.800   2.011
 9069SOL    HW228107   5.175   1.836   1.937
 9070SOL     OW28108   1.526   1.898   6.182
 9070SOL    HW128109   1.591   1.953   6.235
 9070SOL    HW228110   1.571   1.815   6.149
 9071SOL     OW28111   4.965   1.577   5.213
 9071SOL    HW128112   4.892   1.525   5.257
 9071SOL    HW228113   4.947   1.675   5.223
 9072SOL     OW28114   4.869   1.061   2.792
 9072SOL    HW128115   4.794   1.046   2.728
 9072SOL    HW228116   4.833   1.074   2.884
 9073SOL     OW28117   4.663   1.330   6.582
 9073SOL    HW128118   4.632   1.332   6.677
 9073SOL    HW228119   4.606   1.389   6.526
 9074SOL     OW28120   1.839   6.972   1.850
 9074SOL    HW128121   1.807   6.985   1.756
 9074SOL    HW228122   1.817   0.029   1.905
 9075SOL     OW28123   6.743   6.914   1.466
 9075SOL    HW128124   6.750   6.989   1.532
 9075SOL    HW228125   6.649   6.880   1.465
 9076SOL     OW28126   0.031   0.526   1.910
 9076SOL    HW128127   6.980   0.562   1.853
 9076SOL    HW228128   0.072   0.601   1.963
 9077SOL     OW28129   6.445   1.626   6.024
 9077SOL    HW128130   6.537   1.590   6.041
 9077SOL    HW228131   6.394   1.562   5.966
 9078SOL     OW28132   5.419   6.065   6.920
 9078SOL    HW128133   5.397   6.044   7.015
 9078SOL    HW228134   5.483   6.142   6.916
 9079SOL     OW28135   1.178   0.681   6.482
 9079SOL    HW128136   1.118   0.760   6.493
 9079SOL    HW228137   1.217   0.683   6.390
 9080SOL     OW28138   5.887   3.431   1.381
 9080SOL    HW128139   5.918   3.372   1.306
 9080SOL    HW228140   5.902   3.527   1.356
 9081SOL     OW28141   3.791   1.841   0.656
 9081SOL    HW128142   3.703   1.857   0.612
 9081SOL    HW228143   3.826   1.926   0.694
 9082SOL     OW28144   2.930   5.667   5.768
 9082SOL    HW128145   2.931   5.693   5.671
 9082SOL    HW228146   2.848   5.614   5.787
 9083SOL     OW28147   3.970   5.066   0.095
 9083SOL    HW128148   3.927   5.043   0.182
 9083SOL    HW228149   3.900   5.069   0.023
 9084SOL     OW28150   0.481   2.680   5.878
 9084SOL    HW128151   0.399   2.703   5.825
 9084SOL    HW228152   0.485   2.581   5.892
 9085SOL     OW28153   2.873   5.092   6.911
 9085SOL    HW128154   2.849   5.054   6.822
 9085SOL    HW228155   2.842   5.186   6.917
 9086SOL     OW28156   6.661   4.331   0.336
 9086SOL    HW128157   6.726   4.262   0.306
 9086SOL    HW228158   6.706   4.396   0.398
 9087SOL     OW28159   6.175   1.278   1.371
 9087SOL    HW128160   6.149   1.181   1.375
 9087SOL    HW228161   6.098   1.331   1.336
 9088SOL     OW28162   6.646   0.069   0.302
 9088SOL    HW128163   6.694   7.004   0.300
 9088SOL    HW228164   6.575   0.066   0.374
 9089SOL     OW28165   4.962   5.912   3.718
 9089SOL    HW128166   4.922   6.004   3.709
 9089SOL    HW228167   4.918   5.864   3.794
 9090SOL     OW28168   5.726   6.374   4.892
 9090SOL    HW128169   5.679   6.355   4.978
 9090SOL    HW228170   5.802   6.310   4.881
 9091SOL     OW28171   2.558   1.718   1.492
 9091SOL    HW128172   2.614   1.667   1.559
 9091SOL    HW228173   2.603   1.717   1.403
 9092SOL     OW28174   0.886   6.455   5.890
 9092SOL    HW128175   0.894   6.385   5.961
 9092SOL    HW228176   0.969   6.511   5.890
 9093SOL     OW28177   1.988   4.984   0.399
 9093SOL    HW128178   1.896   5.003   0.432
 9093SOL    HW228179   1.995   4.888   0.373
 9094SOL     OW28180   0.345   5.571   2.101
 9094SOL    HW128181   0.351   5.526   2.190
 9094SOL    HW228182   0.267   5.633   2.099
 9095SOL     OW28183   3.426   3.246   6.827
 9095SOL    HW128184   3.366   3.257   6.907
 9095SOL    HW228185   3.438   3.148   6.809
 9096SOL     OW28186   5.764   2.711   2.984
 9096SOL    HW128187   5.738   2.712   2.887
 9096SOL    HW228188   5.789   2.803   3.012
 9097SOL     OW28189   1.376   3.737   6.686
 9097SOL    HW128190   1.399   3.833   6.698
 9097SOL    HW228191   1.395   3.709   6.592
 9098SOL     OW28192   3.899   3.915   1.799
 9098SOL    HW128193   3.894   3.839   1.734
 9098SOL    HW228194   3.963   3.892   1.873
 9099SOL     OW28195   2.762   3.599   1.302
 9099SOL    HW128196   2.702   3.519   1.309
 9099SOL    HW228197   2.800   3.603   1.209
 9100SOL     OW28198   1.027   3.100   1.019
 9100SOL    HW128199   1.031   3.142   0.928
 9100SOL    HW228200   1.120   3.082   1.051
 9101SOL     OW28201   1.480   2.702   2.269
 9101SOL    HW128202   1.463   2.759   2.349
 9101SOL    HW228203   1.559   2.738   2.219
 9102SOL     OW28204   4.208   5.288   2.056
 9102SOL    HW128205   4.133   5.224   2.073
 9102SOL    HW228206   4.278   5.278   2.127
 9103SOL     OW28207   6.899   3.953   0.883
 9103SOL    HW128208   6.943   4.038   0.854
 9103SOL    HW228209   6.801   3.969   0.896
 9104SOL     OW28210   4.527   6.084   1.427
 9104SOL    HW128211   4.551   6.007   1.368
 9104SOL    HW228212   4.591   6.089   1.503
 9105SOL     OW28213   1.556   1.358   6.377
 9105SOL    HW128214   1.608   1.415   6.439
 9105SOL    HW228215   1.543   1.406   6.290
 9106SOL     OW28216   5.834   5.080   0.060
 9106SOL    HW128217   5.758   5.051   0.002
 9106SOL    HW228218   5.898   5.004   0.072
 9107SOL     OW28219   3.205   0.077   0.683
 9107SOL    HW128220   3.297   0.081   0.645
 9107SOL    HW228221   3.139   0.067   0.609
 9108SOL     OW28222   4.505   4.959   5.321
 9108SOL    HW128223   4.500   4.862   5.348
 9108SOL    HW228224   4.550   4.966   5.232
 9109SOL     OW28225   3.013   2.167   3.852
 9109SOL    HW128226   3.014   2.107   3.772
 9109SOL    HW228227   2.939   2.234   3.842
 9110SOL     OW28228   1.742   4.536   3.647
 9110SOL    HW128229   1.777   4.460   3.702
 9110SOL    HW228230   1.801   4.616   3.660
 9111SOL     OW28231   3.778   4.191   1.316
 9111SOL    HW128232   3.725   4.122   1.365
 9111SOL    HW228233   3.725   4.223   1.237
 9112SOL     OW28234   0.615   4.428   2.355
 9112SOL    HW128235   0.597   4.375   2.438
 9112SOL    HW228236   0.711   4.455   2.352
 9113SOL     OW28237   5.525   0.247   0.370
 9113SOL    HW128238   5.543   0.301   0.287
 9113SOL    HW228239   5.571   0.159   0.363
 9114SOL     OW28240   2.353   4.808   2.168
 9114SOL    HW128241   2.414   4.733   2.193
 9114SOL    HW228242   2.258   4.777   2.174
 9115SOL     OW28243   1.400   4.887   4.652
 9115SOL    HW128244   1.322   4.945   4.630
 9115SOL    HW228245   1.382   4.838   4.738
 9116SOL     OW28246   6.807   1.747   6.827
 9116SOL    HW128247   6.830   1.682   6.900
 9116SOL    HW228248   6.853   1.720   6.743
 9117SOL     OW28249   6.475   2.735   6.615
 9117SOL    HW128250   6.455   2.833   6.606
 9117SOL    HW228251   6.390   2.686   6.638
 9118SOL     OW28252   6.888   6.953   1.229
 9118SOL    HW128253   6.841   6.919   1.311
 9118SOL    HW228254   6.967   7.008   1.255
 9119SOL     OW28255   5.926   0.386   2.172
 9119SOL    HW128256   5.943   0.413   2.077
 9119SOL    HW228257   5.831   0.354   2.180
 9120SOL     OW28258   5.415   1.342   5.782
 9120SOL    HW128259   5.443   1.362   5.688
 9120SOL    HW228260   5.436   1.421   5.840
 9121SOL     OW28261   0.369   2.594   5.316
 9121SOL    HW128262   0.329   2.523   5.374
 9121SOL    HW228263   0.335   2.585   5.222
 9122SOL     OW28264   1.616   3.060   2.838
 9122SOL    HW128265   1.707   3.081   2.874
 9122SOL    HW228266   1.624   3.026   2.744
 9123SOL     OW28267   2.701   6.147   5.662
 9123SOL    HW128268   2.730   6.109   5.574
 9123SOL    HW228269   2.646   6.229   5.646
 9124SOL     OW28270   6.438   6.050   5.548
 9124SOL    HW128271   6.498   6.046   5.468
 9124SOL    HW228272   6.363   6.113   5.531
 9125SOL     OW28273   4.725   4.455   3.692
 9125SOL    HW128274   4.652   4.459   3.624
 9125SOL    HW228275   4.737   4.360   3.722
 9126SOL     OW28276   6.407   0.955   1.570
 9126SOL    HW128277   6.456   0.874   1.604
 9126SOL    HW228278   6.463   1.003   1.503
 9127SOL     OW28279   5.706   0.268   6.260
 9127SOL    HW128280   5.629   0.275   6.323
 9127SOL    HW228281   5.702   0.343   6.194
 9128SOL     OW28282   3.612   1.501   5.526
 9128SOL    HW128283   3.592   1.596   5.500
 9128SOL    HW228284   3.681   1.464   5.463
 9129SOL     OW28285   1.392   2.706   6.753
 9129SOL    HW128286   1.425   2.771   6.684
 9129SOL    HW228287   1.320   2.749   6.808
 9130SOL     OW28288   6.805   4.564   6.968
 9130SOL    HW128289   6.801   4.499   6.892
 9130SOL    HW228290   6.727   4.549   0.006
 9131SOL     OW28291   0.440   4.335   4.600
 9131SOL    HW128292   0.402   4.383   4.679
 9131SOL    HW228293   0.537   4.315   4.616
 9132SOL     OW28294   6.531   3.876   3.634
 9132SOL    HW128295   6.440   3.846   3.662
 9132SOL    HW228296   6.549   3.968   3.669
 9133SOL     OW28297   2.395   4.421   1.094
 9133SOL    HW128298   2.314   4.403   1.150
 9133SOL    HW228299   2.477   4.397   1.146
 9134SOL     OW28300   3.922   6.720   0.319
 9134SOL    HW128301   3.939   6.624   0.341
 9134SOL    HW228302   3.870   6.763   0.393
 9135SOL     OW28303   6.889   6.993   2.386
 9135SOL    HW128304   6.921   6.983   2.481
 9135SOL    HW228305   6.823   0.046   2.381
 9136SOL     OW28306   5.229   5.144   5.858
 9136SOL    HW128307   5.142   5.171   5.819
 9136SOL    HW228308   5.299   5.211   5.834
 9137SOL     OW28309   5.020   1.427   1.608
 9137SOL    HW128310   5.086   1.436   1.683
 9137SOL    HW228311   5.067   1.394   1.526
 9138SOL     OW28312   6.254   4.904   6.170
 9138SOL    HW128313   6.206   4.983   6.131
 9138SOL    HW228314   6.317   4.867   6.102
 9139SOL     OW28315   2.914   1.281   5.755
 9139SOL    HW128316   2.897   1.202   5.815
 9139SOL    HW228317   3.003   1.272   5.711
 9140SOL     OW28318   6.395   2.374   2.868
 9140SOL    HW128319   6.339   2.402   2.790
 9140SOL    HW228320   6.351   2.404   2.952
 9141SOL     OW28321   5.536   0.358   6.029
 9141SOL    HW128322   5.515   0.397   5.940
 9141SOL    HW228323   5.472   0.393   6.097
 9142SOL     OW28324   0.132   3.371   5.399
 9142SOL    HW128325   0.189   3.416   5.329
 9142SOL    HW228326   0.056   3.431   5.423
 9143SOL     OW28327   4.477   3.356   0.437
 9143SOL    HW128328   4.483   3.360   0.337
 9143SOL    HW228329   4.391   3.396   0.467
 9144SOL     OW28330   1.930   5.864   6.017
 9144SOL    HW128331   1.872   5.784   6.005
 9144SOL    HW228332   1.954   5.901   5.928
 9145SOL     OW28333   0.184   4.677   0.547
 9145SOL    HW128334   0.271   4.627   0.539
 9145SOL    HW228335   0.163   4.691   0.644
 9146SOL     OW28336   5.187   2.416   1.615
 9146SOL    HW128337   5.285   2.416   1.638
 9146SOL    HW228338   5.174   2.369   1.528
 9147SOL     OW28339   5.005   6.667   4.319
 9147SOL    HW128340   4.964   6.627   4.236
 9147SOL    HW228341   5.064   6.600   4.362
 9148SOL     OW28342   6.309   6.325   2.437
 9148SOL    HW128343   6.375   6.279   2.496
 9148SOL    HW228344   6.221   6.277   2.441
 9149SOL     OW28345   4.644   2.690   3.776
 9149SOL    HW128346   4.695   2.776   3.766
 9149SOL    HW228347   4.707   2.613   3.768
 9150SOL     OW28348   4.467   6.275   3.269
 9150SOL    HW128349   4.565   6.268   3.286
 9150SOL    HW228350   4.446   6.365   3.231
 9151SOL     OW28351   1.403   4.418   2.136
 9151SOL    HW128352   1.470   4.352   2.101
 9151SOL    HW228353   1.382   4.397   2.231
 9152SOL     OW28354   2.596   5.828   3.982
 9152SOL    HW128355   2.639   5.741   4.007
 9152SOL    HW228356   2.512   5.840   4.034
 9153SOL     OW28357   1.455   2.641   0.183
 9153SOL    HW128358   1.498   2.550   0.181
 9153SOL    HW228359   1.482   2.693   0.103
 9154SOL     OW28360   2.790   6.044   6.239
 9154SOL    HW128361   2.789   6.134   6.284
 9154SOL    HW228362   2.867   5.990   6.275
 9155SOL     OW28363   2.426   3.301   6.791
 9155SOL    HW128364   2.422   3.354   6.706
 9155SOL    HW228365   2.508   3.327   6.842
 9156SOL     OW28366   2.801   2.543   1.168
 9156SOL    HW128367   2.777   2.502   1.079
 9156SOL    HW228368   2.854   2.478   1.221
 9157SOL     OW28369   5.832   5.140   5.516
 9157SOL    HW128370   5.773   5.073   5.561
 9157SOL    HW228371   5.877   5.098   5.437
 9158SOL     OW28372   6.938   3.635   4.419
 9158SOL    HW128373   6.991   3.702   4.472
 9158SOL    HW228374   6.959   3.543   4.452
 9159SOL     OW28375   0.294   5.992   3.222
 9159SOL    HW128376   0.358   6.004   3.146
 9159SOL    HW228377   0.336   5.936   3.293
 9160SOL     OW28378   0.013   6.673   5.582
 9160SOL    HW128379   7.009   6.761   5.621
 9160SOL    HW228380   0.112   6.671   5.568
 9161SOL     OW28381   4.885   4.030   4.757
 9161SOL    HW128382   4.865   3.944   4.803
 9161SOL    HW228383   4.866   4.106   4.820
 9162SOL     OW28384   5.107   2.384   3.148
 9162SOL    HW128385   5.083   2.317   3.079
 9162SOL    HW228386   5.043   2.378   3.225
 9163SOL     OW28387   2.211   3.070   3.832
 9163SOL    HW128388   2.190   2.990   3.888
 9163SOL    HW228389   2.272   3.044   3.758
 9164SOL     OW28390   2.750   0.979   6.416
 9164SOL    HW128391   2.667   1.002   6.365
 9164SOL    HW228392   2.816   0.936   6.355
 9165SOL     OW28393   6.011   0.802   5.661
 9165SOL    HW128394   6.025   0.722   5.719
 9165SOL    HW228395   6.073   0.798   5.583
 9166SOL     OW28396   4.772   6.263   1.096
 9166SOL    HW128397   4.763   6.207   1.178
 9166SOL    HW228398   4.854   6.320   1.103
 9167SOL     OW28399   2.077   2.821   5.903
 9167SOL    HW128400   2.170   2.859   5.898
 9167SOL    HW228401   2.034   2.829   5.813
 9168SOL     OW28402   2.055   6.578   5.844
 9168SOL    HW128403   1.966   6.539   5.867
 9168SOL    HW228404   2.047   6.677   5.838
 9169SOL     OW28405   0.080   0.742   5.040
 9169SOL    HW128406   0.046   0.649   5.024
 9169SOL    HW228407   0.029   0.784   5.115
 9170SOL     OW28408   0.256   4.906   6.549
 9170SOL    HW128409   0.186   4.861   6.494
 9170SOL    HW228410   0.212   4.962   6.620
 9171SOL     OW28411   3.166   5.796   0.347
 9171SOL    HW128412   3.235   5.743   0.297
 9171SOL    HW228413   3.139   5.745   0.428
 9172SOL     OW28414   3.542   0.827   4.740
 9172SOL    HW128415   3.464   0.811   4.801
 9172SOL    HW228416   3.607   0.752   4.748
 9173SOL     OW28417   5.257   4.717   4.636
 9173SOL    HW128418   5.300   4.798   4.595
 9173SOL    HW228419   5.158   4.730   4.638
 9174SOL     OW28420   6.084   3.601   0.820
 9174SOL    HW128421   6.016   3.558   0.879
 9174SOL    HW228422   6.174   3.564   0.841
 9175SOL     OW28423   2.534   6.383   5.011
 9175SOL    HW128424   2.550   6.317   4.938
 9175SOL    HW228425   2.479   6.340   5.084
 9176SOL     OW28426   1.939   1.227   5.588
 9176SOL    HW128427   2.026   1.246   5.631
 9176SOL    HW228428   1.916   1.130   5.601
 9177SOL     OW28429   0.938   4.525   4.287
 9177SOL    HW128430   1.006   4.517   4.215
 9177SOL    HW228431   0.924   4.436   4.330
 9178SOL     OW28432   1.976   4.515   0.997
 9178SOL    HW128433   1.923   4.459   0.933
 9178SOL    HW228434   1.997   4.603   0.954
 9179SOL     OW28435   2.780   5.086   4.025
 9179SOL    HW128436   2.771   5.047   4.116
 9179SOL    HW228437   2.865   5.053   3.983
 9180SOL     OW28438   6.435   2.337   3.618
 9180SOL    HW128439   6.481   2.325   3.529
 9180SOL    HW228440   6.337   2.323   3.606
 9181SOL     OW28441   4.485   2.514   2.949
 9181SOL    HW128442   4.511   2.419   2.933
 9181SOL    HW228443   4.388   2.520   2.971
 9182SOL     OW28444   3.041   0.152   2.598
 9182SOL    HW128445   3.067   0.097   2.677
 9182SOL    HW228446   3.051   0.097   2.514
 9183SOL     OW28447   5.425   6.150   0.603
 9183SOL    HW128448   5.350   6.210   0.577
 9183SOL    HW228449   5.389   6.061   0.632
 9184SOL     OW28450   5.225   1.009   0.501
 9184SOL    HW128451   5.194   1.088   0.448
 9184SOL    HW228452   5.245   1.039   0.595
 9185SOL     OW28453   4.221   6.826   5.193
 9185SOL    HW128454   4.182   6.871   5.273
 9185SOL    HW228455   4.320   6.817   5.206
 9186SOL     OW28456   6.162   1.534   4.337
 9186SOL    HW128457   6.160   1.575   4.428
 9186SOL    HW228458   6.242   1.473   4.331
 9187SOL     OW28459   2.423   0.389   1.718
 9187SOL    HW128460   2.381   0.445   1.647
 9187SOL    HW228461   2.512   0.428   1.744
 9188SOL     OW28462   2.194   6.479   1.835
 9188SOL    HW128463   2.152   6.431   1.757
 9188SOL    HW228464   2.148   6.566   1.849
 9189SOL     OW28465   5.554   5.762   2.377
 9189SOL    HW128466   5.607   5.677   2.382
 9189SOL    HW228467   5.573   5.807   2.290
 9190SOL     OW28468   1.519   4.905   0.430
 9190SOL    HW128469   1.599   4.953   0.465
 9190SOL    HW228470   1.510   4.923   0.332
 9191SOL     OW28471   5.933   1.070   5.395
 9191SOL    HW128472   5.957   1.140   5.463
 9191SOL    HW228473   5.863   1.009   5.433
 9192SOL     OW28474   0.639   3.981   4.667
 9192SOL    HW128475   0.640   3.881   4.674
 9192SOL    HW228476   0.609   4.007   4.575
 9193SOL     OW28477   4.365   3.945   6.994
 9193SOL    HW128478   4.406   4.029   6.960
 9193SOL    HW228479   4.427   3.902   0.037
 9194SOL     OW28480   3.273   1.016   3.439
 9194SOL    HW128481   3.285   1.098   3.495
 9194SOL    HW228482   3.201   1.032   3.371
 9195SOL     OW28483   2.013   2.195   3.985
 9195SOL    HW128484   1.945   2.232   4.049
 9195SOL    HW228485   2.016   2.096   3.992
 9196SOL     OW28486   4.293   0.914   5.060
 9196SOL    HW128487   4.267   0.832   5.009
 9196SOL    HW228488   4.377   0.952   5.020
 9197SOL     OW28489   1.694   4.428   1.532
 9197SOL    HW128490   1.769   4.494   1.527
 9197SOL    HW228491   1.633   4.441   1.454
 9198SOL     OW28492   6.413   5.430   5.208
 9198SOL    HW128493   6.431   5.484   5.126
 9198SOL    HW228494   6.330   5.375   5.194
 9199SOL     OW28495   0.582   3.806   6.435
 9199SOL    HW128496   0.599   3.901   6.460
 9199SOL    HW228497   0.669   3.760   6.415
 9200SOL     OW28498   2.376   6.876   1.260
 9200SOL    HW128499   2.314   6.798   1.248
 9200SOL    HW228500   2.417   6.873   1.351
 9201SOL     OW28501   0.563   3.530   0.413
 9201SOL    HW128502   0.496   3.575   0.354
 9201SOL    HW228503   0.593   3.444   0.370
 9202SOL     OW28504   2.426   6.844   3.785
 9202SOL    HW128505   2.388   6.754   3.808
 9202SOL    HW228506   2.367   6.888   3.718
 9203SOL     OW28507   0.378   5.446   6.761
 9203SOL    HW128508   0.369   5.486   6.670
 9203SOL    HW228509   0.293   5.401   6.787
 9204SOL     OW28510   4.834   2.539   6.832
 9204SOL    HW128511   4.858   2.481   6.910
 9204SOL    HW228512   4.769   2.609   6.861
 9205SOL     OW28513   6.354   4.186   2.611
 9205SOL    HW128514   6.369   4.106   2.669
 9205SOL    HW228515   6.257   4.209   2.611
 9206SOL     OW28516   3.487   5.457   1.388
 9206SOL    HW128517   3.488   5.364   1.352
 9206SOL    HW228518   3.535   5.459   1.476
 9207SOL     OW28519   4.053   4.820   0.293
 9207SOL    HW128520   4.019   4.855   0.380
 9207SOL    HW228521   3.976   4.800   0.232
 9208SOL     OW28522   5.933   4.482   4.415
 9208SOL    HW128523   5.850   4.484   4.360
 9208SOL    HW228524   5.910   4.471   4.512
 9209SOL     OW28525   3.141   0.896   0.233
 9209SOL    HW128526   3.233   0.908   0.196
 9209SOL    HW228527   3.078   0.874   0.159
 9210SOL     OW28528   6.623   1.186   3.119
 9210SOL    HW128529   6.646   1.233   3.033
 9210SOL    HW228530   6.524   1.185   3.131
 9211SOL     OW28531   6.683   2.742   3.947
 9211SOL    HW128532   6.747   2.819   3.949
 9211SOL    HW228533   6.611   2.757   4.015
 9212SOL     OW28534   3.960   5.714   4.159
 9212SOL    HW128535   3.909   5.641   4.113
 9212SOL    HW228536   3.907   5.749   4.236
 9213SOL     OW28537   5.749   3.003   5.143
 9213SOL    HW128538   5.848   3.009   5.155
 9213SOL    HW228539   5.708   3.093   5.160
 9214SOL     OW28540   6.835   5.438   5.777
 9214SOL    HW128541   6.932   5.431   5.754
 9214SOL    HW228542   6.803   5.531   5.761
 9215SOL     OW28543   0.998   2.367   0.493
 9215SOL    HW128544   0.972   2.313   0.573
 9215SOL    HW228545   0.944   2.337   0.414
 9216SOL     OW28546   2.789   0.193   3.808
 9216SOL    HW128547   2.765   0.102   3.776
 9216SOL    HW228548   2.839   0.186   3.894
 9217SOL     OW28549   0.237   1.080   5.828
 9217SOL    HW128550   0.196   1.148   5.767
 9217SOL    HW228551   0.165   1.024   5.870
 9218SOL     OW28552   4.042   6.485   0.345
 9218SOL    HW128553   4.011   6.390   0.344
 9218SOL    HW228554   4.134   6.490   0.384
 9219SOL     OW28555   0.615   3.014   6.924
 9219SOL    HW128556   0.580   3.086   6.864
 9219SOL    HW228557   0.714   3.021   6.930
 9220SOL     OW28558   2.928   6.411   1.323
 9220SOL    HW128559   2.896   6.460   1.242
 9220SOL    HW228560   3.025   6.388   1.312
 9221SOL     OW28561   3.644   0.469   4.344
 9221SOL    HW128562   3.668   0.557   4.386
 9221SOL    HW228563   3.596   0.413   4.412
 9222SOL     OW28564   2.088   0.611   6.743
 9222SOL    HW128565   2.181   0.648   6.741
 9222SOL    HW228566   2.047   0.631   6.831
 9223SOL     OW28567   1.723   2.016   5.057
 9223SOL    HW128568   1.757   2.089   4.997
 9223SOL    HW228569   1.792   1.997   5.127
 9224SOL     OW28570   2.901   5.131   4.449
 9224SOL    HW128571   2.912   5.216   4.500
 9224SOL    HW228572   2.951   5.136   4.363
 9225SOL     OW28573   3.528   6.752   6.265
 9225SOL    HW128574   3.509   6.838   6.217
 9225SOL    HW228575   3.596   6.700   6.214
 9226SOL     OW28576   5.728   6.409   1.809
 9226SOL    HW128577   5.755   6.498   1.846
 9226SOL    HW228578   5.682   6.421   1.721
 9227SOL     OW28579   0.813   4.980   3.472
 9227SOL    HW128580   0.809   4.885   3.500
 9227SOL    HW228581   0.860   4.987   3.384
 9228SOL     OW28582   1.336   0.973   6.072
 9228SOL    HW128583   1.386   0.921   6.142
 9228SOL    HW228584   1.343   1.071   6.092
 9229SOL     OW28585   1.812   5.776   4.531
 9229SOL    HW128586   1.779   5.713   4.461
 9229SOL    HW228587   1.909   5.760   4.546
 9230SOL     OW28588   5.579   0.284   2.429
 9230SOL    HW128589   5.591   0.188   2.406
 9230SOL    HW228590   5.521   0.328   2.361
 9231SOL     OW28591   1.874   3.459   4.265
 9231SOL    HW128592   1.881   3.548   4.310
 9231SOL    HW228593   1.934   3.459   4.184
 9232SOL     OW28594   3.550   5.200   1.260
 9232SOL    HW128595   3.599   5.113   1.271
 9232SOL    HW228596   3.486   5.192   1.184
 9233SOL     OW28597   5.809   5.224   1.934
 9233SOL    HW128598   5.877   5.183   1.873
 9233SOL    HW228599   5.769   5.305   1.891
 9234SOL     OW28600   3.153   5.677   4.049
 9234SOL    HW128601   3.061   5.709   4.027
 9234SOL    HW228602   3.206   5.752   4.089
 9235SOL     OW28603   1.710   1.755   3.181
 9235SOL    HW128604   1.781   1.808   3.135
 9235SOL    HW228605   1.747   1.668   3.212
 9236SOL     OW28606   3.642   4.234   5.485
 9236SOL    HW128607   3.710   4.162   5.498
 9236SOL    HW228608   3.689   4.323   5.486
 9237SOL     OW28609   1.676   4.379   4.332
 9237SOL    HW128610   1.733   4.441   4.385
 9237SOL    HW228611   1.710   4.374   4.238
 9238SOL     OW28612   3.863   2.017   5.978
 9238SOL    HW128613   3.832   2.098   5.927
 9238SOL    HW228614   3.904   2.047   6.064
 9239SOL     OW28615   0.189   4.078   1.215
 9239SOL    HW128616   0.263   4.096   1.149
 9239SOL    HW228617   0.112   4.035   1.168
 9240SOL     OW28618   5.995   1.296   0.574
 9240SOL    HW128619   5.902   1.263   0.559
 9240SOL    HW228620   6.016   1.367   0.507
 9241SOL     OW28621   6.492   5.494   6.500
 9241SOL    HW128622   6.586   5.528   6.512
 9241SOL    HW228623   6.478   5.414   6.559
 9242SOL     OW28624   6.871   5.295   0.599
 9242SOL    HW128625   6.845   5.391   0.587
 9242SOL    HW228626   6.863   5.247   0.511
 9243SOL     OW28627   6.431   5.374   2.955
 9243SOL    HW128628   6.477   5.435   3.018
 9243SOL    HW228629   6.369   5.427   2.896
 9244SOL     OW28630   4.794   5.816   6.160
 9244SOL    HW128631   4.740   5.748   6.110
 9244SOL    HW228632   4.857   5.770   6.222
 9245SOL     OW28633   1.211   5.268   2.553
 9245SOL    HW128634   1.157   5.200   2.603
 9245SOL    HW228635   1.304   5.269   2.588
 9246SOL     OW28636   5.650   5.065   3.367
 9246SOL    HW128637   5.720   5.125   3.328
 9246SOL    HW228638   5.622   4.998   3.298
 9247SOL     OW28639   0.821   6.550   3.242
 9247SOL    HW128640   0.896   6.602   3.284
 9247SOL    HW228641   0.807   6.466   3.293
 9248SOL     OW28642   2.424   2.444   6.074
 9248SOL    HW128643   2.494   2.462   6.005
 9248SOL    HW228644   2.459   2.381   6.142
 9249SOL     OW28645   5.399   2.080   5.497
 9249SOL    HW128646   5.398   2.131   5.582
 9249SOL    HW228647   5.311   2.034   5.484
 9250SOL     OW28648   5.192   3.834   4.445
 9250SOL    HW128649   5.267   3.813   4.508
 9250SOL    HW228650   5.128   3.758   4.443
 9251SOL     OW28651   3.839   1.583   3.092
 9251SOL    HW128652   3.794   1.641   3.024
 9251SOL    HW228653   3.781   1.575   3.173
 9252SOL     OW28654   6.816   0.404   4.568
 9252SOL    HW128655   6.886   0.396   4.639
 9252SOL    HW228656   6.747   0.333   4.582
 9253SOL     OW28657   3.707   6.235   5.986
 9253SOL    HW128658   3.622   6.209   5.941
 9253SOL    HW228659   3.740   6.158   6.042
 9254SOL     OW28660   5.321   3.671   1.558
 9254SOL    HW128661   5.249   3.607   1.584
 9254SOL    HW228662   5.344   3.659   1.462
 9255SOL     OW28663   5.127   2.756   6.961
 9255SOL    HW128664   5.072   2.712   0.010
 9255SOL    HW228665   5.076   2.834   6.923
 9256SOL     OW28666   4.217   4.666   2.836
 9256SOL    HW128667   4.131   4.715   2.849
 9256SOL    HW228668   4.249   4.631   2.924
 9257SOL     OW28669   0.814   4.148   2.726
 9257SOL    HW128670   0.807   4.078   2.798
 9257SOL    HW228671   0.778   4.111   2.641
 9258SOL     OW28672   3.492   2.996   3.470
 9258SOL    HW128673   3.496   2.950   3.382
 9258SOL    HW228674   3.446   3.084   3.460
 9259SOL     OW28675   0.969   2.280   1.269
 9259SOL    HW128676   0.982   2.262   1.171
 9259SOL    HW228677   1.053   2.257   1.318
 9260SOL     OW28678   4.911   2.282   5.579
 9260SOL    HW128679   4.815   2.285   5.608
 9260SOL    HW228680   4.927   2.198   5.527
 9261SOL     OW28681   4.120   0.391   6.399
 9261SOL    HW128682   4.216   0.367   6.413
 9261SOL    HW228683   4.082   0.334   6.325
 9262SOL     OW28684   5.932   2.003   5.814
 9262SOL    HW128685   5.838   1.979   5.791
 9262SOL    HW228686   5.957   1.962   5.901
 9263SOL     OW28687   5.998   3.680   1.372
 9263SOL    HW128688   5.948   3.728   1.444
 9263SOL    HW228689   6.096   3.691   1.385
 9264SOL     OW28690   5.971   3.936   0.443
 9264SOL    HW128691   5.943   3.891   0.528
 9264SOL    HW228692   5.993   3.867   0.374
 9265SOL     OW28693   3.213   1.728   0.370
 9265SOL    HW128694   3.308   1.738   0.339
 9265SOL    HW228695   3.162   1.810   0.347
 9266SOL     OW28696   2.837   6.065   3.060
 9266SOL    HW128697   2.831   5.980   3.112
 9266SOL    HW228698   2.931   6.099   3.061
 9267SOL     OW28699   0.575   4.180   4.888
 9267SOL    HW128700   0.643   4.189   4.961
 9267SOL    HW228701   0.616   4.131   4.811
 9268SOL     OW28702   0.863   6.710   2.782
 9268SOL    HW128703   0.835   6.626   2.829
 9268SOL    HW228704   0.907   6.686   2.696
 9269SOL     OW28705   2.709   2.395   0.093
 9269SOL    HW128706   2.638   2.452   0.135
 9269SOL    HW228707   2.667   2.316   0.049
 9270SOL     OW28708   5.972   6.894   5.240
 9270SOL    HW128709   5.885   6.941   5.256
 9270SOL    HW228710   5.974   6.808   5.292
 9271SOL     OW28711   1.813   6.018   1.167
 9271SOL    HW128712   1.828   6.072   1.084
 9271SOL    HW228713   1.728   6.048   1.210
 9272SOL     OW28714   3.249   4.258   5.929
 9272SOL    HW128715   3.195   4.341   5.911
 9272SOL    HW228716   3.231   4.226   6.022
 9273SOL     OW28717   4.322   5.715   3.885
 9273SOL    HW128718   4.395   5.746   3.824
 9273SOL    HW228719   4.329   5.616   3.897
 9274SOL     OW28720   5.632   1.874   6.290
 9274SOL    HW128721   5.719   1.915   6.263
 9274SOL    HW228722   5.583   1.937   6.351
 9275SOL     OW28723   0.956   1.130   0.308
 9275SOL    HW128724   1.031   1.181   0.350
 9275SOL    HW228725   0.908   1.189   0.243
 9276SOL     OW28726   2.502   5.195   4.501
 9276SOL    HW128727   2.486   5.288   4.470
 9276SOL    HW228728   2.484   5.131   4.426
 9277SOL     OW28729   3.703   3.253   0.513
 9277SOL    HW128730   3.754   3.327   0.557
 9277SOL    HW228731   3.756   3.217   0.437
 9278SOL     OW28732   1.761   1.692   4.138
 9278SOL    HW128733   1.780   1.677   4.040
 9278SOL    HW228734   1.848   1.693   4.188
 9279SOL     OW28735   4.388   0.281   1.893
 9279SOL    HW128736   4.441   0.272   1.809
 9279SOL    HW228737   4.303   0.228   1.885
 9280SOL     OW28738   1.597   6.754   3.820
 9280SOL    HW128739   1.529   6.802   3.764
 9280SOL    HW228740   1.551   6.684   3.875
 9281SOL     OW28741   2.712   3.415   0.913
 9281SOL    HW128742   2.697   3.407   0.815
 9281SOL    HW228743   2.736   3.510   0.936
 9282SOL     OW28744   5.039   2.157   4.521
 9282SOL    HW128745   5.136   2.143   4.501
 9282SOL    HW228746   5.029   2.228   4.591
 9283SOL     OW28747   6.246   1.212   2.751
 9283SOL    HW128748   6.269   1.148   2.678
 9283SOL    HW228749   6.147   1.217   2.761
 9284SOL     OW28750   3.728   4.253   6.826
 9284SOL    HW128751   3.721   4.353   6.829
 9284SOL    HW228752   3.647   4.212   6.867
 9285SOL     OW28753   5.398   2.714   0.087
 9285SOL    HW128754   5.328   2.768   0.040
 9285SOL    HW228755   5.457   2.775   0.139
 9286SOL     OW28756   5.679   6.866   5.546
 9286SOL    HW128757   5.654   6.779   5.503
 9286SOL    HW228758   5.775   6.887   5.527
 9287SOL     OW28759   3.075   6.037   1.077
 9287SOL    HW128760   3.134   5.969   1.034
 9287SOL    HW228761   3.020   6.083   1.008
 9288SOL     OW28762   3.924   1.197   5.982
 9288SOL    HW128763   3.924   1.206   6.081
 9288SOL    HW228764   3.929   1.101   5.957
 9289SOL     OW28765   4.067   1.972   2.456
 9289SOL    HW128766   3.997   1.916   2.501
 9289SOL    HW228767   4.052   1.970   2.357
 9290SOL     OW28768   4.145   1.412   5.223
 9290SOL    HW128769   4.146   1.440   5.319
 9290SOL    HW228770   4.234   1.429   5.183
 9291SOL     OW28771   1.813   0.695   5.239
 9291SOL    HW128772   1.753   0.769   5.270
 9291SOL    HW228773   1.898   0.734   5.202
 9292SOL     OW28774   6.154   3.109   6.173
 9292SOL    HW128775   6.130   3.198   6.214
 9292SOL    HW228776   6.235   3.072   6.219
 9293SOL     OW28777   5.681   4.151   0.786
 9293SOL    HW128778   5.735   4.075   0.822
 9293SOL    HW228779   5.719   4.181   0.698
 9294SOL     OW28780   3.810   6.341   6.600
 9294SOL    HW128781   3.742   6.405   6.564
 9294SOL    HW228782   3.822   6.356   6.698
 9295SOL     OW28783   5.022   1.733   3.367
 9295SOL    HW128784   5.011   1.786   3.282
 9295SOL    HW228785   5.034   1.796   3.444
 9296SOL     OW28786   6.857   6.551   6.594
 9296SOL    HW128787   6.927   6.579   6.659
 9296SOL    HW228788   6.770   6.594   6.617
 9297SOL     OW28789   0.228   0.659   1.254
 9297SOL    HW128790   0.295   0.728   1.280
 9297SOL    HW228791   0.218   0.593   1.329
 9298SOL     OW28792   2.258   6.091   5.764
 9298SOL    HW128793   2.357   6.091   5.777
 9298SOL    HW228794   2.213   6.120   5.848
 9299SOL     OW28795   1.268   3.066   4.193
 9299SOL    HW128796   1.244   2.999   4.263
 9299SOL    HW228797   1.310   3.020   4.115
 9300SOL     OW28798   6.519   4.862   4.478
 9300SOL    HW128799   6.535   4.937   4.414
 9300SOL    HW228800   6.425   4.831   4.470
 9301SOL     OW28801   4.836   4.578   3.266
 9301SOL    HW128802   4.866   4.610   3.356
 9301SOL    HW228803   4.826   4.656   3.204
 9302SOL     OW28804   2.250   2.878   3.601
 9302SOL    HW128805   2.303   2.794   3.609
 9302SOL    HW228806   2.152   2.857   3.612
 9303SOL     OW28807   3.502   6.395   0.470
 9303SOL    HW128808   3.562   6.465   0.509
 9303SOL    HW228809   3.544   6.305   0.482
 9304SOL     OW28810   3.856   3.705   0.285
 9304SOL    HW128811   3.765   3.732   0.317
 9304SOL    HW228812   3.852   3.684   0.187
 9305SOL     OW28813   5.075   1.860   1.509
 9305SOL    HW128814   5.012   1.938   1.504
 9305SOL    HW228815   5.023   1.775   1.506
 9306SOL     OW28816   0.657   4.802   4.744
 9306SOL    HW128817   0.591   4.733   4.773
 9306SOL    HW228818   0.737   4.757   4.704
 9307SOL     OW28819   1.338   2.767   0.860
 9307SOL    HW128820   1.407   2.839   0.853
 9307SOL    HW228821   1.375   2.690   0.912
 9308SOL     OW28822   0.612   4.356   1.405
 9308SOL    HW128823   0.710   4.364   1.385
 9308SOL    HW228824   0.594   4.266   1.444
 9309SOL     OW28825   3.786   5.068   5.165
 9309SOL    HW128826   3.746   4.981   5.194
 9309SOL    HW228827   3.818   5.118   5.246
 9310SOL     OW28828   4.573   6.121   6.520
 9310SOL    HW128829   4.507   6.193   6.501
 9310SOL    HW228830   4.603   6.079   6.435
 9311SOL     OW28831   6.044   4.357   1.068
 9311SOL    HW128832   6.038   4.393   1.161
 9311SOL    HW228833   5.955   4.361   1.024
 9312SOL     OW28834   1.937   4.375   0.716
 9312SOL    HW128835   2.001   4.415   0.650
 9312SOL    HW228836   1.843   4.386   0.681
 9313SOL     OW28837   6.966   0.980   1.354
 9313SOL    HW128838   6.923   0.929   1.279
 9313SOL    HW228839   7.021   1.054   1.316
 9314SOL     OW28840   4.231   5.152   6.669
 9314SOL    HW128841   4.134   5.145   6.690
 9314SOL    HW228842   4.246   5.221   6.598
 9315SOL     OW28843   6.198   0.173   5.337
 9315SOL    HW128844   6.290   0.161   5.374
 9315SOL    HW228845   6.175   0.096   5.278
 9316SOL     OW28846   4.632   5.554   4.815
 9316SOL    HW128847   4.555   5.497   4.842
 9316SOL    HW228848   4.691   5.502   4.753
 9317SOL     OW28849   6.229   5.831   2.921
 9317SOL    HW128850   6.221   5.930   2.932
 9317SOL    HW228851   6.321   5.802   2.947
 9318SOL     OW28852   6.668   0.809   5.126
 9318SOL    HW128853   6.627   0.897   5.151
 9318SOL    HW228854   6.715   0.771   5.206
 9319SOL     OW28855   0.618   2.848   6.031
 9319SOL    HW128856   0.558   2.927   6.046
 9319SOL    HW228857   0.572   2.781   5.973
 9320SOL     OW28858   4.047   2.317   5.848
 9320SOL    HW128859   4.090   2.261   5.777
 9320SOL    HW228860   4.043   2.412   5.817
 9321SOL     OW28861   6.147   0.009   2.677
 9321SOL    HW128862   6.217   6.998   2.615
 9321SOL    HW228863   6.103   6.955   2.723
 9322SOL     OW28864   6.975   6.010   6.088
 9322SOL    HW128865   6.991   5.933   6.026
 9322SOL    HW228866   0.035   6.026   6.141
 9323SOL     OW28867   1.356   0.017   5.722
 9323SOL    HW128868   1.440   0.065   5.694
 9323SOL    HW228869   1.368   7.003   5.814
 9324SOL     OW28870   2.246   5.043   0.250
 9324SOL    HW128871   2.164   5.056   0.306
 9324SOL    HW228872   2.269   4.946   0.246
 9325SOL     OW28873   5.085   1.893   1.784
 9325SOL    HW128874   5.098   1.871   1.688
 9325SOL    HW228875   5.156   1.957   1.814
 9326SOL     OW28876   2.597   6.690   0.618
 9326SOL    HW128877   2.551   6.644   0.542
 9326SOL    HW228878   2.648   6.624   0.672
 9327SOL     OW28879   4.952   6.571   3.271
 9327SOL    HW128880   4.878   6.505   3.284
 9327SOL    HW228881   4.913   6.663   3.258
 9328SOL     OW28882   4.033   1.542   6.522
 9328SOL    HW128883   4.010   1.504   6.433
 9328SOL    HW228884   4.101   1.482   6.566
 9329SOL     OW28885   0.131   3.066   2.922
 9329SOL    HW128886   0.099   3.034   3.011
 9329SOL    HW228887   0.224   3.032   2.906
 9330SOL     OW28888   0.336   5.874   0.508
 9330SOL    HW128889   0.269   5.906   0.575
 9330SOL    HW228890   0.419   5.930   0.514
 9331SOL     OW28891   0.655   1.191   6.582
 9331SOL    HW128892   0.654   1.146   6.493
 9331SOL    HW228893   0.563   1.186   6.623
 9332SOL     OW28894   3.205   4.057   3.566
 9332SOL    HW128895   3.109   4.032   3.553
 9332SOL    HW228896   3.250   4.061   3.477
 9333SOL     OW28897   5.056   4.094   0.911
 9333SOL    HW128898   5.044   4.171   0.974
 9333SOL    HW228899   5.149   4.095   0.875
 9334SOL     OW28900   3.845   0.373   3.412
 9334SOL    HW128901   3.891   0.424   3.339
 9334SOL    HW228902   3.858   0.421   3.499
 9335SOL     OW28903   1.425   1.724   6.741
 9335SOL    HW128904   1.470   1.707   6.653
 9335SOL    HW228905   1.374   1.643   6.768
 9336SOL     OW28906   3.144   6.281   6.110
 9336SOL    HW128907   3.187   6.191   6.101
 9336SOL    HW228908   3.135   6.304   6.207
 9337SOL     OW28909   5.063   0.254   2.592
 9337SOL    HW128910   5.161   0.242   2.610
 9337SOL    HW228911   5.011   0.222   2.671
 9338SOL     OW28912   4.116   0.571   2.135
 9338SOL    HW128913   4.038   0.512   2.159
 9338SOL    HW228914   4.158   0.604   2.219
 9339SOL     OW28915   5.750   0.033   0.649
 9339SOL    HW128916   5.850   0.031   0.653
 9339SOL    HW228917   5.713   0.054   0.740
 9340SOL     OW28918   5.187   3.661   5.534
 9340SOL    HW128919   5.218   3.604   5.610
 9340SOL    HW228920   5.233   3.750   5.538
 9341SOL     OW28921   1.531   5.795   6.625
 9341SOL    HW128922   1.461   5.771   6.693
 9341SOL    HW228923   1.518   5.889   6.596
 9342SOL     OW28924   2.562   0.527   4.427
 9342SOL    HW128925   2.653   0.494   4.453
 9342SOL    HW228926   2.496   0.453   4.437
 9343SOL     OW28927   5.844   4.591   4.687
 9343SOL    HW128928   5.821   4.623   4.595
 9343SOL    HW228929   5.806   4.655   4.755
 9344SOL     OW28930   5.081   6.109   0.623
 9344SOL    HW128931   5.118   6.026   0.665
 9344SOL    HW228932   5.156   6.164   0.586
 9345SOL     OW28933   6.509   3.028   2.574
 9345SOL    HW128934   6.560   3.049   2.658
 9345SOL    HW228935   6.510   3.107   2.514
 9346SOL     OW28936   5.606   0.659   1.114
 9346SOL    HW128937   5.559   0.605   1.044
 9346SOL    HW228938   5.541   0.686   1.185
 9347SOL     OW28939   1.584   5.587   1.143
 9347SOL    HW128940   1.586   5.652   1.219
 9347SOL    HW228941   1.662   5.603   1.082
 9348SOL     OW28942   4.106   5.854   1.142
 9348SOL    HW128943   4.120   5.932   1.082
 9348SOL    HW228944   4.093   5.771   1.086
 9349SOL     OW28945   0.640   6.996   2.108
 9349SOL    HW128946   0.625   7.000   2.009
 9349SOL    HW228947   0.556   6.969   2.154
 9350SOL     OW28948   0.883   2.670   6.026
 9350SOL    HW128949   0.813   2.713   5.969
 9350SOL    HW228950   0.853   2.577   6.051
 9351SOL     OW28951   2.980   2.291   6.788
 9351SOL    HW128952   3.078   2.287   6.766
 9351SOL    HW228953   2.943   2.380   6.762
 9352SOL     OW28954   2.459   3.964   0.061
 9352SOL    HW128955   2.366   3.937   0.086
 9352SOL    HW228956   2.457   4.018   7.000
 9353SOL     OW28957   0.957   5.437   1.856
 9353SOL    HW128958   0.889   5.507   1.875
 9353SOL    HW228959   0.973   5.381   1.938
 9354SOL     OW28960   6.614   2.382   6.723
 9354SOL    HW128961   6.675   2.308   6.694
 9354SOL    HW228962   6.656   2.470   6.701
 9355SOL     OW28963   0.753   1.580   4.744
 9355SOL    HW128964   0.691   1.598   4.820
 9355SOL    HW228965   0.771   1.665   4.694
 9356SOL     OW28966   4.345   6.729   1.569
 9356SOL    HW128967   4.351   6.708   1.667
 9356SOL    HW228968   4.374   6.823   1.553
 9357SOL     OW28969   0.891   2.255   0.270
 9357SOL    HW128970   0.966   2.246   0.204
 9357SOL    HW228971   0.874   2.166   0.313
 9358SOL     OW28972   0.309   3.833   2.423
 9358SOL    HW128973   0.371   3.808   2.348
 9358SOL    HW228974   0.249   3.756   2.443
 9359SOL     OW28975   1.663   6.152   5.930
 9359SOL    HW128976   1.761   6.174   5.927
 9359SOL    HW228977   1.620   6.205   6.004
 9360SOL     OW28978   1.682   6.757   6.421
 9360SOL    HW128979   1.593   6.758   6.466
 9360SOL    HW228980   1.676   6.804   6.332
 9361SOL     OW28981   1.809   6.018   3.287
 9361SOL    HW128982   1.842   6.096   3.235
 9361SOL    HW228983   1.709   6.024   3.296
 9362SOL     OW28984   2.160   1.092   2.350
 9362SOL    HW128985   2.195   1.168   2.405
 9362SOL    HW228986   2.066   1.071   2.377
 9363SOL     OW28987   3.238   5.235   2.260
 9363SOL    HW128988   3.152   5.195   2.228
 9363SOL    HW228989   3.267   5.307   2.198
 9364SOL     OW28990   2.015   2.682   1.971
 9364SOL    HW128991   2.084   2.726   2.028
 9364SOL    HW228992   1.969   2.610   2.024
 9365SOL     OW28993   3.415   2.067   4.067
 9365SOL    HW128994   3.373   2.006   4.135
 9365SOL    HW228995   3.395   2.033   3.975
 9366SOL     OW28996   3.341   6.032   0.659
 9366SOL    HW128997   3.344   6.074   0.750
 9366SOL    HW228998   3.256   6.059   0.613
 9367SOL     OW28999   5.210   6.834   1.254
 9367SOL    HW129000   5.216   6.931   1.276
 9367SOL    HW229001   5.227   6.820   1.157
 9368SOL     OW29002   3.760   0.686   2.582
 9368SOL    HW129003   3.691   0.725   2.521
 9368SOL    HW229004   3.727   0.599   2.619
 9369SOL     OW29005   1.195   5.010   6.603
 9369SOL    HW129006   1.110   4.978   6.646
 9369SOL    HW229007   1.181   5.021   6.505
 9370SOL     OW29008   4.050   1.668   4.528
 9370SOL    HW129009   4.104   1.586   4.510
 9370SOL    HW229010   4.102   1.749   4.499
 9371SOL     OW29011   3.433   6.484   1.408
 9371SOL    HW129012   3.482   6.484   1.320
 9371SOL    HW229013   3.498   6.500   1.482
 9372SOL     OW29014   4.686   6.584   1.590
 9372SOL    HW129015   4.681   6.622   1.498
 9372SOL    HW229016   4.675   6.658   1.657
 9373SOL     OW29017   6.238   1.674   7.003
 9373SOL    HW129018   6.251   1.638   0.073
 9373SOL    HW229019   6.303   1.749   6.987
 9374SOL     OW29020   0.665   4.805   5.675
 9374SOL    HW129021   0.673   4.884   5.614
 9374SOL    HW229022   0.575   4.762   5.662
 9375SOL     OW29023   0.117   1.877   6.343
 9375SOL    HW129024   0.141   1.955   6.286
 9375SOL    HW229025   0.087   1.909   6.433
 9376SOL     OW29026   2.062   3.666   2.430
 9376SOL    HW129027   2.110   3.753   2.426
 9376SOL    HW229028   2.085   3.611   2.350
 9377SOL     OW29029   2.054   5.546   2.249
 9377SOL    HW129030   2.031   5.532   2.345
 9377SOL    HW229031   2.087   5.460   2.210
 9378SOL     OW29032   4.037   0.663   3.699
 9378SOL    HW129033   4.028   0.703   3.791
 9378SOL    HW229034   3.958   0.604   3.682
 9379SOL     OW29035   4.340   6.017   4.712
 9379SOL    HW129036   4.283   5.985   4.636
 9379SOL    HW229037   4.347   5.945   4.780
 9380SOL     OW29038   5.097   5.591   6.544
 9380SOL    HW129039   5.099   5.690   6.559
 9380SOL    HW229040   5.084   5.545   6.632
 9381SOL     OW29041   5.551   1.956   4.935
 9381SOL    HW129042   5.563   1.880   4.871
 9381SOL    HW229043   5.486   1.930   5.006
 9382SOL     OW29044   3.885   0.385   4.251
 9382SOL    HW129045   3.790   0.416   4.256
 9382SOL    HW229046   3.904   0.322   4.327
 9383SOL     OW29047   4.865   4.182   3.479
 9383SOL    HW129048   4.922   4.101   3.469
 9383SOL    HW229049   4.835   4.191   3.573
 9384SOL     OW29050   1.779   0.226   1.940
 9384SOL    HW129051   1.798   0.277   1.856
 9384SOL    HW229052   1.701   0.165   1.924
 9385SOL     OW29053   4.145   1.341   3.641
 9385SOL    HW129054   4.077   1.336   3.567
 9385SOL    HW229055   4.221   1.400   3.612
 9386SOL     OW29056   4.160   6.003   5.571
 9386SOL    HW129057   4.143   5.982   5.475
 9386SOL    HW229058   4.109   6.085   5.597
 9387SOL     OW29059   3.612   2.357   7.003
 9387SOL    HW129060   3.598   2.435   0.042
 9387SOL    HW229061   3.706   2.358   6.969
 9388SOL     OW29062   2.078   6.683   4.476
 9388SOL    HW129063   2.082   6.586   4.452
 9388SOL    HW229064   2.099   6.739   4.396
 9389SOL     OW29065   3.652   5.321   1.807
 9389SOL    HW129066   3.675   5.247   1.871
 9389SOL    HW229067   3.691   5.300   1.717
 9390SOL     OW29068   4.544   4.882   5.756
 9390SOL    HW129069   4.450   4.851   5.768
 9390SOL    HW229070   4.544   4.965   5.700
 9391SOL     OW29071   0.994   6.398   4.231
 9391SOL    HW129072   1.048   6.400   4.147
 9391SOL    HW229073   0.962   6.304   4.247
 9392SOL     OW29074   5.318   4.108   2.873
 9392SOL    HW129075   5.343   4.116   2.776
 9392SOL    HW229076   5.385   4.051   2.921
 9393SOL     OW29077   2.946   6.410   5.719
 9393SOL    HW129078   2.946   6.335   5.784
 9393SOL    HW229079   2.852   6.439   5.700
 9394SOL     OW29080   4.934   6.950   1.057
 9394SOL    HW129081   4.979   6.971   1.144
 9394SOL    HW229082   4.848   7.001   1.051
 9395SOL     OW29083   2.647   1.909   0.489
 9395SOL    HW129084   2.704   1.830   0.468
 9395SOL    HW229085   2.618   1.905   0.585
 9396SOL     OW29086   1.333   6.053   6.746
 9396SOL    HW129087   1.294   6.138   6.782
 9396SOL    HW229088   1.373   6.070   6.656
 9397SOL     OW29089   3.706   0.298   6.554
 9397SOL    HW129090   3.709   0.315   6.456
 9397SOL    HW229091   3.794   0.321   6.595
 9398SOL     OW29092   6.891   1.658   6.583
 9398SOL    HW129093   6.847   1.675   6.495
 9398SOL    HW229094   6.984   1.625   6.567
 9399SOL     OW29095   2.031   2.559   3.897
 9399SOL    HW129096   2.098   2.556   3.972
 9399SOL    HW229097   1.966   2.633   3.914
 9400SOL     OW29098   5.506   0.982   0.912
 9400SOL    HW129099   5.569   0.948   0.982
 9400SOL    HW229100   5.429   0.918   0.902
 9401SOL     OW29101   0.560   1.622   2.766
 9401SOL    HW129102   0.630   1.630   2.837
 9401SOL    HW229103   0.575   1.693   2.697
 9402SOL     OW29104   1.305   5.666   3.108
 9402SOL    HW129105   1.379   5.612   3.069
 9402SOL    HW229106   1.306   5.758   3.068
 9403SOL     OW29107   6.458   2.416   1.900
 9403SOL    HW129108   6.398   2.413   1.821
 9403SOL    HW229109   6.468   2.324   1.938
 9404SOL     OW29110   2.069   3.100   0.862
 9404SOL    HW129111   1.999   3.030   0.846
 9404SOL    HW229112   2.037   3.164   0.932
 9405SOL     OW29113   0.489   5.057   5.637
 9405SOL    HW129114   0.548   5.050   5.557
 9405SOL    HW229115   0.514   5.139   5.689
 9406SOL     OW29116   0.118   3.040   6.841
 9406SOL    HW129117   0.183   3.116   6.850
 9406SOL    HW229118   0.026   3.077   6.827
 9407SOL     OW29119   1.606   4.802   5.582
 9407SOL    HW129120   1.534   4.833   5.520
 9407SOL    HW229121   1.690   4.785   5.531
 9408SOL     OW29122   6.913   4.761   4.663
 9408SOL    HW129123   6.861   4.842   4.689
 9408SOL    HW229124   6.938   4.709   4.745
 9409SOL     OW29125   6.832   5.072   2.180
 9409SOL    HW129126   6.779   4.991   2.153
 9409SOL    HW229127   6.926   5.045   2.200
 9410SOL     OW29128   3.990   1.089   1.919
 9410SOL    HW129129   4.006   1.039   1.834
 9410SOL    HW229130   4.054   1.166   1.925
 9411SOL     OW29131   3.178   3.326   3.712
 9411SOL    HW129132   3.214   3.407   3.758
 9411SOL    HW229133   3.212   3.244   3.759
 9412SOL     OW29134   6.409   6.900   1.938
 9412SOL    HW129135   6.350   6.820   1.925
 9412SOL    HW229136   6.384   6.970   1.872
 9413SOL     OW29137   3.896   4.834   4.023
 9413SOL    HW129138   3.944   4.813   3.937
 9413SOL    HW229139   3.928   4.772   4.095
 9414SOL     OW29140   2.210   2.159   4.549
 9414SOL    HW129141   2.265   2.224   4.602
 9414SOL    HW229142   2.254   2.143   4.461
 9415SOL     OW29143   3.853   1.340   1.876
 9415SOL    HW129144   3.937   1.393   1.892
 9415SOL    HW229145   3.865   1.248   1.911
 9416SOL     OW29146   6.631   5.053   6.458
 9416SOL    HW129147   6.619   5.147   6.489
 9416SOL    HW229148   6.713   5.047   6.400
 9417SOL     OW29149   3.985   6.041   1.621
 9417SOL    HW129150   3.885   6.031   1.621
 9417SOL    HW229151   4.011   6.110   1.688
 9418SOL     OW29152   3.112   2.010   4.302
 9418SOL    HW129153   3.184   2.026   4.369
 9418SOL    HW229154   3.125   2.070   4.223
 9419SOL     OW29155   2.196   2.719   6.899
 9419SOL    HW129156   2.215   2.812   6.868
 9419SOL    HW229157   2.107   2.690   6.866
 9420SOL     OW29158   5.347   3.851   7.019
 9420SOL    HW129159   5.326   3.945   6.994
 9420SOL    HW229160   5.427   3.850   0.057
 9421SOL     OW29161   3.841   6.039   5.693
 9421SOL    HW129162   3.795   5.964   5.647
 9421SOL    HW229163   3.899   6.003   5.767
 9422SOL     OW29164   2.092   5.760   4.511
 9422SOL    HW129165   2.178   5.810   4.519
 9422SOL    HW229166   2.104   5.668   4.549
 9423SOL     OW29167   4.536   4.954   3.368
 9423SOL    HW129168   4.501   4.931   3.458
 9423SOL    HW229169   4.623   5.004   3.378
 9424SOL     OW29170   5.556   0.737   4.784
 9424SOL    HW129171   5.513   0.648   4.774
 9424SOL    HW229172   5.600   0.743   4.873
 9425SOL     OW29173   6.853   5.110   0.016
 9425SOL    HW129174   6.856   5.013   0.042
 9425SOL    HW229175   6.900   5.164   0.086
 9426SOL     OW29176   0.051   2.643   6.161
 9426SOL    HW129177   0.114   2.635   6.084
 9426SOL    HW229178   6.985   2.603   6.137
 9427SOL     OW29179   4.089   5.524   3.160
 9427SOL    HW129180   4.048   5.461   3.094
 9427SOL    HW229181   4.028   5.602   3.175
 9428SOL     OW29182   6.245   0.025   5.907
 9428SOL    HW129183   6.201   0.100   5.857
 9428SOL    HW229184   6.335   0.006   5.867
 9429SOL     OW29185   2.330   1.849   3.995
 9429SOL    HW129186   2.352   1.823   4.089
 9429SOL    HW229187   2.379   1.789   3.931
 9430SOL     OW29188   0.105   2.183   4.496
 9430SOL    HW129189   0.167   2.145   4.427
 9430SOL    HW229190   0.079   2.276   4.469
 9431SOL     OW29191   0.343   4.649   5.944
 9431SOL    HW129192   0.320   4.745   5.927
 9431SOL    HW229193   0.435   4.644   5.983
 9432SOL     OW29194   6.747   1.205   3.853
 9432SOL    HW129195   6.664   1.195   3.908
 9432SOL    HW229196   6.722   1.212   3.756
 9433SOL     OW29197   4.024   5.868   2.868
 9433SOL    HW129198   4.114   5.845   2.904
 9433SOL    HW229199   4.011   5.967   2.871
 9434SOL     OW29200   5.400   5.372   4.290
 9434SOL    HW129201   5.500   5.376   4.291
 9434SOL    HW229202   5.364   5.425   4.367
 9435SOL     OW29203   0.495   3.125   1.734
 9435SOL    HW129204   0.482   3.224   1.730
 9435SOL    HW229205   0.452   3.089   1.816
 9436SOL     OW29206   1.689   0.480   3.556
 9436SOL    HW129207   1.709   0.492   3.459
 9436SOL    HW229208   1.599   0.437   3.566
 9437SOL     OW29209   6.617   6.119   4.831
 9437SOL    HW129210   6.593   6.139   4.736
 9437SOL    HW229211   6.557   6.047   4.866
 9438SOL     OW29212   3.725   6.007   2.243
 9438SOL    HW129213   3.634   6.033   2.275
 9438SOL    HW229214   3.794   6.044   2.306
 9439SOL     OW29215   1.184   2.955   0.676
 9439SOL    HW129216   1.213   2.946   0.581
 9439SOL    HW229217   1.212   2.874   0.728
 9440SOL     OW29218   2.432   5.528   3.416
 9440SOL    HW129219   2.347   5.485   3.384
 9440SOL    HW229220   2.421   5.554   3.512
 9441SOL     OW29221   6.981   6.251   4.759
 9441SOL    HW129222   6.945   6.239   4.852
 9441SOL    HW229223   6.986   6.162   4.714
 9442SOL     OW29224   4.251   3.518   0.465
 9442SOL    HW129225   4.181   3.500   0.534
 9442SOL    HW229226   4.260   3.617   0.451
 9443SOL     OW29227   1.873   4.437   3.249
 9443SOL    HW129228   1.794   4.467   3.303
 9443SOL    HW229229   1.845   4.415   3.156
 9444SOL     OW29230   1.059   4.410   0.037
 9444SOL    HW129231   1.073   4.317   0.072
 9444SOL    HW229232   1.137   4.437   7.004
 9445SOL     OW29233   0.159   1.562   4.170
 9445SOL    HW129234   0.085   1.626   4.151
 9445SOL    HW229235   0.183   1.565   4.267
 9446SOL     OW29236   6.605   4.988   2.839
 9446SOL    HW129237   6.607   4.888   2.836
 9446SOL    HW229238   6.525   5.019   2.891
 9447SOL     OW29239   5.287   4.658   2.268
 9447SOL    HW129240   5.374   4.640   2.314
 9447SOL    HW229241   5.274   4.590   2.195
 9448SOL     OW29242   5.421   6.919   5.049
 9448SOL    HW129243   5.457   6.885   4.962
 9448SOL    HW229244   5.449   7.015   5.060
 9449SOL     OW29245   6.202   0.070   2.090
 9449SOL    HW129246   6.275   0.002   2.097
 9449SOL    HW229247   6.176   0.101   2.182
 9450SOL     OW29248   2.101   6.017   3.623
 9450SOL    HW129249   2.056   6.083   3.563
 9450SOL    HW229250   2.096   5.926   3.583
 9451SOL     OW29251   3.982   5.878   6.566
 9451SOL    HW129252   3.936   5.966   6.571
 9451SOL    HW229253   3.969   5.839   6.475
 9452SOL     OW29254   6.472   4.133   0.389
 9452SOL    HW129255   6.537   4.205   0.366
 9452SOL    HW229256   6.428   4.155   0.476
 9453SOL     OW29257   4.216   6.304   2.987
 9453SOL    HW129258   4.200   6.222   3.042
 9453SOL    HW229259   4.191   6.385   3.040
 9454SOL     OW29260   4.962   3.749   0.451
 9454SOL    HW129261   4.939   3.656   0.425
 9454SOL    HW229262   4.976   3.804   0.369
 9455SOL     OW29263   2.770   2.258   2.278
 9455SOL    HW129264   2.740   2.162   2.283
 9455SOL    HW229265   2.816   2.273   2.191
 9456SOL     OW29266   6.892   3.070   1.852
 9456SOL    HW129267   6.883   3.039   1.757
 9456SOL    HW229268   6.988   3.092   1.870
 9457SOL     OW29269   0.161   5.583   3.494
 9457SOL    HW129270   0.258   5.560   3.493
 9457SOL    HW229271   0.130   5.602   3.401
 9458SOL     OW29272   5.977   3.468   0.012
 9458SOL    HW129273   6.044   3.394   0.017
 9458SOL    HW229274   6.021   3.551   6.998
 9459SOL     OW29275   4.583   4.801   5.080
 9459SOL    HW129276   4.622   4.820   4.990
 9459SOL    HW229277   4.644   4.741   5.131
 9460SOL     OW29278   1.544   1.773   2.970
 9460SOL    HW129279   1.589   1.764   3.059
 9460SOL    HW229280   1.457   1.725   2.972
 9461SOL     OW29281   0.856   2.264   2.838
 9461SOL    HW129282   0.784   2.311   2.890
 9461SOL    HW229283   0.859   2.301   2.745
 9462SOL     OW29284   1.505   1.404   4.362
 9462SOL    HW129285   1.431   1.419   4.296
 9462SOL    HW229286   1.572   1.477   4.354
 9463SOL     OW29287   5.669   5.615   1.064
 9463SOL    HW129288   5.687   5.643   0.970
 9463SOL    HW229289   5.589   5.665   1.099
 9464SOL     OW29290   0.923   0.980   1.566
 9464SOL    HW129291   0.859   1.028   1.505
 9464SOL    HW229292   0.901   1.002   1.661
 9465SOL     OW29293   6.424   4.283   0.794
 9465SOL    HW129294   6.463   4.318   0.879
 9465SOL    HW229295   6.384   4.359   0.742
 9466SOL     OW29296   3.112   5.112   6.167
 9466SOL    HW129297   3.078   5.116   6.262
 9466SOL    HW229298   3.074   5.030   6.123
 9467SOL     OW29299   2.377   3.390   0.966
 9467SOL    HW129300   2.424   3.474   0.993
 9467SOL    HW229301   2.361   3.392   0.867
 9468SOL     OW29302   6.354   2.331   0.488
 9468SOL    HW129303   6.366   2.276   0.405
 9468SOL    HW229304   6.257   2.352   0.501
 9469SOL     OW29305   0.974   6.513   1.378
 9469SOL    HW129306   1.038   6.439   1.357
 9469SOL    HW229307   0.978   6.582   1.305
 9470SOL     OW29308   3.699   4.430   0.803
 9470SOL    HW129309   3.600   4.414   0.799
 9470SOL    HW229310   3.747   4.354   0.761
 9471SOL     OW29311   6.021   3.255   4.981
 9471SOL    HW129312   6.023   3.156   4.975
 9471SOL    HW229313   5.984   3.283   5.069
 9472SOL     OW29314   1.625   3.001   6.243
 9472SOL    HW129315   1.699   2.991   6.310
 9472SOL    HW229316   1.572   3.082   6.264
 9473SOL     OW29317   3.249   5.044   0.578
 9473SOL    HW129318   3.311   4.966   0.576
 9473SOL    HW229319   3.300   5.126   0.604
 9474SOL     OW29320   5.646   2.887   1.651
 9474SOL    HW129321   5.660   2.847   1.560
 9474SOL    HW229322   5.632   2.986   1.641
 9475SOL     OW29323   4.516   3.982   5.948
 9475SOL    HW129324   4.459   3.939   5.879
 9475SOL    HW229325   4.582   3.916   5.984
 9476SOL     OW29326   3.486   4.277   6.156
 9476SOL    HW129327   3.543   4.282   6.073
 9476SOL    HW229328   3.392   4.255   6.130
 9477SOL     OW29329   2.183   4.185   1.066
 9477SOL    HW129330   2.098   4.207   1.113
 9477SOL    HW229331   2.212   4.264   1.011
 9478SOL     OW29332   5.412   1.930   6.950
 9478SOL    HW129333   5.321   1.957   6.918
 9478SOL    HW229334   5.481   1.993   6.913
 9479SOL     OW29335   3.738   0.841   1.263
 9479SOL    HW129336   3.808   0.801   1.322
 9479SOL    HW229337   3.767   0.932   1.233
 9480SOL     OW29338   6.137   7.009   0.121
 9480SOL    HW129339   6.081   0.063   0.090
 9480SOL    HW229340   6.101   6.924   0.083
 9481SOL     OW29341   4.174   1.354   3.321
 9481SOL    HW129342   4.257   1.318   3.364
 9481SOL    HW229343   4.185   1.353   3.222
 9482SOL     OW29344   6.196   6.851   0.630
 9482SOL    HW129345   6.176   6.760   0.665
 9482SOL    HW229346   6.291   6.875   0.651
 9483SOL     OW29347   6.869   0.603   0.515
 9483SOL    HW129348   6.830   0.600   0.607
 9483SOL    HW229349   6.968   0.612   0.520
 9484SOL     OW29350   3.671   5.598   4.972
 9484SOL    HW129351   3.598   5.529   4.965
 9484SOL    HW229352   3.665   5.643   5.062
 9485SOL     OW29353   0.040   1.457   6.821
 9485SOL    HW129354   6.964   1.470   6.828
 9485SOL    HW229355   0.087   1.543   6.840
 9486SOL     OW29356   5.147   5.627   0.241
 9486SOL    HW129357   5.069   5.623   0.304
 9486SOL    HW229358   5.164   5.535   0.205
 9487SOL     OW29359   2.886   3.540   3.688
 9487SOL    HW129360   2.982   3.551   3.663
 9487SOL    HW229361   2.879   3.489   3.774
 9488SOL     OW29362   1.020   1.842   0.660
 9488SOL    HW129363   1.000   1.872   0.754
 9488SOL    HW229364   0.962   1.765   0.637
 9489SOL     OW29365   4.766   4.156   0.111
 9489SOL    HW129366   4.711   4.168   0.028
 9489SOL    HW229367   4.793   4.246   0.145
 9490SOL     OW29368   5.623   3.971   3.699
 9490SOL    HW129369   5.577   3.889   3.735
 9490SOL    HW229370   5.617   3.971   3.599
 9491SOL     OW29371   5.160   6.344   2.950
 9491SOL    HW129372   5.120   6.260   2.913
 9491SOL    HW229373   5.222   6.322   3.025
 9492SOL     OW29374   4.915   2.738   4.706
 9492SOL    HW129375   4.975   2.802   4.657
 9492SOL    HW229376   4.864   2.788   4.776
 9493SOL     OW29377   4.202   0.071   3.216
 9493SOL    HW129378   4.236   0.049   3.308
 9493SOL    HW229379   4.254   0.018   3.149
 9494SOL     OW29380   5.271   2.092   1.852
 9494SOL    HW129381   5.336   2.116   1.781
 9494SOL    HW229382   5.280   2.156   1.929
 9495SOL     OW29383   1.315   1.200   2.303
 9495SOL    HW129384   1.379   1.165   2.235
 9495SOL    HW229385   1.311   1.299   2.299
 9496SOL     OW29386   4.613   2.275   2.260
 9496SOL    HW129387   4.586   2.371   2.264
 9496SOL    HW229388   4.594   2.231   2.348
 9497SOL     OW29389   5.132   5.249   4.781
 9497SOL    HW129390   5.188   5.322   4.741
 9497SOL    HW229391   5.052   5.289   4.825
 9498SOL     OW29392   6.926   5.793   3.795
 9498SOL    HW129393   6.830   5.770   3.776
 9498SOL    HW229394   6.970   5.715   3.841
 9499SOL     OW29395   6.046   6.126   5.709
 9499SOL    HW129396   5.989   6.052   5.673
 9499SOL    HW229397   6.112   6.088   5.774
 9500SOL     OW29398   4.106   1.020   0.791
 9500SOL    HW129399   4.097   1.008   0.890
 9500SOL    HW229400   4.015   1.012   0.749
 9501SOL     OW29401   1.701   2.993   5.063
 9501SOL    HW129402   1.625   3.029   5.117
 9501SOL    HW229403   1.680   3.004   4.966
 9502SOL     OW29404   5.549   4.993   5.275
 9502SOL    HW129405   5.520   5.001   5.179
 9502SOL    HW229406   5.528   4.901   5.308
 9503SOL     OW29407   0.449   2.521   6.992
 9503SOL    HW129408   0.456   2.620   7.005
 9503SOL    HW229409   0.377   2.484   0.028
 9504SOL     OW29410   6.760   5.220   1.914
 9504SOL    HW129411   6.696   5.157   1.957
 9504SOL    HW229412   6.712   5.302   1.884
 9505SOL     OW29413   4.169   4.752   5.232
 9505SOL    HW129414   4.128   4.661   5.239
 9505SOL    HW229415   4.158   4.801   5.319
 9506SOL     OW29416   2.995   1.269   1.245
 9506SOL    HW129417   3.017   1.300   1.153
 9506SOL    HW229418   3.047   1.323   1.312
 9507SOL     OW29419   5.393   6.949   2.083
 9507SOL    HW129420   5.294   6.934   2.087
 9507SOL    HW229421   5.439   6.862   2.062
 9508SOL     OW29422   5.452   1.520   3.059
 9508SOL    HW129423   5.551   1.508   3.053
 9508SOL    HW229424   5.432   1.608   3.102
 9509SOL     OW29425   6.898   6.917   3.012
 9509SOL    HW129426   6.897   7.015   3.031
 9509SOL    HW229427   6.888   6.866   3.097
 9510SOL     OW29428   0.783   2.497   3.597
 9510SOL    HW129429   0.778   2.431   3.672
 9510SOL    HW229430   0.874   2.491   3.555
 9511SOL     OW29431   1.631   1.464   0.716
 9511SOL    HW129432   1.683   1.443   0.799
 9511SOL    HW229433   1.561   1.395   0.702
 9512SOL     OW29434   6.541   2.245   0.907
 9512SOL    HW129435   6.615   2.178   0.921
 9512SOL    HW229436   6.533   2.303   0.988
 9513SOL     OW29437   3.794   4.780   0.188
 9513SOL    HW129438   3.701   4.815   0.177
 9513SOL    HW229439   3.790   4.695   0.241
 9514SOL     OW29440   3.055   3.174   0.282
 9514SOL    HW129441   3.019   3.214   0.366
 9514SOL    HW229442   3.154   3.176   0.283
 9515SOL     OW29443   2.019   5.258   3.823
 9515SOL    HW129444   2.091   5.226   3.884
 9515SOL    HW229445   1.962   5.325   3.871
 9516SOL     OW29446   6.535   3.857   0.624
 9516SOL    HW129447   6.436   3.858   0.641
 9516SOL    HW229448   6.580   3.916   0.691
 9517SOL     OW29449   1.150   4.636   0.548
 9517SOL    HW129450   1.184   4.723   0.512
 9517SOL    HW229451   1.056   4.622   0.519
 9518SOL     OW29452   1.530   1.265   0.299
 9518SOL    HW129453   1.508   1.323   0.377
 9518SOL    HW229454   1.538   1.321   0.216
 9519SOL     OW29455   1.304   2.476   5.194
 9519SOL    HW129456   1.226   2.522   5.237
 9519SOL    HW229457   1.378   2.542   5.180
 9520SOL     OW29458   2.392   6.880   2.143
 9520SOL    HW129459   2.399   6.784   2.117
 9520SOL    HW229460   2.389   6.888   2.242
 9521SOL     OW29461   5.473   5.726   4.237
 9521SOL    HW129462   5.391   5.776   4.263
 9521SOL    HW229463   5.489   5.652   4.302
 9522SOL     OW29464   3.640   6.128   1.048
 9522SOL    HW129465   3.550   6.086   1.037
 9522SOL    HW229466   3.711   6.064   1.018
 9523SOL     OW29467   3.331   5.816   4.223
 9523SOL    HW129468   3.419   5.796   4.181
 9523SOL    HW229469   3.314   5.751   4.297
 9524SOL     OW29470   4.113   3.116   0.735
 9524SOL    HW129471   4.202   3.115   0.780
 9524SOL    HW229472   4.124   3.146   0.640
 9525SOL     OW29473   3.095   0.829   6.405
 9525SOL    HW129474   3.129   0.757   6.465
 9525SOL    HW229475   3.019   0.794   6.350
 9526SOL     OW29476   5.624   4.987   2.421
 9526SOL    HW129477   5.534   4.955   2.450
 9526SOL    HW229478   5.613   5.052   2.345
 9527SOL     OW29479   0.038   1.639   2.025
 9527SOL    HW129480   7.004   1.691   1.962
 9527SOL    HW229481   0.072   1.699   2.097
 9528SOL     OW29482   7.006   1.096   2.026
 9528SOL    HW129483   6.928   1.033   2.022
 9528SOL    HW229484   6.974   1.189   2.009
 9529SOL     OW29485   0.438   3.069   5.995
 9529SOL    HW129486   0.385   3.023   6.066
 9529SOL    HW229487   0.414   3.166   5.993
 9530SOL     OW29488   1.406   1.978   3.591
 9530SOL    HW129489   1.442   2.046   3.655
 9530SOL    HW229490   1.474   1.906   3.577
 9531SOL     OW29491   3.528   6.883   2.789
 9531SOL    HW129492   3.473   6.861   2.708
 9531SOL    HW229493   3.623   6.857   2.772
 9532SOL     OW29494   2.033   0.185   1.705
 9532SOL    HW129495   2.126   0.155   1.681
 9532SOL    HW229496   1.967   0.116   1.675
 9533SOL     OW29497   1.625   1.104   5.798
 9533SOL    HW129498   1.637   1.195   5.760
 9533SOL    HW229499   1.529   1.091   5.825
 9534SOL     OW29500   5.271   2.537   4.790
 9534SOL    HW129501   5.265   2.594   4.708
 9534SOL    HW229502   5.236   2.588   4.868
 9535SOL     OW29503   2.303   1.454   5.505
 9535SOL    HW129504   2.268   1.444   5.598
 9535SOL    HW229505   2.366   1.531   5.501
 9536SOL     OW29506   1.515   6.151   5.715
 9536SOL    HW129507   1.571   6.142   5.798
 9536SOL    HW229508   1.548   6.087   5.645
 9537SOL     OW29509   2.846   7.005   1.250
 9537SOL    HW129510   2.817   6.960   1.165
 9537SOL    HW229511   2.798   6.962   1.327
 9538SOL     OW29512   6.700   2.770   4.451
 9538SOL    HW129513   6.673   2.825   4.530
 9538SOL    HW229514   6.624   2.763   4.387
 9539SOL     OW29515   0.929   5.964   0.777
 9539SOL    HW129516   0.952   5.868   0.789
 9539SOL    HW229517   1.012   6.015   0.751
 9540SOL     OW29518   4.650   4.416   4.704
 9540SOL    HW129519   4.704   4.332   4.703
 9540SOL    HW229520   4.627   4.440   4.798
 9541SOL     OW29521   2.215   2.592   4.103
 9541SOL    HW129522   2.297   2.562   4.151
 9541SOL    HW229523   2.159   2.649   4.163
 9542SOL     OW29524   4.963   3.748   3.978
 9542SOL    HW129525   5.028   3.774   4.049
 9542SOL    HW229526   4.934   3.653   3.992
 9543SOL     OW29527   5.534   1.786   2.540
 9543SOL    HW129528   5.500   1.816   2.629
 9543SOL    HW229529   5.459   1.748   2.486
 9544SOL     OW29530   3.960   1.647   1.877
 9544SOL    HW129531   3.969   1.742   1.905
 9544SOL    HW229532   4.027   1.627   1.805
 9545SOL     OW29533   6.884   0.506   3.933
 9545SOL    HW129534   6.835   0.536   3.851
 9545SOL    HW229535   6.982   0.523   3.922
 9546SOL     OW29536   2.600   5.149   0.599
 9546SOL    HW129537   2.565   5.120   0.688
 9546SOL    HW229538   2.589   5.074   0.533
 9547SOL     OW29539   0.456   6.351   3.394
 9547SOL    HW129540   0.484   6.315   3.305
 9547SOL    HW229541   0.534   6.399   3.436
 9548SOL     OW29542   4.476   5.780   3.362
 9548SOL    HW129543   4.436   5.699   3.319
 9548SOL    HW229544   4.405   5.828   3.415
 9549SOL     OW29545   2.320   5.903   0.553
 9549SOL    HW129546   2.364   5.911   0.643
 9549SOL    HW229547   2.349   5.980   0.495
 9550SOL     OW29548   0.990   1.490   0.491
 9550SOL    HW129549   1.012   1.406   0.540
 9550SOL    HW229550   0.918   1.539   0.539
 9551SOL     OW29551   1.405   6.321   4.573
 9551SOL    HW129552   1.431   6.417   4.581
 9551SOL    HW229553   1.417   6.290   4.479
 9552SOL     OW29554   1.086   5.333   3.112
 9552SOL    HW129555   1.052   5.427   3.119
 9552SOL    HW229556   1.120   5.303   3.201
 9553SOL     OW29557   5.746   4.633   5.314
 9553SOL    HW129558   5.795   4.558   5.270
 9553SOL    HW229559   5.695   4.684   5.245
 9554SOL     OW29560   2.046   1.356   2.163
 9554SOL    HW129561   2.048   1.261   2.133
 9554SOL    HW229562   2.101   1.366   2.246
 9555SOL     OW29563   6.910   2.361   0.348
 9555SOL    HW129564   6.978   2.362   0.422
 9555SOL    HW229565   6.859   2.446   0.349
 9556SOL     OW29566   2.153   2.294   1.838
 9556SOL    HW129567   2.054   2.296   1.854
 9556SOL    HW229568   2.201   2.306   1.925
 9557SOL     OW29569   5.395   0.935   2.091
 9557SOL    HW129570   5.366   0.865   2.156
 9557SOL    HW229571   5.348   0.920   2.004
 9558SOL     OW29572   6.399   5.007   2.601
 9558SOL    HW129573   6.391   5.106   2.593
 9558SOL    HW229574   6.400   4.982   2.698
 9559SOL     OW29575   6.800   3.128   2.482
 9559SOL    HW129576   6.816   3.038   2.524
 9559SOL    HW229577   6.729   3.120   2.412
 9560SOL     OW29578   3.316   1.408   3.971
 9560SOL    HW129579   3.371   1.397   4.053
 9560SOL    HW229580   3.223   1.376   3.989
 9561SOL     OW29581   3.832   6.523   1.208
 9561SOL    HW129582   3.820   6.614   1.247
 9561SOL    HW229583   3.809   6.454   1.277
 9562SOL     OW29584   5.662   5.393   2.892
 9562SOL    HW129585   5.691   5.362   2.801
 9562SOL    HW229586   5.575   5.443   2.884
 9563SOL     OW29587   6.470   5.835   6.811
 9563SOL    HW129588   6.509   5.787   6.890
 9563SOL    HW229589   6.524   5.916   6.791
 9564SOL     OW29590   2.564   6.786   6.911
 9564SOL    HW129591   2.653   6.769   6.868
 9564SOL    HW229592   2.493   6.788   6.841
 9565SOL     OW29593   3.826   6.131   4.477
 9565SOL    HW129594   3.764   6.203   4.448
 9565SOL    HW229595   3.863   6.084   4.397
 9566SOL     OW29596   2.778   4.898   5.082
 9566SOL    HW129597   2.827   4.925   5.165
 9566SOL    HW229598   2.769   4.798   5.079
 9567SOL     OW29599   6.103   5.483   5.389
 9567SOL    HW129600   6.132   5.557   5.329
 9567SOL    HW229601   6.008   5.497   5.416
 9568SOL     OW29602   4.448   3.664   6.500
 9568SOL    HW129603   4.383   3.721   6.550
 9568SOL    HW229604   4.428   3.567   6.518
 9569SOL     OW29605   6.102   1.040   0.540
 9569SOL    HW129606   6.086   1.063   0.636
 9569SOL    HW229607   6.091   1.122   0.484
 9570SOL     OW29608   0.282   0.621   0.547
 9570SOL    HW129609   0.282   0.536   0.599
 9570SOL    HW229610   0.267   0.601   0.450
 9571SOL     OW29611   2.150   3.603   0.161
 9571SOL    HW129612   2.185   3.639   0.075
 9571SOL    HW229613   2.213   3.536   0.198
 9572SOL     OW29614   1.524   4.445   1.326
 9572SOL    HW129615   1.436   4.491   1.322
 9572SOL    HW229616   1.595   4.504   1.286
 9573SOL     OW29617   0.844   2.478   1.371
 9573SOL    HW129618   0.893   2.396   1.342
 9573SOL    HW229619   0.764   2.451   1.425
 9574SOL     OW29620   2.388   1.896   5.579
 9574SOL    HW129621   2.438   1.954   5.516
 9574SOL    HW229622   2.440   1.885   5.664
 9575SOL     OW29623   5.649   0.363   2.071
 9575SOL    HW129624   5.638   0.447   2.123
 9575SOL    HW229625   5.563   0.313   2.071
 9576SOL     OW29626   3.483   1.985   6.058
 9576SOL    HW129627   3.389   1.989   6.092
 9576SOL    HW229628   3.482   1.973   5.959
 9577SOL     OW29629   0.974   6.256   3.133
 9577SOL    HW129630   1.054   6.307   3.165
 9577SOL    HW229631   0.999   6.199   3.055
 9578SOL     OW29632   5.793   3.380   2.046
 9578SOL    HW129633   5.778   3.292   2.091
 9578SOL    HW229634   5.789   3.369   1.947
 9579SOL     OW29635   1.051   6.352   2.339
 9579SOL    HW129636   1.007   6.440   2.322
 9579SOL    HW229637   1.111   6.329   2.262
 9580SOL     OW29638   4.265   3.871   6.137
 9580SOL    HW129639   4.277   3.909   6.045
 9580SOL    HW229640   4.207   3.933   6.191
 9581SOL     OW29641   1.514   4.584   6.335
 9581SOL    HW129642   1.560   4.673   6.330
 9581SOL    HW229643   1.480   4.568   6.428
 9582SOL     OW29644   4.790   5.338   4.619
 9582SOL    HW129645   4.865   5.355   4.683
 9582SOL    HW229646   4.708   5.309   4.670
 9583SOL     OW29647   2.052   4.432   1.760
 9583SOL    HW129648   1.973   4.371   1.747
 9583SOL    HW229649   2.047   4.472   1.852
 9584SOL     OW29650   5.999   5.630   6.497
 9584SOL    HW129651   5.911   5.675   6.513
 9584SOL    HW229652   6.059   5.648   6.575
 9585SOL     OW29653   6.028   0.178   4.474
 9585SOL    HW129654   6.118   0.141   4.452
 9585SOL    HW229655   5.958   0.109   4.456
 9586SOL     OW29656   5.575   3.509   3.283
 9586SOL    HW129657   5.517   3.475   3.209
 9586SOL    HW229658   5.523   3.513   3.368
 9587SOL     OW29659   4.832   6.263   1.969
 9587SOL    HW129660   4.759   6.198   1.988
 9587SOL    HW229661   4.906   6.251   2.036
 9588SOL     OW29662   0.098   0.747   2.071
 9588SOL    HW129663   0.149   0.829   2.045
 9588SOL    HW229664   0.111   0.729   2.169
 9589SOL     OW29665   2.720   1.461   6.164
 9589SOL    HW129666   2.731   1.363   6.175
 9589SOL    HW229667   2.775   1.509   6.232
 9590SOL     OW29668   6.895   4.616   4.914
 9590SOL    HW129669   6.806   4.589   4.952
 9590SOL    HW229670   6.936   4.537   4.867
 9591SOL     OW29671   1.421   4.950   1.810
 9591SOL    HW129672   1.510   4.940   1.765
 9591SOL    HW229673   1.411   5.044   1.844
 9592SOL     OW29674   5.132   5.298   2.330
 9592SOL    HW129675   5.198   5.338   2.267
 9592SOL    HW229676   5.180   5.263   2.411
 9593SOL     OW29677   0.947   2.815   4.045
 9593SOL    HW129678   0.868   2.759   4.018
 9593SOL    HW229679   1.000   2.766   4.114
 9594SOL     OW29680   5.989   6.731   2.059
 9594SOL    HW129681   5.985   6.784   2.143
 9594SOL    HW229682   5.908   6.749   2.004
 9595SOL     OW29683   0.691   4.325   4.656
 9595SOL    HW129684   0.745   4.283   4.729
 9595SOL    HW229685   0.753   4.366   4.588
 9596SOL     OW29686   5.011   6.356   4.502
 9596SOL    HW129687   4.980   6.433   4.558
 9596SOL    HW229688   5.007   6.272   4.556
 9597SOL     OW29689   2.181   3.871   1.343
 9597SOL    HW129690   2.129   3.956   1.338
 9597SOL    HW229691   2.248   3.878   1.417
 9598SOL     OW29692   6.906   5.388   6.050
 9598SOL    HW129693   6.886   5.393   5.952
 9598SOL    HW229694   6.827   5.421   6.102
 9599SOL     OW29695   4.949   1.546   4.744
 9599SOL    HW129696   4.869   1.498   4.781
 9599SOL    HW229697   4.919   1.610   4.673
 9600SOL     OW29698   1.426   6.482   6.984
 9600SOL    HW129699   1.337   6.517   7.013
 9600SOL    HW229700   1.478   6.555   6.940
 9601SOL     OW29701   0.761   5.086   5.910
 9601SOL    HW129702   0.795   5.080   5.816
 9601SOL    HW229703   0.838   5.095   5.973
 9602SOL     OW29704   1.726   5.626   0.720
 9602SOL    HW129705   1.760   5.709   0.676
 9602SOL    HW229706   1.707   5.645   0.816
 9603SOL     OW29707   1.381   5.138   3.982
 9603SOL    HW129708   1.364   5.039   3.978
 9603SOL    HW229709   1.469   5.158   3.938
 9604SOL     OW29710   6.870   0.984   0.075
 9604SOL    HW129711   6.839   0.890   0.058
 9604SOL    HW229712   6.883   0.997   0.173
 9605SOL     OW29713   2.302   5.677   6.672
 9605SOL    HW129714   2.393   5.665   6.711
 9605SOL    HW229715   2.237   5.696   6.745
 9606SOL     OW29716   6.334   6.341   4.461
 9606SOL    HW129717   6.341   6.297   4.372
 9606SOL    HW229718   6.258   6.406   4.460
 9607SOL     OW29719   1.103   2.874   1.960
 9607SOL    HW129720   1.082   2.794   1.904
 9607SOL    HW229721   1.157   2.845   2.040
 9608SOL     OW29722   6.829   6.518   2.921
 9608SOL    HW129723   6.881   6.603   2.925
 9608SOL    HW229724   6.832   6.481   2.829
 9609SOL     OW29725   1.996   2.783   3.585
 9609SOL    HW129726   1.923   2.798   3.519
 9609SOL    HW229727   1.959   2.736   3.665
 9610SOL     OW29728   3.194   1.514   6.246
 9610SOL    HW129729   3.255   1.455   6.299
 9610SOL    HW229730   3.112   1.462   6.220
 9611SOL     OW29731   6.436   6.488   0.992
 9611SOL    HW129732   6.519   6.434   1.004
 9611SOL    HW229733   6.391   6.500   1.081
 9612SOL     OW29734   5.914   3.053   2.429
 9612SOL    HW129735   5.892   3.027   2.336
 9612SOL    HW229736   5.914   3.153   2.437
 9613SOL     OW29737   5.477   6.635   5.826
 9613SOL    HW129738   5.548   6.565   5.816
 9613SOL    HW229739   5.519   6.726   5.821
 9614SOL     OW29740   3.301   2.932   2.644
 9614SOL    HW129741   3.319   2.917   2.741
 9614SOL    HW229742   3.207   2.964   2.632
 9615SOL     OW29743   1.247   6.507   3.753
 9615SOL    HW129744   1.240   6.425   3.697
 9615SOL    HW229745   1.261   6.587   3.695
 9616SOL     OW29746   3.077   3.428   1.690
 9616SOL    HW129747   3.074   3.383   1.779
 9616SOL    HW229748   2.988   3.471   1.672
 9617SOL     OW29749   0.860   3.685   3.345
 9617SOL    HW129750   0.850   3.610   3.280
 9617SOL    HW229751   0.886   3.768   3.296
 9618SOL     OW29752   4.213   5.933   6.877
 9618SOL    HW129753   4.277   5.875   6.928
 9618SOL    HW229754   4.148   5.875   6.827
 9619SOL     OW29755   1.821   0.006   1.229
 9619SOL    HW129756   1.909   7.022   1.181
 9619SOL    HW229757   1.772   6.942   1.221
 9620SOL     OW29758   3.776   1.348   6.760
 9620SOL    HW129759   3.863   1.393   6.776
 9620SOL    HW229760   3.791   1.250   6.749
 9621SOL     OW29761   1.160   1.831   1.457
 9621SOL    HW129762   1.225   1.757   1.440
 9621SOL    HW229763   1.104   1.809   1.537
 9622SOL     OW29764   6.463   6.912   5.773
 9622SOL    HW129765   6.478   6.929   5.676
 9622SOL    HW229766   6.380   6.858   5.785
 9623SOL     OW29767   4.366   6.631   6.772
 9623SOL    HW129768   4.369   6.534   6.746
 9623SOL    HW229769   4.458   6.663   6.793
 9624SOL     OW29770   4.475   4.977   4.416
 9624SOL    HW129771   4.408   4.906   4.439
 9624SOL    HW229772   4.440   5.032   4.340
 9625SOL     OW29773   4.935   3.651   5.700
 9625SOL    HW129774   4.990   3.588   5.754
 9625SOL    HW229775   4.850   3.671   5.748
 9626SOL     OW29776   2.449   3.422   6.220
 9626SOL    HW129777   2.388   3.402   6.297
 9626SOL    HW229778   2.505   3.341   6.200
 9627SOL     OW29779   1.030   5.394   6.522
 9627SOL    HW129780   1.015   5.473   6.462
 9627SOL    HW229781   0.964   5.322   6.499
 9628SOL     OW29782   6.167   1.519   6.277
 9628SOL    HW129783   6.187   1.616   6.265
 9628SOL    HW229784   6.246   1.464   6.249
 9629SOL     OW29785   6.514   5.599   4.132
 9629SOL    HW129786   6.481   5.672   4.072
 9629SOL    HW229787   6.607   5.620   4.162
 9630SOL     OW29788   5.805   6.384   6.304
 9630SOL    HW129789   5.783   6.398   6.208
 9630SOL    HW229790   5.815   6.473   6.349
 9631SOL     OW29791   4.105   0.970   0.281
 9631SOL    HW129792   4.007   0.974   0.296
 9631SOL    HW229793   4.139   1.062   0.258
 9632SOL     OW29794   3.820   6.046   2.003
 9632SOL    HW129795   3.890   5.976   1.987
 9632SOL    HW229796   3.763   6.017   2.080
 9633SOL     OW29797   3.370   2.935   2.922
 9633SOL    HW129798   3.283   2.948   2.969
 9633SOL    HW229799   3.445   2.935   2.988
 9634SOL     OW29800   5.317   4.884   3.061
 9634SOL    HW129801   5.235   4.827   3.074
 9634SOL    HW229802   5.302   4.945   2.983
 9635SOL     OW29803   0.303   5.276   3.952
 9635SOL    HW129804   0.363   5.206   3.912
 9635SOL    HW229805   0.353   5.327   4.022
 9636SOL     OW29806   4.935   3.173   3.896
 9636SOL    HW129807   4.895   3.264   3.898
 9636SOL    HW229808   4.937   3.135   3.989
 9637SOL     OW29809   2.788   2.957   6.955
 9637SOL    HW129810   2.833   3.032   7.004
 9637SOL    HW229811   2.690   2.960   6.971
 9638SOL     OW29812   6.070   4.834   5.312
 9638SOL    HW129813   5.975   4.864   5.308
 9638SOL    HW229814   6.128   4.903   5.269
 9639SOL     OW29815   3.893   1.685   2.221
 9639SOL    HW129816   3.884   1.591   2.187
 9639SOL    HW229817   3.891   1.685   2.321
 9640SOL     OW29818   4.554   0.190   2.832
 9640SOL    HW129819   4.619   0.243   2.886
 9640SOL    HW229820   4.572   0.204   2.735
 9641SOL     OW29821   6.030   3.414   2.956
 9641SOL    HW129822   6.040   3.497   3.011
 9641SOL    HW229823   5.933   3.388   2.954
 9642SOL     OW29824   1.714   0.212   3.996
 9642SOL    HW129825   1.704   0.139   3.928
 9642SOL    HW229826   1.640   0.206   4.063
 9643SOL     OW29827   4.950   4.863   4.158
 9643SOL    HW129828   4.851   4.861   4.171
 9643SOL    HW229829   4.980   4.778   4.116
 9644SOL     OW29830   1.289   5.785   4.595
 9644SOL    HW129831   1.271   5.688   4.582
 9644SOL    HW229832   1.232   5.820   4.669
 9645SOL     OW29833   0.321   4.851   6.283
 9645SOL    HW129834   0.294   4.755   6.288
 9645SOL    HW229835   0.325   4.889   6.375
 9646SOL     OW29836   2.963   5.795   6.309
 9646SOL    HW129837   2.878   5.744   6.325
 9646SOL    HW229838   3.038   5.730   6.296
 9647SOL     OW29839   6.510   0.222   3.449
 9647SOL    HW129840   6.529   0.274   3.365
 9647SOL    HW229841   6.497   0.126   3.426
 9648SOL     OW29842   3.767   1.913   1.021
 9648SOL    HW129843   3.769   1.982   1.094
 9648SOL    HW229844   3.685   1.926   0.966
 9649SOL     OW29845   1.793   5.848   6.631
 9649SOL    HW129846   1.815   5.944   6.613
 9649SOL    HW229847   1.697   5.832   6.610
 9650SOL     OW29848   6.894   5.035   4.771
 9650SOL    HW129849   6.919   5.124   4.810
 9650SOL    HW229850   6.865   5.048   4.676
 9651SOL     OW29851   4.544   1.543   0.651
 9651SOL    HW129852   4.599   1.607   0.597
 9651SOL    HW229853   4.462   1.518   0.600
 9652SOL     OW29854   6.800   3.722   0.556
 9652SOL    HW129855   6.837   3.633   0.529
 9652SOL    HW229856   6.715   3.708   0.608
 9653SOL     OW29857   4.156   4.294   6.207
 9653SOL    HW129858   4.231   4.270   6.145
 9653SOL    HW229859   4.147   4.393   6.211
 9654SOL     OW29860   4.088   3.708   3.481
 9654SOL    HW129861   4.181   3.742   3.473
 9654SOL    HW229862   4.089   3.612   3.508
 9655SOL     OW29863   3.891   1.142   1.498
 9655SOL    HW129864   3.899   1.054   1.451
 9655SOL    HW229865   3.843   1.207   1.439
 9656SOL     OW29866   5.822   3.947   0.940
 9656SOL    HW129867   5.727   3.932   0.968
 9656SOL    HW229868   5.883   3.909   1.009
 9657SOL     OW29869   5.557   4.347   3.160
 9657SOL    HW129870   5.586   4.251   3.167
 9657SOL    HW229871   5.559   4.375   3.064
 9658SOL     OW29872   5.035   2.347   2.567
 9658SOL    HW129873   5.000   2.403   2.492
 9658SOL    HW229874   5.125   2.382   2.594
 9659SOL     OW29875   2.347   3.365   0.670
 9659SOL    HW129876   2.272   3.387   0.608
 9659SOL    HW229877   2.345   3.268   0.692
 9660SOL     OW29878   0.848   5.826   1.401
 9660SOL    HW129879   0.941   5.808   1.372
 9660SOL    HW229880   0.849   5.897   1.473
 9661SOL     OW29881   5.113   4.712   0.838
 9661SOL    HW129882   5.201   4.677   0.871
 9661SOL    HW229883   5.044   4.640   0.846
 9662SOL     OW29884   5.752   5.182   5.996
 9662SOL    HW129885   5.806   5.214   6.074
 9662SOL    HW229886   5.677   5.247   5.979
 9663SOL     OW29887   0.595   5.076   3.343
 9663SOL    HW129888   0.672   5.055   3.403
 9663SOL    HW229889   0.516   5.019   3.368
 9664SOL     OW29890   4.756   4.265   3.251
 9664SOL    HW129891   4.673   4.321   3.245
 9664SOL    HW229892   4.772   4.239   3.346
 9665SOL     OW29893   5.864   5.601   6.815
 9665SOL    HW129894   5.803   5.527   6.843
 9665SOL    HW229895   5.950   5.561   6.783
 9666SOL     OW29896   5.254   3.399   0.590
 9666SOL    HW129897   5.175   3.419   0.648
 9666SOL    HW229898   5.291   3.309   0.614
 9667SOL     OW29899   6.184   6.542   6.306
 9667SOL    HW129900   6.136   6.545   6.394
 9667SOL    HW229901   6.281   6.523   6.321
 9668SOL     OW29902   0.409   0.766   5.743
 9668SOL    HW129903   0.482   0.760   5.812
 9668SOL    HW229904   0.416   0.854   5.696
 9669SOL     OW29905   4.075   0.495   0.082
 9669SOL    HW129906   4.117   0.583   0.105
 9669SOL    HW229907   4.124   0.421   0.128
 9670SOL     OW29908   7.001   0.010   6.806
 9670SOL    HW129909   6.929   0.079   6.796
 9670SOL    HW229910   7.013   7.012   6.903
 9671SOL     OW29911   1.189   5.872   6.454
 9671SOL    HW129912   1.180   5.835   6.546
 9671SOL    HW229913   1.098   5.885   6.414
 9672SOL     OW29914   0.845   3.234   4.186
 9672SOL    HW129915   0.943   3.253   4.177
 9672SOL    HW229916   0.832   3.137   4.206
 9673SOL     OW29917   2.306   3.833   0.577
 9673SOL    HW129918   2.304   3.888   0.661
 9673SOL    HW229919   2.369   3.757   0.589
 9674SOL     OW29920   2.720   5.949   4.594
 9674SOL    HW129921   2.662   6.012   4.541
 9674SOL    HW229922   2.714   5.858   4.555
 9675SOL     OW29923   4.727   3.539   0.969
 9675SOL    HW129924   4.803   3.519   0.907
 9675SOL    HW229925   4.762   3.587   1.049
 9676SOL     OW29926   0.742   2.951   6.294
 9676SOL    HW129927   0.704   2.915   6.209
 9676SOL    HW229928   0.841   2.942   6.293
 9677SOL     OW29929   6.581   5.212   0.709
 9677SOL    HW129930   6.670   5.224   0.753
 9677SOL    HW229931   6.568   5.115   0.687
 9678SOL     OW29932   4.004   3.336   5.023
 9678SOL    HW129933   4.059   3.404   5.071
 9678SOL    HW229934   4.018   3.345   4.924
 9679SOL     OW29935   2.153   1.815   4.735
 9679SOL    HW129936   2.135   1.741   4.669
 9679SOL    HW229937   2.121   1.787   4.825
 9680SOL     OW29938   4.618   5.480   2.388
 9680SOL    HW129939   4.630   5.578   2.377
 9680SOL    HW229940   4.697   5.432   2.350
 9681SOL     OW29941   1.665   1.679   2.673
 9681SOL    HW129942   1.759   1.657   2.644
 9681SOL    HW229943   1.667   1.762   2.729
 9682SOL     OW29944   5.261   5.544   5.400
 9682SOL    HW129945   5.352   5.559   5.439
 9682SOL    HW229946   5.195   5.603   5.447
 9683SOL     OW29947   3.254   6.156   1.741
 9683SOL    HW129948   3.332   6.116   1.789
 9683SOL    HW229949   3.187   6.189   1.809
 9684SOL     OW29950   0.949   3.644   5.485
 9684SOL    HW129951   0.869   3.588   5.465
 9684SOL    HW229952   0.983   3.625   5.577
 9685SOL     OW29953   3.921   4.390   1.416
 9685SOL    HW129954   4.010   4.409   1.375
 9685SOL    HW229955   3.878   4.312   1.370
 9686SOL     OW29956   6.989   1.889   5.898
 9686SOL    HW129957   0.022   1.815   5.862
 9686SOL    HW229958   6.892   1.867   5.887
 9687SOL     OW29959   5.949   1.081   1.949
 9687SOL    HW129960   6.027   1.143   1.957
 9687SOL    HW229961   5.956   1.010   2.020
 9688SOL     OW29962   6.925   4.754   1.229
 9688SOL    HW129963   6.958   4.848   1.232
 9688SOL    HW229964   6.954   4.706   1.312
 9689SOL     OW29965   1.666   6.282   0.786
 9689SOL    HW129966   1.711   6.326   0.863
 9689SOL    HW229967   1.734   6.266   0.713
 9690SOL     OW29968   6.253   5.054   5.236
 9690SOL    HW129969   6.296   5.058   5.326
 9690SOL    HW229970   6.323   5.062   5.166
 9691SOL     OW29971   3.094   4.028   1.975
 9691SOL    HW129972   3.185   4.022   2.017
 9691SOL    HW229973   3.049   4.112   2.005
 9692SOL     OW29974   5.049   5.013   1.488
 9692SOL    HW129975   5.043   5.065   1.573
 9692SOL    HW229976   4.973   5.038   1.428
 9693SOL     OW29977   5.356   3.807   4.671
 9693SOL    HW129978   5.405   3.891   4.692
 9693SOL    HW229979   5.262   3.813   4.706
 9694SOL     OW29980   3.484   6.980   2.269
 9694SOL    HW129981   3.476   0.003   2.358
 9694SOL    HW229982   3.425   6.899   2.268
 9695SOL     OW29983   0.908   2.333   3.254
 9695SOL    HW129984   0.903   2.257   3.319
 9695SOL    HW229985   0.972   2.309   3.180
 9696SOL     OW29986   5.880   2.368   2.305
 9696SOL    HW129987   5.893   2.442   2.371
 9696SOL    HW229988   5.788   2.331   2.314
 9697SOL     OW29989   1.482   6.313   0.581
 9697SOL    HW129990   1.540   6.340   0.503
 9697SOL    HW229991   1.535   6.319   0.665
 9698SOL     OW29992   5.492   3.086   0.922
 9698SOL    HW129993   5.544   3.157   0.970
 9698SOL    HW229994   5.480   3.008   0.983
 9699SOL     OW29995   1.344   5.244   1.213
 9699SOL    HW129996   1.433   5.213   1.246
 9699SOL    HW229997   1.304   5.173   1.155
 9700SOL     OW29998   5.415   0.518   5.132
 9700SOL    HW129999   5.453   0.508   5.040
 9700SOL    HW230000   5.358   0.438   5.152
 9701SOL     OW30001   4.444   3.385   6.457
 9701SOL    HW130002   4.385   3.321   6.507
 9701SOL    HW230003   4.469   3.345   6.369
 9702SOL     OW30004   3.821   3.099   1.275
 9702SOL    HW130005   3.748   3.166   1.262
 9702SOL    HW230006   3.840   3.054   1.187
 9703SOL     OW30007   0.070   4.108   4.802
 9703SOL    HW130008   0.013   4.092   4.883
 9703SOL    HW230009   0.147   4.167   4.826
 9704SOL     OW30010   2.148   4.162   2.696
 9704SOL    HW130011   2.191   4.196   2.613
 9704SOL    HW230012   2.192   4.077   2.724
 9705SOL     OW30013   6.303   3.156   5.706
 9705SOL    HW130014   6.282   3.097   5.628
 9705SOL    HW230015   6.298   3.103   5.791
 9706SOL     OW30016   1.313   1.478   2.461
 9706SOL    HW130017   1.256   1.453   2.383
 9706SOL    HW230018   1.352   1.569   2.446
 9707SOL     OW30019   0.209   5.226   2.519
 9707SOL    HW130020   0.249   5.135   2.506
 9707SOL    HW230021   0.113   5.216   2.547
 9708SOL     OW30022   2.376   0.226   2.601
 9708SOL    HW130023   2.295   0.187   2.557
 9708SOL    HW230024   2.364   0.325   2.610
 9709SOL     OW30025   5.505   1.838   2.032
 9709SOL    HW130026   5.515   1.821   1.934
 9709SOL    HW230027   5.521   1.935   2.051
 9710SOL     OW30028   6.158   5.617   3.809
 9710SOL    HW130029   6.178   5.637   3.713
 9710SOL    HW230030   6.161   5.701   3.862
 9711SOL     OW30031   4.098   0.112   6.746
 9711SOL    HW130032   4.124   0.198   6.791
 9711SOL    HW230033   4.164   0.091   6.674
 9712SOL     OW30034   5.574   1.505   6.997
 9712SOL    HW130035   5.625   1.566   0.035
 9712SOL    HW230036   5.627   1.488   6.914
 9713SOL     OW30037   1.209   6.429   3.192
 9713SOL    HW130038   1.168   6.514   3.225
 9713SOL    HW230039   1.217   6.432   3.092
 9714SOL     OW30040   2.220   4.687   4.376
 9714SOL    HW130041   2.258   4.641   4.296
 9714SOL    HW230042   2.120   4.693   4.366
 9715SOL     OW30043   6.067   3.756   0.262
 9715SOL    HW130044   6.165   3.745   0.245
 9715SOL    HW230045   6.016   3.743   0.177
 9716SOL     OW30046   2.454   5.137   6.952
 9716SOL    HW130047   2.523   5.207   6.932
 9716SOL    HW230048   2.448   5.125   0.029
 9717SOL     OW30049   4.204   0.996   5.396
 9717SOL    HW130050   4.254   1.022   5.478
 9717SOL    HW230051   4.116   0.955   5.422
 9718SOL     OW30052   3.456   2.711   6.966
 9718SOL    HW130053   3.485   2.625   7.009
 9718SOL    HW230054   3.387   2.755   0.000
 9719SOL     OW30055   4.505   6.523   5.216
 9719SOL    HW130056   4.471   6.515   5.310
 9719SOL    HW230057   4.533   6.617   5.199
 9720SOL     OW30058   2.214   3.921   3.452
 9720SOL    HW130059   2.187   3.825   3.452
 9720SOL    HW230060   2.159   3.972   3.386
 9721SOL     OW30061   0.804   1.631   0.628
 9721SOL    HW130062   0.756   1.632   0.715
 9721SOL    HW230063   0.738   1.632   0.553
 9722SOL     OW30064   3.997   3.015   5.387
 9722SOL    HW130065   4.071   2.949   5.373
 9722SOL    HW230066   4.033   3.107   5.376
 9723SOL     OW30067   6.471   5.935   4.397
 9723SOL    HW130068   6.454   6.011   4.334
 9723SOL    HW230069   6.395   5.926   4.460
 9724SOL     OW30070   1.515   5.209   0.020
 9724SOL    HW130071   1.597   5.153   0.029
 9724SOL    HW230072   1.435   5.150   0.015
 9725SOL     OW30073   3.562   5.236   5.413
 9725SOL    HW130074   3.572   5.239   5.313
 9725SOL    HW230075   3.547   5.141   5.441
 9726SOL     OW30076   6.013   1.845   4.366
 9726SOL    HW130077   5.962   1.800   4.439
 9726SOL    HW230078   5.975   1.817   4.278
 9727SOL     OW30079   0.804   1.390   0.279
 9727SOL    HW130080   0.810   1.393   0.180
 9727SOL    HW230081   0.822   1.481   0.317
 9728SOL     OW30082   4.525   0.936   5.514
 9728SOL    HW130083   4.611   0.950   5.564
 9728SOL    HW230084   4.461   1.009   5.535
 9729SOL     OW30085   0.106   5.041   3.316
 9729SOL    HW130086   0.079   5.137   3.317
 9729SOL    HW230087   0.024   4.984   3.308
 9730SOL     OW30088   6.711   4.111   3.454
 9730SOL    HW130089   6.742   4.038   3.392
 9730SOL    HW230090   6.693   4.072   3.544
 9731SOL     OW30091   4.986   3.535   2.162
 9731SOL    HW130092   4.948   3.599   2.096
 9731SOL    HW230093   4.912   3.495   2.216
 9732SOL     OW30094   1.233   2.699   2.509
 9732SOL    HW130095   1.191   2.643   2.438
 9732SOL    HW230096   1.175   2.699   2.590
 9733SOL     OW30097   6.886   4.835   2.324
 9733SOL    HW130098   6.850   4.899   2.391
 9733SOL    HW230099   6.818   4.821   2.251
 9734SOL     OW30100   6.236   6.042   5.874
 9734SOL    HW130101   6.325   5.998   5.885
 9734SOL    HW230102   6.186   6.039   5.960
 9735SOL     OW30103   1.453   2.771   1.914
 9735SOL    HW130104   1.430   2.674   1.905
 9735SOL    HW230105   1.402   2.823   1.846
 9736SOL     OW30106   4.925   2.112   5.044
 9736SOL    HW130107   4.936   2.060   4.960
 9736SOL    HW230108   4.944   2.209   5.026
 9737SOL     OW30109   5.884   2.583   2.492
 9737SOL    HW130110   5.810   2.544   2.547
 9737SOL    HW230111   5.906   2.674   2.527
 9738SOL     OW30112   1.860   5.752   2.131
 9738SOL    HW130113   1.839   5.721   2.039
 9738SOL    HW230114   1.951   5.719   2.157
 9739SOL     OW30115   5.727   7.005   0.040
 9739SOL    HW130116   5.649   0.039   0.015
 9739SOL    HW230117   5.711   6.911   0.008
 9740SOL     OW30118   6.868   0.845   1.993
 9740SOL    HW130119   6.962   0.822   2.020
 9740SOL    HW230120   6.833   0.775   1.931
 9741SOL     OW30121   2.642   1.384   4.669
 9741SOL    HW130122   2.728   1.427   4.697
 9741SOL    HW230123   2.608   1.427   4.586
 9742SOL     OW30124   4.146   2.196   6.306
 9742SOL    HW130125   4.132   2.262   6.232
 9742SOL    HW230126   4.075   2.126   6.301
 9743SOL     OW30127   5.873   3.336   4.026
 9743SOL    HW130128   5.890   3.255   4.081
 9743SOL    HW230129   5.946   3.347   3.959
 9744SOL     OW30130   1.982   0.198   3.952
 9744SOL    HW130131   2.034   0.143   4.017
 9744SOL    HW230132   1.887   0.207   3.983
 9745SOL     OW30133   6.650   0.963   5.561
 9745SOL    HW130134   6.589   1.012   5.624
 9745SOL    HW230135   6.740   0.954   5.603
 9746SOL     OW30136   4.223   5.473   6.170
 9746SOL    HW130137   4.227   5.534   6.249
 9746SOL    HW230138   4.296   5.496   6.106
 9747SOL     OW30139   2.194   2.464   2.936
 9747SOL    HW130140   2.289   2.443   2.912
 9747SOL    HW230141   2.173   2.427   3.026
 9748SOL     OW30142   1.278   0.773   3.156
 9748SOL    HW130143   1.238   0.863   3.170
 9748SOL    HW230144   1.269   0.747   3.060
 9749SOL     OW30145   6.946   1.377   2.023
 9749SOL    HW130146   6.870   1.379   2.088
 9749SOL    HW230147   7.012   1.448   2.047
 9750SOL     OW30148   6.997   4.650   3.851
 9750SOL    HW130149   7.003   4.646   3.950
 9750SOL    HW230150   0.067   4.659   3.813
 9751SOL     OW30151   2.598   0.766   1.519
 9751SOL    HW130152   2.610   0.780   1.421
 9751SOL    HW230153   2.502   0.781   1.543
 9752SOL     OW30154   3.176   3.070   6.964
 9752SOL    HW130155   3.202   2.978   6.996
 9752SOL    HW230156   3.082   3.090   6.992
 9753SOL     OW30157   6.519   5.860   4.840
 9753SOL    HW130158   6.463   5.778   4.828
 9753SOL    HW230159   6.609   5.845   4.799
 9754SOL     OW30160   3.363   1.343   1.210
 9754SOL    HW130161   3.352   1.295   1.123
 9754SOL    HW230162   3.393   1.279   1.280
 9755SOL     OW30163   2.937   4.050   6.376
 9755SOL    HW130164   3.023   4.013   6.411
 9755SOL    HW230165   2.868   4.048   6.448
 9756SOL     OW30166   6.061   0.213   5.846
 9756SOL    HW130167   6.068   0.300   5.894
 9756SOL    HW230168   6.053   0.229   5.747
 9757SOL     OW30169   5.174   4.218   3.586
 9757SOL    HW130170   5.122   4.301   3.606
 9757SOL    HW230171   5.178   4.202   3.488
 9758SOL     OW30172   1.584   0.674   1.267
 9758SOL    HW130173   1.533   0.685   1.182
 9758SOL    HW230174   1.682   0.690   1.250
 9759SOL     OW30175   0.281   0.840   0.895
 9759SOL    HW130176   0.214   0.881   0.957
 9759SOL    HW230177   0.319   0.912   0.835
 9760SOL     OW30178   4.790   2.097   0.180
 9760SOL    HW130179   4.836   2.096   0.092
 9760SOL    HW230180   4.857   2.114   0.252
 9761SOL     OW30181   1.158   2.573   1.244
 9761SOL    HW130182   1.151   2.520   1.329
 9761SOL    HW230183   1.206   2.519   1.175
 9762SOL     OW30184   2.474   1.657   5.469
 9762SOL    HW130185   2.524   1.684   5.387
 9762SOL    HW230186   2.460   1.737   5.528
 9763SOL     OW30187   6.084   1.323   0.823
 9763SOL    HW130188   6.046   1.306   0.732
 9763SOL    HW230189   6.019   1.295   0.893
 9764SOL     OW30190   5.601   2.295   2.304
 9764SOL    HW130191   5.538   2.227   2.342
 9764SOL    HW230192   5.657   2.252   2.233
 9765SOL     OW30193   6.709   0.609   1.148
 9765SOL    HW130194   6.677   0.552   1.072
 9765SOL    HW230195   6.737   0.551   1.224
 9766SOL     OW30196   2.121   1.361   4.483
 9766SOL    HW130197   2.144   1.265   4.493
 9766SOL    HW230198   2.198   1.418   4.511
 9767SOL     OW30199   2.295   2.979   5.865
 9767SOL    HW130200   2.382   2.956   5.821
 9767SOL    HW230201   2.277   3.076   5.854
 9768SOL     OW30202   6.094   2.564   1.111
 9768SOL    HW130203   6.049   2.475   1.114
 9768SOL    HW230204   6.114   2.588   1.016
 9769SOL     OW30205   3.043   1.815   4.944
 9769SOL    HW130206   2.949   1.802   4.915
 9769SOL    HW230207   3.070   1.910   4.929
 9770SOL     OW30208   2.935   2.150   6.174
 9770SOL    HW130209   2.915   2.242   6.140
 9770SOL    HW230210   2.923   2.084   6.101
 9771SOL     OW30211   3.084   6.111   3.127
 9771SOL    HW130212   3.139   6.068   3.200
 9771SOL    HW230213   3.093   6.057   3.043
 9772SOL     OW30214   1.244   6.929   1.456
 9772SOL    HW130215   1.217   6.839   1.490
 9772SOL    HW230216   1.171   6.967   1.399
 9773SOL     OW30217   5.150   5.130   1.942
 9773SOL    HW130218   5.249   5.116   1.945
 9773SOL    HW230219   5.105   5.061   1.999
 9774SOL     OW30220   0.579   5.481   4.465
 9774SOL    HW130221   0.579   5.430   4.379
 9774SOL    HW230222   0.520   5.435   4.531
 9775SOL     OW30223   2.134   1.250   3.950
 9775SOL    HW130224   2.055   1.209   3.905
 9775SOL    HW230225   2.111   1.274   4.044
 9776SOL     OW30226   1.530   6.066   6.520
 9776SOL    HW130227   1.621   6.104   6.502
 9776SOL    HW230228   1.472   6.080   6.440
 9777SOL     OW30229   4.710   0.759   5.750
 9777SOL    HW130230   4.667   0.678   5.709
 9777SOL    HW230231   4.754   0.734   5.836
 9778SOL     OW30232   0.438   2.913   4.196
 9778SOL    HW130233   0.418   2.879   4.104
 9778SOL    HW230234   0.366   2.977   4.224
 9779SOL     OW30235   1.701   0.878   3.833
 9779SOL    HW130236   1.759   0.908   3.909
 9779SOL    HW230237   1.651   0.795   3.860
 9780SOL     OW30238   1.803   2.563   1.628
 9780SOL    HW130239   1.756   2.582   1.542
 9780SOL    HW230240   1.790   2.640   1.691
 9781SOL     OW30241   1.821   2.750   3.362
 9781SOL    HW130242   1.758   2.828   3.363
 9781SOL    HW230243   1.875   2.752   3.279
 9782SOL     OW30244   0.200   2.530   1.536
 9782SOL    HW130245   0.157   2.539   1.446
 9782SOL    HW230246   0.294   2.564   1.531
 9783SOL     OW30247   3.289   1.619   2.852
 9783SOL    HW130248   3.246   1.704   2.883
 9783SOL    HW230249   3.247   1.541   2.897
 9784SOL     OW30250   1.993   1.493   6.761
 9784SOL    HW130251   2.009   1.490   6.860
 9784SOL    HW230252   1.895   1.508   6.744
 9785SOL     OW30253   0.508   2.681   4.306
 9785SOL    HW130254   0.421   2.647   4.270
 9785SOL    HW230255   0.527   2.770   4.266
 9786SOL     OW30256   2.086   4.498   1.249
 9786SOL    HW130257   2.020   4.440   1.296
 9786SOL    HW230258   2.045   4.534   1.165
 9787SOL     OW30259   3.833   3.477   2.831
 9787SOL    HW130260   3.928   3.507   2.835
 9787SOL    HW230261   3.827   3.382   2.863
 9788SOL     OW30262   6.246   6.646   1.215
 9788SOL    HW130263   6.193   6.641   1.299
 9788SOL    HW230264   6.185   6.665   1.138
 9789SOL     OW30265   3.497   0.369   6.697
 9789SOL    HW130266   3.517   0.358   6.794
 9789SOL    HW230267   3.575   0.337   6.643
 9790SOL     OW30268   0.286   4.456   4.426
 9790SOL    HW130269   0.371   4.436   4.476
 9790SOL    HW230270   0.299   4.434   4.329
 9791SOL     OW30271   1.451   6.517   1.300
 9791SOL    HW130272   1.545   6.491   1.320
 9791SOL    HW230273   1.451   6.599   1.244
 9792SOL     OW30274   3.777   5.933   0.948
 9792SOL    HW130275   3.830   5.917   0.865
 9792SOL    HW230276   3.835   5.919   1.028
 9793SOL     OW30277   4.597   1.777   2.932
 9793SOL    HW130278   4.604   1.736   2.842
 9793SOL    HW230279   4.606   1.706   3.002
 9794SOL     OW30280   4.840   4.697   4.815
 9794SOL    HW130281   4.911   4.629   4.835
 9794SOL    HW230282   4.772   4.658   4.753
 9795SOL     OW30283   1.346   3.484   3.632
 9795SOL    HW130284   1.335   3.545   3.711
 9795SOL    HW230285   1.375   3.538   3.553
 9796SOL     OW30286   3.279   3.373   3.214
 9796SOL    HW130287   3.184   3.341   3.211
 9796SOL    HW230288   3.283   3.459   3.264
 9797SOL     OW30289   3.452   6.869   6.498
 9797SOL    HW130290   3.388   6.836   6.567
 9797SOL    HW230291   3.470   6.797   6.432
 9798SOL     OW30292   1.067   3.395   0.067
 9798SOL    HW130293   1.025   3.344   7.014
 9798SOL    HW230294   1.094   3.333   0.139
 9799SOL     OW30295   2.359   6.747   5.966
 9799SOL    HW130296   2.316   6.670   6.013
 9799SOL    HW230297   2.436   6.715   5.911
 9800SOL     OW30298   6.106   3.716   4.794
 9800SOL    HW130299   6.016   3.697   4.834
 9800SOL    HW230300   6.177   3.670   4.848
 9801SOL     OW30301   6.432   5.827   0.093
 9801SOL    HW130302   6.478   5.794   0.176
 9801SOL    HW230303   6.357   5.766   0.070
 9802SOL     OW30304   4.393   4.665   0.643
 9802SOL    HW130305   4.404   4.578   0.595
 9802SOL    HW230306   4.368   4.649   0.738
 9803SOL     OW30307   0.420   3.731   6.665
 9803SOL    HW130308   0.461   3.737   6.574
 9803SOL    HW230309   0.351   3.803   6.676
 9804SOL     OW30310   0.136   5.314   2.005
 9804SOL    HW130311   0.219   5.367   1.988
 9804SOL    HW230312   0.161   5.220   2.031
 9805SOL     OW30313   0.924   6.422   3.748
 9805SOL    HW130314   0.845   6.375   3.787
 9805SOL    HW230315   1.007   6.396   3.797
 9806SOL     OW30316   3.361   2.338   6.047
 9806SOL    HW130317   3.446   2.311   6.093
 9806SOL    HW230318   3.292   2.361   6.116
 9807SOL     OW30319   2.993   3.678   2.392
 9807SOL    HW130320   3.014   3.773   2.413
 9807SOL    HW230321   2.959   3.671   2.299
 9808SOL     OW30322   4.991   6.519   3.946
 9808SOL    HW130323   4.928   6.442   3.940
 9808SOL    HW230324   4.966   6.588   3.878
 9809SOL     OW30325   6.948   2.976   0.698
 9809SOL    HW130326   6.999   3.061   0.715
 9809SOL    HW230327   7.011   2.899   0.696
 9810SOL     OW30328   2.232   1.616   6.192
 9810SOL    HW130329   2.323   1.656   6.195
 9810SOL    HW230330   2.169   1.673   6.245
 9811SOL     OW30331   5.970   4.067   3.844
 9811SOL    HW130332   6.021   4.122   3.778
 9811SOL    HW230333   6.023   4.059   3.928
 9812SOL     OW30334   2.756   6.015   4.837
 9812SOL    HW130335   2.772   5.924   4.875
 9812SOL    HW230336   2.744   6.009   4.738
 9813SOL     OW30337   4.727   2.268   1.302
 9813SOL    HW130338   4.757   2.362   1.316
 9813SOL    HW230339   4.795   2.205   1.340
 9814SOL     OW30340   5.634   0.986   0.375
 9814SOL    HW130341   5.598   1.027   0.291
 9814SOL    HW230342   5.730   0.961   0.361
 9815SOL     OW30343   4.114   2.252   4.743
 9815SOL    HW130344   4.102   2.348   4.718
 9815SOL    HW230345   4.133   2.198   4.661
 9816SOL     OW30346   1.626   0.224   0.636
 9816SOL    HW130347   1.526   0.214   0.645
 9816SOL    HW230348   1.662   0.270   0.718
 9817SOL     OW30349   0.399   7.004   3.388
 9817SOL    HW130350   0.375   0.036   3.308
 9817SOL    HW230351   0.492   0.003   3.417
 9818SOL     OW30352   6.303   2.686   4.673
 9818SOL    HW130353   6.253   2.768   4.700
 9818SOL    HW230354   6.239   2.618   4.638
 9819SOL     OW30355   3.907   1.793   3.320
 9819SOL    HW130356   3.996   1.750   3.334
 9819SOL    HW230357   3.835   1.725   3.336
 9820SOL     OW30358   3.874   4.339   6.091
 9820SOL    HW130359   3.964   4.306   6.120
 9820SOL    HW230360   3.825   4.375   6.170
 9821SOL     OW30361   5.231   5.967   6.737
 9821SOL    HW130362   5.197   6.017   6.658
 9821SOL    HW230363   5.315   6.010   6.770
 9822SOL     OW30364   1.162   6.976   3.229
 9822SOL    HW130365   1.123   6.932   3.310
 9822SOL    HW230366   1.124   6.933   3.147
 9823SOL     OW30367   3.448   0.757   1.723
 9823SOL    HW130368   3.399   0.685   1.673
 9823SOL    HW230369   3.485   0.823   1.658
 9824SOL     OW30370   1.559   4.219   5.121
 9824SOL    HW130371   1.492   4.272   5.068
 9824SOL    HW230372   1.603   4.279   5.188
 9825SOL     OW30373   3.628   4.821   5.623
 9825SOL    HW130374   3.586   4.731   5.612
 9825SOL    HW230375   3.721   4.809   5.660
 9826SOL     OW30376   4.593   6.427   6.263
 9826SOL    HW130377   4.569   6.432   6.166
 9826SOL    HW230378   4.664   6.358   6.277
 9827SOL     OW30379   1.702   4.002   4.980
 9827SOL    HW130380   1.642   4.081   4.988
 9827SOL    HW230381   1.787   4.020   5.030
 9828SOL     OW30382   4.526   2.305   0.490
 9828SOL    HW130383   4.595   2.374   0.468
 9828SOL    HW230384   4.535   2.228   0.427
 9829SOL     OW30385   2.585   6.103   6.937
 9829SOL    HW130386   2.596   6.120   0.013
 9829SOL    HW230387   2.500   6.146   6.906
 9830SOL     OW30388   5.806   1.180   1.421
 9830SOL    HW130389   5.730   1.132   1.376
 9830SOL    HW230390   5.864   1.223   1.352
 9831SOL     OW30391   1.116   6.687   1.572
 9831SOL    HW130392   1.088   6.645   1.486
 9831SOL    HW230393   1.047   6.754   1.600
 9832SOL     OW30394   4.609   5.212   1.553
 9832SOL    HW130395   4.608   5.113   1.560
 9832SOL    HW230396   4.617   5.239   1.457
 9833SOL     OW30397   3.585   4.149   5.230
 9833SOL    HW130398   3.589   4.188   5.322
 9833SOL    HW230399   3.490   4.137   5.203
 9834SOL     OW30400   1.777   3.851   5.500
 9834SOL    HW130401   1.690   3.892   5.524
 9834SOL    HW230402   1.848   3.921   5.497
 9835SOL     OW30403   5.392   1.569   4.147
 9835SOL    HW130404   5.399   1.617   4.235
 9835SOL    HW230405   5.297   1.539   4.133
 9836SOL     OW30406   5.462   3.846   2.924
 9836SOL    HW130407   5.466   3.761   2.871
 9836SOL    HW230408   5.487   3.826   3.019
 9837SOL     OW30409   2.117   6.650   4.115
 9837SOL    HW130410   2.097   6.553   4.130
 9837SOL    HW230411   2.043   6.692   4.063
 9838SOL     OW30412   0.593   6.543   6.293
 9838SOL    HW130413   0.502   6.583   6.283
 9838SOL    HW230414   0.657   6.589   6.231
 9839SOL     OW30415   6.515   1.683   1.562
 9839SOL    HW130416   6.482   1.608   1.505
 9839SOL    HW230417   6.556   1.646   1.646
 9840SOL     OW30418   0.312   0.369   0.759
 9840SOL    HW130419   0.394   0.422   0.739
 9840SOL    HW230420   0.266   0.409   0.839
 9841SOL     OW30421   1.433   3.734   4.821
 9841SOL    HW130422   1.529   3.741   4.848
 9841SOL    HW230423   1.424   3.670   4.744
 9842SOL     OW30424   3.424   3.190   3.064
 9842SOL    HW130425   3.405   3.250   2.986
 9842SOL    HW230426   3.366   3.218   3.141
 9843SOL     OW30427   6.805   1.809   1.243
 9843SOL    HW130428   6.794   1.898   1.200
 9843SOL    HW230429   6.778   1.815   1.339
 9844SOL     OW30430   4.796   6.839   2.504
 9844SOL    HW130431   4.768   6.888   2.587
 9844SOL    HW230432   4.889   6.805   2.516
 9845SOL     OW30433   2.378   1.876   4.485
 9845SOL    HW130434   2.438   1.955   4.480
 9845SOL    HW230435   2.319   1.884   4.565
 9846SOL     OW30436   3.131   3.704   3.395
 9846SOL    HW130437   3.076   3.656   3.326
 9846SOL    HW230438   3.070   3.744   3.463
 9847SOL     OW30439   2.380   2.850   6.627
 9847SOL    HW130440   2.454   2.917   6.616
 9847SOL    HW230441   2.412   2.760   6.595
 9848SOL     OW30442   4.781   2.992   6.307
 9848SOL    HW130443   4.771   3.073   6.250
 9848SOL    HW230444   4.820   3.017   6.395
 9849SOL     OW30445   6.408   0.264   6.865
 9849SOL    HW130446   6.318   0.306   6.871
 9849SOL    HW230447   6.447   0.282   6.775
 9850SOL     OW30448   4.424   6.547   2.723
 9850SOL    HW130449   4.454   6.624   2.666
 9850SOL    HW230450   4.338   6.572   2.769
 9851SOL     OW30451   4.736   2.226   5.246
 9851SOL    HW130452   4.755   2.188   5.156
 9851SOL    HW230453   4.822   2.240   5.295
 9852SOL     OW30454   4.748   2.181   3.674
 9852SOL    HW130455   4.755   2.139   3.583
 9852SOL    HW230456   4.839   2.211   3.704
 9853SOL     OW30457   5.361   4.112   2.191
 9853SOL    HW130458   5.434   4.142   2.253
 9853SOL    HW230459   5.272   4.141   2.229
 9854SOL     OW30460   5.972   5.701   4.696
 9854SOL    HW130461   6.051   5.761   4.700
 9854SOL    HW230462   5.890   5.752   4.722
 9855SOL     OW30463   0.923   4.083   0.818
 9855SOL    HW130464   0.989   4.054   0.748
 9855SOL    HW230465   0.914   4.011   0.886
 9856SOL     OW30466   3.781   3.851   0.763
 9856SOL    HW130467   3.867   3.865   0.714
 9856SOL    HW230468   3.760   3.753   0.766
 9857SOL     OW30469   5.498   2.016   3.018
 9857SOL    HW130470   5.462   2.089   2.961
 9857SOL    HW230471   5.598   2.021   3.020
 9858SOL     OW30472   4.796   0.720   1.931
 9858SOL    HW130473   4.737   0.798   1.908
 9858SOL    HW230474   4.892   0.747   1.919
 9859SOL     OW30475   5.831   0.751   1.405
 9859SOL    HW130476   5.846   0.654   1.388
 9859SOL    HW230477   5.867   0.776   1.495
 9860SOL     OW30478   0.413   0.826   1.394
 9860SOL    HW130479   0.511   0.838   1.407
 9860SOL    HW230480   0.373   0.787   1.477
 9861SOL     OW30481   3.650   5.923   4.902
 9861SOL    HW130482   3.577   5.975   4.946
 9861SOL    HW230483   3.696   5.866   4.971
 9862SOL     OW30484   2.485   3.583   0.612
 9862SOL    HW130485   2.570   3.614   0.656
 9862SOL    HW230486   2.455   3.497   0.654
 9863SOL     OW30487   3.955   0.231   3.047
 9863SOL    HW130488   3.931   0.148   3.097
 9863SOL    HW230489   3.906   0.309   3.086
 9864SOL     OW30490   4.706   5.746   3.487
 9864SOL    HW130491   4.619   5.765   3.442
 9864SOL    HW230492   4.721   5.647   3.490
 9865SOL     OW30493   0.538   0.161   3.634
 9865SOL    HW130494   0.497   0.242   3.675
 9865SOL    HW230495   0.619   0.135   3.686
 9866SOL     OW30496   4.796   4.043   4.495
 9866SOL    HW130497   4.775   3.948   4.471
 9866SOL    HW230498   4.811   4.050   4.593
 9867SOL     OW30499   4.240   1.500   0.651
 9867SOL    HW130500   4.270   1.470   0.561
 9867SOL    HW230501   4.180   1.431   0.691
 9868SOL     OW30502   0.586   4.500   6.757
 9868SOL    HW130503   0.678   4.483   6.721
 9868SOL    HW230504   0.560   4.595   6.739
 9869SOL     OW30505   1.660   4.012   3.383
 9869SOL    HW130506   1.706   4.095   3.415
 9869SOL    HW230507   1.728   3.942   3.362
 9870SOL     OW30508   4.849   5.883   2.999
 9870SOL    HW130509   4.927   5.820   3.004
 9870SOL    HW230510   4.790   5.868   3.078
 9871SOL     OW30511   1.598   0.727   5.847
 9871SOL    HW130512   1.541   0.650   5.821
 9871SOL    HW230513   1.575   0.806   5.791
 9872SOL     OW30514   2.655   5.062   3.001
 9872SOL    HW130515   2.638   4.972   2.962
 9872SOL    HW230516   2.606   5.071   3.088
 9873SOL     OW30517   2.233   2.957   0.364
 9873SOL    HW130518   2.248   2.898   0.285
 9873SOL    HW230519   2.226   2.900   0.446
 9874SOL     OW30520   0.730   1.929   3.623
 9874SOL    HW130521   0.700   2.005   3.681
 9874SOL    HW230522   0.709   1.842   3.667
 9875SOL     OW30523   0.527   1.074   1.914
 9875SOL    HW130524   0.509   1.123   2.000
 9875SOL    HW230525   0.576   1.135   1.852
 9876SOL     OW30526   6.315   0.578   2.043
 9876SOL    HW130527   6.362   0.665   2.056
 9876SOL    HW230528   6.280   0.546   2.131
 9877SOL     OW30529   2.894   6.764   2.482
 9877SOL    HW130530   2.908   6.671   2.449
 9877SOL    HW230531   2.912   6.768   2.580
 9878SOL     OW30532   2.090   5.475   6.331
 9878SOL    HW130533   2.025   5.525   6.388
 9878SOL    HW230534   2.066   5.487   6.235
 9879SOL     OW30535   5.388   5.216   4.606
 9879SOL    HW130536   5.472   5.212   4.552
 9879SOL    HW230537   5.373   5.310   4.637
 9880SOL     OW30538   1.595   2.896   5.333
 9880SOL    HW130539   1.596   2.996   5.326
 9880SOL    HW230540   1.635   2.869   5.421
 9881SOL     OW30541   1.452   2.366   4.655
 9881SOL    HW130542   1.352   2.367   4.656
 9881SOL    HW230543   1.485   2.316   4.735
 9882SOL     OW30544   0.956   2.503   3.949
 9882SOL    HW130545   0.865   2.545   3.947
 9882SOL    HW230546   1.019   2.558   3.895
 9883SOL     OW30547   1.337   0.174   1.379
 9883SOL    HW130548   1.308   0.092   1.429
 9883SOL    HW230549   1.257   0.231   1.360
 9884SOL     OW30550   4.183   1.629   3.394
 9884SOL    HW130551   4.197   1.531   3.409
 9884SOL    HW230552   4.169   1.646   3.296
 9885SOL     OW30553   6.613   4.204   4.718
 9885SOL    HW130554   6.518   4.232   4.733
 9885SOL    HW230555   6.654   4.263   4.648
 9886SOL     OW30556   0.548   5.041   2.519
 9886SOL    HW130557   0.589   5.083   2.600
 9886SOL    HW230558   0.582   5.087   2.437
 9887SOL     OW30559   4.215   1.214   0.175
 9887SOL    HW130560   4.202   1.299   0.226
 9887SOL    HW230561   4.143   1.205   0.106
 9888SOL     OW30562   7.007   3.755   0.732
 9888SOL    HW130563   6.978   3.823   0.800
 9888SOL    HW230564   6.934   3.742   0.665
 9889SOL     OW30565   6.540   4.786   0.834
 9889SOL    HW130566   6.633   4.824   0.838
 9889SOL    HW230567   6.474   4.859   0.850
 9890SOL     OW30568   1.719   2.163   0.633
 9890SOL    HW130569   1.773   2.081   0.651
 9890SOL    HW230570   1.625   2.150   0.665
 9891SOL     OW30571   5.953   2.508   0.253
 9891SOL    HW130572   5.962   2.444   0.177
 9891SOL    HW230573   5.857   2.536   0.262
 9892SOL     OW30574   6.946   5.260   0.236
 9892SOL    HW130575   6.866   5.219   0.279
 9892SOL    HW230576   6.960   5.352   0.273
 9893SOL     OW30577   1.659   0.726   0.802
 9893SOL    HW130578   1.606   0.750   0.721
 9893SOL    HW230579   1.597   0.695   0.874
 9894SOL     OW30580   2.221   2.010   1.206
 9894SOL    HW130581   2.244   2.082   1.140
 9894SOL    HW230582   2.289   2.010   1.279
 9895SOL     OW30583   5.765   3.558   5.096
 9895SOL    HW130584   5.691   3.625   5.105
 9895SOL    HW230585   5.830   3.568   5.171
 9896SOL     OW30586   6.139   6.785   6.664
 9896SOL    HW130587   6.092   6.872   6.652
 9896SOL    HW230588   6.237   6.800   6.673
 9897SOL     OW30589   5.461   5.919   3.215
 9897SOL    HW130590   5.369   5.950   3.190
 9897SOL    HW230591   5.455   5.860   3.295
 9898SOL     OW30592   2.228   6.148   6.034
 9898SOL    HW130593   2.307   6.189   6.079
 9898SOL    HW230594   2.202   6.065   6.082
 9899SOL     OW30595   0.079   5.954   0.644
 9899SOL    HW130596   0.054   6.008   0.724
 9899SOL    HW230597   0.005   5.960   0.576
 9900SOL     OW30598   1.683   3.637   3.393
 9900SOL    HW130599   1.737   3.708   3.349
 9900SOL    HW230600   1.718   3.622   3.486
 9901SOL     OW30601   2.698   2.152   5.778
 9901SOL    HW130602   2.704   2.228   5.714
 9901SOL    HW230603   2.617   2.163   5.836
 9902SOL     OW30604   2.678   4.941   6.999
 9902SOL    HW130605   2.763   4.991   6.981
 9902SOL    HW230606   2.600   4.997   6.971
 9903SOL     OW30607   4.786   1.410   2.527
 9903SOL    HW130608   4.830   1.499   2.511
 9903SOL    HW230609   4.773   1.397   2.625
 9904SOL     OW30610   1.166   2.846   6.608
 9904SOL    HW130611   1.120   2.934   6.596
 9904SOL    HW230612   1.264   2.858   6.589
 9905SOL     OW30613   3.375   0.860   6.926
 9905SOL    HW130614   3.448   0.829   6.865
 9905SOL    HW230615   3.286   0.845   6.882
 9906SOL     OW30616   3.775   2.940   2.531
 9906SOL    HW130617   3.771   2.969   2.435
 9906SOL    HW230618   3.863   2.898   2.549
 9907SOL     OW30619   6.801   0.890   0.862
 9907SOL    HW130620   6.712   0.880   0.817
 9907SOL    HW230621   6.864   0.819   0.828
 9908SOL     OW30622   5.124   1.933   3.065
 9908SOL    HW130623   5.126   2.031   3.045
 9908SOL    HW230624   5.032   1.898   3.046
 9909SOL     OW30625   3.697   6.819   3.796
 9909SOL    HW130626   3.733   6.727   3.775
 9909SOL    HW230627   3.772   6.877   3.825
 9910SOL     OW30628   1.045   3.865   2.613
 9910SOL    HW130629   1.133   3.817   2.611
 9910SOL    HW230630   0.973   3.802   2.584
 9911SOL     OW30631   3.690   6.757   2.083
 9911SOL    HW130632   3.720   6.851   2.070
 9911SOL    HW230633   3.748   6.695   2.030
 9912SOL     OW30634   3.944   2.107   1.205
 9912SOL    HW130635   4.037   2.136   1.231
 9912SOL    HW230636   3.898   2.070   1.286
 9913SOL     OW30637   5.918   3.799   0.701
 9913SOL    HW130638   5.883   3.843   0.784
 9913SOL    HW230639   5.969   3.716   0.726
 9914SOL     OW30640   6.529   3.530   4.640
 9914SOL    HW130641   6.518   3.464   4.566
 9914SOL    HW230642   6.485   3.616   4.615
 9915SOL     OW30643   4.351   0.963   3.011
 9915SOL    HW130644   4.307   0.957   2.921
 9915SOL    HW230645   4.282   0.977   3.082
 9916SOL     OW30646   2.296   2.772   3.140
 9916SOL    HW130647   2.291   2.832   3.061
 9916SOL    HW230648   2.302   2.826   3.223
 9917SOL     OW30649   5.733   3.559   6.970
 9917SOL    HW130650   5.723   3.656   6.993
 9917SOL    HW230651   5.820   3.525   7.004
 9918SOL     OW30652   3.467   1.557   2.677
 9918SOL    HW130653   3.497   1.603   2.593
 9918SOL    HW230654   3.381   1.598   2.707
 9919SOL     OW30655   6.051   5.439   1.885
 9919SOL    HW130656   6.083   5.391   1.966
 9919SOL    HW230657   6.116   5.423   1.809
 9920SOL     OW30658   4.673   1.673   1.799
 9920SOL    HW130659   4.601   1.653   1.732
 9920SOL    HW230660   4.708   1.587   1.838
 9921SOL     OW30661   4.180   5.808   6.166
 9921SOL    HW130662   4.175   5.889   6.108
 9921SOL    HW230663   4.093   5.794   6.213
 9922SOL     OW30664   1.262   4.671   0.186
 9922SOL    HW130665   1.175   4.686   0.140
 9922SOL    HW230666   1.257   4.708   0.279
 9923SOL     OW30667   4.702   4.707   6.369
 9923SOL    HW130668   4.780   4.707   6.307
 9923SOL    HW230669   4.733   4.726   6.462
 9924SOL     OW30670   0.200   2.216   4.755
 9924SOL    HW130671   0.257   2.227   4.836
 9924SOL    HW230672   0.251   2.167   4.685
 9925SOL     OW30673   6.876   4.426   4.117
 9925SOL    HW130674   6.921   4.354   4.063
 9925SOL    HW230675   6.931   4.509   4.115
 9926SOL     OW30676   2.867   3.772   0.421
 9926SOL    HW130677   2.902   3.698   0.364
 9926SOL    HW230678   2.771   3.789   0.398
 9927SOL     OW30679   6.069   6.693   2.451
 9927SOL    HW130680   6.019   6.777   2.428
 9927SOL    HW230681   6.005   6.616   2.453
 9928SOL     OW30682   4.998   5.124   1.724
 9928SOL    HW130683   4.919   5.184   1.732
 9928SOL    HW230684   5.065   5.148   1.795
 9929SOL     OW30685   1.752   5.219   5.417
 9929SOL    HW130686   1.798   5.199   5.331
 9929SOL    HW230687   1.680   5.287   5.401
 9930SOL     OW30688   6.236   0.651   5.018
 9930SOL    HW130689   6.150   0.626   4.973
 9930SOL    HW230690   6.310   0.651   4.951
 9931SOL     OW30691   1.074   4.726   5.208
 9931SOL    HW130692   1.148   4.660   5.194
 9931SOL    HW230693   0.996   4.701   5.150
 9932SOL     OW30694   2.023   5.748   6.738
 9932SOL    HW130695   1.941   5.785   6.695
 9932SOL    HW230696   2.030   5.650   6.720
 9933SOL     OW30697   1.879   4.487   2.801
 9933SOL    HW130698   1.834   4.435   2.729
 9933SOL    HW230699   1.809   4.530   2.859
 9934SOL     OW30700   6.143   1.898   5.647
 9934SOL    HW130701   6.196   1.866   5.725
 9934SOL    HW230702   6.045   1.891   5.667
 9935SOL     OW30703   2.732   0.699   0.048
 9935SOL    HW130704   2.745   0.683   0.145
 9935SOL    HW230705   2.672   0.778   0.035
 9936SOL     OW30706   6.370   4.788   4.841
 9936SOL    HW130707   6.443   4.746   4.786
 9936SOL    HW230708   6.404   4.872   4.882
 9937SOL     OW30709   6.533   2.644   5.626
 9937SOL    HW130710   6.535   2.551   5.663
 9937SOL    HW230711   6.492   2.706   5.693
 9938SOL     OW30712   6.491   5.694   3.449
 9938SOL    HW130713   6.407   5.742   3.422
 9938SOL    HW230714   6.525   5.732   3.535
 9939SOL     OW30715   3.487   2.480   0.535
 9939SOL    HW130716   3.451   2.387   0.544
 9939SOL    HW230717   3.582   2.483   0.568
 9940SOL     OW30718   0.578   0.793   1.032
 9940SOL    HW130719   0.654   0.834   0.981
 9940SOL    HW230720   0.494   0.803   0.980
 9941SOL     OW30721   3.301   4.015   5.212
 9941SOL    HW130722   3.263   3.933   5.255
 9941SOL    HW230723   3.260   4.096   5.254
 9942SOL     OW30724   1.953   5.516   2.489
 9942SOL    HW130725   1.964   5.419   2.511
 9942SOL    HW230726   1.863   5.531   2.449
 9943SOL     OW30727   6.755   5.699   5.739
 9943SOL    HW130728   6.790   5.726   5.649
 9943SOL    HW230729   6.655   5.699   5.737
 9944SOL     OW30730   1.995   4.155   6.724
 9944SOL    HW130731   1.931   4.141   6.648
 9944SOL    HW230732   2.020   4.251   6.729
 9945SOL     OW30733   6.530   4.978   7.014
 9945SOL    HW130734   6.435   4.951   6.995
 9945SOL    HW230735   6.592   4.928   6.953
 9946SOL     OW30736   4.773   1.360   4.813
 9946SOL    HW130737   4.818   1.307   4.741
 9946SOL    HW230738   4.742   1.298   4.885
 9947SOL     OW30739   0.515   3.955   6.016
 9947SOL    HW130740   0.572   3.880   5.983
 9947SOL    HW230741   0.439   3.919   6.069
 9948SOL     OW30742   4.761   4.694   4.296
 9948SOL    HW130743   4.732   4.776   4.347
 9948SOL    HW230744   4.797   4.627   4.360
 9949SOL     OW30745   5.246   5.243   3.601
 9949SOL    HW130746   5.226   5.227   3.698
 9949SOL    HW230747   5.286   5.160   3.562
 9950SOL     OW30748   5.588   6.152   5.653
 9950SOL    HW130749   5.489   6.135   5.650
 9950SOL    HW230750   5.617   6.163   5.748
 9951SOL     OW30751   6.557   1.752   3.759
 9951SOL    HW130752   6.625   1.680   3.760
 9951SOL    HW230753   6.593   1.832   3.712
 9952SOL     OW30754   6.583   3.759   0.941
 9952SOL    HW130755   6.531   3.844   0.953
 9952SOL    HW230756   6.609   3.723   1.031
 9953SOL     OW30757   6.202   2.534   4.059
 9953SOL    HW130758   6.220   2.593   3.980
 9953SOL    HW230759   6.159   2.449   4.028
 9954SOL     OW30760   5.771   6.481   6.044
 9954SOL    HW130761   5.810   6.439   5.962
 9954SOL    HW230762   5.765   6.580   6.032
 9955SOL     OW30763   6.605   4.154   4.420
 9955SOL    HW130764   6.514   4.168   4.381
 9955SOL    HW230765   6.615   4.059   4.447
 9956SOL     OW30766   2.307   0.149   1.616
 9956SOL    HW130767   2.388   0.124   1.562
 9956SOL    HW230768   2.326   0.235   1.664
 9957SOL     OW30769   5.739   5.263   2.571
 9957SOL    HW130770   5.702   5.172   2.553
 9957SOL    HW230771   5.838   5.262   2.558
 9958SOL     OW30772   3.820   5.475   0.397
 9958SOL    HW130773   3.831   5.450   0.301
 9958SOL    HW230774   3.834   5.573   0.408
 9959SOL     OW30775   4.236   4.032   5.903
 9959SOL    HW130776   4.217   3.966   5.831
 9959SOL    HW230777   4.193   4.120   5.881
 9960SOL     OW30778   6.915   0.285   2.260
 9960SOL    HW130779   6.823   0.247   2.260
 9960SOL    HW230780   6.924   0.351   2.335
 9961SOL     OW30781   1.918   5.961   4.106
 9961SOL    HW130782   1.863   5.923   4.032
 9961SOL    HW230783   1.864   5.965   4.190
 9962SOL     OW30784   6.308   6.846   3.595
 9962SOL    HW130785   6.392   6.863   3.646
 9962SOL    HW230786   6.230   6.848   3.657
 9963SOL     OW30787   3.116   2.709   0.417
 9963SOL    HW130788   3.070   2.622   0.433
 9963SOL    HW230789   3.050   2.774   0.378
 9964SOL     OW30790   5.077   5.716   4.495
 9964SOL    HW130791   5.090   5.626   4.453
 9964SOL    HW230792   4.980   5.740   4.491
 9965SOL     OW30793   4.638   6.700   6.768
 9965SOL    HW130794   4.707   6.629   6.757
 9965SOL    HW230795   4.656   6.752   6.851
 9966SOL     OW30796   1.393   5.346   1.523
 9966SOL    HW130797   1.335   5.278   1.568
 9966SOL    HW230798   1.394   5.430   1.577
 9967SOL     OW30799   0.427   5.806   1.875
 9967SOL    HW130800   0.516   5.767   1.899
 9967SOL    HW230801   0.357   5.735   1.879
 9968SOL     OW30802   3.390   3.709   2.313
 9968SOL    HW130803   3.356   3.717   2.406
 9968SOL    HW230804   3.459   3.778   2.296
 9969SOL     OW30805   1.820   3.742   2.662
 9969SOL    HW130806   1.891   3.701   2.720
 9969SOL    HW230807   1.797   3.678   2.588
 9970SOL     OW30808   5.209   4.210   1.669
 9970SOL    HW130809   5.126   4.196   1.615
 9970SOL    HW230810   5.283   4.243   1.609
 9971SOL     OW30811   1.284   4.941   1.077
 9971SOL    HW130812   1.194   4.985   1.067
 9971SOL    HW230813   1.275   4.844   1.057
 9972SOL     OW30814   6.360   4.218   1.676
 9972SOL    HW130815   6.268   4.221   1.715
 9972SOL    HW230816   6.359   4.264   1.587
 9973SOL     OW30817   5.497   1.946   3.413
 9973SOL    HW130818   5.431   1.975   3.343
 9973SOL    HW230819   5.505   2.017   3.483
 9974SOL     OW30820   1.088   1.526   3.018
 9974SOL    HW130821   1.082   1.440   3.069
 9974SOL    HW230822   1.030   1.595   3.061
 9975SOL     OW30823   6.405   3.105   0.730
 9975SOL    HW130824   6.490   3.122   0.780
 9975SOL    HW230825   6.413   3.141   0.637
 9976SOL     OW30826   0.863   6.472   5.602
 9976SOL    HW130827   0.850   6.571   5.597
 9976SOL    HW230828   0.861   6.443   5.698
 9977SOL     OW30829   5.700   5.367   5.436
 9977SOL    HW130830   5.624   5.340   5.377
 9977SOL    HW230831   5.733   5.288   5.487
 9978SOL     OW30832   0.835   2.431   4.869
 9978SOL    HW130833   0.798   2.378   4.945
 9978SOL    HW230834   0.888   2.508   4.904
 9979SOL     OW30835   5.841   4.971   5.263
 9979SOL    HW130836   5.859   5.027   5.182
 9979SOL    HW230837   5.743   4.959   5.274
 9980SOL     OW30838   2.593   0.262   0.018
 9980SOL    HW130839   2.647   0.249   6.957
 9980SOL    HW230840   2.652   0.250   0.098
 9981SOL     OW30841   2.940   1.456   3.149
 9981SOL    HW130842   2.924   1.495   3.239
 9981SOL    HW230843   2.975   1.527   3.088
 9982SOL     OW30844   6.782   5.767   3.466
 9982SOL    HW130845   6.693   5.794   3.503
 9982SOL    HW230846   6.850   5.769   3.539
 9983SOL     OW30847   7.004   1.435   2.717
 9983SOL    HW130848   0.040   1.508   2.681
 9983SOL    HW230849   6.918   1.474   2.749
 9984SOL     OW30850   2.026   2.271   6.520
 9984SOL    HW130851   2.004   2.368   6.530
 9984SOL    HW230852   1.969   2.218   6.582
 9985SOL     OW30853   2.211   0.957   1.889
 9985SOL    HW130854   2.196   0.996   1.798
 9985SOL    HW230855   2.140   0.891   1.909
 9986SOL     OW30856   5.735   4.218   5.146
 9986SOL    HW130857   5.695   4.194   5.058
 9986SOL    HW230858   5.785   4.305   5.138
 9987SOL     OW30859   5.551   3.319   5.988
 9987SOL    HW130860   5.565   3.351   6.082
 9987SOL    HW230861   5.535   3.220   5.990
 9988SOL     OW30862   6.674   6.895   4.892
 9988SOL    HW130863   6.660   6.994   4.886
 9988SOL    HW230864   6.585   6.849   4.900
 9989SOL     OW30865   6.800   3.390   4.299
 9989SOL    HW130866   6.756   3.465   4.348
 9989SOL    HW230867   6.870   3.427   4.238
 9990SOL     OW30868   1.694   5.080   3.497
 9990SOL    HW130869   1.641   5.157   3.533
 9990SOL    HW230870   1.745   5.109   3.416
 9991SOL     OW30871   3.138   1.985   4.682
 9991SOL    HW130872   3.154   2.040   4.764
 9991SOL    HW230873   3.185   2.025   4.605
 9992SOL     OW30874   5.765   4.774   6.513
 9992SOL    HW130875   5.859   4.740   6.523
 9992SOL    HW230876   5.765   4.874   6.525
 9993SOL     OW30877   2.329   1.448   1.180
 9993SOL    HW130878   2.397   1.389   1.222
 9993SOL    HW230879   2.320   1.532   1.233
 9994SOL     OW30880   6.144   4.797   3.112
 9994SOL    HW130881   6.074   4.835   3.052
 9994SOL    HW230882   6.106   4.780   3.202
 9995SOL     OW30883   5.132   1.800   3.915
 9995SOL    HW130884   5.219   1.838   3.883
 9995SOL    HW230885   5.093   1.740   3.844
 9996SOL     OW30886   2.887   4.303   0.041
 9996SOL    HW130887   2.860   4.333   6.972
 9996SOL    HW230888   2.807   4.303   0.101
 9997SOL     OW30889   2.816   1.737   5.817
 9997SOL    HW130890   2.898   1.683   5.835
 9997SOL    HW230891   2.746   1.679   5.776
 9998SOL     OW30892   5.825   5.221   5.110
 9998SOL    HW130893   5.911   5.256   5.149
 9998SOL    HW230894   5.749   5.273   5.148
 9999SOL     OW30895   5.735   2.509   5.598
 9999SOL    HW130896   5.682   2.593   5.603
 9999SOL    HW230897   5.768   2.496   5.504
10000SOL     OW30898   6.856   2.695   0.406
10000SOL    HW130899   6.905   2.782   0.406
10000SOL    HW230900   6.792   2.692   0.328
10001SOL     OW30901   4.698   1.241   1.854
10001SOL    HW130902   4.747   1.328   1.853
10001SOL    HW230903   4.613   1.250   1.803
10002SOL     OW30904   1.223   6.187   2.075
10002SOL    HW130905   1.318   6.159   2.066
10002SOL    HW230906   1.202   6.257   2.007
10003SOL     OW30907   3.501   1.959   3.338
10003SOL    HW130908   3.540   1.877   3.380
10003SOL    HW230909   3.575   2.018   3.305
10004SOL     OW30910   0.101   2.263   3.614
10004SOL    HW130911   0.159   2.323   3.559
10004SOL    HW230912   0.148   2.242   3.700
10005SOL     OW30913   5.606   0.530   2.832
10005SOL    HW130914   5.506   0.534   2.835
10005SOL    HW230915   5.644   0.621   2.849
10006SOL     OW30916   3.947   6.788   4.711
10006SOL    HW130917   3.921   6.854   4.781
10006SOL    HW230918   4.045   6.797   4.692
10007SOL     OW30919   0.451   3.579   4.852
10007SOL    HW130920   0.462   3.518   4.930
10007SOL    HW230921   0.354   3.600   4.841
10008SOL     OW30922   3.871   0.240   4.656
10008SOL    HW130923   3.813   0.184   4.597
10008SOL    HW230924   3.827   0.329   4.672
10009SOL     OW30925   2.102   4.190   2.216
10009SOL    HW130926   2.013   4.236   2.206
10009SOL    HW230927   2.172   4.242   2.167
10010SOL     OW30928   2.345   1.092   6.815
10010SOL    HW130929   2.252   1.112   6.786
10010SOL    HW230930   2.382   1.171   6.864
10011SOL     OW30931   6.911   6.785   5.014
10011SOL    HW130932   6.882   6.808   4.921
10011SOL    HW230933   6.859   6.706   5.047
10012SOL     OW30934   5.892   1.455   3.949
10012SOL    HW130935   5.792   1.454   3.948
10012SOL    HW230936   5.923   1.491   4.037
10013SOL     OW30937   0.275   0.647   2.577
10013SOL    HW130938   0.234   0.708   2.645
10013SOL    HW230939   0.374   0.647   2.588
10014SOL     OW30940   1.021   3.989   6.317
10014SOL    HW130941   1.060   3.961   6.405
10014SOL    HW230942   0.926   4.018   6.330
10015SOL     OW30943   2.319   4.775   0.238
10015SOL    HW130944   2.409   4.754   0.201
10015SOL    HW230945   2.318   4.755   0.336
10016SOL     OW30946   2.206   1.394   6.594
10016SOL    HW130947   2.134   1.422   6.658
10016SOL    HW230948   2.164   1.365   6.508
10017SOL     OW30949   2.602   2.047   4.489
10017SOL    HW130950   2.690   2.065   4.445
10017SOL    HW230951   2.615   2.048   4.589
10018SOL     OW30952   5.216   0.617   5.970
10018SOL    HW130953   5.187   0.644   6.062
10018SOL    HW230954   5.175   0.529   5.947
10019SOL     OW30955   1.266   0.689   2.909
10019SOL    HW130956   1.203   0.700   2.832
10019SOL    HW230957   1.358   0.674   2.874
10020SOL     OW30958   1.454   2.854   1.375
10020SOL    HW130959   1.357   2.859   1.397
10020SOL    HW230960   1.501   2.933   1.416
10021SOL     OW30961   6.871   3.285   0.972
10021SOL    HW130962   6.822   3.310   1.054
10021SOL    HW230963   6.810   3.235   0.910
10022SOL     OW30964   1.706   1.635   0.009
10022SOL    HW130965   1.760   1.717   0.021
10022SOL    HW230966   1.742   1.582   6.954
10023SOL     OW30967   6.380   3.618   0.814
10023SOL    HW130968   6.398   3.589   0.720
10023SOL    HW230969   6.449   3.685   0.841
10024SOL     OW30970   1.445   4.531   3.830
10024SOL    HW130971   1.527   4.475   3.819
10024SOL    HW230972   1.364   4.473   3.818
10025SOL     OW30973   1.941   0.893   1.643
10025SOL    HW130974   1.981   0.907   1.552
10025SOL    HW230975   1.899   0.978   1.674
10026SOL     OW30976   5.703   0.709   3.220
10026SOL    HW130977   5.747   0.655   3.149
10026SOL    HW230978   5.744   0.801   3.222
10027SOL     OW30979   5.849   3.703   4.854
10027SOL    HW130980   5.799   3.789   4.853
10027SOL    HW230981   5.834   3.656   4.941
10028SOL     OW30982   1.936   1.255   0.435
10028SOL    HW130983   1.921   1.259   0.337
10028SOL    HW230984   2.034   1.264   0.454
10029SOL     OW30985   5.758   1.848   3.342
10029SOL    HW130986   5.666   1.879   3.368
10029SOL    HW230987   5.795   1.790   3.415
10030SOL     OW30988   1.438   6.877   4.239
10030SOL    HW130989   1.537   6.894   4.242
10030SOL    HW230990   1.390   6.962   4.220
10031SOL     OW30991   5.965   4.773   3.356
10031SOL    HW130992   5.880   4.816   3.326
10031SOL    HW230993   6.032   4.844   3.377
10032SOL     OW30994   2.537   1.730   5.226
10032SOL    HW130995   2.447   1.748   5.186
10032SOL    HW230996   2.605   1.789   5.182
10033SOL     OW30997   5.585   3.133   4.427
10033SOL    HW130998   5.614   3.095   4.516
10033SOL    HW230999   5.533   3.064   4.377
10034SOL     OW31000   4.577   0.123   5.753
10034SOL    HW131001   4.572   0.187   5.830
10034SOL    HW231002   4.673   0.104   5.732
10035SOL     OW31003   0.081   4.955   1.270
10035SOL    HW131004   0.089   4.999   1.359
10035SOL    HW231005   0.062   5.024   1.200
10036SOL     OW31006   6.689   1.761   0.108
10036SOL    HW131007   6.655   1.829   0.043
10036SOL    HW231008   6.771   1.795   0.154
10037SOL     OW31009   0.259   0.465   6.659
10037SOL    HW131010   0.327   0.408   6.705
10037SOL    HW231011   0.169   0.424   6.669
10038SOL     OW31012   6.421   6.810   0.948
10038SOL    HW131013   6.378   6.873   1.013
10038SOL    HW231014   6.351   6.749   0.910
10039SOL     OW31015   3.675   0.576   3.994
10039SOL    HW131016   3.759   0.569   3.941
10039SOL    HW231017   3.663   0.670   4.027
10040SOL     OW31018   6.664   3.087   0.823
10040SOL    HW131019   6.647   3.069   0.920
10040SOL    HW231020   6.725   3.016   0.786
10041SOL     OW31021   2.562   6.878   0.150
10041SOL    HW131022   2.466   6.895   0.171
10041SOL    HW231023   2.570   6.843   0.057
10042SOL     OW31024   6.740   1.868   2.880
10042SOL    HW131025   6.656   1.901   2.837
10042SOL    HW231026   6.731   1.871   2.979
10043SOL     OW31027   0.088   1.670   5.823
10043SOL    HW131028   0.069   1.626   5.735
10043SOL    HW231029   0.151   1.613   5.876
10044SOL     OW31030   3.181   2.188   5.650
10044SOL    HW131031   3.128   2.140   5.580
10044SOL    HW231032   3.274   2.205   5.615
10045SOL     OW31033   3.797   1.256   0.375
10045SOL    HW131034   3.793   1.160   0.347
10045SOL    HW231035   3.773   1.263   0.472
10046SOL     OW31036   1.835   5.483   1.399
10046SOL    HW131037   1.905   5.416   1.423
10046SOL    HW231038   1.749   5.436   1.379
10047SOL     OW31039   0.301   3.240   6.871
10047SOL    HW131040   0.289   3.264   6.968
10047SOL    HW231041   0.385   3.282   6.837
10048SOL     OW31042   6.133   6.392   2.727
10048SOL    HW131043   6.136   6.308   2.674
10048SOL    HW231044   6.179   6.378   2.815
10049SOL     OW31045   0.047   1.121   5.420
10049SOL    HW131046   0.097   1.159   5.498
10049SOL    HW231047   0.027   1.194   5.354
10050SOL     OW31048   6.194   2.997   5.913
10050SOL    HW131049   6.205   3.061   5.990
10050SOL    HW231050   6.102   2.958   5.915
10051SOL     OW31051   1.006   3.669   4.199
10051SOL    HW131052   0.981   3.712   4.286
10051SOL    HW231053   0.923   3.657   4.143
10052SOL     OW31054   1.400   6.995   3.081
10052SOL    HW131055   1.401   0.070   3.062
10052SOL    HW231056   1.327   6.974   3.146
10053SOL     OW31057   5.410   5.807   4.761
10053SOL    HW131058   5.443   5.816   4.855
10053SOL    HW231059   5.328   5.749   4.759
10054SOL     OW31060   6.022   4.151   4.499
10054SOL    HW131061   6.105   4.201   4.524
10054SOL    HW231062   5.943   4.212   4.508
10055SOL     OW31063   0.405   1.859   6.329
10055SOL    HW131064   0.305   1.854   6.337
10055SOL    HW231065   0.445   1.875   6.419
10056SOL     OW31066   6.150   2.983   3.867
10056SOL    HW131067   6.165   3.017   3.774
10056SOL    HW231068   6.222   2.917   3.890
10057SOL     OW31069   5.601   4.964   6.048
10057SOL    HW131070   5.645   4.887   6.094
10057SOL    HW231071   5.671   5.033   6.026
10058SOL     OW31072   6.425   4.006   5.382
10058SOL    HW131073   6.427   4.055   5.470
10058SOL    HW231074   6.515   4.010   5.339
10059SOL     OW31075   0.300   0.619   6.937
10059SOL    HW131076   0.204   0.645   6.938
10059SOL    HW231077   0.310   0.529   6.894
10060SOL     OW31078   2.292   2.266   2.407
10060SOL    HW131079   2.246   2.296   2.491
10060SOL    HW231080   2.257   2.318   2.330
10061SOL     OW31081   4.018   0.277   2.758
10061SOL    HW131082   3.998   0.269   2.856
10061SOL    HW231083   4.115   0.261   2.742
10062SOL     OW31084   6.051   0.805   4.663
10062SOL    HW131085   6.040   0.897   4.703
10062SOL    HW231086   6.052   0.737   4.737
10063SOL     OW31087   1.567   3.181   5.335
10063SOL    HW131088   1.525   3.198   5.423
10063SOL    HW231089   1.496   3.172   5.265
10064SOL     OW31090   2.568   6.638   0.330
10064SOL    HW131091   2.663   6.625   0.361
10064SOL    HW231092   2.557   6.731   0.297
10065SOL     OW31093   1.165   1.692   2.090
10065SOL    HW131094   1.232   1.764   2.107
10065SOL    HW231095   1.164   1.670   1.993
10066SOL     OW31096   6.179   3.473   3.620
10066SOL    HW131097   6.160   3.398   3.558
10066SOL    HW231098   6.274   3.502   3.609
10067SOL     OW31099   6.676   2.717   5.041
10067SOL    HW131100   6.706   2.698   5.134
10067SOL    HW231101   6.598   2.659   5.018
10068SOL     OW31102   1.837   3.181   2.960
10068SOL    HW131103   1.891   3.160   3.041
10068SOL    HW231104   1.898   3.208   2.885
10069SOL     OW31105   2.649   5.518   1.155
10069SOL    HW131106   2.613   5.429   1.125
10069SOL    HW231107   2.720   5.548   1.092
10070SOL     OW31108   4.175   6.350   5.783
10070SOL    HW131109   4.249   6.319   5.844
10070SOL    HW231110   4.107   6.399   5.837
10071SOL     OW31111   6.480   0.216   3.899
10071SOL    HW131112   6.512   0.253   3.812
10071SOL    HW231113   6.522   0.266   3.975
10072SOL     OW31114   6.646   2.582   1.805
10072SOL    HW131115   6.575   2.522   1.841
10072SOL    HW231116   6.605   2.646   1.740
10073SOL     OW31117   6.820   4.592   4.423
10073SOL    HW131118   6.822   4.662   4.495
10073SOL    HW231119   6.844   4.633   4.335
10074SOL     OW31120   1.396   4.760   6.971
10074SOL    HW131121   1.476   4.705   6.949
10074SOL    HW231122   1.356   4.729   0.034
10075SOL     OW31123   1.561   3.651   1.824
10075SOL    HW131124   1.493   3.604   1.881
10075SOL    HW231125   1.538   3.638   1.727
10076SOL     OW31126   4.780   5.834   3.953
10076SOL    HW131127   4.808   5.907   4.015
10076SOL    HW231128   4.738   5.759   4.005
10077SOL     OW31129   5.290   3.435   5.967
10077SOL    HW131130   5.289   3.509   6.035
10077SOL    HW231131   5.382   3.395   5.963
10078SOL     OW31132   6.474   6.292   5.097
10078SOL    HW131133   6.401   6.334   5.043
10078SOL    HW231134   6.470   6.192   5.085
10079SOL     OW31135   4.593   2.316   3.374
10079SOL    HW131136   4.679   2.334   3.421
10079SOL    HW231137   4.567   2.397   3.321
10080SOL     OW31138   5.032   0.808   5.846
10080SOL    HW131139   5.000   0.853   5.929
10080SOL    HW231140   5.103   0.741   5.870
10081SOL     OW31141   1.902   3.713   1.017
10081SOL    HW131142   1.939   3.769   0.943
10081SOL    HW231143   1.931   3.619   1.005
10082SOL     OW31144   1.283   4.262   0.948
10082SOL    HW131145   1.334   4.197   0.891
10082SOL    HW231146   1.273   4.225   1.040
10083SOL     OW31147   3.460   4.923   3.364
10083SOL    HW131148   3.455   5.018   3.332
10083SOL    HW231149   3.413   4.915   3.452
10084SOL     OW31150   1.561   0.898   4.624
10084SOL    HW131151   1.632   0.966   4.605
10084SOL    HW231152   1.559   0.830   4.551
10085SOL     OW31153   5.252   7.012   0.390
10085SOL    HW131154   5.235   0.087   0.382
10085SOL    HW231155   5.325   6.996   0.457
10086SOL     OW31156   0.091   6.610   3.111
10086SOL    HW131157   0.051   6.545   3.175
10086SOL    HW231158   0.187   6.587   3.095
10087SOL     OW31159   1.128   6.873   5.636
10087SOL    HW131160   1.189   6.948   5.661
10087SOL    HW231161   1.176   6.809   5.576
10088SOL     OW31162   0.265   2.676   0.303
10088SOL    HW131163   0.285   2.720   0.215
10088SOL    HW231164   0.166   2.674   0.317
10089SOL     OW31165   3.723   2.137   1.618
10089SOL    HW131166   3.635   2.183   1.635
10089SOL    HW231167   3.795   2.181   1.671
10090SOL     OW31168   2.826   5.766   3.087
10090SOL    HW131169   2.778   5.681   3.111
10090SOL    HW231170   2.823   5.779   2.988
10091SOL     OW31171   6.926   4.129   5.355
10091SOL    HW131172   6.971   4.090   5.274
10091SOL    HW231173   6.910   4.057   5.422
10092SOL     OW31174   0.684   1.715   3.773
10092SOL    HW131175   0.747   1.747   3.843
10092SOL    HW231176   0.594   1.699   3.813
10093SOL     OW31177   5.307   4.910   5.625
10093SOL    HW131178   5.208   4.921   5.617
10093SOL    HW231179   5.330   4.884   5.719
10094SOL     OW31180   3.426   1.367   0.681
10094SOL    HW131181   3.350   1.358   0.617
10094SOL    HW231182   3.468   1.458   0.672
10095SOL     OW31183   4.886   2.964   5.388
10095SOL    HW131184   4.828   2.976   5.468
10095SOL    HW231185   4.851   3.017   5.311
10096SOL     OW31186   5.584   2.302   2.943
10096SOL    HW131187   5.578   2.384   3.000
10096SOL    HW231188   5.505   2.297   2.883
10097SOL     OW31189   0.691   1.474   6.508
10097SOL    HW131190   0.741   1.457   6.424
10097SOL    HW231191   0.664   1.387   6.549
10098SOL     OW31192   3.027   5.474   3.867
10098SOL    HW131193   3.071   5.542   3.924
10098SOL    HW231194   2.946   5.514   3.824
10099SOL     OW31195   0.575   4.893   1.174
10099SOL    HW131196   0.617   4.803   1.161
10099SOL    HW231197   0.533   4.897   1.264
10100SOL     OW31198   4.827   5.417   4.120
10100SOL    HW131199   4.876   5.369   4.193
10100SOL    HW231200   4.820   5.357   4.040
10101SOL     OW31201   0.498   2.672   1.753
10101SOL    HW131202   0.592   2.690   1.781
10101SOL    HW231203   0.438   2.680   1.833
10102SOL     OW31204   6.634   5.739   2.739
10102SOL    HW131205   6.726   5.778   2.746
10102SOL    HW231206   6.575   5.781   2.808
10103SOL     OW31207   6.668   6.616   6.208
10103SOL    HW131208   6.687   6.644   6.114
10103SOL    HW231209   6.738   6.551   6.238
10104SOL     OW31210   2.290   6.993   4.200
10104SOL    HW131211   2.340   7.011   4.115
10104SOL    HW231212   2.329   6.914   4.246
10105SOL     OW31213   3.300   0.906   6.195
10105SOL    HW131214   3.234   0.957   6.250
10105SOL    HW231215   3.285   0.808   6.207
10106SOL     OW31216   5.409   5.373   1.698
10106SOL    HW131217   5.325   5.420   1.670
10106SOL    HW231218   5.475   5.439   1.733
10107SOL     OW31219   4.718   4.627   6.678
10107SOL    HW131220   4.657   4.653   6.753
10107SOL    HW231221   4.800   4.684   6.681
10108SOL     OW31222   1.972   2.202   0.465
10108SOL    HW131223   1.949   2.159   0.378
10108SOL    HW231224   1.890   2.206   0.523
10109SOL     OW31225   1.589   2.240   1.406
10109SOL    HW131226   1.619   2.319   1.352
10109SOL    HW231227   1.535   2.178   1.348
10110SOL     OW31228   4.950   6.041   2.524
10110SOL    HW131229   4.884   5.967   2.534
10110SOL    HW231230   5.028   6.026   2.585
10111SOL     OW31231   1.022   2.594   2.289
10111SOL    HW131232   1.114   2.610   2.254
10111SOL    HW231233   0.986   2.509   2.251
10112SOL     OW31234   0.113   2.107   3.092
10112SOL    HW131235   0.156   2.027   3.051
10112SOL    HW231236   0.091   2.088   3.187
10113SOL     OW31237   0.048   0.868   5.920
10113SOL    HW131238   6.992   0.821   5.959
10113SOL    HW231239   0.106   0.802   5.872
10114SOL     OW31240   5.277   1.664   1.437
10114SOL    HW131241   5.201   1.728   1.449
10114SOL    HW231242   5.359   1.716   1.412
10115SOL     OW31243   3.653   2.659   6.005
10115SOL    HW131244   3.726   2.696   6.062
10115SOL    HW231245   3.599   2.593   6.058
10116SOL     OW31246   6.814   0.689   4.681
10116SOL    HW131247   6.731   0.736   4.652
10116SOL    HW231248   6.813   0.595   4.648
10117SOL     OW31249   6.401   4.749   3.325
10117SOL    HW131250   6.315   4.768   3.278
10117SOL    HW231251   6.453   4.834   3.335
10118SOL     OW31252   4.721   6.327   3.990
10118SOL    HW131253   4.680   6.242   4.025
10118SOL    HW231254   4.740   6.389   4.066
10119SOL     OW31255   0.487   5.465   5.575
10119SOL    HW131256   0.429   5.437   5.651
10119SOL    HW231257   0.491   5.391   5.507
10120SOL     OW31258   1.993   3.324   2.746
10120SOL    HW131259   2.006   3.267   2.665
10120SOL    HW231260   2.057   3.296   2.817
10121SOL     OW31261   6.017   4.586   1.251
10121SOL    HW131262   5.918   4.584   1.236
10121SOL    HW231263   6.040   4.658   1.316
10122SOL     OW31264   1.272   0.071   4.156
10122SOL    HW131265   1.260   0.100   4.061
10122SOL    HW231266   1.183   0.073   4.203
10123SOL     OW31267   6.430   5.290   6.659
10123SOL    HW131268   6.338   5.255   6.639
10123SOL    HW231269   6.456   5.261   6.751
10124SOL     OW31270   1.445   5.327   2.663
10124SOL    HW131271   1.502   5.408   2.651
10124SOL    HW231272   1.504   5.246   2.665
10125SOL     OW31273   2.273   1.045   4.940
10125SOL    HW131274   2.304   1.139   4.950
10125SOL    HW231275   2.331   0.985   4.995
10126SOL     OW31276   6.599   6.766   6.404
10126SOL    HW131277   6.606   6.710   6.486
10126SOL    HW231278   6.605   6.708   6.323
10127SOL     OW31279   2.503   6.774   5.750
10127SOL    HW131280   2.500   6.728   5.661
10127SOL    HW231281   2.454   6.861   5.745
10128SOL     OW31282   3.207   2.133   6.921
10128SOL    HW131283   3.123   2.187   6.912
10128SOL    HW231284   3.184   2.040   6.949
10129SOL     OW31285   6.229   1.962   4.767
10129SOL    HW131286   6.325   1.932   4.763
10129SOL    HW231287   6.176   1.912   4.699
10130SOL     OW31288   1.121   0.990   3.007
10130SOL    HW131289   1.092   0.907   2.960
10130SOL    HW231290   1.103   1.069   2.950
10131SOL     OW31291   1.700   6.081   3.569
10131SOL    HW131292   1.630   6.076   3.497
10131SOL    HW231293   1.677   6.155   3.632
10132SOL     OW31294   6.847   0.559   1.408
10132SOL    HW131295   6.922   0.613   1.370
10132SOL    HW231296   6.859   0.463   1.382
10133SOL     OW31297   6.057   6.288   0.287
10133SOL    HW131298   6.113   6.370   0.286
10133SOL    HW231299   6.005   6.282   0.202
10134SOL     OW31300   6.694   6.563   2.348
10134SOL    HW131301   6.632   6.559   2.270
10134SOL    HW231302   6.652   6.614   2.423
10135SOL     OW31303   6.482   0.082   2.498
10135SOL    HW131304   6.493   0.139   2.579
10135SOL    HW231305   6.488   7.008   2.524
10136SOL     OW31306   4.779   2.218   2.649
10136SOL    HW131307   4.780   2.133   2.701
10136SOL    HW231308   4.872   2.251   2.636
10137SOL     OW31309   6.063   5.446   5.778
10137SOL    HW131310   5.981   5.398   5.747
10137SOL    HW231311   6.126   5.380   5.820
10138SOL     OW31312   0.523   2.531   0.908
10138SOL    HW131313   0.504   2.614   0.855
10138SOL    HW231314   0.613   2.538   0.951
10139SOL     OW31315   2.992   2.814   6.639
10139SOL    HW131316   3.000   2.763   6.725
10139SOL    HW231317   2.896   2.827   6.617
10140SOL     OW31318   0.591   6.320   5.724
10140SOL    HW131319   0.677   6.365   5.698
10140SOL    HW231320   0.604   6.271   5.810
10141SOL     OW31321   2.008   2.759   4.221
10141SOL    HW131322   2.014   2.765   4.321
10141SOL    HW231323   1.915   2.733   4.194
10142SOL     OW31324   3.817   6.578   3.709
10142SOL    HW131325   3.906   6.566   3.665
10142SOL    HW231326   3.779   6.488   3.732
10143SOL     OW31327   5.129   2.858   6.570
10143SOL    HW131328   5.075   2.907   6.501
10143SOL    HW231329   5.076   2.850   6.654
10144SOL     OW31330   4.006   6.737   6.744
10144SOL    HW131331   4.021   6.661   6.807
10144SOL    HW231332   3.954   6.809   6.789
10145SOL     OW31333   5.467   6.828   6.160
10145SOL    HW131334   5.547   6.883   6.135
10145SOL    HW231335   5.497   6.745   6.208
10146SOL     OW31336   0.123   2.998   4.598
10146SOL    HW131337   0.128   2.905   4.637
10146SOL    HW231338   0.098   2.992   4.502
10147SOL     OW31339   4.574   5.556   5.676
10147SOL    HW131340   4.483   5.520   5.655
10147SOL    HW231341   4.568   5.654   5.696
10148SOL     OW31342   0.418   4.194   1.074
10148SOL    HW131343   0.507   4.237   1.058
10148SOL    HW231344   0.351   4.230   1.009
10149SOL     OW31345   3.437   3.729   0.831
10149SOL    HW131346   3.455   3.727   0.930
10149SOL    HW231347   3.463   3.819   0.795
10150SOL     OW31348   4.046   4.260   0.856
10150SOL    HW131349   4.121   4.195   0.841
10150SOL    HW231350   3.961   4.221   0.821
10151SOL     OW31351   6.027   6.906   5.827
10151SOL    HW131352   6.023   6.823   5.881
10151SOL    HW231353   6.071   6.979   5.880
10152SOL     OW31354   3.966   0.007   2.334
10152SOL    HW131355   3.984   6.988   2.245
10152SOL    HW231356   3.884   0.064   2.329
10153SOL     OW31357   4.580   4.616   2.520
10153SOL    HW131358   4.594   4.711   2.492
10153SOL    HW231359   4.571   4.559   2.439
10154SOL     OW31360   4.827   5.735   5.323
10154SOL    HW131361   4.789   5.645   5.341
10154SOL    HW231362   4.757   5.805   5.334
10155SOL     OW31363   4.239   1.878   4.461
10155SOL    HW131364   4.267   1.900   4.368
10155SOL    HW231365   4.312   1.824   4.505
10156SOL     OW31366   4.983   1.777   0.588
10156SOL    HW131367   5.015   1.771   0.683
10156SOL    HW231368   5.020   1.860   0.546
10157SOL     OW31369   0.444   3.499   1.490
10157SOL    HW131370   0.386   3.533   1.564
10157SOL    HW231371   0.402   3.419   1.448
10158SOL     OW31372   5.973   4.813   0.147
10158SOL    HW131373   5.986   4.732   0.089
10158SOL    HW231374   6.059   4.835   0.193
10159SOL     OW31375   3.426   2.828   2.435
10159SOL    HW131376   3.521   2.814   2.463
10159SOL    HW231377   3.373   2.863   2.513
10160SOL     OW31378   0.559   4.901   2.861
10160SOL    HW131379   0.646   4.852   2.851
10160SOL    HW231380   0.484   4.835   2.860
10161SOL     OW31381   5.244   3.737   5.043
10161SOL    HW131382   5.216   3.730   4.947
10161SOL    HW231383   5.341   3.711   5.052
10162SOL     OW31384   1.244   3.065   2.256
10162SOL    HW131385   1.281   3.115   2.334
10162SOL    HW231386   1.282   3.103   2.171
10163SOL     OW31387   2.409   6.186   5.241
10163SOL    HW131388   2.399   6.112   5.175
10163SOL    HW231389   2.356   6.164   5.323
10164SOL     OW31390   1.035   1.324   3.582
10164SOL    HW131391   0.977   1.322   3.663
10164SOL    HW231392   1.116   1.268   3.598
10165SOL     OW31393   0.190   3.655   4.267
10165SOL    HW131394   0.094   3.635   4.248
10165SOL    HW231395   0.211   3.631   4.362
10166SOL     OW31396   2.242   0.571   1.554
10166SOL    HW131397   2.244   0.649   1.615
10166SOL    HW231398   2.153   0.526   1.559
10167SOL     OW31399   2.361   1.155   6.357
10167SOL    HW131400   2.295   1.214   6.311
10167SOL    HW231401   2.418   1.210   6.418
10168SOL     OW31402   6.409   0.254   6.296
10168SOL    HW131403   6.349   0.332   6.279
10168SOL    HW231404   6.379   0.176   6.242
10169SOL     OW31405   4.863   3.575   3.700
10169SOL    HW131406   4.818   3.661   3.675
10169SOL    HW231407   4.920   3.544   3.624
10170SOL     OW31408   5.722   5.285   0.210
10170SOL    HW131409   5.720   5.190   0.179
10170SOL    HW231410   5.659   5.339   0.154
10171SOL     OW31411   2.191   3.902   6.091
10171SOL    HW131412   2.207   3.804   6.102
10171SOL    HW231413   2.241   3.953   6.162
10172SOL     OW31414   6.105   0.548   3.081
10172SOL    HW131415   6.096   0.537   2.982
10172SOL    HW231416   6.148   0.467   3.120
10173SOL     OW31417   3.814   4.139   4.813
10173SOL    HW131418   3.854   4.209   4.755
10173SOL    HW231419   3.716   4.155   4.824
10174SOL     OW31420   4.458   5.389   2.617
10174SOL    HW131421   4.516   5.404   2.537
10174SOL    HW231422   4.466   5.294   2.648
10175SOL     OW31423   0.153   0.481   3.928
10175SOL    HW131424   0.127   0.438   4.014
10175SOL    HW231425   0.155   0.412   3.856
10176SOL     OW31426   6.822   1.327   5.527
10176SOL    HW131427   6.724   1.319   5.540
10176SOL    HW231428   6.858   1.243   5.485
10177SOL     OW31429   3.023   0.943   3.873
10177SOL    HW131430   3.003   0.850   3.840
10177SOL    HW231431   3.034   0.941   3.972
10178SOL     OW31432   0.882   1.859   0.895
10178SOL    HW131433   0.802   1.888   0.843
10178SOL    HW231434   0.869   1.880   0.992
10179SOL     OW31435   0.444   3.993   0.771
10179SOL    HW131436   0.458   3.958   0.864
10179SOL    HW231437   0.476   3.926   0.705
10180SOL     OW31438   4.291   6.720   5.703
10180SOL    HW131439   4.233   6.689   5.778
10180SOL    HW231440   4.372   6.766   5.740
10181SOL     OW31441   6.154   3.527   2.376
10181SOL    HW131442   6.137   3.615   2.420
10181SOL    HW231443   6.209   3.470   2.436
10182SOL     OW31444   5.213   1.414   1.385
10182SOL    HW131445   5.243   1.508   1.403
10182SOL    HW231446   5.292   1.357   1.364
10183SOL     OW31447   6.216   0.982   6.490
10183SOL    HW131448   6.311   0.966   6.514
10183SOL    HW231449   6.167   1.019   6.570
10184SOL     OW31450   5.877   1.734   5.701
10184SOL    HW131451   5.847   1.638   5.697
10184SOL    HW231452   5.809   1.792   5.656
10185SOL     OW31453   4.193   5.436   2.451
10185SOL    HW131454   4.246   5.400   2.528
10185SOL    HW231455   4.181   5.364   2.383
10186SOL     OW31456   3.880   3.342   5.974
10186SOL    HW131457   3.900   3.346   6.072
10186SOL    HW231458   3.785   3.316   5.961
10187SOL     OW31459   2.017   3.911   6.329
10187SOL    HW131460   2.039   3.994   6.278
10187SOL    HW231461   2.046   3.830   6.277
10188SOL     OW31462   3.207   0.587   6.138
10188SOL    HW131463   3.144   0.644   6.085
10188SOL    HW231464   3.154   0.530   6.201
10189SOL     OW31465   1.303   1.839   5.932
10189SOL    HW131466   1.275   1.840   5.836
10189SOL    HW231467   1.301   1.933   5.968
10190SOL     OW31468   4.477   5.203   1.046
10190SOL    HW131469   4.407   5.246   0.988
10190SOL    HW231470   4.522   5.129   0.995
10191SOL     OW31471   5.522   6.601   6.299
10191SOL    HW131472   5.493   6.518   6.252
10191SOL    HW231473   5.528   6.584   6.397
10192SOL     OW31474   1.768   1.642   3.862
10192SOL    HW131475   1.860   1.621   3.831
10192SOL    HW231476   1.717   1.557   3.875
10193SOL     OW31477   3.678   3.383   3.736
10193SOL    HW131478   3.661   3.291   3.701
10193SOL    HW231479   3.712   3.377   3.829
10194SOL     OW31480   2.526   0.298   3.434
10194SOL    HW131481   2.569   0.210   3.455
10194SOL    HW231482   2.448   0.282   3.373
10195SOL     OW31483   4.255   6.349   2.513
10195SOL    HW131484   4.229   6.387   2.424
10195SOL    HW231485   4.354   6.339   2.517
10196SOL     OW31486   6.136   2.230   3.709
10196SOL    HW131487   6.159   2.160   3.642
10196SOL    HW231488   6.164   2.200   3.800
10197SOL     OW31489   5.268   0.269   1.903
10197SOL    HW131490   5.170   0.257   1.910
10197SOL    HW231491   5.314   0.215   1.974
10198SOL     OW31492   2.340   6.488   1.048
10198SOL    HW131493   2.304   6.567   1.097
10198SOL    HW231494   2.434   6.469   1.077
10199SOL     OW31495   0.950   1.591   0.943
10199SOL    HW131496   0.912   1.677   0.909
10199SOL    HW231497   0.921   1.576   1.038
10200SOL     OW31498   6.029   4.229   5.170
10200SOL    HW131499   6.084   4.151   5.140
10200SOL    HW231500   5.980   4.205   5.253
10201SOL     OW31501   1.648   5.505   2.645
10201SOL    HW131502   1.683   5.427   2.592
10201SOL    HW231503   1.649   5.587   2.588
10202SOL     OW31504   0.602   3.077   2.524
10202SOL    HW131505   0.506   3.086   2.551
10202SOL    HW231506   0.639   2.993   2.563
10203SOL     OW31507   1.069   3.535   2.505
10203SOL    HW131508   0.993   3.597   2.483
10203SOL    HW231509   1.139   3.542   2.435
10204SOL     OW31510   2.966   4.839   4.803
10204SOL    HW131511   2.906   4.759   4.806
10204SOL    HW231512   2.913   4.921   4.824
10205SOL     OW31513   4.582   1.132   2.849
10205SOL    HW131514   4.517   1.059   2.830
10205SOL    HW231515   4.648   1.102   2.918
10206SOL     OW31516   5.234   6.979   6.209
10206SOL    HW131517   5.330   6.951   6.219
10206SOL    HW231518   5.175   6.911   6.253
10207SOL     OW31519   4.939   0.533   2.607
10207SOL    HW131520   4.961   0.445   2.566
10207SOL    HW231521   4.846   0.531   2.643
10208SOL     OW31522   5.851   4.504   5.110
10208SOL    HW131523   5.851   4.554   5.024
10208SOL    HW231524   5.943   4.468   5.127
10209SOL     OW31525   5.917   0.048   6.088
10209SOL    HW131526   5.944   0.087   6.000
10209SOL    HW231527   5.817   0.041   6.092
10210SOL     OW31528   5.128   5.467   1.768
10210SOL    HW131529   5.113   5.539   1.835
10210SOL    HW231530   5.041   5.438   1.729
10211SOL     OW31531   4.027   5.526   5.211
10211SOL    HW131532   4.000   5.532   5.115
10211SOL    HW231533   4.096   5.595   5.231
10212SOL     OW31534   6.522   0.668   5.397
10212SOL    HW131535   6.431   0.703   5.374
10212SOL    HW231536   6.513   0.575   5.433
10213SOL     OW31537   6.281   0.672   3.238
10213SOL    HW131538   6.193   0.648   3.196
10213SOL    HW231539   6.283   0.770   3.258
10214SOL     OW31540   0.151   0.439   2.152
10214SOL    HW131541   0.111   0.450   2.061
10214SOL    HW231542   0.125   0.349   2.189
10215SOL     OW31543   3.578   3.701   0.357
10215SOL    HW131544   3.542   3.662   0.441
10215SOL    HW231545   3.540   3.654   0.278
10216SOL     OW31546   4.948   0.071   1.358
10216SOL    HW131547   4.942   0.002   1.431
10216SOL    HW231548   4.990   0.154   1.394
10217SOL     OW31549   2.886   1.869   5.315
10217SOL    HW131550   2.864   1.870   5.412
10217SOL    HW231551   2.959   1.935   5.297
10218SOL     OW31552   2.193   2.102   0.552
10218SOL    HW131553   2.199   2.094   0.651
10218SOL    HW231554   2.098   2.119   0.526
10219SOL     OW31555   0.960   3.718   6.921
10219SOL    HW131556   0.979   3.731   7.018
10219SOL    HW231557   0.864   3.691   6.909
10220SOL     OW31558   4.201   2.034   0.759
10220SOL    HW131559   4.252   1.955   0.724
10220SOL    HW231560   4.265   2.102   0.796
10221SOL     OW31561   2.878   0.259   5.081
10221SOL    HW131562   2.839   0.167   5.080
10221SOL    HW231563   2.807   0.325   5.104
10222SOL     OW31564   1.477   5.373   5.577
10222SOL    HW131565   1.482   5.273   5.568
10222SOL    HW231566   1.511   5.399   5.667
10223SOL     OW31567   0.250   4.148   0.164
10223SOL    HW131568   0.220   4.173   0.256
10223SOL    HW231569   0.261   4.230   0.108
10224SOL     OW31570   1.671   6.732   4.522
10224SOL    HW131571   1.757   6.684   4.535
10224SOL    HW231572   1.643   6.775   4.608
10225SOL     OW31573   6.421   6.149   4.239
10225SOL    HW131574   6.450   6.231   4.191
10225SOL    HW231575   6.413   6.073   4.174
10226SOL     OW31576   1.168   2.043   0.866
10226SOL    HW131577   1.222   1.991   0.800
10226SOL    HW231578   1.225   2.068   0.944
10227SOL     OW31579   5.659   5.215   6.352
10227SOL    HW131580   5.676   5.135   6.408
10227SOL    HW231581   5.586   5.196   6.287
10228SOL     OW31582   1.068   5.178   3.358
10228SOL    HW131583   0.973   5.175   3.329
10228SOL    HW231584   1.116   5.098   3.325
10229SOL     OW31585   1.576   0.111   2.306
10229SOL    HW131586   1.499   0.125   2.367
10229SOL    HW231587   1.661   0.139   2.352
10230SOL     OW31588   6.768   0.081   3.818
10230SOL    HW131589   6.734   0.151   3.755
10230SOL    HW231590   6.785   0.123   3.907
10231SOL     OW31591   5.223   0.353   4.244
10231SOL    HW131592   5.282   0.399   4.177
10231SOL    HW231593   5.253   0.377   4.336
10232SOL     OW31594   3.483   1.898   4.815
10232SOL    HW131595   3.473   1.892   4.715
10232SOL    HW231596   3.568   1.853   4.842
10233SOL     OW31597   4.618   1.295   5.965
10233SOL    HW131598   4.550   1.246   6.019
10233SOL    HW231599   4.573   1.338   5.886
10234SOL     OW31600   5.535   6.181   1.815
10234SOL    HW131601   5.510   6.253   1.879
10234SOL    HW231602   5.614   6.210   1.761
10235SOL     OW31603   5.621   1.169   6.579
10235SOL    HW131604   5.644   1.177   6.482
10235SOL    HW231605   5.586   1.078   6.598
10236SOL     OW31606   2.507   5.656   1.978
10236SOL    HW131607   2.413   5.629   1.996
10236SOL    HW231608   2.560   5.652   2.063
10237SOL     OW31609   6.543   2.739   2.742
10237SOL    HW131610   6.602   2.801   2.691
10237SOL    HW231611   6.593   2.654   2.761
10238SOL     OW31612   5.300   4.481   4.518
10238SOL    HW131613   5.306   4.499   4.420
10238SOL    HW231614   5.277   4.565   4.566
10239SOL     OW31615   0.042   4.277   3.938
10239SOL    HW131616   0.044   4.179   3.955
10239SOL    HW231617   0.098   4.324   4.006
10240SOL     OW31618   6.696   4.438   3.734
10240SOL    HW131619   6.796   4.444   3.725
10240SOL    HW231620   6.654   4.467   3.648
10241SOL     OW31621   2.315   1.305   2.538
10241SOL    HW131622   2.320   1.357   2.623
10241SOL    HW231623   2.370   1.221   2.546
10242SOL     OW31624   6.742   0.028   6.136
10242SOL    HW131625   6.687   0.044   6.217
10242SOL    HW231626   6.789   0.112   6.109
10243SOL     OW31627   1.607   5.481   1.921
10243SOL    HW131628   1.650   5.419   1.855
10243SOL    HW231629   1.638   5.575   1.903
10244SOL     OW31630   2.269   6.445   6.775
10244SOL    HW131631   2.305   6.427   6.866
10244SOL    HW231632   2.245   6.542   6.767
10245SOL     OW31633   2.418   2.225   0.127
10245SOL    HW131634   2.430   2.208   0.225
10245SOL    HW231635   2.498   2.191   0.077
10246SOL     OW31636   3.554   3.899   4.735
10246SOL    HW131637   3.540   3.993   4.768
10246SOL    HW231638   3.468   3.849   4.738
10247SOL     OW31639   0.899   4.946   5.342
10247SOL    HW131640   0.963   4.878   5.306
10247SOL    HW231641   0.950   5.023   5.380
10248SOL     OW31642   4.445   0.246   1.629
10248SOL    HW131643   4.540   0.261   1.604
10248SOL    HW231644   4.387   0.314   1.583
10249SOL     OW31645   4.573   1.211   6.837
10249SOL    HW131646   4.539   1.232   6.928
10249SOL    HW231647   4.672   1.196   6.841
10250SOL     OW31648   6.551   0.860   0.083
10250SOL    HW131649   6.490   0.805   0.138
10250SOL    HW231650   6.510   0.950   0.067
10251SOL     OW31651   2.928   4.066   0.170
10251SOL    HW131652   2.919   4.144   0.107
10251SOL    HW231653   2.841   4.017   0.174
10252SOL     OW31654   6.998   5.273   1.784
10252SOL    HW131655   0.046   5.313   1.844
10252SOL    HW231656   6.915   5.256   1.838
10253SOL     OW31657   3.613   5.270   6.444
10253SOL    HW131658   3.654   5.347   6.492
10253SOL    HW231659   3.513   5.274   6.453
10254SOL     OW31660   2.586   2.132   4.784
10254SOL    HW131661   2.523   2.209   4.792
10254SOL    HW231662   2.551   2.054   4.837
10255SOL     OW31663   3.267   6.081   2.716
10255SOL    HW131664   3.242   6.049   2.625
10255SOL    HW231665   3.365   6.101   2.719
10256SOL     OW31666   5.858   6.642   6.383
10256SOL    HW131667   5.908   6.710   6.329
10256SOL    HW231668   5.920   6.603   6.452
10257SOL     OW31669   1.054   6.191   5.843
10257SOL    HW131670   0.994   6.111   5.842
10257SOL    HW231671   1.049   6.237   5.754
10258SOL     OW31672   4.076   0.940   2.908
10258SOL    HW131673   4.117   1.020   2.864
10258SOL    HW231674   4.022   0.969   2.987
10259SOL     OW31675   6.914   4.055   3.131
10259SOL    HW131676   6.933   4.147   3.099
10259SOL    HW231677   6.969   3.989   3.079
10260SOL     OW31678   1.084   0.286   1.518
10260SOL    HW131679   1.078   0.374   1.470
10260SOL    HW231680   1.000   0.271   1.569
10261SOL     OW31681   1.486   6.053   2.044
10261SOL    HW131682   1.524   5.972   2.087
10261SOL    HW231683   1.559   6.105   2.000
10262SOL     OW31684   1.341   5.483   4.823
10262SOL    HW131685   1.418   5.544   4.842
10262SOL    HW231686   1.367   5.389   4.844
10263SOL     OW31687   6.108   2.113   6.388
10263SOL    HW131688   6.185   2.170   6.359
10263SOL    HW231689   6.095   2.121   6.486
10264SOL     OW31690   0.332   0.645   6.294
10264SOL    HW131691   0.374   0.565   6.337
10264SOL    HW231692   0.237   0.624   6.271
10265SOL     OW31693   4.264   1.829   2.200
10265SOL    HW131694   4.305   1.874   2.279
10265SOL    HW231695   4.331   1.825   2.125
10266SOL     OW31696   3.021   4.596   6.765
10266SOL    HW131697   3.075   4.576   6.847
10266SOL    HW231698   2.946   4.657   6.789
10267SOL     OW31699   6.942   2.162   6.193
10267SOL    HW131700   6.927   2.177   6.096
10267SOL    HW231701   6.854   2.157   6.240
10268SOL     OW31702   6.026   5.124   1.770
10268SOL    HW131703   6.066   5.201   1.721
10268SOL    HW231704   6.094   5.052   1.780
10269SOL     OW31705   2.868   2.815   6.022
10269SOL    HW131706   2.946   2.814   5.959
10269SOL    HW231707   2.901   2.820   6.116
10270SOL     OW31708   2.114   5.968   0.782
10270SOL    HW131709   2.093   5.986   0.686
10270SOL    HW231710   2.211   5.944   0.791
10271SOL     OW31711   4.159   4.659   0.832
10271SOL    HW131712   4.203   4.585   0.882
10271SOL    HW231713   4.101   4.622   0.760
10272SOL     OW31714   0.619   0.881   5.884
10272SOL    HW131715   0.710   0.880   5.925
10272SOL    HW231716   0.616   0.948   5.810
10273SOL     OW31717   4.534   6.096   4.342
10273SOL    HW131718   4.540   6.005   4.383
10273SOL    HW231719   4.562   6.092   4.246
10274SOL     OW31720   1.273   5.772   5.818
10274SOL    HW131721   1.229   5.815   5.738
10274SOL    HW231722   1.208   5.711   5.863
10275SOL     OW31723   1.403   6.382   2.341
10275SOL    HW131724   1.395   6.306   2.276
10275SOL    HW231725   1.494   6.379   2.383
10276SOL     OW31726   6.109   5.340   6.432
10276SOL    HW131727   6.072   5.402   6.502
10276SOL    HW231728   6.155   5.394   6.362
10277SOL     OW31729   2.361   5.829   4.105
10277SOL    HW131730   2.375   5.928   4.118
10277SOL    HW231731   2.267   5.805   4.129
10278SOL     OW31732   5.932   0.479   5.607
10278SOL    HW131733   5.849   0.508   5.560
10278SOL    HW231734   6.008   0.539   5.582
10279SOL     OW31735   3.467   6.830   3.936
10279SOL    HW131736   3.547   6.853   3.881
10279SOL    HW231737   3.409   6.912   3.946
10280SOL     OW31738   2.256   3.445   6.425
10280SOL    HW131739   2.172   3.499   6.423
10280SOL    HW231740   2.329   3.498   6.467
10281SOL     OW31741   4.338   0.763   3.758
10281SOL    HW131742   4.392   0.723   3.833
10281SOL    HW231743   4.359   0.715   3.673
10282SOL     OW31744   0.803   1.700   4.327
10282SOL    HW131745   0.750   1.744   4.399
10282SOL    HW231746   0.899   1.693   4.356
10283SOL     OW31747   1.121   3.854   6.554
10283SOL    HW131748   1.070   3.776   6.518
10283SOL    HW231749   1.204   3.822   6.599
10284SOL     OW31750   5.372   2.735   5.285
10284SOL    HW131751   5.421   2.820   5.303
10284SOL    HW231752   5.435   2.658   5.293
10285SOL     OW31753   6.282   0.010   1.114
10285SOL    HW131754   6.269   7.016   1.212
10285SOL    HW231755   6.194   0.014   1.068
10286SOL     OW31756   4.196   1.075   3.505
10286SOL    HW131757   4.220   1.153   3.563
10286SOL    HW231758   4.099   1.080   3.483
10287SOL     OW31759   2.977   6.069   1.511
10287SOL    HW131760   2.979   6.047   1.413
10287SOL    HW231761   3.038   6.007   1.560
10288SOL     OW31762   5.798   6.604   3.946
10288SOL    HW131763   5.704   6.572   3.935
10288SOL    HW231764   5.844   6.603   3.857
10289SOL     OW31765   3.065   0.737   1.589
10289SOL    HW131766   3.163   0.751   1.603
10289SOL    HW231767   3.046   0.639   1.589
10290SOL     OW31768   3.523   4.146   2.110
10290SOL    HW131769   3.534   4.245   2.120
10290SOL    HW231770   3.577   4.113   2.033
10291SOL     OW31771   3.446   0.426   5.642
10291SOL    HW131772   3.363   0.374   5.621
10291SOL    HW231773   3.503   0.375   5.706
10292SOL     OW31774   0.619   1.186   4.917
10292SOL    HW131775   0.535   1.236   4.896
10292SOL    HW231776   0.615   1.096   4.874
10293SOL     OW31777   2.254   5.868   3.362
10293SOL    HW131778   2.222   5.961   3.343
10293SOL    HW231779   2.306   5.867   3.447
10294SOL     OW31780   5.930   1.621   3.210
10294SOL    HW131781   5.986   1.698   3.243
10294SOL    HW231782   5.991   1.546   3.184
10295SOL     OW31783   0.638   5.489   6.105
10295SOL    HW131784   0.601   5.573   6.145
10295SOL    HW231785   0.637   5.416   6.173
10296SOL     OW31786   6.437   2.444   0.193
10296SOL    HW131787   6.497   2.404   0.124
10296SOL    HW231788   6.490   2.470   0.274
10297SOL     OW31789   1.708   5.400   4.932
10297SOL    HW131790   1.620   5.353   4.936
10297SOL    HW231791   1.781   5.333   4.947
10298SOL     OW31792   4.920   3.471   3.945
10298SOL    HW131793   5.016   3.500   3.947
10298SOL    HW231794   4.880   3.495   3.856
10299SOL     OW31795   5.125   4.615   3.059
10299SOL    HW131796   5.204   4.575   3.107
10299SOL    HW231797   5.045   4.556   3.071
10300SOL     OW31798   1.118   4.547   2.811
10300SOL    HW131799   1.058   4.475   2.846
10300SOL    HW231800   1.063   4.628   2.789
10301SOL     OW31801   5.629   1.409   1.487
10301SOL    HW131802   5.698   1.348   1.448
10301SOL    HW231803   5.671   1.466   1.558
10302SOL     OW31804   1.874   5.193   3.308
10302SOL    HW131805   1.794   5.206   3.250
10302SOL    HW231806   1.885   5.272   3.369
10303SOL     OW31807   3.182   3.092   1.232
10303SOL    HW131808   3.109   3.144   1.275
10303SOL    HW231809   3.261   3.086   1.294
10304SOL     OW31810   6.531   6.591   2.871
10304SOL    HW131811   6.583   6.672   2.899
10304SOL    HW231812   6.580   6.543   2.799
10305SOL     OW31813   2.032   5.749   1.209
10305SOL    HW131814   2.060   5.834   1.163
10305SOL    HW231815   2.075   5.671   1.164
10306SOL     OW31816   4.404   5.781   7.018
10306SOL    HW131817   4.485   5.725   7.001
10306SOL    HW231818   4.408   5.817   0.089
10307SOL     OW31819   2.164   1.296   5.737
10307SOL    HW131820   2.126   1.369   5.794
10307SOL    HW231821   2.168   1.212   5.790
10308SOL     OW31822   3.482   5.743   3.723
10308SOL    HW131823   3.516   5.837   3.723
10308SOL    HW231824   3.531   5.689   3.654
10309SOL     OW31825   0.293   6.554   3.457
10309SOL    HW131826   0.332   6.461   3.456
10309SOL    HW231827   0.197   6.549   3.483
10310SOL     OW31828   3.545   3.992   3.619
10310SOL    HW131829   3.621   3.980   3.684
10310SOL    HW231830   3.532   3.907   3.568
10311SOL     OW31831   7.020   5.484   0.317
10311SOL    HW131832   6.975   5.507   0.403
10311SOL    HW231833   0.097   5.496   0.326
10312SOL     OW31834   1.740   4.527   1.165
10312SOL    HW131835   1.662   4.495   1.111
10312SOL    HW231836   1.825   4.495   1.123
10313SOL     OW31837   5.369   6.744   3.141
10313SOL    HW131838   5.369   6.708   3.048
10313SOL    HW231839   5.374   6.844   3.138
10314SOL     OW31840   6.409   5.836   0.588
10314SOL    HW131841   6.462   5.901   0.641
10314SOL    HW231842   6.354   5.884   0.520
10315SOL     OW31843   6.236   5.404   4.526
10315SOL    HW131844   6.234   5.304   4.521
10315SOL    HW231845   6.253   5.442   4.435
10316SOL     OW31846   6.946   4.697   2.893
10316SOL    HW131847   6.996   4.774   2.853
10316SOL    HW231848   6.972   4.687   2.989
10317SOL     OW31849   3.518   4.673   0.330
10317SOL    HW131850   3.498   4.683   0.232
10317SOL    HW231851   3.520   4.576   0.354
10318SOL     OW31852   6.398   5.512   1.940
10318SOL    HW131853   6.345   5.440   1.984
10318SOL    HW231854   6.338   5.570   1.885
10319SOL     OW31855   6.242   6.538   3.220
10319SOL    HW131856   6.170   6.506   3.159
10319SOL    HW231857   6.280   6.623   3.184
10320SOL     OW31858   5.800   6.654   1.715
10320SOL    HW131859   5.880   6.713   1.702
10320SOL    HW231860   5.787   6.596   1.634
10321SOL     OW31861   4.471   5.624   4.225
10321SOL    HW131862   4.499   5.683   4.300
10321SOL    HW231863   4.371   5.616   4.224
10322SOL     OW31864   6.041   2.614   6.925
10322SOL    HW131865   6.016   2.672   7.003
10322SOL    HW231866   6.041   2.670   6.842
10323SOL     OW31867   5.612   3.090   4.687
10323SOL    HW131868   5.699   3.136   4.703
10323SOL    HW231869   5.592   3.029   4.765
10324SOL     OW31870   2.899   3.478   3.976
10324SOL    HW131871   2.995   3.503   3.960
10324SOL    HW231872   2.892   3.381   3.998
10325SOL     OW31873   0.159   3.869   3.212
10325SOL    HW131874   0.150   3.826   3.302
10325SOL    HW231875   0.218   3.813   3.155
10326SOL     OW31876   5.797   1.799   0.708
10326SOL    HW131877   5.748   1.779   0.623
10326SOL    HW231878   5.782   1.724   0.773
10327SOL     OW31879   6.903   0.975   3.343
10327SOL    HW131880   6.929   0.933   3.256
10327SOL    HW231881   6.985   0.996   3.396
10328SOL     OW31882   6.101   2.668   1.797
10328SOL    HW131883   6.157   2.737   1.842
10328SOL    HW231884   6.023   2.712   1.752
10329SOL     OW31885   3.786   6.900   2.496
10329SOL    HW131886   3.723   6.846   2.440
10329SOL    HW231887   3.868   6.920   2.444
10330SOL     OW31888   4.079   5.294   1.438
10330SOL    HW131889   4.143   5.218   1.437
10330SOL    HW231890   4.129   5.380   1.427
10331SOL     OW31891   6.101   0.769   3.566
10331SOL    HW131892   6.080   0.691   3.508
10331SOL    HW231893   6.198   0.766   3.592
10332SOL     OW31894   0.255   2.942   6.438
10332SOL    HW131895   0.170   2.910   6.396
10332SOL    HW231896   0.308   2.993   6.370
10333SOL     OW31897   4.553   4.541   4.495
10333SOL    HW131898   4.592   4.489   4.571
10333SOL    HW231899   4.570   4.493   4.409
10334SOL     OW31900   1.445   4.561   5.374
10334SOL    HW131901   1.391   4.569   5.457
10334SOL    HW231902   1.497   4.475   5.376
10335SOL     OW31903   2.346   5.105   1.704
10335SOL    HW131904   2.380   5.072   1.616
10335SOL    HW231905   2.390   5.055   1.778
10336SOL     OW31906   4.216   6.943   2.780
10336SOL    HW131907   4.184   6.863   2.831
10336SOL    HW231908   4.198   6.929   2.682
10337SOL     OW31909   0.512   5.272   5.359
10337SOL    HW131910   0.587   5.294   5.296
10337SOL    HW231911   0.473   5.184   5.335
10338SOL     OW31912   3.390   5.663   3.443
10338SOL    HW131913   3.334   5.581   3.431
10338SOL    HW231914   3.357   5.715   3.521
10339SOL     OW31915   3.135   5.452   0.827
10339SOL    HW131916   3.062   5.387   0.848
10339SOL    HW231917   3.192   5.465   0.908
10340SOL     OW31918   2.049   0.162   0.127
10340SOL    HW131919   2.141   0.137   0.094
10340SOL    HW231920   2.018   0.244   0.079
10341SOL     OW31921   1.817   1.361   2.557
10341SOL    HW131922   1.720   1.350   2.537
10341SOL    HW231923   1.853   1.440   2.508
10342SOL     OW31924   2.088   6.124   4.676
10342SOL    HW131925   2.001   6.145   4.631
10342SOL    HW231926   2.163   6.161   4.621
10343SOL     OW31927   2.161   3.141   5.008
10343SOL    HW131928   2.190   3.234   4.986
10343SOL    HW231929   2.239   3.079   5.001
10344SOL     OW31930   3.937   4.714   5.742
10344SOL    HW131931   3.921   4.653   5.819
10344SOL    HW231932   3.963   4.805   5.776
10345SOL     OW31933   1.715   1.504   6.754
10345SOL    HW131934   1.725   1.509   6.655
10345SOL    HW231935   1.644   1.437   6.777
10346SOL     OW31936   5.015   5.511   6.798
10346SOL    HW131937   5.107   5.544   6.816
10346SOL    HW231938   4.950   5.559   6.856
10347SOL     OW31939   5.326   1.681   2.351
10347SOL    HW131940   5.304   1.637   2.264
10347SOL    HW231941   5.268   1.644   2.423
10348SOL     OW31942   0.071   5.447   5.697
10348SOL    HW131943   0.080   5.400   5.609
10348SOL    HW231944   0.162   5.456   5.739
10349SOL     OW31945   6.893   2.143   0.609
10349SOL    HW131946   6.805   2.181   0.580
10349SOL    HW231947   6.960   2.217   0.616
10350SOL     OW31948   2.279   4.236   4.804
10350SOL    HW131949   2.339   4.165   4.839
10350SOL    HW231950   2.233   4.203   4.722
10351SOL     OW31951   4.633   4.473   4.966
10351SOL    HW131952   4.536   4.476   4.989
10351SOL    HW231953   4.685   4.523   5.035
10352SOL     OW31954   5.437   1.384   0.183
10352SOL    HW131955   5.486   1.431   0.110
10352SOL    HW231956   5.340   1.409   0.180
10353SOL     OW31957   6.349   2.822   3.924
10353SOL    HW131958   6.429   2.790   3.975
10353SOL    HW231959   6.355   2.791   3.829
10354SOL     OW31960   0.138   3.096   1.192
10354SOL    HW131961   0.172   3.025   1.255
10354SOL    HW231962   0.207   3.167   1.182
10355SOL     OW31963   0.674   1.909   1.353
10355SOL    HW131964   0.665   2.008   1.338
10355SOL    HW231965   0.704   1.893   1.448
10356SOL     OW31966   6.280   3.546   6.192
10356SOL    HW131967   6.200   3.527   6.249
10356SOL    HW231968   6.292   3.472   6.125
10357SOL     OW31969   1.091   2.704   5.536
10357SOL    HW131970   1.083   2.674   5.631
10357SOL    HW231971   1.187   2.716   5.512
10358SOL     OW31972   0.484   2.224   2.960
10358SOL    HW131973   0.553   2.296   2.952
10358SOL    HW231974   0.420   2.231   2.884
10359SOL     OW31975   5.963   1.953   2.515
10359SOL    HW131976   5.992   2.033   2.567
10359SOL    HW231977   6.008   1.872   2.551
10360SOL     OW31978   6.074   4.150   1.555
10360SOL    HW131979   6.086   4.170   1.652
10360SOL    HW231980   5.987   4.101   1.542
10361SOL     OW31981   0.436   1.824   2.147
10361SOL    HW131982   0.518   1.767   2.153
10361SOL    HW231983   0.429   1.864   2.056
10362SOL     OW31984   1.279   4.993   1.401
10362SOL    HW131985   1.367   4.980   1.355
10362SOL    HW231986   1.252   5.090   1.393
10363SOL     OW31987   5.312   4.383   6.901
10363SOL    HW131988   5.348   4.447   6.833
10363SOL    HW231989   5.212   4.382   6.897
10364SOL     OW31990   5.872   4.497   1.996
10364SOL    HW131991   5.824   4.431   1.939
10364SOL    HW231992   5.812   4.526   2.071
10365SOL     OW31993   5.703   5.783   0.491
10365SOL    HW131994   5.737   5.877   0.494
10365SOL    HW231995   5.669   5.763   0.399
10366SOL     OW31996   2.735   5.810   3.528
10366SOL    HW131997   2.778   5.864   3.456
10366SOL    HW231998   2.704   5.870   3.602
10367SOL     OW31999   6.230   0.773   1.424
10367SOL    HW132000   6.283   0.704   1.375
10367SOL    HW232001   6.292   0.842   1.463
10368SOL     OW32002   2.649   5.921   2.575
10368SOL    HW132003   2.662   5.826   2.548
10368SOL    HW232004   2.552   5.938   2.593
10369SOL     OW32005   2.603   0.207   6.565
10369SOL    HW132006   2.640   0.194   6.657
10369SOL    HW232007   2.565   0.299   6.556
10370SOL     OW32008   1.099   0.926   5.957
10370SOL    HW132009   1.189   0.925   6.001
10370SOL    HW232010   1.064   1.019   5.955
10371SOL     OW32011   3.757   5.861   2.970
10371SOL    HW132012   3.736   5.936   3.033
10371SOL    HW232013   3.834   5.886   2.913
10372SOL     OW32014   2.985   6.502   2.156
10372SOL    HW132015   2.948   6.452   2.078
10372SOL    HW232016   3.081   6.523   2.140
10373SOL     OW32017   0.906   1.101   5.292
10373SOL    HW132018   0.824   1.153   5.267
10373SOL    HW232019   0.981   1.164   5.309
10374SOL     OW32020   4.225   5.537   4.200
10374SOL    HW132021   4.249   5.523   4.104
10374SOL    HW232022   4.135   5.580   4.206
10375SOL     OW32023   2.243   3.672   6.931
10375SOL    HW132024   2.229   3.738   6.857
10375SOL    HW232025   2.336   3.637   6.927
10376SOL     OW32026   1.694   4.726   3.195
10376SOL    HW132027   1.750   4.708   3.277
10376SOL    HW232028   1.597   4.719   3.219
10377SOL     OW32029   1.820   0.188   2.404
10377SOL    HW132030   1.837   0.246   2.324
10377SOL    HW232031   1.841   0.240   2.487
10378SOL     OW32032   0.230   4.650   3.778
10378SOL    HW132033   0.314   4.663   3.830
10378SOL    HW232034   0.251   4.604   3.691
10379SOL     OW32035   1.865   6.510   4.582
10379SOL    HW132036   1.960   6.533   4.564
10379SOL    HW232037   1.856   6.472   4.674
10380SOL     OW32038   2.170   2.680   4.722
10380SOL    HW132039   2.203   2.774   4.726
10380SOL    HW232040   2.221   2.624   4.787
10381SOL     OW32041   4.617   4.794   2.284
10381SOL    HW132042   4.591   4.698   2.281
10381SOL    HW232043   4.674   4.815   2.204
10382SOL     OW32044   3.890   5.541   2.186
10382SOL    HW132045   3.914   5.450   2.220
10382SOL    HW232046   3.876   5.537   2.087
10383SOL     OW32047   2.028   4.090   0.454
10383SOL    HW132048   1.934   4.063   0.429
10383SOL    HW232049   2.086   4.008   0.456
10384SOL     OW32050   6.413   6.579   1.565
10384SOL    HW132051   6.448   6.606   1.655
10384SOL    HW232052   6.317   6.552   1.573
10385SOL     OW32053   4.352   4.724   0.180
10385SOL    HW132054   4.343   4.657   0.107
10385SOL    HW232055   4.261   4.758   0.205
10386SOL     OW32056   0.015   1.389   0.315
10386SOL    HW132057   0.075   1.333   0.373
10386SOL    HW232058   0.052   1.392   0.222
10387SOL     OW32059   5.156   2.849   2.062
10387SOL    HW132060   5.077   2.863   2.001
10387SOL    HW232061   5.159   2.923   2.129
10388SOL     OW32062   2.884   1.039   5.575
10388SOL    HW132063   2.791   1.066   5.602
10388SOL    HW232064   2.947   1.057   5.651
10389SOL     OW32065   0.820   3.661   0.620
10389SOL    HW132066   0.848   3.693   0.529
10389SOL    HW232067   0.723   3.681   0.633
10390SOL     OW32068   2.543   2.487   1.532
10390SOL    HW132069   2.609   2.518   1.600
10390SOL    HW232070   2.574   2.512   1.441
10391SOL     OW32071   5.207   0.127   4.087
10391SOL    HW132072   5.221   0.212   4.139
10391SOL    HW232073   5.194   0.051   4.150
10392SOL     OW32074   6.906   5.050   3.817
10392SOL    HW132075   6.991   5.048   3.870
10392SOL    HW232076   6.828   5.032   3.877
10393SOL     OW32077   1.601   4.092   3.653
10393SOL    HW132078   1.624   4.033   3.575
10393SOL    HW232079   1.547   4.040   3.719
10394SOL     OW32080   2.643   6.011   4.187
10394SOL    HW132081   2.731   6.001   4.140
10394SOL    HW232082   2.585   6.074   4.136
10395SOL     OW32083   0.627   0.074   0.450
10395SOL    HW132084   0.565   0.137   0.402
10395SOL    HW232085   0.698   0.127   0.497
10396SOL     OW32086   2.789   1.849   4.812
10396SOL    HW132087   2.839   1.863   4.726
10396SOL    HW232088   2.698   1.814   4.793
10397SOL     OW32089   3.122   2.069   2.251
10397SOL    HW132090   3.093   2.054   2.157
10397SOL    HW232091   3.105   2.164   2.277
10398SOL     OW32092   0.031   2.785   1.724
10398SOL    HW132093   0.112   2.843   1.725
10398SOL    HW232094   6.971   2.841   1.732
10399SOL     OW32095   6.547   3.077   1.736
10399SOL    HW132096   6.613   3.138   1.693
10399SOL    HW232097   6.480   3.131   1.787
10400SOL     OW32098   3.837   6.837   0.569
10400SOL    HW132099   3.877   6.928   0.576
10400SOL    HW232100   3.819   6.801   0.661
10401SOL     OW32101   6.404   0.652   4.457
10401SOL    HW132102   6.424   0.581   4.390
10401SOL    HW232103   6.338   0.618   4.523
10402SOL     OW32104   6.715   3.209   4.591
10402SOL    HW132105   6.659   3.272   4.538
10402SOL    HW232106   6.806   3.203   4.551
10403SOL     OW32107   2.898   0.243   3.340
10403SOL    HW132108   2.950   0.329   3.340
10403SOL    HW232109   2.947   0.174   3.287
10404SOL     OW32110   6.978   6.513   6.148
10404SOL    HW132111   7.019   6.459   6.074
10404SOL    HW232112   6.951   6.602   6.113
10405SOL     OW32113   0.419   1.389   5.900
10405SOL    HW132114   0.394   1.483   5.924
10405SOL    HW232115   0.457   1.343   5.980
10406SOL     OW32116   3.444   4.851   1.453
10406SOL    HW132117   3.413   4.802   1.535
10406SOL    HW232118   3.371   4.910   1.420
10407SOL     OW32119   3.480   6.824   6.825
10407SOL    HW132120   3.404   6.806   6.763
10407SOL    HW232121   3.486   6.751   6.893
10408SOL     OW32122   4.483   0.608   0.141
10408SOL    HW132123   4.459   0.667   0.063
10408SOL    HW232124   4.514   0.664   0.217
10409SOL     OW32125   6.290   4.642   0.474
10409SOL    HW132126   6.340   4.678   0.395
10409SOL    HW232127   6.212   4.589   0.442
10410SOL     OW32128   5.881   1.247   0.066
10410SOL    HW132129   5.883   1.325   0.004
10410SOL    HW232130   5.830   1.172   0.024
10411SOL     OW32131   2.208   5.348   3.412
10411SOL    HW132132   2.245   5.255   3.411
10411SOL    HW232133   2.150   5.359   3.493
10412SOL     OW32134   5.874   1.210   0.989
10412SOL    HW132135   5.781   1.238   0.963
10412SOL    HW232136   5.883   1.111   0.980
10413SOL     OW32137   6.667   2.202   1.411
10413SOL    HW132138   6.608   2.283   1.413
10413SOL    HW232139   6.739   2.213   1.479
10414SOL     OW32140   5.105   3.223   5.087
10414SOL    HW132141   5.151   3.150   5.036
10414SOL    HW232142   5.157   3.308   5.079
10415SOL     OW32143   0.508   5.734   6.197
10415SOL    HW132144   0.507   5.828   6.165
10415SOL    HW232145   0.417   5.694   6.188
10416SOL     OW32146   5.902   2.808   4.519
10416SOL    HW132147   5.875   2.791   4.424
10416SOL    HW232148   5.951   2.895   4.524
10417SOL     OW32149   2.867   4.733   4.069
10417SOL    HW132150   2.779   4.701   4.102
10417SOL    HW232151   2.931   4.742   4.145
10418SOL     OW32152   0.406   4.204   5.358
10418SOL    HW132153   0.350   4.239   5.433
10418SOL    HW232154   0.457   4.280   5.316
10419SOL     OW32155   0.970   0.697   0.509
10419SOL    HW132156   1.011   0.625   0.454
10419SOL    HW232157   0.913   0.755   0.450
10420SOL     OW32158   0.143   3.357   2.841
10420SOL    HW132159   0.154   3.278   2.900
10420SOL    HW232160   0.208   3.351   2.765
10421SOL     OW32161   1.342   0.770   3.865
10421SOL    HW132162   1.357   0.852   3.810
10421SOL    HW232163   1.419   0.757   3.927
10422SOL     OW32164   6.593   2.752   5.402
10422SOL    HW132165   6.567   2.696   5.480
10422SOL    HW232166   6.660   2.703   5.346
10423SOL     OW32167   4.925   4.582   4.467
10423SOL    HW132168   4.997   4.560   4.401
10423SOL    HW232169   4.904   4.501   4.522
10424SOL     OW32170   5.304   1.636   6.510
10424SOL    HW132171   5.207   1.618   6.531
10424SOL    HW232172   5.327   1.729   6.539
10425SOL     OW32173   1.311   6.628   2.298
10425SOL    HW132174   1.285   6.678   2.381
10425SOL    HW232175   1.340   6.536   2.322
10426SOL     OW32176   6.284   4.140   0.598
10426SOL    HW132177   6.301   4.176   0.690
10426SOL    HW232178   6.276   4.040   0.603
10427SOL     OW32179   4.792   2.232   0.641
10427SOL    HW132180   4.721   2.162   0.635
10427SOL    HW232181   4.750   2.323   0.636
10428SOL     OW32182   4.154   0.730   4.854
10428SOL    HW132183   4.193   0.814   4.815
10428SOL    HW232184   4.059   0.746   4.881
10429SOL     OW32185   6.887   5.620   1.358
10429SOL    HW132186   6.968   5.572   1.325
10429SOL    HW232187   6.902   5.651   1.452
10430SOL     OW32188   4.185   6.758   3.368
10430SOL    HW132189   4.147   6.785   3.279
10430SOL    HW232190   4.285   6.757   3.362
10431SOL     OW32191   3.005   0.420   5.380
10431SOL    HW132192   2.988   0.503   5.327
10431SOL    HW232193   2.918   0.372   5.395
10432SOL     OW32194   6.364   1.007   4.103
10432SOL    HW132195   6.268   1.028   4.083
10432SOL    HW232196   6.370   0.946   4.182
10433SOL     OW32197   2.026   6.461   1.585
10433SOL    HW132198   2.025   6.487   1.488
10433SOL    HW232199   1.986   6.371   1.596
10434SOL     OW32200   3.578   0.013   3.382
10434SOL    HW132201   3.672   0.039   3.405
10434SOL    HW232202   3.543   6.974   3.452
10435SOL     OW32203   6.197   6.626   5.488
10435SOL    HW132204   6.288   6.591   5.464
10435SOL    HW232205   6.146   6.554   5.535
10436SOL     OW32206   0.306   5.165   4.343
10436SOL    HW132207   0.303   5.089   4.279
10436SOL    HW232208   0.272   5.136   4.432
10437SOL     OW32209   6.174   5.044   5.701
10437SOL    HW132210   6.125   4.957   5.713
10437SOL    HW232211   6.114   5.120   5.727
10438SOL     OW32212   5.258   6.491   0.254
10438SOL    HW132213   5.178   6.547   0.230
10438SOL    HW232214   5.268   6.488   0.353
10439SOL     OW32215   3.817   0.139   5.511
10439SOL    HW132216   3.774   0.082   5.441
10439SOL    HW232217   3.902   0.177   5.475
10440SOL     OW32218   0.869   6.718   1.237
10440SOL    HW132219   0.812   6.792   1.274
10440SOL    HW232220   0.812   6.638   1.220
10441SOL     OW32221   5.413   1.367   6.521
10441SOL    HW132222   5.422   1.466   6.514
10441SOL    HW232223   5.471   1.334   6.596
10442SOL     OW32224   3.284   5.288   5.499
10442SOL    HW132225   3.370   5.254   5.460
10442SOL    HW232226   3.209   5.228   5.471
10443SOL     OW32227   6.127   3.686   4.510
10443SOL    HW132228   6.062   3.756   4.480
10443SOL    HW232229   6.122   3.676   4.610
10444SOL     OW32230   3.657   5.474   4.608
10444SOL    HW132231   3.702   5.408   4.668
10444SOL    HW232232   3.686   5.567   4.632
10445SOL     OW32233   6.596   5.272   4.575
10445SOL    HW132234   6.650   5.204   4.525
10445SOL    HW232235   6.592   5.357   4.521
10446SOL     OW32236   0.595   4.420   6.343
10446SOL    HW132237   0.536   4.381   6.414
10446SOL    HW232238   0.684   4.374   6.344
10447SOL     OW32239   6.893   2.137   1.257
10447SOL    HW132240   6.807   2.165   1.299
10447SOL    HW232241   6.952   2.094   1.326
10448SOL     OW32242   3.633   3.779   1.267
10448SOL    HW132243   3.684   3.832   1.199
10448SOL    HW232244   3.678   3.690   1.280
10449SOL     OW32245   2.436   5.543   4.650
10449SOL    HW132246   2.398   5.519   4.561
10449SOL    HW232247   2.496   5.469   4.682
10450SOL     OW32248   6.979   2.146   0.176
10450SOL    HW132249   0.052   2.127   0.196
10450SOL    HW232250   6.945   2.217   0.238
10451SOL     OW32251   2.497   4.479   2.925
10451SOL    HW132252   2.559   4.539   2.975
10451SOL    HW232253   2.423   4.449   2.985
10452SOL     OW32254   0.735   3.330   3.951
10452SOL    HW132255   0.764   3.287   4.036
10452SOL    HW232256   0.773   3.281   3.873
10453SOL     OW32257   5.481   5.636   1.449
10453SOL    HW132258   5.408   5.618   1.382
10453SOL    HW232259   5.559   5.576   1.429
10454SOL     OW32260   5.153   3.023   2.263
10454SOL    HW132261   5.068   3.070   2.237
10454SOL    HW232262   5.169   3.036   2.361
10455SOL     OW32263   0.460   5.097   3.859
10455SOL    HW132264   0.403   5.016   3.844
10455SOL    HW232265   0.543   5.090   3.805
10456SOL     OW32266   3.546   6.372   1.123
10456SOL    HW132267   3.599   6.291   1.147
10456SOL    HW232268   3.450   6.358   1.148
10457SOL     OW32269   3.848   4.031   3.483
10457SOL    HW132270   3.926   4.019   3.546
10457SOL    HW232271   3.778   4.086   3.528
10458SOL     OW32272   1.217   6.656   1.155
10458SOL    HW132273   1.173   6.566   1.158
10458SOL    HW232274   1.149   6.726   1.131
10459SOL     OW32275   5.841   5.171   2.197
10459SOL    HW132276   5.746   5.142   2.201
10459SOL    HW232277   5.864   5.202   2.105
10460SOL     OW32278   2.940   5.212   1.928
10460SOL    HW132279   3.026   5.192   1.882
10460SOL    HW232280   2.939   5.169   2.018
10461SOL     OW32281   2.526   6.815   6.465
10461SOL    HW132282   2.508   6.857   6.376
10461SOL    HW232283   2.619   6.778   6.466
10462SOL     OW32284   6.115   0.903   1.100
10462SOL    HW132285   6.183   0.943   1.161
10462SOL    HW232286   6.025   0.906   1.144
10463SOL     OW32287   3.132   4.410   0.216
10463SOL    HW132288   3.100   4.475   0.286
10463SOL    HW232289   3.058   4.388   0.154
10464SOL     OW32290   4.758   0.093   0.355
10464SOL    HW132291   4.772   0.191   0.363
10464SOL    HW232292   4.660   0.073   0.361
10465SOL     OW32293   0.093   5.209   6.119
10465SOL    HW132294   0.018   5.274   6.106
10465SOL    HW232295   0.104   5.189   6.216
10466SOL     OW32296   4.785   5.490   5.140
10466SOL    HW132297   4.725   5.541   5.078
10466SOL    HW232298   4.880   5.518   5.125
10467SOL     OW32299   2.179   1.783   5.416
10467SOL    HW132300   2.126   1.709   5.457
10467SOL    HW232301   2.239   1.824   5.484
10468SOL     OW32302   3.038   6.728   4.565
10468SOL    HW132303   2.996   6.688   4.647
10468SOL    HW232304   2.984   6.806   4.535
10469SOL     OW32305   1.691   4.044   0.701
10469SOL    HW132306   1.780   4.082   0.726
10469SOL    HW232307   1.680   4.047   0.602
10470SOL     OW32308   2.516   1.415   3.664
10470SOL    HW132309   2.606   1.391   3.699
10470SOL    HW232310   2.465   1.465   3.734
10471SOL     OW32311   3.038   3.730   1.501
10471SOL    HW132312   3.075   3.772   1.583
10471SOL    HW232313   2.962   3.669   1.525
10472SOL     OW32314   3.626   0.384   1.834
10472SOL    HW132315   3.675   0.464   1.800
10472SOL    HW232316   3.624   0.385   1.934
10473SOL     OW32317   5.754   6.135   0.070
10473SOL    HW132318   5.842   6.183   0.074
10473SOL    HW232319   5.751   6.064   0.140
10474SOL     OW32320   4.206   0.478   4.493
10474SOL    HW132321   4.241   0.495   4.585
10474SOL    HW232322   4.135   0.546   4.471
10475SOL     OW32323   3.781   0.008   1.355
10475SOL    HW132324   3.839   0.071   1.406
10475SOL    HW232325   3.829   6.944   1.343
10476SOL     OW32326   6.816   4.968   6.300
10476SOL    HW132327   6.826   4.994   6.204
10476SOL    HW232328   6.745   4.897   6.308
10477SOL     OW32329   5.961   4.212   4.905
10477SOL    HW132330   5.994   4.220   5.000
10477SOL    HW232331   6.012   4.140   4.859
10478SOL     OW32332   0.214   6.253   1.065
10478SOL    HW132333   0.212   6.352   1.056
10478SOL    HW232334   0.305   6.225   1.095
10479SOL     OW32335   2.073   3.580   2.707
10479SOL    HW132336   2.109   3.607   2.618
10479SOL    HW232337   2.044   3.484   2.704
10480SOL     OW32338   5.600   6.412   2.427
10480SOL    HW132339   5.636   6.356   2.353
10480SOL    HW232340   5.520   6.463   2.395
10481SOL     OW32341   1.993   0.179   4.986
10481SOL    HW132342   1.981   0.272   4.950
10481SOL    HW232343   2.048   0.183   5.069
10482SOL     OW32344   1.206   6.000   4.914
10482SOL    HW132345   1.277   6.056   4.871
10482SOL    HW232346   1.194   5.916   4.861
10483SOL     OW32347   6.808   5.762   6.809
10483SOL    HW132348   6.762   5.749   6.897
10483SOL    HW232349   6.873   5.837   6.815
10484SOL     OW32350   0.637   1.473   1.709
10484SOL    HW132351   0.628   1.483   1.808
10484SOL    HW232352   0.612   1.380   1.682
10485SOL     OW32353   3.358   3.568   3.429
10485SOL    HW132354   3.274   3.622   3.425
10485SOL    HW232355   3.436   3.626   3.408
10486SOL     OW32356   6.251   6.429   4.982
10486SOL    HW132357   6.222   6.445   4.888
10486SOL    HW232358   6.249   6.516   5.032
10487SOL     OW32359   4.483   1.864   1.900
10487SOL    HW132360   4.477   1.784   1.959
10487SOL    HW232361   4.550   1.847   1.827
10488SOL     OW32362   6.689   2.382   5.198
10488SOL    HW132363   6.598   2.342   5.201
10488SOL    HW232364   6.731   2.363   5.109
10489SOL     OW32365   5.747   4.601   3.895
10489SOL    HW132366   5.790   4.572   3.810
10489SOL    HW232367   5.733   4.522   3.954
10490SOL     OW32368   5.772   6.196   6.539
10490SOL    HW132369   5.735   6.104   6.546
10490SOL    HW232370   5.765   6.228   6.444
10491SOL     OW32371   0.857   2.989   5.958
10491SOL    HW132372   0.796   2.910   5.954
10491SOL    HW232373   0.887   3.003   6.053
10492SOL     OW32374   4.188   0.570   0.432
10492SOL    HW132375   4.217   0.588   0.338
10492SOL    HW232376   4.188   0.656   0.484
10493SOL     OW32377   3.889   5.735   0.744
10493SOL    HW132378   3.803   5.763   0.702
10493SOL    HW232379   3.948   5.694   0.674
10494SOL     OW32380   0.973   4.371   5.742
10494SOL    HW132381   0.951   4.398   5.836
10494SOL    HW232382   0.888   4.351   5.693
10495SOL     OW32383   0.500   6.440   6.690
10495SOL    HW132384   0.558   6.388   6.627
10495SOL    HW232385   0.531   6.535   6.694
10496SOL     OW32386   6.939   3.911   5.520
10496SOL    HW132387   7.017   3.952   5.567
10496SOL    HW232388   6.911   3.828   5.568
10497SOL     OW32389   2.421   6.804   1.558
10497SOL    HW132390   2.351   6.862   1.602
10497SOL    HW232391   2.413   6.711   1.593
10498SOL     OW32392   4.507   5.733   0.360
10498SOL    HW132393   4.536   5.651   0.310
10498SOL    HW232394   4.553   5.737   0.448
10499SOL     OW32395   6.165   4.886   2.033
10499SOL    HW132396   6.068   4.863   2.042
10499SOL    HW232397   6.189   4.888   1.936
10500SOL     OW32398   6.343   4.107   5.880
10500SOL    HW132399   6.345   4.007   5.872
10500SOL    HW232400   6.436   4.142   5.884
10501SOL     OW32401   2.854   5.251   2.619
10501SOL    HW132402   2.932   5.208   2.665
10501SOL    HW232403   2.770   5.200   2.641
10502SOL     OW32404   3.062   3.957   2.404
10502SOL    HW132405   3.051   4.001   2.493
10502SOL    HW232406   3.123   4.011   2.347
10503SOL     OW32407   5.966   2.775   6.689
10503SOL    HW132408   5.897   2.828   6.738
10503SOL    HW232409   5.923   2.723   6.615
10504SOL     OW32410   1.468   2.683   6.344
10504SOL    HW132411   1.482   2.636   6.257
10504SOL    HW232412   1.531   2.647   6.412
10505SOL     OW32413   5.708   6.892   1.263
10505SOL    HW132414   5.714   6.936   1.173
10505SOL    HW232415   5.614   6.861   1.279
10506SOL     OW32416   1.071   2.534   0.885
10506SOL    HW132417   1.114   2.619   0.915
10506SOL    HW232418   1.102   2.510   0.793
10507SOL     OW32419   1.645   4.830   6.288
10507SOL    HW132420   1.731   4.877   6.270
10507SOL    HW232421   1.590   4.827   6.205
10508SOL     OW32422   0.953   5.644   5.003
10508SOL    HW132423   1.030   5.585   5.025
10508SOL    HW232424   0.870   5.589   4.995
10509SOL     OW32425   5.184   2.750   3.541
10509SOL    HW132426   5.191   2.690   3.621
10509SOL    HW232427   5.224   2.704   3.462
10510SOL     OW32428   5.414   5.586   3.995
10510SOL    HW132429   5.466   5.617   4.075
10510SOL    HW232430   5.317   5.600   4.010
10511SOL     OW32431   3.752   2.141   2.275
10511SOL    HW132432   3.840   2.098   2.297
10511SOL    HW232433   3.764   2.203   2.198
10512SOL     OW32434   4.525   0.981   4.958
10512SOL    HW132435   4.549   0.918   4.884
10512SOL    HW232436   4.594   1.054   4.963
10513SOL     OW32437   5.228   2.864   1.699
10513SOL    HW132438   5.274   2.949   1.726
10513SOL    HW232439   5.156   2.843   1.765
10514SOL     OW32440   0.691   3.342   1.508
10514SOL    HW132441   0.677   3.251   1.469
10514SOL    HW232442   0.602   3.387   1.521
10515SOL     OW32443   1.855   2.773   5.131
10515SOL    HW132444   1.804   2.858   5.124
10515SOL    HW232445   1.951   2.788   5.106
10516SOL     OW32446   3.457   2.153   1.132
10516SOL    HW132447   3.457   2.160   1.232
10516SOL    HW232448   3.473   2.243   1.092
10517SOL     OW32449   1.053   2.943   3.743
10517SOL    HW132450   1.053   2.886   3.825
10517SOL    HW232451   0.984   3.015   3.753
10518SOL     OW32452   0.748   5.590   2.620
10518SOL    HW132453   0.840   5.582   2.582
10518SOL    HW232454   0.752   5.588   2.720
10519SOL     OW32455   3.081   6.359   1.065
10519SOL    HW132456   3.001   6.365   1.005
10519SOL    HW232457   3.120   6.450   1.077
10520SOL     OW32458   0.144   2.046   5.291
10520SOL    HW132459   0.229   2.012   5.253
10520SOL    HW232460   0.084   2.076   5.217
10521SOL     OW32461   6.042   2.989   1.328
10521SOL    HW132462   6.080   2.907   1.370
10521SOL    HW232463   6.078   2.999   1.236
10522SOL     OW32464   4.903   2.484   3.726
10522SOL    HW132465   5.000   2.462   3.712
10522SOL    HW232466   4.886   2.498   3.823
10523SOL     OW32467   6.778   4.690   3.258
10523SOL    HW132468   6.788   4.788   3.239
10523SOL    HW232469   6.869   4.649   3.266
10524SOL     OW32470   6.463   6.726   4.892
10524SOL    HW132471   6.372   6.733   4.851
10524SOL    HW232472   6.508   6.643   4.861
10525SOL     OW32473   4.539   1.531   4.786
10525SOL    HW132474   4.609   1.462   4.773
10525SOL    HW232475   4.452   1.498   4.750
10526SOL     OW32476   1.736   5.054   0.514
10526SOL    HW132477   1.760   5.054   0.612
10526SOL    HW232478   1.671   5.127   0.496
10527SOL     OW32479   0.859   0.290   4.710
10527SOL    HW132480   0.940   0.232   4.712
10527SOL    HW232481   0.878   0.373   4.658
10528SOL     OW32482   0.864   3.845   5.739
10528SOL    HW132483   0.955   3.824   5.702
10528SOL    HW232484   0.863   3.937   5.775
10529SOL     OW32485   1.077   5.934   0.152
10529SOL    HW132486   1.040   5.979   0.070
10529SOL    HW232487   1.082   5.835   0.136
10530SOL     OW32488   6.989   6.860   0.746
10530SOL    HW132489   0.040   6.926   0.764
10530SOL    HW232490   6.984   6.795   0.822
10531SOL     OW32491   2.782   2.836   5.407
10531SOL    HW132492   2.805   2.837   5.504
10531SOL    HW232493   2.725   2.915   5.386
10532SOL     OW32494   5.474   6.240   6.673
10532SOL    HW132495   5.479   6.340   6.676
10532SOL    HW232496   5.488   6.210   6.579
10533SOL     OW32497   2.708   5.334   3.530
10533SOL    HW132498   2.685   5.336   3.628
10533SOL    HW232499   2.646   5.395   3.480
10534SOL     OW32500   1.322   6.050   2.815
10534SOL    HW132501   1.394   5.983   2.797
10534SOL    HW232502   1.343   6.135   2.765
10535SOL     OW32503   3.160   2.079   2.682
10535SOL    HW132504   3.061   2.072   2.671
10535SOL    HW232505   3.204   2.078   2.592
10536SOL     OW32506   5.612   1.613   4.012
10536SOL    HW132507   5.520   1.598   4.046
10536SOL    HW232508   5.609   1.636   3.915
10537SOL     OW32509   4.444   0.294   3.478
10537SOL    HW132510   4.450   0.373   3.417
10537SOL    HW232511   4.356   0.247   3.463
10538SOL     OW32512   6.466   3.319   2.767
10538SOL    HW132513   6.524   3.240   2.787
10538SOL    HW232514   6.524   3.400   2.753
10539SOL     OW32515   6.783   0.441   3.136
10539SOL    HW132516   6.786   0.541   3.131
10539SOL    HW232517   6.691   0.409   3.112
10540SOL     OW32518   2.695   3.517   6.071
10540SOL    HW132519   2.698   3.563   5.983
10540SOL    HW232520   2.600   3.509   6.102
10541SOL     OW32521   3.124   3.296   5.124
10541SOL    HW132522   3.148   3.217   5.180
10541SOL    HW232523   3.114   3.376   5.183
10542SOL     OW32524   4.955   6.880   3.976
10542SOL    HW132525   5.007   6.955   3.937
10542SOL    HW232526   5.006   6.840   4.052
10543SOL     OW32527   0.540   3.419   5.098
10543SOL    HW132528   0.514   3.353   5.027
10543SOL    HW232529   0.558   3.370   5.183
10544SOL     OW32530   1.546   1.074   3.457
10544SOL    HW132531   1.517   1.059   3.363
10544SOL    HW232532   1.637   1.117   3.457
10545SOL     OW32533   2.176   1.905   2.931
10545SOL    HW132534   2.178   2.005   2.928
10545SOL    HW232535   2.267   1.869   2.911
10546SOL     OW32536   3.151   6.910   0.324
10546SOL    HW132537   3.087   6.962   0.380
10546SOL    HW232538   3.130   6.924   0.227
10547SOL     OW32539   4.016   0.304   5.349
10547SOL    HW132540   3.923   0.339   5.361
10547SOL    HW232541   4.033   0.286   5.252
10548SOL     OW32542   0.539   4.818   4.484
10548SOL    HW132543   0.584   4.796   4.571
10548SOL    HW232544   0.581   4.764   4.411
10549SOL     OW32545   0.279   1.447   1.066
10549SOL    HW132546   0.266   1.540   1.101
10549SOL    HW232547   0.191   1.412   1.032
10550SOL     OW32548   4.019   6.333   3.771
10550SOL    HW132549   3.984   6.239   3.779
10550SOL    HW232550   4.114   6.331   3.742
10551SOL     OW32551   3.239   2.008   5.854
10551SOL    HW132552   3.177   1.940   5.893
10551SOL    HW232553   3.195   2.053   5.776
10552SOL     OW32554   3.407   0.747   4.526
10552SOL    HW132555   3.434   0.795   4.443
10552SOL    HW232556   3.464   0.777   4.603
10553SOL     OW32557   0.197   4.932   0.439
10553SOL    HW132558   0.255   4.940   0.359
10553SOL    HW232559   0.177   4.836   0.457
10554SOL     OW32560   6.320   5.259   2.596
10554SOL    HW132561   6.229   5.247   2.634
10554SOL    HW232562   6.369   5.329   2.648
10555SOL     OW32563   3.651   2.804   0.589
10555SOL    HW132564   3.669   2.898   0.616
10555SOL    HW232565   3.594   2.760   0.659
10556SOL     OW32566   2.214   1.547   3.248
10556SOL    HW132567   2.293   1.604   3.226
10556SOL    HW232568   2.148   1.602   3.301
10557SOL     OW32569   2.045   4.306   3.941
10557SOL    HW132570   2.141   4.290   3.961
10557SOL    HW232571   2.024   4.403   3.956
10558SOL     OW32572   2.564   5.336   5.688
10558SOL    HW132573   2.487   5.361   5.747
10558SOL    HW232574   2.563   5.237   5.671
10559SOL     OW32575   4.235   6.598   6.184
10559SOL    HW132576   4.222   6.520   6.246
10559SOL    HW232577   4.227   6.683   6.236
10560SOL     OW32578   5.383   6.131   2.185
10560SOL    HW132579   5.297   6.108   2.140
10560SOL    HW232580   5.416   6.219   2.150
10561SOL     OW32581   5.760   4.428   0.326
10561SOL    HW132582   5.749   4.417   0.228
10561SOL    HW232583   5.788   4.522   0.346
10562SOL     OW32584   3.908   6.246   2.307
10562SOL    HW132585   3.863   6.288   2.228
10562SOL    HW232586   3.874   6.287   2.391
10563SOL     OW32587   0.771   0.178   1.279
10563SOL    HW132588   0.720   0.258   1.313
10563SOL    HW232589   0.736   0.096   1.323
10564SOL     OW32590   5.859   5.643   4.102
10564SOL    HW132591   5.854   5.565   4.165
10564SOL    HW232592   5.809   5.721   4.141
10565SOL     OW32593   0.459   6.930   5.276
10565SOL    HW132594   0.388   6.873   5.237
10565SOL    HW232595   0.436   0.004   5.263
10566SOL     OW32596   2.479   3.158   0.097
10566SOL    HW132597   2.484   3.066   0.058
10566SOL    HW232598   2.483   3.152   0.197
10567SOL     OW32599   0.937   2.349   6.510
10567SOL    HW132600   0.953   2.440   6.548
10567SOL    HW232601   0.870   2.355   6.436
10568SOL     OW32602   5.261   2.296   5.764
10568SOL    HW132603   5.216   2.306   5.675
10568SOL    HW232604   5.353   2.333   5.760
10569SOL     OW32605   5.487   6.544   1.266
10569SOL    HW132606   5.404   6.491   1.283
10569SOL    HW232607   5.481   6.633   1.312
10570SOL     OW32608   0.933   4.710   3.711
10570SOL    HW132609   0.897   4.655   3.786
10570SOL    HW232610   0.858   4.756   3.663
10571SOL     OW32611   0.138   3.997   5.686
10571SOL    HW132612   0.198   4.010   5.765
10571SOL    HW232613   0.153   4.070   5.619
10572SOL     OW32614   5.977   4.524   0.591
10572SOL    HW132615   6.010   4.503   0.683
10572SOL    HW232616   6.015   4.457   0.526
10573SOL     OW32617   5.634   1.352   3.760
10573SOL    HW132618   5.675   1.271   3.801
10573SOL    HW232619   5.538   1.357   3.786
10574SOL     OW32620   0.032   1.919   3.883
10574SOL    HW132621   6.970   1.881   3.918
10574SOL    HW232622   0.012   1.986   3.812
10575SOL     OW32623   6.346   0.565   1.281
10575SOL    HW132624   6.313   0.520   1.199
10575SOL    HW232625   6.397   0.500   1.338
10576SOL     OW32626   2.386   4.600   4.172
10576SOL    HW132627   2.346   4.626   4.084
10576SOL    HW232628   2.483   4.625   4.173
10577SOL     OW32629   4.086   6.173   0.721
10577SOL    HW132630   4.099   6.260   0.769
10577SOL    HW232631   3.989   6.163   0.696
10578SOL     OW32632   6.660   3.629   4.350
10578SOL    HW132633   6.592   3.690   4.391
10578SOL    HW232634   6.752   3.666   4.365
10579SOL     OW32635   1.649   3.516   0.113
10579SOL    HW132636   1.716   3.587   0.095
10579SOL    HW232637   1.662   3.481   0.206
10580SOL     OW32638   6.643   6.894   6.837
10580SOL    HW132639   6.734   6.853   6.846
10580SOL    HW232640   6.592   6.881   6.922
10581SOL     OW32641   5.655   6.817   2.864
10581SOL    HW132642   5.714   6.760   2.807
10581SOL    HW232643   5.699   6.834   2.952
10582SOL     OW32644   5.631   4.531   6.447
10582SOL    HW132645   5.677   4.616   6.470
10582SOL    HW232646   5.612   4.529   6.348
10583SOL     OW32647   2.885   1.508   5.506
10583SOL    HW132648   2.927   1.421   5.532
10583SOL    HW232649   2.868   1.509   5.407
10584SOL     OW32650   0.555   0.205   5.281
10584SOL    HW132651   0.562   0.214   5.381
10584SOL    HW232652   0.459   0.199   5.255
10585SOL     OW32653   0.714   0.106   4.839
10585SOL    HW132654   0.615   0.106   4.827
10585SOL    HW232655   0.753   0.184   4.790
10586SOL     OW32656   4.072   4.509   5.359
10586SOL    HW132657   4.011   4.434   5.386
10586SOL    HW232658   4.139   4.475   5.294
10587SOL     OW32659   2.001   5.847   5.429
10587SOL    HW132660   2.085   5.830   5.480
10587SOL    HW232661   2.023   5.861   5.332
10588SOL     OW32662   1.328   4.014   4.752
10588SOL    HW132663   1.383   3.933   4.773
10588SOL    HW232664   1.330   4.031   4.653
10589SOL     OW32665   5.362   6.048   3.749
10589SOL    HW132666   5.308   6.126   3.720
10589SOL    HW232667   5.343   5.970   3.691
10590SOL     OW32668   0.784   5.568   2.931
10590SOL    HW132669   0.880   5.596   2.926
10590SOL    HW232670   0.746   5.597   3.019
10591SOL     OW32671   0.623   2.413   1.805
10591SOL    HW132672   0.546   2.470   1.833
10591SOL    HW232673   0.593   2.319   1.793
10592SOL     OW32674   5.899   2.445   5.078
10592SOL    HW132675   5.934   2.530   5.038
10592SOL    HW232676   5.973   2.398   5.126
10593SOL     OW32677   3.460   6.058   2.371
10593SOL    HW132678   3.449   5.959   2.373
10593SOL    HW232679   3.377   6.101   2.336
10594SOL     OW32680   2.967   0.657   3.855
10594SOL    HW132681   2.993   0.612   3.769
10594SOL    HW232682   3.025   0.623   3.929
10595SOL     OW32683   6.265   6.584   0.769
10595SOL    HW132684   6.287   6.546   0.679
10595SOL    HW232685   6.324   6.541   0.838
10596SOL     OW32686   5.111   2.292   6.877
10596SOL    HW132687   5.168   2.321   6.955
10596SOL    HW232688   5.101   2.369   6.814
10597SOL     OW32689   2.192   0.916   6.118
10597SOL    HW132690   2.207   0.845   6.188
10597SOL    HW232691   2.197   1.006   6.161
10598SOL     OW32692   2.282   2.012   6.336
10598SOL    HW132693   2.298   2.053   6.426
10598SOL    HW232694   2.189   2.032   6.305
10599SOL     OW32695   6.361   2.992   6.309
10599SOL    HW132696   6.347   2.998   6.407
10599SOL    HW232697   6.435   3.053   6.281
10600SOL     OW32698   2.872   1.670   1.031
10600SOL    HW132699   2.920   1.678   1.119
10600SOL    HW232700   2.891   1.750   0.975
10601SOL     OW32701   0.643   6.189   5.994
10601SOL    HW132702   0.698   6.232   6.066
10601SOL    HW232703   0.553   6.233   5.990
10602SOL     OW32704   0.254   0.555   0.948
10602SOL    HW132705   0.217   0.622   0.884
10602SOL    HW232706   0.247   0.590   1.041
10603SOL     OW32707   4.846   0.001   2.059
10603SOL    HW132708   4.807   6.936   2.030
10603SOL    HW232709   4.823   0.019   2.154
10604SOL     OW32710   5.900   0.299   4.156
10604SOL    HW132711   5.991   0.273   4.123
10604SOL    HW232712   5.891   0.274   4.252
10605SOL     OW32713   2.398   2.000   1.410
10605SOL    HW132714   2.478   1.978   1.355
10605SOL    HW232715   2.421   2.072   1.476
10606SOL     OW32716   5.983   0.590   1.022
10606SOL    HW132717   6.007   0.649   1.099
10606SOL    HW232718   5.998   0.639   0.937
10607SOL     OW32719   3.592   4.073   6.460
10607SOL    HW132720   3.525   4.005   6.491
10607SOL    HW232721   3.617   4.053   6.365
10608SOL     OW32722   5.734   3.402   2.991
10608SOL    HW132723   5.734   3.317   2.938
10608SOL    HW232724   5.647   3.411   3.039
10609SOL     OW32725   4.264   1.874   6.804
10609SOL    HW132726   4.230   1.790   6.846
10609SOL    HW232727   4.240   1.875   6.707
10610SOL     OW32728   0.706   0.336   4.299
10610SOL    HW132729   0.751   0.425   4.290
10610SOL    HW232730   0.775   0.264   4.303
10611SOL     OW32731   3.413   5.470   5.019
10611SOL    HW132732   3.314   5.462   5.008
10611SOL    HW232733   3.456   5.382   4.999
10612SOL     OW32734   5.561   1.562   3.322
10612SOL    HW132735   5.614   1.598   3.245
10612SOL    HW232736   5.613   1.488   3.366
10613SOL     OW32737   5.538   0.444   4.593
10613SOL    HW132738   5.619   0.388   4.607
10613SOL    HW232739   5.531   0.471   4.497
10614SOL     OW32740   4.612   0.563   6.453
10614SOL    HW132741   4.665   0.578   6.369
10614SOL    HW232742   4.607   0.648   6.505
10615SOL     OW32743   1.433   1.696   6.433
10615SOL    HW132744   1.442   1.617   6.372
10615SOL    HW232745   1.434   1.780   6.379
10616SOL     OW32746   2.771   6.622   6.560
10616SOL    HW132747   2.753   6.604   6.463
10616SOL    HW232748   2.737   6.546   6.615
10617SOL     OW32749   2.613   3.371   1.748
10617SOL    HW132750   2.540   3.400   1.810
10617SOL    HW232751   2.693   3.342   1.802
10618SOL     OW32752   0.580   5.074   4.921
10618SOL    HW132753   0.652   5.048   4.985
10618SOL    HW232754   0.620   5.127   4.846
10619SOL     OW32755   1.443   2.443   3.235
10619SOL    HW132756   1.431   2.536   3.200
10619SOL    HW232757   1.405   2.378   3.170
10620SOL     OW32758   2.655   1.094   6.661
10620SOL    HW132759   2.586   1.162   6.639
10620SOL    HW232760   2.687   1.049   6.578
10621SOL     OW32761   0.826   3.420   3.275
10621SOL    HW132762   0.735   3.426   3.317
10621SOL    HW232763   0.830   3.340   3.215
10622SOL     OW32764   4.480   2.879   0.280
10622SOL    HW132765   4.578   2.871   0.258
10622SOL    HW232766   4.426   2.849   0.202
10623SOL     OW32767   5.433   6.227   6.398
10623SOL    HW132768   5.450   6.295   6.326
10623SOL    HW232769   5.479   6.141   6.374
10624SOL     OW32770   0.246   2.521   5.070
10624SOL    HW132771   0.324   2.476   5.027
10624SOL    HW232772   0.176   2.541   5.001
10625SOL     OW32773   6.407   4.615   6.749
10625SOL    HW132774   6.480   4.547   6.754
10625SOL    HW232775   6.443   4.700   6.709
10626SOL     OW32776   5.388   3.608   1.311
10626SOL    HW132777   5.454   3.536   1.329
10626SOL    HW232778   5.326   3.579   1.238
10627SOL     OW32779   5.663   6.085   5.920
10627SOL    HW132780   5.607   6.056   5.997
10627SOL    HW232781   5.712   6.006   5.882
10628SOL     OW32782   4.209   0.030   1.406
10628SOL    HW132783   4.217   6.966   1.356
10628SOL    HW232784   4.200   0.105   1.340
10629SOL     OW32785   2.682   5.395   4.282
10629SOL    HW132786   2.754   5.462   4.297
10629SOL    HW232787   2.721   5.303   4.283
10630SOL     OW32788   4.013   0.588   2.556
10630SOL    HW132789   3.916   0.613   2.564
10630SOL    HW232790   4.023   0.489   2.565
10631SOL     OW32791   4.544   5.959   6.741
10631SOL    HW132792   4.589   6.004   6.819
10631SOL    HW232793   4.548   6.018   6.661
10632SOL     OW32794   3.916   5.910   3.483
10632SOL    HW132795   3.854   5.832   3.493
10632SOL    HW232796   3.994   5.883   3.427
10633SOL     OW32797   1.706   3.103   1.319
10633SOL    HW132798   1.792   3.153   1.323
10633SOL    HW232799   1.669   3.095   1.412
10634SOL     OW32800   6.937   4.288   6.815
10634SOL    HW132801   6.895   4.201   6.791
10634SOL    HW232802   7.008   4.311   6.749
10635SOL     OW32803   2.336   3.757   6.349
10635SOL    HW132804   2.340   3.855   6.327
10635SOL    HW232805   2.343   3.704   6.265
10636SOL     OW32806   6.569   2.400   6.227
10636SOL    HW132807   6.624   2.317   6.216
10636SOL    HW232808   6.607   2.456   6.301
10637SOL     OW32809   2.787   0.501   6.879
10637SOL    HW132810   2.886   0.493   6.878
10637SOL    HW232811   2.760   0.573   6.944
10638SOL     OW32812   6.974   5.314   1.526
10638SOL    HW132813   6.875   5.321   1.510
10638SOL    HW232814   6.992   5.316   1.625
10639SOL     OW32815   1.545   4.450   0.992
10639SOL    HW132816   1.511   4.521   0.929
10639SOL    HW232817   1.468   4.397   1.026
10640SOL     OW32818   4.021   7.020   3.627
10640SOL    HW132819   4.112   0.008   3.589
10640SOL    HW232820   3.994   6.924   3.625
10641SOL     OW32821   1.773   0.087   3.240
10641SOL    HW132822   1.710   0.024   3.194
10641SOL    HW232823   1.755   0.181   3.209
10642SOL     OW32824   5.623   2.322   6.787
10642SOL    HW132825   5.557   2.295   6.717
10642SOL    HW232826   5.585   2.398   6.841
10643SOL     OW32827   1.534   5.116   5.648
10643SOL    HW132828   1.499   5.022   5.645
10643SOL    HW232829   1.633   5.114   5.654
10644SOL     OW32830   0.187   2.377   3.045
10644SOL    HW132831   0.174   2.277   3.047
10644SOL    HW232832   0.158   2.412   2.956
10645SOL     OW32833   2.373   2.606   3.605
10645SOL    HW132834   2.417   2.607   3.695
10645SOL    HW232835   2.278   2.578   3.614
10646SOL     OW32836   5.149   0.922   4.024
10646SOL    HW132837   5.189   1.013   4.024
10646SOL    HW232838   5.220   0.854   4.006
10647SOL     OW32839   3.874   5.359   4.405
10647SOL    HW132840   3.956   5.368   4.349
10647SOL    HW232841   3.799   5.411   4.363
10648SOL     OW32842   5.521   5.586   5.472
10648SOL    HW132843   5.550   5.655   5.405
10648SOL    HW232844   5.587   5.511   5.472
10649SOL     OW32845   7.008   3.552   2.935
10649SOL    HW132846   6.970   3.556   3.028
10649SOL    HW232847   0.044   3.471   2.927
10650SOL     OW32848   6.872   0.867   4.262
10650SOL    HW132849   6.904   0.772   4.253
10650SOL    HW232850   6.866   0.890   4.359
10651SOL     OW32851   3.805   6.031   6.131
10651SOL    HW132852   3.752   5.961   6.178
10651SOL    HW232853   3.881   6.060   6.189
10652SOL     OW32854   1.779   6.984   7.011
10652SOL    HW132855   1.821   0.010   6.935
10652SOL    HW232856   1.768   0.023   0.066
10653SOL     OW32857   3.737   6.355   4.336
10653SOL    HW132858   3.684   6.395   4.261
10653SOL    HW232859   3.831   6.389   4.332
10654SOL     OW32860   5.935   2.158   4.630
10654SOL    HW132861   5.897   2.187   4.718
10654SOL    HW232862   5.867   2.102   4.582
10655SOL     OW32863   0.961   4.628   1.201
10655SOL    HW132864   0.944   4.546   1.256
10655SOL    HW232865   0.977   4.706   1.262
10656SOL     OW32866   6.647   1.104   1.974
10656SOL    HW132867   6.666   1.026   2.034
10656SOL    HW232868   6.697   1.093   1.889
10657SOL     OW32869   5.953   0.405   3.547
10657SOL    HW132870   6.052   0.393   3.542
10657SOL    HW232871   5.929   0.494   3.508
10658SOL     OW32872   6.634   3.424   5.303
10658SOL    HW132873   6.728   3.404   5.274
10658SOL    HW232874   6.635   3.469   5.392
10659SOL     OW32875   1.021   5.396   0.956
10659SOL    HW132876   1.115   5.430   0.950
10659SOL    HW232877   0.989   5.402   1.051
10660SOL     OW32878   6.878   3.693   5.653
10660SOL    HW132879   6.891   3.734   5.744
10660SOL    HW232880   6.915   3.600   5.654
10661SOL     OW32881   1.907   3.680   6.520
10661SOL    HW132882   1.927   3.640   6.609
10661SOL    HW232883   1.953   3.769   6.512
10662SOL     OW32884   2.539   1.427   2.952
10662SOL    HW132885   2.545   1.517   2.996
10662SOL    HW232886   2.630   1.386   2.946
10663SOL     OW32887   1.931   1.696   4.353
10663SOL    HW132888   1.875   1.681   4.435
10663SOL    HW232889   1.940   1.795   4.337
10664SOL     OW32890   1.006   5.409   4.559
10664SOL    HW132891   1.006   5.408   4.459
10664SOL    HW232892   0.929   5.355   4.593
10665SOL     OW32893   2.224   2.454   6.275
10665SOL    HW132894   2.274   2.406   6.203
10665SOL    HW232895   2.203   2.547   6.244
10666SOL     OW32896   3.515   3.468   2.198
10666SOL    HW132897   3.444   3.537   2.178
10666SOL    HW232898   3.596   3.488   2.143
10667SOL     OW32899   5.789   2.023   2.947
10667SOL    HW132900   5.787   2.116   2.910
10667SOL    HW232901   5.810   2.027   3.045
10668SOL     OW32902   3.395   2.186   5.298
10668SOL    HW132903   3.380   2.110   5.235
10668SOL    HW232904   3.332   2.261   5.276
10669SOL     OW32905   5.241   1.243   1.063
10669SOL    HW132906   5.199   1.328   1.032
10669SOL    HW232907   5.261   1.249   1.161
10670SOL     OW32908   4.926   3.832   4.292
10670SOL    HW132909   4.992   3.765   4.258
10670SOL    HW232910   4.974   3.913   4.324
10671SOL     OW32911   1.299   1.858   4.153
10671SOL    HW132912   1.361   1.808   4.092
10671SOL    HW232913   1.276   1.800   4.232
10672SOL     OW32914   5.437   3.350   1.696
10672SOL    HW132915   5.475   3.301   1.774
10672SOL    HW232916   5.432   3.448   1.717
10673SOL     OW32917   1.911   1.165   1.223
10673SOL    HW132918   1.953   1.209   1.144
10673SOL    HW232919   1.929   1.220   1.305
10674SOL     OW32920   3.631   3.464   4.885
10674SOL    HW132921   3.714   3.509   4.852
10674SOL    HW232922   3.585   3.523   4.952
10675SOL     OW32923   3.509   6.879   5.789
10675SOL    HW132924   3.553   6.938   5.721
10675SOL    HW232925   3.419   6.851   5.755
10676SOL     OW32926   1.326   6.338   5.610
10676SOL    HW132927   1.364   6.251   5.640
10676SOL    HW232928   1.226   6.336   5.622
10677SOL     OW32929   0.654   2.136   0.608
10677SOL    HW132930   0.590   2.189   0.664
10677SOL    HW232931   0.653   2.041   0.639
10678SOL     OW32932   4.310   5.450   3.894
10678SOL    HW132933   4.252   5.388   3.947
10678SOL    HW232934   4.402   5.411   3.886
10679SOL     OW32935   4.437   4.149   6.787
10679SOL    HW132936   4.502   4.206   6.835
10679SOL    HW232937   4.485   4.094   6.718
10680SOL     OW32938   3.663   1.830   4.325
10680SOL    HW132939   3.605   1.767   4.272
10680SOL    HW232940   3.650   1.813   4.422
10681SOL     OW32941   6.407   2.894   6.933
10681SOL    HW132942   6.439   2.804   6.961
10681SOL    HW232943   6.321   2.884   6.882
10682SOL     OW32944   6.041   3.275   5.710
10682SOL    HW132945   5.981   3.196   5.699
10682SOL    HW232946   6.135   3.244   5.718
10683SOL     OW32947   3.946   1.011   3.406
10683SOL    HW132948   3.991   0.923   3.391
10683SOL    HW232949   3.849   1.004   3.380
10684SOL     OW32950   4.861   4.840   1.009
10684SOL    HW132951   4.893   4.931   0.987
10684SOL    HW232952   4.906   4.807   1.092
10685SOL     OW32953   0.839   5.332   1.652
10685SOL    HW132954   0.776   5.267   1.693
10685SOL    HW232955   0.892   5.378   1.724
10686SOL     OW32956   2.168   3.848   0.326
10686SOL    HW132957   2.169   3.759   0.280
10686SOL    HW232958   2.220   3.842   0.411
10687SOL     OW32959   6.669   4.724   2.838
10687SOL    HW132960   6.626   4.634   2.834
10687SOL    HW232961   6.767   4.714   2.853
10688SOL     OW32962   5.858   1.542   2.457
10688SOL    HW132963   5.875   1.463   2.399
10688SOL    HW232964   5.856   1.625   2.401
10689SOL     OW32965   0.135   0.138   2.210
10689SOL    HW132966   0.194   0.119   2.288
10689SOL    HW232967   0.049   0.178   2.242
10690SOL     OW32968   6.564   5.962   3.327
10690SOL    HW132969   6.529   5.869   3.320
10690SOL    HW232970   6.590   5.995   3.236
10691SOL     OW32971   3.506   1.589   2.209
10691SOL    HW132972   3.562   1.590   2.126
10691SOL    HW232973   3.439   1.663   2.205
10692SOL     OW32974   2.569   1.073   5.310
10692SOL    HW132975   2.505   1.084   5.386
10692SOL    HW232976   2.663   1.088   5.343
10693SOL     OW32977   1.292   5.966   1.255
10693SOL    HW132978   1.230   5.988   1.179
10693SOL    HW232979   1.263   6.016   1.337
10694SOL     OW32980   4.970   5.905   5.924
10694SOL    HW132981   4.923   5.888   6.011
10694SOL    HW232982   4.929   5.985   5.880
10695SOL     OW32983   0.896   3.473   1.335
10695SOL    HW132984   0.901   3.408   1.260
10695SOL    HW232985   0.822   3.446   1.397
10696SOL     OW32986   6.314   4.542   4.618
10696SOL    HW132987   6.244   4.539   4.690
10696SOL    HW232988   6.404   4.556   4.659
10697SOL     OW32989   0.866   5.899   5.133
10697SOL    HW132990   0.884   5.801   5.140
10697SOL    HW232991   0.923   5.939   5.061
10698SOL     OW32992   4.907   4.401   6.678
10698SOL    HW132993   4.987   4.428   6.624
10698SOL    HW232994   4.832   4.465   6.662
10699SOL     OW32995   3.424   4.420   0.838
10699SOL    HW132996   3.362   4.369   0.898
10699SOL    HW232997   3.370   4.472   0.772
10700SOL     OW32998   5.558   6.645   0.325
10700SOL    HW132999   5.513   6.596   0.250
10700SOL    HW233000   5.654   6.658   0.303
10701SOL     OW33001   2.665   0.083   6.298
10701SOL    HW133002   2.641   0.118   6.389
10701SOL    HW233003   2.607   0.005   6.276
10702SOL     OW33004   4.906   3.362   2.564
10702SOL    HW133005   5.003   3.386   2.570
10702SOL    HW233006   4.853   3.444   2.542
10703SOL     OW33007   2.250   2.180   5.798
10703SOL    HW133008   2.238   2.276   5.774
10703SOL    HW233009   2.207   2.123   5.727
10704SOL     OW33010   0.140   6.000   2.363
10704SOL    HW133011   0.122   5.972   2.269
10704SOL    HW233012   0.156   5.920   2.420
10705SOL     OW33013   5.547   4.965   1.101
10705SOL    HW133014   5.517   4.947   1.007
10705SOL    HW233015   5.507   4.897   1.162
10706SOL     OW33016   4.536   6.948   2.122
10706SOL    HW133017   4.568   0.014   2.156
10706SOL    HW233018   4.531   6.950   2.022
10707SOL     OW33019   6.401   0.089   4.724
10707SOL    HW133020   6.435   0.089   4.630
10707SOL    HW233021   6.472   0.125   4.785
10708SOL     OW33022   4.959   1.653   2.495
10708SOL    HW133023   4.949   1.630   2.398
10708SOL    HW233024   5.044   1.615   2.530
10709SOL     OW33025   5.395   5.649   3.715
10709SOL    HW133026   5.477   5.614   3.669
10709SOL    HW233027   5.397   5.621   3.811
10710SOL     OW33028   5.443   0.779   3.153
10710SOL    HW133029   5.538   0.757   3.177
10710SOL    HW233030   5.416   0.863   3.201
10711SOL     OW33031   2.915   6.497   3.537
10711SOL    HW133032   2.857   6.452   3.469
10711SOL    HW233033   2.879   6.588   3.556
10712SOL     OW33034   4.240   0.635   2.380
10712SOL    HW133035   4.157   0.622   2.434
10712SOL    HW233036   4.296   0.707   2.421
10713SOL     OW33037   1.327   2.970   0.427
10713SOL    HW133038   1.308   2.956   0.330
10713SOL    HW233039   1.416   3.015   0.438
10714SOL     OW33040   4.396   3.331   5.602
10714SOL    HW133041   4.394   3.278   5.517
10714SOL    HW233042   4.491   3.347   5.629
10715SOL     OW33043   4.990   0.282   2.001
10715SOL    HW133044   4.970   0.210   2.066
10715SOL    HW233045   4.950   0.368   2.033
10716SOL     OW33046   6.822   2.681   3.671
10716SOL    HW133047   6.775   2.720   3.750
10716SOL    HW233048   6.768   2.697   3.589
10717SOL     OW33049   1.944   2.762   0.258
10717SOL    HW133050   1.933   2.835   0.326
10717SOL    HW233051   1.936   2.801   0.167
10718SOL     OW33052   1.380   4.176   6.517
10718SOL    HW133053   1.419   4.267   6.532
10718SOL    HW233054   1.333   4.174   6.428
10719SOL     OW33055   6.368   6.086   3.536
10719SOL    HW133056   6.317   6.000   3.548
10719SOL    HW233057   6.414   6.086   3.448
10720SOL     OW33058   5.921   5.538   4.406
10720SOL    HW133059   5.983   5.614   4.421
10720SOL    HW233060   5.855   5.534   4.481
10721SOL     OW33061   4.989   3.894   5.398
10721SOL    HW133062   5.004   3.849   5.309
10721SOL    HW233063   5.073   3.940   5.426
10722SOL     OW33064   6.006   3.805   6.968
10722SOL    HW133065   6.076   3.767   6.907
10722SOL    HW233066   5.996   3.903   6.951
10723SOL     OW33067   0.135   1.959   6.617
10723SOL    HW133068   0.200   2.035   6.622
10723SOL    HW233069   0.084   1.953   6.703
10724SOL     OW33070   0.493   6.896   6.449
10724SOL    HW133071   0.592   6.882   6.456
10724SOL    HW233072   0.452   6.885   6.540
10725SOL     OW33073   2.031   5.322   5.282
10725SOL    HW133074   2.071   5.384   5.215
10725SOL    HW233075   2.010   5.372   5.366
10726SOL     OW33076   4.542   0.335   3.954
10726SOL    HW133077   4.446   0.333   3.926
10726SOL    HW233078   4.560   0.260   4.017
10727SOL     OW33079   0.944   4.778   6.348
10727SOL    HW133080   0.933   4.766   6.447
10727SOL    HW233081   0.950   4.875   6.326
10728SOL     OW33082   0.952   5.173   0.190
10728SOL    HW133083   0.874   5.193   0.250
10728SOL    HW233084   0.939   5.218   0.102
10729SOL     OW33085   6.256   1.731   1.894
10729SOL    HW133086   6.257   1.718   1.994
10729SOL    HW233087   6.217   1.649   1.851
10730SOL     OW33088   3.461   6.806   0.665
10730SOL    HW133089   3.454   6.827   0.762
10730SOL    HW233090   3.383   6.751   0.636
10731SOL     OW33091   3.700   0.849   0.920
10731SOL    HW133092   3.690   0.890   1.011
10731SOL    HW233093   3.610   0.830   0.882
10732SOL     OW33094   0.771   4.303   5.580
10732SOL    HW133095   0.781   4.381   5.518
10732SOL    HW233096   0.789   4.218   5.530
10733SOL     OW33097   6.040   1.086   6.695
10733SOL    HW133098   6.051   1.185   6.689
10733SOL    HW233099   5.944   1.062   6.676
10734SOL     OW33100   1.535   2.009   1.179
10734SOL    HW133101   1.623   2.044   1.148
10734SOL    HW233102   1.539   1.909   1.187
10735SOL     OW33103   0.506   2.627   2.301
10735SOL    HW133104   0.504   2.571   2.218
10735SOL    HW233105   0.576   2.592   2.363
10736SOL     OW33106   1.696   0.137   3.524
10736SOL    HW133107   1.715   0.100   3.433
10736SOL    HW233108   1.782   0.160   3.570
10737SOL     OW33109   0.846   1.951   1.134
10737SOL    HW133110   0.827   1.896   1.216
10737SOL    HW233111   0.779   2.025   1.128
10738SOL     OW33112   3.541   5.648   2.675
10738SOL    HW133113   3.529   5.588   2.595
10738SOL    HW233114   3.562   5.740   2.644
10739SOL     OW33115   1.878   2.188   1.372
10739SOL    HW133116   1.921   2.273   1.343
10739SOL    HW233117   1.826   2.204   1.456
10740SOL     OW33118   6.223   4.618   5.748
10740SOL    HW133119   6.152   4.682   5.718
10740SOL    HW233120   6.180   4.534   5.782
10741SOL     OW33121   4.091   1.322   1.519
10741SOL    HW133122   4.104   1.379   1.600
10741SOL    HW233123   4.050   1.235   1.545
10742SOL     OW33124   6.601   6.771   1.150
10742SOL    HW133125   6.678   6.803   1.095
10742SOL    HW233126   6.518   6.768   1.095
10743SOL     OW33127   1.798   1.719   5.061
10743SOL    HW133128   1.730   1.650   5.037
10743SOL    HW233129   1.755   1.809   5.063
10744SOL     OW33130   3.563   1.569   0.563
10744SOL    HW133131   3.574   1.496   0.495
10744SOL    HW233132   3.542   1.655   0.516
10745SOL     OW33133   0.234   5.138   5.572
10745SOL    HW133134   0.330   5.114   5.588
10745SOL    HW233135   0.185   5.134   5.659
10746SOL     OW33136   1.174   3.558   6.785
10746SOL    HW133137   1.109   3.604   6.847
10746SOL    HW233138   1.248   3.622   6.762
10747SOL     OW33139   3.257   0.767   4.891
10747SOL    HW133140   3.169   0.728   4.862
10747SOL    HW233141   3.268   0.755   4.989
10748SOL     OW33142   5.311   0.694   2.200
10748SOL    HW133143   5.251   0.658   2.129
10748SOL    HW233144   5.256   0.731   2.275
10749SOL     OW33145   0.737   6.217   5.067
10749SOL    HW133146   0.699   6.140   5.017
10749SOL    HW233147   0.835   6.205   5.079
10750SOL     OW33148   3.914   0.107   5.130
10750SOL    HW133149   4.010   0.125   5.110
10750SOL    HW233150   3.865   0.194   5.141
10751SOL     OW33151   2.051   4.379   4.288
10751SOL    HW133152   1.990   4.299   4.292
10751SOL    HW233153   2.020   4.441   4.217
10752SOL     OW33154   6.066   4.534   5.334
10752SOL    HW133155   6.066   4.629   5.301
10752SOL    HW233156   6.155   4.492   5.316
10753SOL     OW33157   0.293   4.478   4.135
10753SOL    HW133158   0.280   4.386   4.099
10753SOL    HW233159   0.376   4.518   4.097
10754SOL     OW33160   1.645   6.886   3.107
10754SOL    HW133161   1.703   6.885   3.026
10754SOL    HW233162   1.552   6.910   3.081
10755SOL     OW33163   0.187   0.351   1.761
10755SOL    HW133164   0.225   0.436   1.724
10755SOL    HW233165   0.116   0.372   1.828
10756SOL     OW33166   6.298   5.356   5.521
10756SOL    HW133167   6.246   5.419   5.463
10756SOL    HW233168   6.270   5.369   5.617
10757SOL     OW33169   2.838   2.512   6.660
10757SOL    HW133170   2.790   2.501   6.573
10757SOL    HW233171   2.800   2.590   6.710
10758SOL     OW33172   0.813   6.055   3.805
10758SOL    HW133173   0.839   6.127   3.741
10758SOL    HW233174   0.886   6.041   3.871
10759SOL     OW33175   1.565   3.082   0.333
10759SOL    HW133176   1.659   3.115   0.330
10759SOL    HW233177   1.561   2.990   0.294
10760SOL     OW33178   5.833   1.281   3.272
10760SOL    HW133179   5.780   1.317   3.349
10760SOL    HW233180   5.770   1.256   3.198
10761SOL     OW33181   1.035   5.519   5.313
10761SOL    HW133182   1.109   5.492   5.375
10761SOL    HW233183   1.064   5.507   5.218
10762SOL     OW33184   2.851   0.800   4.552
10762SOL    HW133185   2.877   0.771   4.644
10762SOL    HW233186   2.760   0.842   4.554
10763SOL     OW33187   4.285   0.205   2.801
10763SOL    HW133188   4.257   0.111   2.784
10763SOL    HW233189   4.382   0.207   2.828
10764SOL     OW33190   4.982   1.851   5.156
10764SOL    HW133191   5.063   1.836   5.098
10764SOL    HW233192   4.930   1.929   5.120
10765SOL     OW33193   4.938   2.859   1.124
10765SOL    HW133194   4.863   2.925   1.131
10765SOL    HW233195   4.957   2.820   1.214
10766SOL     OW33196   3.900   4.565   0.427
10766SOL    HW133197   3.893   4.664   0.434
10766SOL    HW233198   3.901   4.525   0.519
10767SOL     OW33199   2.493   0.690   0.874
10767SOL    HW133200   2.509   0.788   0.876
10767SOL    HW233201   2.539   0.647   0.951
10768SOL     OW33202   5.706   4.981   1.881
10768SOL    HW133203   5.769   4.944   1.948
10768SOL    HW233204   5.714   5.081   1.879
10769SOL     OW33205   1.685   3.520   5.825
10769SOL    HW133206   1.752   3.528   5.752
10769SOL    HW233207   1.635   3.606   5.834
10770SOL     OW33208   5.201   6.478   3.792
10770SOL    HW133209   5.237   6.558   3.745
10770SOL    HW233210   5.134   6.507   3.861
10771SOL     OW33211   4.189   0.415   3.690
10771SOL    HW133212   4.124   0.351   3.730
10771SOL    HW233213   4.151   0.508   3.691
10772SOL     OW33214   5.898   6.427   4.255
10772SOL    HW133215   5.883   6.333   4.224
10772SOL    HW233216   5.826   6.452   4.320
10773SOL     OW33217   5.747   4.800   6.218
10773SOL    HW133218   5.828   4.797   6.159
10773SOL    HW233219   5.777   4.811   6.313
10774SOL     OW33220   1.935   1.474   4.783
10774SOL    HW133221   1.989   1.480   4.867
10774SOL    HW233222   1.913   1.379   4.763
10775SOL     OW33223   0.410   4.572   2.192
10775SOL    HW133224   0.478   4.505   2.221
10775SOL    HW233225   0.438   4.613   2.105
10776SOL     OW33226   0.666   0.649   6.661
10776SOL    HW133227   0.694   0.578   6.726
10776SOL    HW233228   0.724   0.645   6.580
10777SOL     OW33229   3.772   5.332   1.092
10777SOL    HW133230   3.776   5.309   0.995
10777SOL    HW233231   3.707   5.272   1.138
10778SOL     OW33232   5.094   0.384   3.767
10778SOL    HW133233   4.996   0.367   3.778
10778SOL    HW233234   5.117   0.472   3.807
10779SOL     OW33235   5.775   2.984   3.058
10779SOL    HW133236   5.778   3.054   2.986
10779SOL    HW233237   5.857   2.992   3.114
10780SOL     OW33238   0.903   0.574   4.259
10780SOL    HW133239   1.001   0.574   4.241
10780SOL    HW233240   0.854   0.612   4.180
10781SOL     OW33241   3.832   1.330   2.993
10781SOL    HW133242   3.736   1.352   2.979
10781SOL    HW233243   3.879   1.409   3.033
10782SOL     OW33244   6.903   0.149   4.077
10782SOL    HW133245   6.942   0.058   4.061
10782SOL    HW233246   6.975   0.218   4.072
10783SOL     OW33247   0.380   2.968   2.880
10783SOL    HW133248   0.396   2.940   2.975
10783SOL    HW233249   0.352   2.888   2.826
10784SOL     OW33250   3.498   1.016   4.014
10784SOL    HW133251   3.459   1.077   4.084
10784SOL    HW233252   3.423   0.967   3.968
10785SOL     OW33253   1.055   3.724   0.747
10785SOL    HW133254   1.078   3.787   0.673
10785SOL    HW233255   0.981   3.663   0.717
10786SOL     OW33256   6.016   5.511   2.534
10786SOL    HW133257   6.011   5.412   2.521
10786SOL    HW233258   5.960   5.556   2.466
10787SOL     OW33259   0.857   0.420   5.150
10787SOL    HW133260   0.920   0.369   5.209
10787SOL    HW233261   0.849   0.514   5.184
10788SOL     OW33262   0.813   3.511   0.889
10788SOL    HW133263   0.770   3.525   0.978
10788SOL    HW233264   0.784   3.583   0.826
10789SOL     OW33265   6.199   3.270   7.004
10789SOL    HW133266   6.179   3.194   0.044
10789SOL    HW233267   6.297   3.274   6.986
10790SOL     OW33268   0.864   6.598   1.728
10790SOL    HW133269   0.830   6.596   1.635
10790SOL    HW233270   0.957   6.562   1.731
10791SOL     OW33271   6.824   6.142   2.276
10791SOL    HW133272   6.762   6.076   2.232
10791SOL    HW233273   6.913   6.139   2.230
10792SOL     OW33274   3.197   3.084   5.279
10792SOL    HW133275   3.164   2.990   5.270
10792SOL    HW233276   3.297   3.085   5.280
10793SOL     OW33277   6.086   3.683   5.749
10793SOL    HW133278   6.156   3.736   5.798
10793SOL    HW233279   6.040   3.622   5.813
10794SOL     OW33280   3.730   3.267   4.530
10794SOL    HW133281   3.668   3.228   4.598
10794SOL    HW233282   3.823   3.234   4.547
10795SOL     OW33283   0.323   5.337   3.043
10795SOL    HW133284   0.381   5.275   2.992
10795SOL    HW233285   0.278   5.288   3.118
10796SOL     OW33286   6.410   6.529   5.368
10796SOL    HW133287   6.481   6.473   5.412
10796SOL    HW233288   6.453   6.608   5.325
10797SOL     OW33289   3.851   2.993   0.794
10797SOL    HW133290   3.825   2.992   0.891
10797SOL    HW233291   3.935   3.046   0.783
10798SOL     OW33292   2.347   1.765   0.455
10798SOL    HW133293   2.438   1.747   0.494
10798SOL    HW233294   2.338   1.862   0.435
10799SOL     OW33295   4.613   0.687   2.456
10799SOL    HW133296   4.680   0.733   2.399
10799SOL    HW233297   4.531   0.744   2.466
10800SOL     OW33298   0.472   6.040   6.624
10800SOL    HW133299   0.393   6.091   6.659
10800SOL    HW233300   0.504   6.083   6.539
10801SOL     OW33301   1.457   6.774   0.980
10801SOL    HW133302   1.374   6.744   1.028
10801SOL    HW233303   1.520   6.815   1.046
10802SOL     OW33304   0.278   6.555   2.804
10802SOL    HW133305   0.250   6.627   2.741
10802SOL    HW233306   0.240   6.467   2.774
10803SOL     OW33307   1.602   5.774   6.253
10803SOL    HW133308   1.585   5.716   6.333
10803SOL    HW233309   1.516   5.794   6.207
10804SOL     OW33310   7.013   2.901   3.419
10804SOL    HW133311   6.915   2.919   3.418
10804SOL    HW233312   0.008   2.805   3.397
10805SOL     OW33313   5.604   1.175   5.342
10805SOL    HW133314   5.533   1.105   5.351
10805SOL    HW233315   5.688   1.134   5.307
10806SOL     OW33316   3.508   5.020   6.625
10806SOL    HW133317   3.476   4.998   6.533
10806SOL    HW233318   3.605   5.043   6.622
10807SOL     OW33319   1.344   5.399   4.075
10807SOL    HW133320   1.258   5.437   4.044
10807SOL    HW233321   1.349   5.302   4.050
10808SOL     OW33322   0.297   2.967   6.163
10808SOL    HW133323   0.209   2.981   6.119
10808SOL    HW233324   0.303   2.873   6.198
10809SOL     OW33325   1.583   4.082   4.267
10809SOL    HW133326   1.661   4.143   4.252
10809SOL    HW233327   1.587   4.044   4.359
10810SOL     OW33328   6.685   0.299   3.655
10810SOL    HW133329   6.628   0.287   3.574
10810SOL    HW233330   6.781   0.289   3.629
10811SOL     OW33331   4.859   5.303   4.376
10811SOL    HW133332   4.853   5.205   4.358
10811SOL    HW233333   4.808   5.325   4.459
10812SOL     OW33334   6.540   3.389   6.712
10812SOL    HW133335   6.563   3.482   6.684
10812SOL    HW233336   6.614   3.327   6.685
10813SOL     OW33337   0.143   3.662   6.282
10813SOL    HW133338   0.075   3.589   6.282
10813SOL    HW233339   0.226   3.631   6.327
10814SOL     OW33340   2.566   0.193   0.971
10814SOL    HW133341   2.527   0.220   0.883
10814SOL    HW233342   2.500   0.136   1.021
10815SOL     OW33343   5.199   1.500   3.361
10815SOL    HW133344   5.194   1.461   3.270
10815SOL    HW233345   5.155   1.590   3.361
10816SOL     OW33346   3.689   3.127   2.990
10816SOL    HW133347   3.599   3.142   3.031
10816SOL    HW233348   3.731   3.046   3.030
10817SOL     OW33349   3.203   0.800   3.587
10817SOL    HW133350   3.270   0.730   3.610
10817SOL    HW233351   3.249   0.877   3.542
10818SOL     OW33352   4.546   5.083   5.582
10818SOL    HW133353   4.470   5.146   5.603
10818SOL    HW233354   4.530   5.040   5.493
10819SOL     OW33355   6.187   5.471   6.193
10819SOL    HW133356   6.274   5.517   6.207
10819SOL    HW233357   6.188   5.424   6.105
10820SOL     OW33358   0.703   5.532   4.988
10820SOL    HW133359   0.657   5.609   5.031
10820SOL    HW233360   0.663   5.514   4.898
10821SOL     OW33361   4.294   5.779   2.900
10821SOL    HW133362   4.345   5.717   2.841
10821SOL    HW233363   4.313   5.757   2.996
10822SOL     OW33364   5.367   2.401   1.197
10822SOL    HW133365   5.430   2.328   1.171
10822SOL    HW233366   5.278   2.384   1.156
10823SOL     OW33367   0.601   0.194   3.370
10823SOL    HW133368   0.581   0.210   3.467
10823SOL    HW233369   0.516   0.189   3.318
10824SOL     OW33370   1.097   1.010   3.513
10824SOL    HW133371   1.136   1.055   3.593
10824SOL    HW233372   1.138   1.048   3.430
10825SOL     OW33373   1.393   2.456   0.806
10825SOL    HW133374   1.316   2.478   0.746
10825SOL    HW233375   1.435   2.371   0.775
10826SOL     OW33376   0.963   1.775   2.581
10826SOL    HW133377   0.998   1.690   2.620
10826SOL    HW233378   1.024   1.850   2.605
10827SOL     OW33379   6.508   3.679   4.996
10827SOL    HW133380   6.425   3.665   4.942
10827SOL    HW233381   6.505   3.621   5.077
10828SOL     OW33382   6.388   3.706   6.995
10828SOL    HW133383   6.364   3.723   0.068
10828SOL    HW233384   6.487   3.699   6.986
10829SOL     OW33385   4.650   3.299   6.888
10829SOL    HW133386   4.746   3.276   6.877
10829SOL    HW233387   4.634   3.394   6.861
10830SOL     OW33388   4.454   1.517   3.843
10830SOL    HW133389   4.374   1.470   3.881
10830SOL    HW233390   4.530   1.509   3.908
10831SOL     OW33391   3.733   0.674   2.088
10831SOL    HW133392   3.636   0.657   2.068
10831SOL    HW233393   3.754   0.771   2.073
10832SOL     OW33394   6.813   3.363   0.004
10832SOL    HW133395   6.816   3.269   6.993
10832SOL    HW233396   6.780   3.423   6.953
10833SOL     OW33397   0.224   2.410   0.911
10833SOL    HW133398   0.193   2.315   0.920
10833SOL    HW233399   0.297   2.427   0.977
10834SOL     OW33400   6.570   0.494   0.895
10834SOL    HW133401   6.487   0.501   0.950
10834SOL    HW233402   6.567   0.411   0.840
10835SOL     OW33403   5.132   3.259   0.383
10835SOL    HW133404   5.192   3.280   0.460
10835SOL    HW233405   5.042   3.234   0.417
10836SOL     OW33406   1.355   0.547   2.606
10836SOL    HW133407   1.423   0.480   2.574
10836SOL    HW233408   1.346   0.620   2.538
10837SOL     OW33409   6.172   4.458   2.052
10837SOL    HW133410   6.218   4.483   1.966
10837SOL    HW233411   6.074   4.445   2.034
10838SOL     OW33412   5.250   6.710   3.631
10838SOL    HW133413   5.228   6.688   3.536
10838SOL    HW233414   5.348   6.732   3.637
10839SOL     OW33415   4.457   3.421   0.074
10839SOL    HW133416   4.553   3.435   0.099
10839SOL    HW233417   4.443   3.326   0.045
10840SOL     OW33418   3.020   0.733   1.923
10840SOL    HW133419   2.947   0.797   1.949
10840SOL    HW233420   3.093   0.783   1.877
10841SOL     OW33421   6.627   5.343   4.852
10841SOL    HW133422   6.597   5.307   4.763
10841SOL    HW233423   6.676   5.272   4.902
10842SOL     OW33424   4.284   3.125   1.640
10842SOL    HW133425   4.274   3.217   1.600
10842SOL    HW233426   4.201   3.101   1.690
10843SOL     OW33427   2.233   1.766   1.015
10843SOL    HW133428   2.274   1.775   0.924
10843SOL    HW233429   2.265   1.841   1.073
10844SOL     OW33430   0.319   6.118   4.627
10844SOL    HW133431   0.297   6.106   4.723
10844SOL    HW233432   0.413   6.150   4.617
10845SOL     OW33433   4.482   5.814   5.070
10845SOL    HW133434   4.417   5.788   4.999
10845SOL    HW233435   4.482   5.744   5.142
10846SOL     OW33436   6.176   6.284   6.578
10846SOL    HW133437   6.102   6.218   6.566
10846SOL    HW233438   6.238   6.253   6.650
10847SOL     OW33439   2.055   1.542   0.015
10847SOL    HW133440   1.984   1.569   0.080
10847SOL    HW233441   2.095   1.455   0.044
10848SOL     OW33442   0.686   3.889   1.310
10848SOL    HW133443   0.724   3.880   1.218
10848SOL    HW233444   0.744   3.951   1.363
10849SOL     OW33445   2.675   4.727   4.370
10849SOL    HW133446   2.628   4.738   4.282
10849SOL    HW233447   2.610   4.689   4.437
10850SOL     OW33448   4.339   6.485   0.383
10850SOL    HW133449   4.357   6.454   0.476
10850SOL    HW233450   4.396   6.564   0.361
10851SOL     OW33451   2.849   4.268   1.722
10851SOL    HW133452   2.845   4.360   1.762
10851SOL    HW233453   2.761   4.245   1.682
10852SOL     OW33454   2.146   1.310   0.182
10852SOL    HW133455   2.178   1.218   0.203
10852SOL    HW233456   2.195   1.377   0.238
10853SOL     OW33457   2.329   2.980   6.232
10853SOL    HW133458   2.308   2.884   6.211
10853SOL    HW233459   2.261   3.016   6.295
10854SOL     OW33460   4.135   5.578   4.792
10854SOL    HW133461   4.116   5.523   4.711
10854SOL    HW233462   4.062   5.564   4.859
10855SOL     OW33463   3.728   1.278   0.647
10855SOL    HW133464   3.631   1.273   0.670
10855SOL    HW233465   3.768   1.359   0.689
10856SOL     OW33466   6.675   0.743   6.231
10856SOL    HW133467   6.612   0.817   6.253
10856SOL    HW233468   6.624   0.658   6.218
10857SOL     OW33469   0.163   1.614   2.613
10857SOL    HW133470   0.174   1.713   2.629
10857SOL    HW233471   0.248   1.577   2.576
10858SOL     OW33472   2.351   6.328   1.561
10858SOL    HW133473   2.392   6.263   1.625
10858SOL    HW233474   2.359   6.421   1.597
10859SOL     OW33475   0.127   4.854   4.528
10859SOL    HW133476   0.032   4.840   4.558
10859SOL    HW233477   0.129   4.864   4.428
10860SOL     OW33478   6.876   3.588   3.167
10860SOL    HW133479   6.785   3.628   3.154
10860SOL    HW233480   6.890   3.567   3.264
10861SOL     OW33481   2.885   3.397   3.434
10861SOL    HW133482   2.927   3.310   3.460
10861SOL    HW233483   2.867   3.451   3.516
10862SOL     OW33484   1.820   0.958   5.621
10862SOL    HW133485   1.761   0.887   5.582
10862SOL    HW233486   1.764   1.022   5.675
10863SOL     OW33487   2.193   6.756   4.725
10863SOL    HW133488   2.151   6.721   4.641
10863SOL    HW233489   2.133   6.825   4.766
10864SOL     OW33490   3.271   6.559   2.160
10864SOL    HW133491   3.305   6.557   2.066
10864SOL    HW233492   3.337   6.515   2.220
10865SOL     OW33493   6.474   1.147   6.838
10865SOL    HW133494   6.563   1.104   6.851
10865SOL    HW233495   6.406   1.077   6.815
10866SOL     OW33496   4.932   4.798   6.675
10866SOL    HW133497   5.019   4.812   6.628
10866SOL    HW233498   4.869   4.872   6.652
10867SOL     OW33499   3.079   4.768   0.535
10867SOL    HW133500   2.998   4.827   0.533
10867SOL    HW233501   3.161   4.824   0.544
10868SOL     OW33502   4.683   1.876   3.549
10868SOL    HW133503   4.631   1.820   3.613
10868SOL    HW233504   4.624   1.950   3.515
10869NA      NA33505   6.080   2.149   5.696
10870NA      NA33506   4.375   4.708   5.109
10871NA      NA33507   1.707   3.594   1.505
10872NA      NA33508   4.977   3.650   5.450
10873NA      NA33509   4.139   2.229   4.978
10874NA      NA33510   3.791   4.712   1.744
10875NA      NA33511   6.583   5.424   5.376
10876NA      NA33512   3.549   3.239   4.921
10877NA      NA33513   5.128   6.551   6.800
10878NA      NA33514   3.345   6.480   5.439
10879NA      NA33515   6.695   5.235   2.284
10880NA      NA33516   2.471   0.563   3.775
10881NA      NA33517   3.969   5.319   1.224
10882NA      NA33518   3.540   3.417   2.456
   7.02258   7.02258   7.02258
