Generated by trjconv : CNT in water t= 160.00000
33518
    1C        C    1   2.846   2.769   4.747
    1C        C    2   2.901   2.719   4.867
    1C        C    3   2.846   2.771   4.985
    1C        C    4   2.848   2.777   4.261
    1C        C    5   2.902   2.730   4.383
    1C        C    6   2.849   2.776   4.505
    1C        C    7   3.015   2.643   4.625
    1C        C    8   2.896   2.718   4.625
    1C        C    9   3.081   2.606   4.745
    1C        C   10   3.013   2.632   4.866
    1C        C   11   3.182   2.488   4.976
    1C        C   12   3.064   2.563   4.976
    1C        C   13   2.854   2.778   3.771
    1C        C   14   2.905   2.730   3.894
    1C        C   15   2.853   2.776   4.017
    1C        C   16   3.021   2.652   4.142
    1C        C   17   2.904   2.730   4.141
    1C        C   18   3.084   2.617   4.263
    1C        C   19   3.018   2.649   4.384
    1C        C   20   3.210   2.553   4.504
    1C        C   21   3.079   2.606   4.505
    1C        C   22   3.281   2.537   4.625
    1C        C   23   3.212   2.552   4.748
    1C        C   24   3.416   2.488   4.865
    1C        C   25   3.274   2.506   4.868
    1C        C   26   3.492   2.476   4.982
    1C        C   27   2.848   2.772   3.284
    1C        C   28   2.904   2.726   3.405
    1C        C   29   2.854   2.774   3.528
    1C        C   30   3.023   2.644   3.652
    1C        C   31   2.910   2.730   3.650
    1C        C   32   3.079   2.604   3.775
    1C        C   33   3.018   2.645   3.896
    1C        C   34   3.211   2.561   4.017
    1C        C   35   3.080   2.615   4.019
    1C        C   36   3.282   2.539   4.137
    1C        C   37   3.215   2.565   4.259
    1C        C   38   3.418   2.509   4.380
    1C        C   39   3.280   2.540   4.382
    1C        C   40   3.490   2.504   4.501
    1C        C   41   3.420   2.516   4.623
    1C        C   42   3.632   2.484   4.745
    1C        C   43   3.490   2.491   4.744
    1C        C   44   3.705   2.486   4.866
    1C        C   45   3.631   2.476   4.984
    1C        C   46   2.832   2.752   2.797
    1C        C   47   2.895   2.717   2.919
    1C        C   48   2.845   2.765   3.042
    1C        C   49   3.016   2.638   3.163
    1C        C   50   2.902   2.721   3.164
    1C        C   51   3.080   2.607   3.285
    1C        C   52   3.019   2.644   3.407
    1C        C   53   3.210   2.548   3.527
    1C        C   54   3.081   2.607   3.528
    1C        C   55   3.279   2.534   3.650
    1C        C   56   3.211   2.555   3.772
    1C        C   57   3.418   2.511   3.893
    1C        C   58   3.279   2.536   3.895
    1C        C   59   3.490   2.503   4.014
    1C        C   60   3.420   2.510   4.137
    1C        C   61   3.632   2.502   4.262
    1C        C   62   3.490   2.505   4.259
    1C        C   63   3.703   2.506   4.384
    1C        C   64   3.631   2.500   4.505
    1C        C   65   3.839   2.544   4.625
    1C        C   66   3.705   2.498   4.625
    1C        C   67   3.905   2.571   4.746
    1C        C   68   3.840   2.529   4.864
    1C        C   69   4.050   2.586   4.978
    1C        C   70   3.919   2.536   4.979
    1C        C   71   2.833   2.744   2.311
    1C        C   72   2.886   2.695   2.432
    1C        C   73   2.832   2.746   2.552
    1C        C   74   3.007   2.631   2.674
    1C        C   75   2.888   2.706   2.676
    1C        C   76   3.072   2.601   2.796
    1C        C   77   3.014   2.640   2.919
    1C        C   78   3.208   2.553   3.038
    1C        C   79   3.075   2.600   3.040
    1C        C   80   3.280   2.535   3.159
    1C        C   81   3.213   2.559   3.281
    1C        C   82   3.415   2.504   3.403
    1C        C   83   3.276   2.530   3.404
    1C        C   84   3.488   2.498   3.524
    1C        C   85   3.418   2.508   3.647
    1C        C   86   3.627   2.500   3.770
    1C        C   87   3.486   2.501   3.770
    1C        C   88   3.698   2.506   3.893
    1C        C   89   3.631   2.500   4.018
    1C        C   90   3.839   2.545   4.139
    1C        C   91   3.702   2.511   4.140
    1C        C   92   3.905   2.572   4.261
    1C        C   93   3.839   2.547   4.383
    1C        C   94   4.034   2.633   4.501
    1C        C   95   3.907   2.572   4.504
    1C        C   96   4.098   2.666   4.623
    1C        C   97   4.036   2.627   4.744
    1C        C   98   4.192   2.769   4.864
    1C        C   99   4.103   2.658   4.866
    1C        C  100   4.211   2.847   4.979
    1C        C  101   2.820   2.731   2.074
    1C        C  102   2.992   2.595   2.192
    1C        C  103   2.881   2.685   2.191
    1C        C  104   3.065   2.574   2.312
    1C        C  105   3.004   2.616   2.432
    1C        C  106   3.205   2.548   2.552
    1C        C  107   3.074   2.599   2.553
    1C        C  108   3.272   2.528   2.675
    1C        C  109   3.204   2.551   2.796
    1C        C  110   3.414   2.503   2.915
    1C        C  111   3.276   2.530   2.916
    1C        C  112   3.487   2.494   3.035
    1C        C  113   3.419   2.508   3.158
    1C        C  114   3.627   2.503   3.280
    1C        C  115   3.486   2.501   3.281
    1C        C  116   3.698   2.511   3.403
    1C        C  117   3.629   2.502   3.525
    1C        C  118   3.835   2.543   3.651
    1C        C  119   3.698   2.512   3.648
    1C        C  120   3.898   2.574   3.774
    1C        C  121   3.833   2.547   3.896
    1C        C  122   4.032   2.629   4.012
    1C        C  123   3.903   2.571   4.016
    1C        C  124   4.092   2.667   4.134
    1C        C  125   4.033   2.631   4.258
    1C        C  126   4.195   2.769   4.376
    1C        C  127   4.094   2.671   4.379
    1C        C  128   4.244   2.819   4.498
    1C        C  129   4.198   2.765   4.620
    1C        C  130   4.326   2.937   4.739
    1C        C  131   4.245   2.820   4.742
    1C        C  132   4.353   3.008   4.858
    1C        C  133   4.281   2.967   4.971
    1C        C  134   3.177   2.474   2.082
    1C        C  135   3.043   2.512   2.086
    1C        C  136   3.264   2.486   2.191
    1C        C  137   3.197   2.521   2.311
    1C        C  138   3.408   2.482   2.430
    1C        C  139   3.270   2.512   2.432
    1C        C  140   3.483   2.484   2.550
    1C        C  141   3.410   2.497   2.670
    1C        C  142   3.623   2.493   2.793
    1C        C  143   3.482   2.489   2.791
    1C        C  144   3.698   2.502   2.912
    1C        C  145   3.629   2.490   3.035
    1C        C  146   3.835   2.532   3.155
    1C        C  147   3.697   2.499   3.158
    1C        C  148   3.900   2.560   3.277
    1C        C  149   3.836   2.544   3.402
    1C        C  150   4.026   2.626   3.521
    1C        C  151   3.900   2.561   3.526
    1C        C  152   4.086   2.665   3.642
    1C        C  153   4.026   2.634   3.766
    1C        C  154   4.192   2.765   3.889
    1C        C  155   4.084   2.674   3.889
    1C        C  156   4.245   2.814   4.010
    1C        C  157   4.195   2.764   4.133
    1C        C  158   4.343   2.921   4.252
    1C        C  159   4.247   2.817   4.253
    1C        C  160   4.374   2.983   4.375
    1C        C  161   4.332   2.930   4.498
    1C        C  162   4.438   3.118   4.615
    1C        C  163   4.373   2.992   4.618
    1C        C  164   4.464   3.187   4.735
    1C        C  165   4.432   3.125   4.857
    1C        C  166   4.515   3.321   4.972
    1C        C  167   4.482   3.186   4.973
    1C        C  168   3.474   2.432   2.073
    1C        C  169   3.403   2.461   2.190
    1C        C  170   3.621   2.465   2.307
    1C        C  171   3.478   2.464   2.309
    1C        C  172   3.695   2.484   2.425
    1C        C  173   3.624   2.492   2.547
    1C        C  174   3.830   2.536   2.665
    1C        C  175   3.693   2.502   2.670
    1C        C  176   3.900   2.557   2.786
    1C        C  177   3.837   2.529   2.909
    1C        C  178   4.028   2.616   3.032
    1C        C  179   3.901   2.555   3.032
    1C        C  180   4.087   2.658   3.153
    1C        C  181   4.025   2.626   3.276
    1C        C  182   4.197   2.750   3.399
    1C        C  183   4.087   2.660   3.398
    1C        C  184   4.246   2.803   3.521
    1C        C  185   4.196   2.754   3.643
    1C        C  186   4.332   2.918   3.767
    1C        C  187   4.244   2.808   3.765
    1C        C  188   4.374   2.983   3.885
    1C        C  189   4.337   2.922   4.007
    1C        C  190   4.442   3.106   4.126
    1C        C  191   4.382   2.978   4.129
    1C        C  192   4.466   3.172   4.248
    1C        C  193   4.437   3.110   4.372
    1C        C  194   4.498   3.318   4.491
    1C        C  195   4.458   3.183   4.491
    1C        C  196   4.526   3.388   4.611
    1C        C  197   4.508   3.322   4.735
    1C        C  198   4.560   3.535   4.851
    1C        C  199   4.530   3.395   4.855
    1C        C  200   4.585   3.618   4.965
    1C        C  201   3.614   2.421   2.073
    1C        C  202   3.827   2.512   2.180
    1C        C  203   3.693   2.463   2.185
    1C        C  204   3.898   2.542   2.299
    1C        C  205   3.831   2.522   2.422
    1C        C  206   4.025   2.613   2.543
    1C        C  207   3.900   2.547   2.543
    1C        C  208   4.082   2.659   2.664
    1C        C  209   4.026   2.621   2.788
    1C        C  210   4.196   2.746   2.907
    1C        C  211   4.088   2.655   2.910
    1C        C  212   4.249   2.792   3.029
    1C        C  213   4.199   2.745   3.153
    1C        C  214   4.324   2.915   3.274
    1C        C  215   4.244   2.799   3.275
    1C        C  216   4.366   2.973   3.396
    1C        C  217   4.328   2.918   3.520
    1C        C  218   4.433   3.101   3.638
    1C        C  219   4.367   2.977   3.643
    1C        C  220   4.454   3.174   3.758
    1C        C  221   4.435   3.110   3.882
    1C        C  222   4.498   3.312   4.005
    1C        C  223   4.466   3.174   4.004
    1C        C  224   4.511   3.381   4.127
    1C        C  225   4.504   3.308   4.248
    1C        C  226   4.517   3.525   4.369
    1C        C  227   4.508   3.384   4.367
    1C        C  228   4.518   3.599   4.489
    1C        C  229   4.530   3.529   4.611
    1C        C  230   4.507   3.745   4.726
    1C        C  231   4.539   3.606   4.729
    1C        C  232   4.500   3.821   4.844
    1C        C  233   4.542   3.752   4.958
    1C        C  234   4.017   2.611   2.061
    1C        C  235   3.899   2.539   2.062
    1C        C  236   4.084   2.646   2.179
    1C        C  237   4.026   2.605   2.301
    1C        C  238   4.201   2.732   2.419
    1C        C  239   4.089   2.643   2.421
    1C        C  240   4.250   2.786   2.540
    1C        C  241   4.193   2.747   2.662
    1C        C  242   4.334   2.906   2.785
    1C        C  243   4.245   2.796   2.784
    1C        C  244   4.375   2.962   2.908
    1C        C  245   4.335   2.904   3.031
    1C        C  246   4.433   3.095   3.150
    1C        C  247   4.366   2.971   3.152
    1C        C  248   4.457   3.163   3.272
    1C        C  249   4.430   3.099   3.395
    1C        C  250   4.494   3.304   3.512
    1C        C  251   4.460   3.167   3.516
    1C        C  252   4.506   3.376   3.633
    1C        C  253   4.493   3.309   3.757
    1C        C  254   4.518   3.518   3.882
    1C        C  255   4.509   3.377   3.880
    1C        C  256   4.515   3.592   4.002
    1C        C  257   4.519   3.522   4.124
    1C        C  258   4.492   3.734   4.242
    1C        C  259   4.516   3.595   4.245
    1C        C  260   4.473   3.806   4.363
    1C        C  261   4.487   3.737   4.485
    1C        C  262   4.428   3.944   4.606
    1C        C  263   4.477   3.811   4.605
    1C        C  264   4.402   4.013   4.726
    1C        C  265   4.439   3.949   4.846
    1C        C  266   4.325   4.137   4.960
    1C        C  267   4.393   4.016   4.960
    1C        C  268   4.262   2.779   2.066
    1C        C  269   4.192   2.737   2.180
    1C        C  270   4.347   2.891   2.299
    1C        C  271   4.250   2.788   2.299
    1C        C  272   4.380   2.955   2.420
    1C        C  273   4.339   2.896   2.542
    1C        C  274   4.445   3.083   2.661
    1C        C  275   4.381   2.957   2.662
    1C        C  276   4.465   3.154   2.782
    1C        C  277   4.440   3.087   2.905
    1C        C  278   4.494   3.294   3.025
    1C        C  279   4.460   3.157   3.026
    1C        C  280   4.505   3.366   3.146
    1C        C  281   4.490   3.300   3.270
    1C        C  282   4.518   3.514   3.389
    1C        C  283   4.505   3.373   3.390
    1C        C  284   4.514   3.584   3.512
    1C        C  285   4.513   3.517   3.636
    1C        C  286   4.492   3.727   3.754
    1C        C  287   4.512   3.588   3.759
    1C        C  288   4.478   3.798   3.876
    1C        C  289   4.495   3.732   4.000
    1C        C  290   4.428   3.936   4.118
    1C        C  291   4.477   3.804   4.120
    1C        C  292   4.403   4.005   4.239
    1C        C  293   4.426   3.939   4.361
    1C        C  294   4.329   4.129   4.480
    1C        C  295   4.398   4.006   4.482
    1C        C  296   4.288   4.192   4.600
    1C        C  297   4.332   4.137   4.723
    1C        C  298   4.204   4.318   4.840
    1C        C  299   4.290   4.203   4.842
    1C        C  300   4.170   4.404   4.948
    1C        C  301   4.351   2.886   2.063
    1C        C  302   4.465   3.074   2.178
    1C        C  303   4.400   2.946   2.179
    1C        C  304   4.482   3.144   2.301
    1C        C  305   4.450   3.078   2.421
    1C        C  306   4.507   3.285   2.537
    1C        C  307   4.482   3.146   2.541
    1C        C  308   4.513   3.359   2.658
    1C        C  309   4.496   3.291   2.781
    1C        C  310   4.520   3.504   2.899
    1C        C  311   4.508   3.363   2.902
    1C        C  312   4.521   3.576   3.020
    1C        C  313   4.517   3.507   3.144
    1C        C  314   4.488   3.719   3.265
    1C        C  315   4.508   3.579   3.265
    1C        C  316   4.472   3.788   3.387
    1C        C  317   4.491   3.724   3.512
    1C        C  318   4.425   3.928   3.627
    1C        C  319   4.474   3.796   3.632
    1C        C  320   4.392   3.990   3.750
    1C        C  321   4.429   3.931   3.872
    1C        C  322   4.318   4.113   3.990
    1C        C  323   4.396   3.995   3.994
    1C        C  324   4.280   4.173   4.112
    1C        C  325   4.328   4.125   4.236
    1C        C  326   4.190   4.287   4.355
    1C        C  327   4.286   4.184   4.357
    1C        C  328   4.142   4.345   4.475
    1C        C  329   4.196   4.299   4.597
    1C        C  330   4.026   4.434   4.714
    1C        C  331   4.145   4.356   4.716
    1C        C  332   3.975   4.494   4.831
    1C        C  333   4.055   4.485   4.945
    1C        C  334   4.549   3.270   2.062
    1C        C  335   4.532   3.131   2.065
    1C        C  336   4.536   3.353   2.175
    1C        C  337   4.514   3.283   2.295
    1C        C  338   4.523   3.498   2.413
    1C        C  339   4.516   3.357   2.415
    1C        C  340   4.518   3.571   2.533
    1C        C  341   4.519   3.500   2.655
    1C        C  342   4.495   3.712   2.777
    1C        C  343   4.514   3.572   2.776
    1C        C  344   4.479   3.784   2.898
    1C        C  345   4.493   3.714   3.020
    1C        C  346   4.429   3.919   3.137
    1C        C  347   4.476   3.786   3.141
    1C        C  348   4.399   3.983   3.260
    1C        C  349   4.425   3.921   3.384
    1C        C  350   4.325   4.111   3.503
    1C        C  351   4.399   3.991   3.503
    1C        C  352   4.282   4.172   3.623
    1C        C  353   4.325   4.114   3.744
    1C        C  354   4.181   4.271   3.866
    1C        C  355   4.277   4.168   3.866
    1C        C  356   4.127   4.319   3.987
    1C        C  357   4.182   4.274   4.110
    1C        C  358   4.014   4.403   4.230
    1C        C  359   4.130   4.323   4.232
    1C        C  360   3.957   4.449   4.351
    1C        C  361   4.024   4.422   4.472
    1C        C  362   3.830   4.516   4.592
    1C        C  363   3.961   4.463   4.592
    1C        C  364   3.765   4.549   4.713
    1C        C  365   3.843   4.545   4.830
    1C        C  366   3.633   4.586   4.948
    1C        C  367   3.772   4.579   4.946
    1C        C  368   4.518   3.567   2.053
    1C        C  369   4.526   3.494   2.172
    1C        C  370   4.502   3.710   2.288
    1C        C  371   4.514   3.569   2.291
    1C        C  372   4.481   3.779   2.409
    1C        C  373   4.495   3.711   2.532
    1C        C  374   4.432   3.913   2.651
    1C        C  375   4.482   3.781   2.654
    1C        C  376   4.401   3.980   2.771
    1C        C  377   4.433   3.917   2.894
    1C        C  378   4.323   4.101   3.012
    1C        C  379   4.403   3.984   3.015
    1C        C  380   4.278   4.156   3.134
    1C        C  381   4.320   4.100   3.257
    1C        C  382   4.184   4.264   3.374
    1C        C  383   4.279   4.160   3.378
    1C        C  384   4.127   4.310   3.495
    1C        C  385   4.179   4.269   3.620
    1C        C  386   4.010   4.395   3.742
    1C        C  387   4.124   4.311   3.743
    1C        C  388   3.950   4.433   3.864
    1C        C  389   4.011   4.399   3.987
    1C        C  390   3.818   4.490   4.108
    1C        C  391   3.948   4.433   4.109
    1C        C  392   3.751   4.508   4.230
    1C        C  393   3.824   4.496   4.351
    1C        C  394   3.620   4.558   4.474
    1C        C  395   3.758   4.530   4.471
    1C        C  396   3.547   4.573   4.595
    1C        C  397   3.625   4.564   4.712
    1C        C  398   3.414   4.549   4.838
    1C        C  399   3.554   4.568   4.834
    1C        C  400   3.346   4.520   4.957
    1C        C  401   4.501   3.705   2.049
    1C        C  402   4.450   3.917   2.167
    1C        C  403   4.487   3.781   2.167
    1C        C  404   4.411   3.980   2.287
    1C        C  405   4.438   3.913   2.408
    1C        C  406   4.329   4.098   2.526
    1C        C  407   4.406   3.980   2.529
    1C        C  408   4.281   4.154   2.646
    1C        C  409   4.323   4.098   2.769
    1C        C  410   4.179   4.255   2.888
    1C        C  411   4.274   4.151   2.890
    1C        C  412   4.129   4.304   3.011
    1C        C  413   4.179   4.258   3.134
    1C        C  414   4.005   4.383   3.251
    1C        C  415   4.126   4.310   3.254
    1C        C  416   3.946   4.418   3.375
    1C        C  417   4.007   4.385   3.498
    1C        C  418   3.816   4.480   3.620
    1C        C  419   3.945   4.422   3.620
    1C        C  420   3.748   4.503   3.742
    1C        C  421   3.817   4.480   3.863
    1C        C  422   3.612   4.532   3.985
    1C        C  423   3.750   4.505   3.985
    1C        C  424   3.543   4.537   4.108
    1C        C  425   3.611   4.528   4.232
    1C        C  426   3.404   4.543   4.357
    1C        C  427   3.545   4.544   4.355
    1C        C  428   3.333   4.543   4.479
    1C        C  429   3.406   4.561   4.599
    1C        C  430   3.196   4.523   4.723
    1C        C  431   3.336   4.546   4.720
    1C        C  432   3.127   4.501   4.845
    1C        C  433   3.209   4.497   4.959
    1C        C  434   4.385   4.127   2.053
    1C        C  435   4.445   4.001   2.055
    1C        C  436   4.302   4.164   2.163
    1C        C  437   4.332   4.098   2.285
    1C        C  438   4.182   4.254   2.401
    1C        C  439   4.282   4.155   2.405
    1C        C  440   4.128   4.302   2.522
    1C        C  441   4.185   4.258   2.644
    1C        C  442   4.011   4.381   2.766
    1C        C  443   4.127   4.301   2.765
    1C        C  444   3.947   4.418   2.887
    1C        C  445   4.008   4.378   3.008
    1C        C  446   3.813   4.467   3.130
    1C        C  447   3.943   4.414   3.128
    1C        C  448   3.747   4.487   3.253
    1C        C  449   3.816   4.472   3.376
    1C        C  450   3.610   4.524   3.499
    1C        C  451   3.749   4.499   3.497
    1C        C  452   3.539   4.538   3.621
    1C        C  453   3.611   4.535   3.742
    1C        C  454   3.399   4.540   3.865
    1C        C  455   3.540   4.546   3.864
    1C        C  456   3.330   4.530   3.988
    1C        C  457   3.402   4.537   4.110
    1C        C  458   3.196   4.506   4.238
    1C        C  459   3.335   4.530   4.234
    1C        C  460   3.127   4.489   4.360
    1C        C  461   3.196   4.511   4.482
    1C        C  462   2.996   4.439   4.605
    1C        C  463   3.126   4.495   4.603
    1C        C  464   2.933   4.406   4.727
    1C        C  465   2.994   4.448   4.849
    1C        C  466   2.797   4.342   4.964
    1C        C  467   2.908   4.428   4.961
    1C        C  468   4.126   4.298   2.043
    1C        C  469   4.189   4.252   2.160
    1C        C  470   4.005   4.372   2.278
    1C        C  471   4.127   4.300   2.279
    1C        C  472   3.944   4.407   2.400
    1C        C  473   4.008   4.376   2.522
    1C        C  474   3.817   4.470   2.645
    1C        C  475   3.947   4.413   2.644
    1C        C  476   3.748   4.495   2.765
    1C        C  477   3.818   4.474   2.886
    1C        C  478   3.608   4.515   3.011
    1C        C  479   3.746   4.488   3.007
    1C        C  480   3.538   4.525   3.134
    1C        C  481   3.608   4.514   3.256
    1C        C  482   3.397   4.534   3.376
    1C        C  483   3.538   4.530   3.377
    1C        C  484   3.328   4.530   3.500
    1C        C  485   3.398   4.543   3.622
    1C        C  486   3.189   4.505   3.746
    1C        C  487   3.326   4.537   3.744
    1C        C  488   3.126   4.477   3.869
    1C        C  489   3.192   4.499   3.992
    1C        C  490   3.002   4.418   4.118
    1C        C  491   3.128   4.481   4.116
    1C        C  492   2.939   4.387   4.241
    1C        C  493   2.998   4.431   4.362
    1C        C  494   2.828   4.307   4.486
    1C        C  495   2.936   4.399   4.484
    1C        C  496   2.777   4.259   4.609
    1C        C  497   2.821   4.319   4.729
    1C        C  498   2.668   4.167   4.849
    1C        C  499   2.753   4.280   4.847
    1C        C  500   2.594   4.122   4.959
    1C        C  501   4.003   4.361   2.038
    1C        C  502   3.817   4.472   2.156
    1C        C  503   3.943   4.407   2.156
    1C        C  504   3.745   4.481   2.277
    1C        C  505   3.810   4.454   2.399
    1C        C  506   3.609   4.508   2.521
    1C        C  507   3.747   4.478   2.523
    1C        C  508   3.538   4.516   2.643
    1C        C  509   3.608   4.512   2.766
    1C        C  510   3.397   4.520   2.888
    1C        C  511   3.538   4.516   2.889
    1C        C  512   3.324   4.518   3.009
    1C        C  513   3.396   4.525   3.130
    1C        C  514   3.191   4.491   3.258
    1C        C  515   3.328   4.524   3.254
    1C        C  516   3.125   4.469   3.381
    1C        C  517   3.191   4.498   3.502
    1C        C  518   2.997   4.414   3.628
    1C        C  519   3.120   4.484   3.624
    1C        C  520   2.939   4.376   3.751
    1C        C  521   3.001   4.412   3.872
    1C        C  522   2.836   4.284   4.000
    1C        C  523   2.945   4.375   3.996
    1C        C  524   2.782   4.241   4.123
    1C        C  525   2.830   4.298   4.243
    1C        C  526   2.697   4.136   4.369
    1C        C  527   2.781   4.249   4.366
    1C        C  528   2.653   4.079   4.491
    1C        C  529   2.687   4.150   4.609
    1C        C  530   2.588   3.963   4.732
    1C        C  531   2.648   4.092   4.731
    1C        C  532   2.544   3.903   4.853
    1C        C  533   2.529   3.998   4.959
    1C        C  534   3.620   4.555   2.041
    1C        C  535   3.755   4.516   2.039
    1C        C  536   3.536   4.532   2.155
    1C        C  537   3.605   4.510   2.277
    1C        C  538   3.396   4.515   2.402
    1C        C  539   3.537   4.519   2.400
    1C        C  540   3.323   4.503   2.523
    1C        C  541   3.397   4.509   2.643
    1C        C  542   3.188   4.485   2.770
    1C        C  543   3.327   4.511   2.766
    1C        C  544   3.119   4.464   2.891
    1C        C  545   3.185   4.489   3.013
    1C        C  546   2.994   4.407   3.138
    1C        C  547   3.120   4.472   3.137
    1C        C  548   2.936   4.371   3.261
    1C        C  549   2.998   4.405   3.384
    1C        C  550   2.829   4.282   3.510
    1C        C  551   2.939   4.371   3.507
    1C        C  552   2.776   4.237   3.633
    1C        C  553   2.827   4.289   3.754
    1C        C  554   2.694   4.128   3.878
    1C        C  555   2.783   4.238   3.878
    1C        C  556   2.652   4.072   4.000
    1C        C  557   2.691   4.133   4.122
    1C        C  558   2.599   3.947   4.248
    1C        C  559   2.657   4.076   4.247
    1C        C  560   2.565   3.884   4.369
    1C        C  561   2.590   3.953   4.490
    1C        C  562   2.534   3.752   4.619
    1C        C  563   2.569   3.888   4.614
    1C        C  564   2.527   3.683   4.742
    1C        C  565   2.525   3.761   4.861
    1C        C  566   2.536   3.548   4.980
    1C        C  567   2.534   3.687   4.979
    1C        C  568   3.328   4.480   2.041
    1C        C  569   3.397   4.504   2.160
    1C        C  570   3.185   4.470   2.282
    1C        C  571   3.323   4.505   2.281
    1C        C  572   3.117   4.455   2.405
    1C        C  573   3.184   4.480   2.527
    1C        C  574   2.989   4.401   2.651
    1C        C  575   3.116   4.463   2.650
    1C        C  576   2.932   4.358   2.773
    1C        C  577   2.995   4.396   2.893
    1C        C  578   2.825   4.274   3.020
    1C        C  579   2.937   4.360   3.017
    1C        C  580   2.778   4.223   3.143
    1C        C  581   2.831   4.277   3.262
    1C        C  582   2.700   4.115   3.388
    1C        C  583   2.784   4.229   3.387
    1C        C  584   2.662   4.058   3.511
    1C        C  585   2.694   4.122   3.633
    1C        C  586   2.595   3.938   3.760
    1C        C  587   2.658   4.064   3.757
    1C        C  588   2.569   3.875   3.884
    1C        C  589   2.593   3.944   4.004
    1C        C  590   2.533   3.743   4.131
    1C        C  591   2.568   3.880   4.128
    1C        C  592   2.520   3.675   4.254
    1C        C  593   2.531   3.747   4.375
    1C        C  594   2.510   3.538   4.498
    1C        C  595   2.523   3.678   4.498
    1C        C  596   2.516   3.468   4.620
    1C        C  597   2.527   3.541   4.741
    1C        C  598   2.538   3.330   4.863
    1C        C  599   2.533   3.471   4.863
    1C        C  600   2.537   3.253   4.980
    1C        C  601   3.198   4.434   2.044
    1C        C  602   2.984   4.396   2.163
    1C        C  603   3.120   4.441   2.160
    1C        C  604   2.922   4.363   2.287
    1C        C  605   2.989   4.396   2.407
    1C        C  606   2.819   4.272   2.531
    1C        C  607   2.926   4.364   2.530
    1C        C  608   2.769   4.222   2.654
    1C        C  609   2.821   4.271   2.775
    1C        C  610   2.684   4.113   2.899
    1C        C  611   2.771   4.224   2.899
    1C        C  612   2.652   4.053   3.023
    1C        C  613   2.693   4.110   3.145
    1C        C  614   2.591   3.929   3.271
    1C        C  615   2.651   4.057   3.269
    1C        C  616   2.561   3.869   3.395
    1C        C  617   2.593   3.935   3.516
    1C        C  618   2.535   3.733   3.639
    1C        C  619   2.571   3.869   3.639
    1C        C  620   2.520   3.667   3.763
    1C        C  621   2.534   3.738   3.885
    1C        C  622   2.515   3.530   4.011
    1C        C  623   2.526   3.671   4.009
    1C        C  624   2.517   3.460   4.134
    1C        C  625   2.518   3.534   4.254
    1C        C  626   2.541   3.325   4.381
    1C        C  627   2.517   3.464   4.377
    1C        C  628   2.558   3.256   4.503
    1C        C  629   2.538   3.328   4.623
    1C        C  630   2.598   3.121   4.746
    1C        C  631   2.554   3.256   4.744
    1C        C  632   2.614   3.047   4.867
    1C        C  633   2.567   3.116   4.984
    1C        C  634   2.782   4.306   2.057
    1C        C  635   2.894   4.390   2.051
    1C        C  636   2.746   4.235   2.172
    1C        C  637   2.808   4.278   2.291
    1C        C  638   2.675   4.112   2.413
    1C        C  639   2.760   4.225   2.412
    1C        C  640   2.636   4.052   2.535
    1C        C  641   2.676   4.116   2.655
    1C        C  642   2.583   3.926   2.781
    1C        C  643   2.646   4.052   2.777
    1C        C  644   2.560   3.860   2.903
    1C        C  645   2.587   3.927   3.025
    1C        C  646   2.525   3.727   3.151
    1C        C  647   2.567   3.862   3.148
    1C        C  648   2.521   3.656   3.273
    1C        C  649   2.532   3.731   3.393
    1C        C  650   2.507   3.524   3.521
    1C        C  651   2.517   3.664   3.517
    1C        C  652   2.515   3.456   3.645
    1C        C  653   2.512   3.526   3.767
    1C        C  654   2.537   3.317   3.892
    1C        C  655   2.512   3.456   3.891
    1C        C  656   2.554   3.251   4.016
    1C        C  657   2.536   3.320   4.137
    1C        C  658   2.608   3.122   4.261
    1C        C  659   2.556   3.253   4.260
    1C        C  660   2.637   3.061   4.385
    1C        C  661   2.601   3.122   4.507
    1C        C  662   2.713   2.937   4.628
    1C        C  663   2.637   3.055   4.627
    1C        C  664   2.755   2.878   4.750
    1C        C  665   2.699   2.932   4.869
    1C        C  666   2.748   2.869   4.985
    1C        C  667   2.677   4.027   2.056
    1C        C  668   2.687   4.107   2.171
    1C        C  669   2.585   3.918   2.294
    1C        C  670   2.641   4.049   2.292
    1C        C  671   2.562   3.852   2.417
    1C        C  672   2.580   3.922   2.538
    1C        C  673   2.508   3.724   2.662
    1C        C  674   2.555   3.857   2.661
    1C        C  675   2.498   3.653   2.784
    1C        C  676   2.524   3.723   2.904
    1C        C  677   2.510   3.516   3.032
    1C        C  678   2.518   3.657   3.029
    1C        C  679   2.510   3.444   3.153
    1C        C  680   2.513   3.515   3.275
    1C        C  681   2.533   3.311   3.402
    1C        C  682   2.508   3.450   3.400
    1C        C  683   2.554   3.247   3.526
    1C        C  684   2.537   3.316   3.648
    1C        C  685   2.601   3.114   3.771
    1C        C  686   2.553   3.247   3.770
    1C        C  687   2.638   3.056   3.895
    1C        C  688   2.605   3.119   4.017
    1C        C  689   2.715   2.939   4.138
    1C        C  690   2.635   3.055   4.139
    1C        C  691   2.755   2.884   4.262
    1C        C  692   2.713   2.942   4.384
    1C        C  693   2.759   2.885   4.505
    1C        C  694   2.634   3.894   2.062
    1C        C  695   2.529   3.706   2.178
    1C        C  696   2.576   3.839   2.177
    1C        C  697   2.510   3.639   2.301
    1C        C  698   2.522   3.717   2.418
    1C        C  699   2.494   3.510   2.547
    1C        C  700   2.496   3.651   2.541
    1C        C  701   2.505   3.439   2.668
    1C        C  702   2.505   3.512   2.789
    1C        C  703   2.529   3.302   2.911
    1C        C  704   2.515   3.443   2.911
    1C        C  705   2.544   3.235   3.035
    1C        C  706   2.530   3.304   3.157
    1C        C  707   2.594   3.106   3.281
    1C        C  708   2.544   3.238   3.281
    1C        C  709   2.630   3.047   3.404
    1C        C  710   2.601   3.113   3.526
    1C        C  711   2.706   2.931   3.650
    1C        C  712   2.629   3.049   3.649
    1C        C  713   2.756   2.880   3.772
    1C        C  714   2.717   2.939   3.894
    1C        C  715   2.761   2.883   4.016
    1C        C  716   2.453   3.502   2.067
    1C        C  717   2.498   3.635   2.062
    1C        C  718   2.468   3.424   2.186
    1C        C  719   2.487   3.499   2.305
    1C        C  720   2.518   3.294   2.427
    1C        C  721   2.488   3.432   2.429
    1C        C  722   2.537   3.223   2.548
    1C        C  723   2.525   3.299   2.666
    1C        C  724   2.591   3.099   2.792
    1C        C  725   2.545   3.233   2.789
    1C        C  726   2.622   3.038   2.915
    1C        C  727   2.594   3.103   3.038
    1C        C  728   2.704   2.923   3.161
    1C        C  729   2.624   3.040   3.160
    1C        C  730   2.750   2.874   3.285
    1C        C  731   2.710   2.930   3.408
    1C        C  732   2.757   2.876   3.530
    1C        C  733   2.488   3.199   2.075
    1C        C  734   2.490   3.282   2.188
    1C        C  735   2.576   3.084   2.307
    1C        C  736   2.526   3.217   2.309
    1C        C  737   2.613   3.023   2.430
    1C        C  738   2.591   3.093   2.551
    1C        C  739   2.691   2.906   2.673
    1C        C  740   2.621   3.029   2.673
    1C        C  741   2.739   2.859   2.797
    1C        C  742   2.695   2.917   2.918
    1C        C  743   2.744   2.864   3.039
    1C        C  744   2.546   3.073   2.073
    1C        C  745   2.683   2.899   2.190
    1C        C  746   2.599   3.012   2.188
    1C        C  747   2.735   2.847   2.311
    1C        C  748   2.687   2.903   2.431
    1C        C  749   2.732   2.845   2.552
    1C        C  750   2.731   2.838   2.073
    1C        C  751   3.666   2.322   1.975
    1C        O  752   3.726   2.222   2.022
    1C        O  753   3.632   2.318   1.840
    1C        C  754   4.638   3.060   1.991
    1C        O  755   4.619   3.004   1.879
    1C        O  756   4.766   3.038   2.043
    1C        C  757   4.485   4.228   2.012
    1C        O  758   4.501   4.338   2.070
    1C        O  759   4.547   4.216   1.886
    1C        C  760   3.595   4.673   1.955
    1C        O  761   3.637   4.786   1.992
    1C        O  762   3.548   4.676   1.824
    1C        C  763   2.869   4.509   1.967
    1C        O  764   2.863   4.526   1.843
    1C        O  765   2.822   4.632   2.017
    1C        C  766   2.339   3.474   1.977
    1C        O  767   2.366   3.442   1.858
    1C        O  768   2.219   3.546   1.979
    1C        C  769   4.701   3.610   5.056
    1C        O  770   4.682   3.619   5.180
    1C        O  771   4.835   3.599   5.019
    1C        C  772   4.271   4.444   5.048
    1C        O  773   4.261   4.410   5.169
    1C        O  774   4.326   4.573   5.052
    1C        C  775   4.127   2.527   5.089
    1C        O  776   4.229   2.454   5.071
    1C        O  777   4.126   2.596   5.211
    1C        C  778   2.915   4.532   5.066
    1C        O  779   2.814   4.607   5.080
    1C        O  780   2.971   4.519   5.194
    1C        C  781   2.523   3.049   5.108
    1C        O  782   2.411   2.991   5.113
    1C        O  783   2.567   3.089   5.233
    1C        C  784   2.406   4.000   5.042
    1C        O  785   2.297   4.030   4.985
    1C        O  786   2.402   4.004   5.182
    1C        C  787   2.950   2.420   2.015
    1C        O  788   2.924   2.436   1.893
    1C        O  789   2.924   2.292   2.061
    1C        C  790   3.170   2.364   5.056
    1C        O  791   3.135   2.249   5.017
    1C        O  792   3.207   2.351   5.191
    1C        H  793   4.256   3.044   5.041
    1C        H  794   4.143   2.829   5.059
    1C        H  795   4.507   3.121   5.054
    1C        H  796   4.579   3.355   5.051
    1C        H  797   4.547   3.807   5.050
    1C        H  798   4.393   3.961   5.053
    1C        H  799   4.280   4.172   5.051
    1C        H  800   4.043   4.554   5.026
    1C        H  801   3.817   4.661   4.998
    1C        H  802   3.589   4.637   5.031
    1C        H  803   3.399   4.455   5.025
    1C        H  804   3.168   4.479   5.056
    1C        H  805   3.880   2.513   5.076
    1C        H  806   3.672   2.428   5.071
    1C        H  807   3.006   2.556   5.066
    1C        H  808   3.441   2.460   5.074
    1C        H  809   2.889   2.750   5.081
    1C        H  810   2.705   2.888   5.081
    1C        H  811   2.487   3.296   5.064
    1C        H  812   2.604   3.510   5.055
    1C        H  813   2.477   3.721   5.064
    1C        H  814   2.601   4.177   5.051
    1C        H  815   2.786   4.290   5.058
    1C        H  816   2.752   2.912   1.998
    1C        H  817   2.815   2.667   1.988
    1C        H  818   3.192   2.382   2.029
    1C        H  819   3.435   2.458   1.977
    1C        H  820   3.874   2.477   1.978
    1C        H  821   4.066   2.619   1.967
    1C        H  822   4.276   2.707   1.988
    1C        H  823   4.421   2.884   1.982
    1C        H  824   4.604   3.306   1.977
    1C        H  825   4.586   3.532   1.978
    1C        H  826   4.525   3.758   1.959
    1C        H  827   3.810   4.541   1.951
    1C        H  828   3.932   4.316   1.972
    1C        H  829   4.150   4.236   1.959
    1C        H  830   4.514   3.977   1.976
    1C        H  831   2.642   3.841   1.970
    1C        H  832   2.682   4.072   1.959
    1C        H  833   2.701   4.329   1.991
    1C        H  834   3.357   4.537   1.955
    1C        H  835   3.175   4.358   1.972
    1C        H  836   2.582   3.041   1.977
    1C        H  837   2.434   3.240   1.992
    1C        H  838   2.485   3.689   1.970
    2V3OU   H29  839   2.808   3.552   1.712
    2V3OU   C27  840   2.783   3.507   1.812
    2V3OU   H27  841   2.725   3.574   1.880
    2V3OU   H28  842   2.734   3.407   1.802
    2V3OU   O11  843   2.911   3.482   1.870
    2V3OU   C15  844   2.925   3.399   1.979
    2V3OU   C13  845   3.054   3.378   2.033
    2V3OU   C14  846   3.078   3.277   2.127
    2V3OU   C16  847   2.975   3.194   2.168
    2V3OU    H6  848   2.989   3.108   2.234
    2V3OU   C12  849   3.216   3.236   2.160
    2V3OU    O2  850   3.237   3.139   2.237
    2V3OU   C10  851   3.330   3.308   2.102
    2V3OU    C8  852   3.460   3.273   2.138
    2V3OU   O10  853   3.491   3.160   2.207
    2V3OU   H26  854   3.402   3.120   2.214
    2V3OU    C6  855   3.566   3.354   2.085
    2V3OU    C5  856   3.542   3.470   2.013
    2V3OU    C4  857   3.702   3.295   2.099
    2V3OU    H4  858   3.720   3.234   2.192
    2V3OU    H5  859   3.708   3.235   2.003
    2V3OU    C2  860   3.817   3.396   2.095
    2V3OU    O6  861   3.808   3.474   2.215
    2V3OU   H21  862   3.766   3.554   2.180
    2V3OU    C3  863   3.784   3.501   1.989
    2V3OU    H2  864   3.868   3.574   1.980
    2V3OU    H3  865   3.786   3.442   1.894
    2V3OU   C25  866   3.951   3.325   2.070
    2V3OU    O7  867   4.000   3.298   1.961
    2V3OU   C26  868   4.039   3.293   2.189
    2V3OU   H22  869   4.070   3.395   2.226
    2V3OU   H23  870   4.127   3.233   2.154
    2V3OU    O8  871   3.970   3.215   2.283
    2V3OU   H24  872   3.923   3.269   2.349
    2V3OU    C1  873   3.650   3.573   2.000
    2V3OU    H1  874   3.629   3.623   1.901
    2V3OU    O3  875   3.655   3.657   2.115
    2V3OU   C19  876   3.618   3.794   2.094
    2V3OU    H9  877   3.524   3.793   2.032
    2V3OU    O4  878   3.716   3.849   2.009
    2V3OU   C20  879   3.846   3.877   2.062
    2V3OU   H10  880   3.893   3.777   2.087
    2V3OU   C24  881   3.610   3.857   2.233
    2V3OU   H16  882   3.549   3.790   2.299
    2V3OU   H17  883   3.564   3.959   2.226
    2V3OU   C23  884   3.750   3.880   2.292
    2V3OU   H15  885   3.791   3.779   2.323
    2V3OU    N1  886   3.737   3.964   2.410
    2V3OU   H19  887   3.804   3.924   2.473
    2V3OU   H20  888   3.654   3.932   2.455
    2V3OU   C21  889   3.851   3.950   2.196
    2V3OU   H11  890   3.954   3.935   2.241
    2V3OU    O5  891   3.821   4.088   2.203
    2V3OU   H18  892   3.779   4.106   2.289
    2V3OU   C22  893   3.916   3.951   1.949
    2V3OU   H12  894   3.866   4.049   1.929
    2V3OU   H13  895   3.906   3.892   1.854
    2V3OU   H14  896   4.026   3.958   1.972
    2V3OU   C11  897   3.163   3.471   2.002
    2V3OU    O1  898   3.140   3.591   1.975
    2V3OU    C9  899   3.302   3.425   2.028
    2V3OU    C7  900   3.406   3.507   1.986
    2V3OU    O9  901   3.386   3.623   1.914
    2V3OU   H25  902   3.290   3.634   1.914
    2V3OU   C17  903   2.820   3.314   2.018
    2V3OU    H7  904   2.716   3.338   1.993
    2V3OU   C18  905   2.848   3.217   2.114
    2V3OU    H8  906   2.772   3.151   2.157
    3SOL     OW  907   2.732   4.343   0.806
    3SOL    HW1  908   2.818   4.298   0.782
    3SOL    HW2  909   2.657   4.277   0.797
    4SOL     OW  910   6.515   5.606   2.058
    4SOL    HW1  911   6.456   5.535   2.017
    4SOL    HW2  912   6.602   5.564   2.086
    5SOL     OW  913   3.430   0.945   2.793
    5SOL    HW1  914   3.527   0.934   2.815
    5SOL    HW2  915   3.376   0.939   2.877
    6SOL     OW  916   3.646   0.915   2.121
    6SOL    HW1  917   3.737   0.876   2.110
    6SOL    HW2  918   3.633   0.988   2.054
    7SOL     OW  919   6.210   3.280   2.051
    7SOL    HW1  920   6.191   3.191   2.010
    7SOL    HW2  921   6.244   3.268   2.144
    8SOL     OW  922   2.564   0.090   5.268
    8SOL    HW1  923   2.497   0.059   5.202
    8SOL    HW2  924   2.582   0.188   5.254
    9SOL     OW  925   1.125   5.623   6.166
    9SOL    HW1  926   1.105   5.616   6.068
    9SOL    HW2  927   1.067   5.693   6.207
   10SOL     OW  928   1.413   4.732   5.628
   10SOL    HW1  929   1.329   4.697   5.670
   10SOL    HW2  930   1.410   4.714   5.530
   11SOL     OW  931   2.614   0.274   0.439
   11SOL    HW1  932   2.693   0.294   0.498
   11SOL    HW2  933   2.592   0.177   0.445
   12SOL     OW  934   3.894   5.575   4.642
   12SOL    HW1  935   3.865   5.554   4.549
   12SOL    HW2  936   3.817   5.563   4.705
   13SOL     OW  937   3.640   6.013   4.305
   13SOL    HW1  938   3.709   5.944   4.282
   13SOL    HW2  939   3.569   5.971   4.361
   14SOL     OW  940   4.767   5.733   6.848
   14SOL    HW1  941   4.796   5.646   6.808
   14SOL    HW2  942   4.824   5.755   6.927
   15SOL     OW  943   1.496   5.319   0.786
   15SOL    HW1  944   1.430   5.391   0.805
   15SOL    HW2  945   1.487   5.290   0.690
   16SOL     OW  946   5.734   2.526   5.836
   16SOL    HW1  947   5.792   2.450   5.807
   16SOL    HW2  948   5.765   2.560   5.925
   17SOL     OW  949   6.082   6.011   4.716
   17SOL    HW1  950   6.178   5.984   4.712
   17SOL    HW2  951   6.031   5.965   4.643
   18SOL     OW  952   2.975   1.119   6.717
   18SOL    HW1  953   2.976   1.218   6.734
   18SOL    HW2  954   3.067   1.083   6.725
   19SOL     OW  955   0.534   0.202   3.034
   19SOL    HW1  956   0.590   0.120   3.040
   19SOL    HW2  957   0.537   0.250   3.122
   20SOL     OW  958   3.414   2.070   3.929
   20SOL    HW1  959   3.355   2.128   3.985
   20SOL    HW2  960   3.358   2.018   3.864
   21SOL     OW  961   3.265   1.930   2.258
   21SOL    HW1  962   3.255   1.830   2.264
   21SOL    HW2  963   3.266   1.958   2.162
   22SOL     OW  964   2.497   0.519   0.130
   22SOL    HW1  965   2.453   0.503   0.218
   22SOL    HW2  966   2.558   0.443   0.108
   23SOL     OW  967   4.299   6.758   3.685
   23SOL    HW1  968   4.277   6.682   3.624
   23SOL    HW2  969   4.395   6.782   3.675
   24SOL     OW  970   5.077   1.670   3.957
   24SOL    HW1  971   5.080   1.579   3.997
   24SOL    HW2  972   4.991   1.682   3.908
   25SOL     OW  973   3.069   6.017   5.856
   25SOL    HW1  974   3.065   6.114   5.878
   25SOL    HW2  975   2.981   5.974   5.878
   26SOL     OW  976   6.132   1.206   0.853
   26SOL    HW1  977   6.186   1.246   0.927
   26SOL    HW2  978   6.035   1.216   0.874
   27SOL     OW  979   0.209   1.516   1.759
   27SOL    HW1  980   0.215   1.508   1.859
   27SOL    HW2  981   0.265   1.593   1.728
   28SOL     OW  982   3.887   0.810   6.965
   28SOL    HW1  983   3.852   0.742   6.901
   28SOL    HW2  984   3.923   0.763   0.020
   29SOL     OW  985   5.560   2.432   1.954
   29SOL    HW1  986   5.527   2.389   2.038
   29SOL    HW2  987   5.591   2.526   1.974
   30SOL     OW  988   3.940   6.963   5.377
   30SOL    HW1  989   3.977   0.011   5.321
   30SOL    HW2  990   3.972   6.875   5.340
   31SOL     OW  991   0.582   2.241   5.992
   31SOL    HW1  992   0.664   2.235   5.935
   31SOL    HW2  993   0.566   2.154   6.037
   32SOL     OW  994   0.365   1.469   2.850
   32SOL    HW1  995   0.361   1.379   2.807
   32SOL    HW2  996   0.419   1.531   2.792
   33SOL     OW  997   2.293   3.559   7.020
   33SOL    HW1  998   2.333   3.478   0.037
   33SOL    HW2  999   2.206   3.581   0.040
   34SOL     OW 1000   2.108   1.102   3.609
   34SOL    HW1 1001   2.149   1.148   3.530
   34SOL    HW2 1002   2.180   1.080   3.675
   35SOL     OW 1003   3.964   1.883   6.897
   35SOL    HW1 1004   4.027   1.826   6.845
   35SOL    HW2 1005   3.881   1.897   6.844
   36SOL     OW 1006   0.486   0.311   6.609
   36SOL    HW1 1007   0.496   0.362   6.523
   36SOL    HW2 1008   0.423   0.235   6.595
   37SOL     OW 1009   2.100   0.965   0.090
   37SOL    HW1 1010   2.064   0.871   0.096
   37SOL    HW2 1011   2.054   1.014   0.017
   38SOL     OW 1012   0.471   5.175   2.789
   38SOL    HW1 1013   0.565   5.179   2.753
   38SOL    HW2 1014   0.407   5.167   2.714
   39SOL     OW 1015   6.273   4.459   6.622
   39SOL    HW1 1016   6.296   4.556   6.623
   39SOL    HW2 1017   6.205   4.442   6.550
   40SOL     OW 1018   6.062   2.321   1.223
   40SOL    HW1 1019   5.995   2.319   1.298
   40SOL    HW2 1020   6.042   2.398   1.163
   41SOL     OW 1021   0.728   6.335   4.393
   41SOL    HW1 1022   0.643   6.310   4.347
   41SOL    HW2 1023   0.791   6.376   4.327
   42SOL     OW 1024   2.749   6.272   6.458
   42SOL    HW1 1025   2.715   6.213   6.532
   42SOL    HW2 1026   2.699   6.358   6.460
   43SOL     OW 1027   5.939   6.280   5.679
   43SOL    HW1 1028   5.948   6.341   5.600
   43SOL    HW2 1029   5.889   6.198   5.651
   44SOL     OW 1030   6.037   2.387   6.037
   44SOL    HW1 1031   5.974   2.463   6.051
   44SOL    HW2 1032   6.117   2.419   5.986
   45SOL     OW 1033   3.368   0.470   3.239
   45SOL    HW1 1034   3.315   0.412   3.177
   45SOL    HW2 1035   3.454   0.424   3.262
   46SOL     OW 1036   1.117   3.467   4.507
   46SOL    HW1 1037   1.044   3.530   4.532
   46SOL    HW2 1038   1.200   3.490   4.558
   47SOL     OW 1039   5.385   3.920   2.971
   47SOL    HW1 1040   5.300   3.921   3.023
   47SOL    HW2 1041   5.376   3.977   2.890
   48SOL     OW 1042   0.320   2.974   5.329
   48SOL    HW1 1043   0.306   2.892   5.273
   48SOL    HW2 1044   0.365   3.045   5.274
   49SOL     OW 1045   4.610   4.009   1.710
   49SOL    HW1 1046   4.552   4.069   1.764
   49SOL    HW2 1047   4.588   4.020   1.613
   50SOL     OW 1048   6.375   2.804   5.632
   50SOL    HW1 1049   6.320   2.723   5.609
   50SOL    HW2 1050   6.314   2.882   5.646
   51SOL     OW 1051   3.152   6.112   3.025
   51SOL    HW1 1052   3.138   6.070   3.115
   51SOL    HW2 1053   3.131   6.210   3.031
   52SOL     OW 1054   4.916   2.624   3.461
   52SOL    HW1 1055   4.945   2.549   3.401
   52SOL    HW2 1056   4.963   2.615   3.549
   53SOL     OW 1057   4.449   0.438   4.731
   53SOL    HW1 1058   4.496   0.522   4.704
   53SOL    HW2 1059   4.409   0.450   4.821
   54SOL     OW 1060   4.098   4.933   0.489
   54SOL    HW1 1061   4.144   4.897   0.571
   54SOL    HW2 1062   4.001   4.910   0.492
   55SOL     OW 1063   3.614   1.295   6.182
   55SOL    HW1 1064   3.688   1.362   6.185
   55SOL    HW2 1065   3.562   1.306   6.097
   56SOL     OW 1066   1.363   0.762   1.520
   56SOL    HW1 1067   1.380   0.782   1.616
   56SOL    HW2 1068   1.265   0.745   1.507
   57SOL     OW 1069   5.367   0.988   1.530
   57SOL    HW1 1070   5.356   0.933   1.447
   57SOL    HW2 1071   5.441   1.054   1.516
   58SOL     OW 1072   6.856   6.475   5.466
   58SOL    HW1 1073   6.822   6.383   5.443
   58SOL    HW2 1074   6.951   6.468   5.498
   59SOL     OW 1075   1.876   1.311   6.040
   59SOL    HW1 1076   1.840   1.403   6.055
   59SOL    HW2 1077   1.965   1.303   6.084
   60SOL     OW 1078   6.153   1.074   6.306
   60SOL    HW1 1079   6.161   1.103   6.210
   60SOL    HW2 1080   6.225   1.118   6.360
   61SOL     OW 1081   5.122   1.700   4.461
   61SOL    HW1 1082   5.056   1.681   4.535
   61SOL    HW2 1083   5.203   1.745   4.500
   62SOL     OW 1084   0.789   0.595   3.989
   62SOL    HW1 1085   0.762   0.646   3.907
   62SOL    HW2 1086   0.817   0.659   4.060
   63SOL     OW 1087   6.744   1.192   3.664
   63SOL    HW1 1088   6.720   1.109   3.715
   63SOL    HW2 1089   6.719   1.180   3.568
   64SOL     OW 1090   0.487   4.163   6.536
   64SOL    HW1 1091   0.462   4.260   6.525
   64SOL    HW2 1092   0.584   4.151   6.514
   65SOL     OW 1093   6.787   4.584   5.181
   65SOL    HW1 1094   6.832   4.551   5.265
   65SOL    HW2 1095   6.711   4.524   5.158
   66SOL     OW 1096   3.645   0.582   6.746
   66SOL    HW1 1097   3.636   0.665   6.691
   66SOL    HW2 1098   3.707   0.518   6.700
   67SOL     OW 1099   5.590   5.009   5.379
   67SOL    HW1 1100   5.626   5.098   5.408
   67SOL    HW2 1101   5.650   4.971   5.308
   68SOL     OW 1102   5.832   0.499   6.407
   68SOL    HW1 1103   5.890   0.519   6.485
   68SOL    HW2 1104   5.787   0.583   6.376
   69SOL     OW 1105   1.850   4.133   6.953
   69SOL    HW1 1106   1.866   4.044   6.911
   69SOL    HW2 1107   1.858   4.125   0.027
   70SOL     OW 1108   6.562   4.774   3.553
   70SOL    HW1 1109   6.464   4.762   3.566
   70SOL    HW2 1110   6.599   4.831   3.626
   71SOL     OW 1111   3.674   2.091   2.514
   71SOL    HW1 1112   3.759   2.139   2.538
   71SOL    HW2 1113   3.692   2.027   2.439
   72SOL     OW 1114   2.670   5.775   4.659
   72SOL    HW1 1115   2.770   5.776   4.648
   72SOL    HW2 1116   2.648   5.758   4.754
   73SOL     OW 1117   3.418   1.612   0.670
   73SOL    HW1 1118   3.424   1.704   0.631
   73SOL    HW2 1119   3.497   1.596   0.729
   74SOL     OW 1120   5.500   6.169   6.375
   74SOL    HW1 1121   5.571   6.201   6.438
   74SOL    HW2 1122   5.498   6.229   6.294
   75SOL     OW 1123   3.360   6.742   5.985
   75SOL    HW1 1124   3.364   6.643   5.973
   75SOL    HW2 1125   3.447   6.775   6.021
   76SOL     OW 1126   1.899   2.966   1.266
   76SOL    HW1 1127   1.866   3.056   1.239
   76SOL    HW2 1128   1.830   2.897   1.241
   77SOL     OW 1129   5.086   6.225   4.383
   77SOL    HW1 1130   5.095   6.125   4.388
   77SOL    HW2 1131   5.176   6.266   4.381
   78SOL     OW 1132   5.784   0.438   5.475
   78SOL    HW1 1133   5.825   0.462   5.563
   78SOL    HW2 1134   5.686   0.425   5.487
   79SOL     OW 1135   3.312   0.092   0.490
   79SOL    HW1 1136   3.348   0.173   0.444
   79SOL    HW2 1137   3.309   0.016   0.426
   80SOL     OW 1138   5.578   1.490   4.490
   80SOL    HW1 1139   5.538   1.518   4.403
   80SOL    HW2 1140   5.620   1.399   4.480
   81SOL     OW 1141   2.286   0.049   2.676
   81SOL    HW1 1142   2.333   0.095   2.752
   81SOL    HW2 1143   2.353   0.016   2.610
   82SOL     OW 1144   6.828   5.631   0.347
   82SOL    HW1 1145   6.733   5.603   0.357
   82SOL    HW2 1146   6.887   5.559   0.384
   83SOL     OW 1147   6.355   0.061   0.477
   83SOL    HW1 1148   6.325   0.150   0.444
   83SOL    HW2 1149   6.355   0.061   0.577
   84SOL     OW 1150   4.959   3.237   3.554
   84SOL    HW1 1151   4.937   3.169   3.484
   84SOL    HW2 1152   5.047   3.215   3.595
   85SOL     OW 1153   1.608   1.861   5.266
   85SOL    HW1 1154   1.655   1.772   5.264
   85SOL    HW2 1155   1.677   1.934   5.263
   86SOL     OW 1156   0.817   0.824   5.786
   86SOL    HW1 1157   0.828   0.780   5.696
   86SOL    HW2 1158   0.737   0.883   5.785
   87SOL     OW 1159   4.983   3.695   0.331
   87SOL    HW1 1160   5.054   3.754   0.368
   87SOL    HW2 1161   4.957   3.627   0.400
   88SOL     OW 1162   4.128   1.944   6.588
   88SOL    HW1 1163   4.052   2.003   6.615
   88SOL    HW2 1164   4.211   1.999   6.579
   89SOL     OW 1165   0.933   3.015   6.577
   89SOL    HW1 1166   0.887   3.075   6.513
   89SOL    HW2 1167   0.984   3.070   6.644
   90SOL     OW 1168   4.346   6.037   4.078
   90SOL    HW1 1169   4.252   6.069   4.092
   90SOL    HW2 1170   4.349   5.976   3.999
   91SOL     OW 1171   4.983   3.964   4.132
   91SOL    HW1 1172   5.047   4.038   4.152
   91SOL    HW2 1173   5.014   3.914   4.051
   92SOL     OW 1174   3.220   4.093   0.422
   92SOL    HW1 1175   3.170   4.169   0.380
   92SOL    HW2 1176   3.182   4.006   0.389
   93SOL     OW 1177   2.539   4.208   6.628
   93SOL    HW1 1178   2.480   4.128   6.625
   93SOL    HW2 1179   2.625   4.189   6.582
   94SOL     OW 1180   2.434   6.390   6.286
   94SOL    HW1 1181   2.402   6.301   6.319
   94SOL    HW2 1182   2.493   6.376   6.206
   95SOL     OW 1183   0.640   1.391   2.731
   95SOL    HW1 1184   0.584   1.314   2.698
   95SOL    HW2 1185   0.600   1.477   2.700
   96SOL     OW 1186   3.025   0.018   5.532
   96SOL    HW1 1187   3.112   0.044   5.576
   96SOL    HW2 1188   3.000   0.088   5.465
   97SOL     OW 1189   0.918   3.600   5.638
   97SOL    HW1 1190   0.896   3.505   5.616
   97SOL    HW2 1191   0.907   3.615   5.736
   98SOL     OW 1192   6.585   3.564   6.949
   98SOL    HW1 1193   6.569   3.535   0.017
   98SOL    HW2 1194   6.556   3.493   6.886
   99SOL     OW 1195   4.490   3.805   0.822
   99SOL    HW1 1196   4.409   3.854   0.855
   99SOL    HW2 1197   4.548   3.780   0.899
  100SOL     OW 1198   0.481   0.325   5.743
  100SOL    HW1 1199   0.426   0.334   5.660
  100SOL    HW2 1200   0.561   0.385   5.736
  101SOL     OW 1201   1.531   5.697   2.759
  101SOL    HW1 1202   1.573   5.773   2.709
  101SOL    HW2 1203   1.484   5.636   2.695
  102SOL     OW 1204   4.480   0.593   2.407
  102SOL    HW1 1205   4.519   0.557   2.322
  102SOL    HW2 1206   4.413   0.664   2.386
  103SOL     OW 1207   3.593   0.877   2.396
  103SOL    HW1 1208   3.596   0.898   2.298
  103SOL    HW2 1209   3.686   0.879   2.433
  104SOL     OW 1210   6.973   5.306   2.363
  104SOL    HW1 1211   0.028   5.355   2.397
  104SOL    HW2 1212   6.891   5.342   2.408
  105SOL     OW 1213   6.480   2.232   6.135
  105SOL    HW1 1214   6.438   2.172   6.203
  105SOL    HW2 1215   6.450   2.326   6.150
  106SOL     OW 1216   3.344   6.439   4.923
  106SOL    HW1 1217   3.267   6.384   4.889
  106SOL    HW2 1218   3.317   6.535   4.926
  107SOL     OW 1219   1.561   2.194   2.144
  107SOL    HW1 1220   1.642   2.250   2.161
  107SOL    HW2 1221   1.529   2.211   2.050
  108SOL     OW 1222   4.061   4.979   6.093
  108SOL    HW1 1223   4.147   5.012   6.129
  108SOL    HW2 1224   3.985   5.030   6.134
  109SOL     OW 1225   0.802   1.375   1.487
  109SOL    HW1 1226   0.724   1.389   1.426
  109SOL    HW2 1227   0.886   1.368   1.433
  110SOL     OW 1228   3.846   6.371   5.420
  110SOL    HW1 1229   3.819   6.332   5.332
  110SOL    HW2 1230   3.932   6.329   5.449
  111SOL     OW 1231   3.451   0.441   5.368
  111SOL    HW1 1232   3.539   0.488   5.374
  111SOL    HW2 1233   3.390   0.475   5.439
  112SOL     OW 1234   5.973   6.444   6.329
  112SOL    HW1 1235   5.886   6.427   6.284
  112SOL    HW2 1236   6.048   6.423   6.266
  113SOL     OW 1237   6.682   4.887   3.345
  113SOL    HW1 1238   6.627   4.855   3.422
  113SOL    HW2 1239   6.701   4.985   3.356
  114SOL     OW 1240   0.982   0.493   1.648
  114SOL    HW1 1241   0.955   0.423   1.581
  114SOL    HW2 1242   1.071   0.469   1.687
  115SOL     OW 1243   3.336   1.597   3.573
  115SOL    HW1 1244   3.293   1.520   3.525
  115SOL    HW2 1245   3.318   1.682   3.522
  116SOL     OW 1246   6.283   5.216   2.127
  116SOL    HW1 1247   6.243   5.283   2.190
  116SOL    HW2 1248   6.269   5.124   2.163
  117SOL     OW 1249   1.510   1.539   6.482
  117SOL    HW1 1250   1.597   1.489   6.480
  117SOL    HW2 1251   1.442   1.485   6.531
  118SOL     OW 1252   1.516   1.556   2.736
  118SOL    HW1 1253   1.561   1.646   2.729
  118SOL    HW2 1254   1.418   1.569   2.752
  119SOL     OW 1255   1.243   2.002   6.078
  119SOL    HW1 1256   1.318   2.052   6.120
  119SOL    HW2 1257   1.279   1.936   6.011
  120SOL     OW 1258   6.299   6.881   0.326
  120SOL    HW1 1259   6.360   6.895   0.248
  120SOL    HW2 1260   6.318   6.950   0.395
  121SOL     OW 1261   2.380   3.801   6.952
  121SOL    HW1 1262   2.475   3.798   6.919
  121SOL    HW2 1263   2.347   3.707   6.965
  122SOL     OW 1264   1.920   4.729   6.794
  122SOL    HW1 1265   1.872   4.738   6.707
  122SOL    HW2 1266   1.996   4.664   6.784
  123SOL     OW 1267   0.548   2.279   1.539
  123SOL    HW1 1268   0.577   2.331   1.459
  123SOL    HW2 1269   0.454   2.247   1.526
  124SOL     OW 1270   5.255   3.161   0.371
  124SOL    HW1 1271   5.234   3.253   0.340
  124SOL    HW2 1272   5.173   3.121   0.413
  125SOL     OW 1273   2.385   1.948   1.949
  125SOL    HW1 1274   2.379   1.893   1.866
  125SOL    HW2 1275   2.445   2.027   1.933
  126SOL     OW 1276   2.619   4.421   1.228
  126SOL    HW1 1277   2.683   4.362   1.179
  126SOL    HW2 1278   2.555   4.462   1.162
  127SOL     OW 1279   6.756   5.566   5.726
  127SOL    HW1 1280   6.822   5.616   5.670
  127SOL    HW2 1281   6.744   5.613   5.814
  128SOL     OW 1282   4.546   2.441   1.435
  128SOL    HW1 1283   4.625   2.455   1.376
  128SOL    HW2 1284   4.533   2.343   1.451
  129SOL     OW 1285   3.830   3.310   5.932
  129SOL    HW1 1286   3.925   3.279   5.929
  129SOL    HW2 1287   3.796   3.323   5.839
  130SOL     OW 1288   0.580   1.358   4.572
  130SOL    HW1 1289   0.618   1.266   4.583
  130SOL    HW2 1290   0.481   1.355   4.587
  131SOL     OW 1291   5.528   1.595   2.248
  131SOL    HW1 1292   5.479   1.512   2.275
  131SOL    HW2 1293   5.471   1.648   2.185
  132SOL     OW 1294   2.347   3.098   0.843
  132SOL    HW1 1295   2.427   3.145   0.878
  132SOL    HW2 1296   2.300   3.051   0.917
  133SOL     OW 1297   4.611   6.351   4.082
  133SOL    HW1 1298   4.587   6.440   4.123
  133SOL    HW2 1299   4.584   6.350   3.986
  134SOL     OW 1300   5.703   1.428   2.399
  134SOL    HW1 1301   5.658   1.514   2.377
  134SOL    HW2 1302   5.691   1.408   2.496
  135SOL     OW 1303   5.605   3.173   1.754
  135SOL    HW1 1304   5.558   3.214   1.833
  135SOL    HW2 1305   5.701   3.158   1.777
  136SOL     OW 1306   3.402   3.778   6.343
  136SOL    HW1 1307   3.488   3.727   6.341
  136SOL    HW2 1308   3.395   3.834   6.261
  137SOL     OW 1309   5.188   0.693   4.441
  137SOL    HW1 1310   5.233   0.606   4.462
  137SOL    HW2 1311   5.232   0.766   4.492
  138SOL     OW 1312   0.357   4.362   3.509
  138SOL    HW1 1313   0.402   4.451   3.509
  138SOL    HW2 1314   0.377   4.314   3.424
  139SOL     OW 1315   2.763   6.468   5.139
  139SOL    HW1 1316   2.724   6.458   5.231
  139SOL    HW2 1317   2.765   6.379   5.094
  140SOL     OW 1318   0.227   5.846   3.399
  140SOL    HW1 1319   0.317   5.804   3.407
  140SOL    HW2 1320   0.237   5.945   3.386
  141SOL     OW 1321   5.929   3.254   5.204
  141SOL    HW1 1322   5.893   3.194   5.132
  141SOL    HW2 1323   5.976   3.198   5.273
  142SOL     OW 1324   2.008   4.962   0.396
  142SOL    HW1 1325   2.102   4.927   0.405
  142SOL    HW2 1326   1.998   5.044   0.452
  143SOL     OW 1327   5.793   4.287   1.599
  143SOL    HW1 1328   5.774   4.374   1.554
  143SOL    HW2 1329   5.885   4.257   1.575
  144SOL     OW 1330   1.397   6.512   6.605
  144SOL    HW1 1331   1.441   6.422   6.611
  144SOL    HW2 1332   1.462   6.583   6.635
  145SOL     OW 1333   0.451   5.018   0.280
  145SOL    HW1 1334   0.446   5.099   0.340
  145SOL    HW2 1335   0.531   5.025   0.222
  146SOL     OW 1336   4.913   0.158   6.211
  146SOL    HW1 1337   4.863   0.202   6.137
  146SOL    HW2 1338   5.010   0.183   6.205
  147SOL     OW 1339   5.758   3.193   6.677
  147SOL    HW1 1340   5.811   3.108   6.675
  147SOL    HW2 1341   5.797   3.255   6.744
  148SOL     OW 1342   0.544   4.845   6.736
  148SOL    HW1 1343   0.487   4.923   6.711
  148SOL    HW2 1344   0.633   4.877   6.767
  149SOL     OW 1345   2.981   1.806   4.450
  149SOL    HW1 1346   3.028   1.822   4.536
  149SOL    HW2 1347   2.970   1.892   4.401
  150SOL     OW 1348   5.507   5.552   6.172
  150SOL    HW1 1349   5.454   5.471   6.196
  150SOL    HW2 1350   5.477   5.630   6.227
  151SOL     OW 1351   3.255   2.139   1.063
  151SOL    HW1 1352   3.160   2.149   1.032
  151SOL    HW2 1353   3.311   2.212   1.024
  152SOL     OW 1354   1.688   1.671   3.599
  152SOL    HW1 1355   1.601   1.684   3.553
  152SOL    HW2 1356   1.748   1.749   3.581
  153SOL     OW 1357   2.914   0.236   1.683
  153SOL    HW1 1358   2.889   0.251   1.587
  153SOL    HW2 1359   2.987   0.300   1.708
  154SOL     OW 1360   0.591   2.107   3.048
  154SOL    HW1 1361   0.629   2.131   3.137
  154SOL    HW2 1362   0.492   2.114   3.050
  155SOL     OW 1363   0.219   1.081   3.157
  155SOL    HW1 1364   0.245   1.062   3.252
  155SOL    HW2 1365   0.283   1.147   3.118
  156SOL     OW 1366   7.011   2.017   1.124
  156SOL    HW1 1367   0.077   1.994   1.155
  156SOL    HW2 1368   6.953   2.034   1.204
  157SOL     OW 1369   6.005   3.367   1.883
  157SOL    HW1 1370   5.960   3.439   1.936
  157SOL    HW2 1371   6.091   3.341   1.928
  158SOL     OW 1372   2.910   6.276   2.006
  158SOL    HW1 1373   2.854   6.194   2.010
  158SOL    HW2 1374   2.853   6.355   1.983
  159SOL     OW 1375   4.693   4.290   1.652
  159SOL    HW1 1376   4.681   4.220   1.723
  159SOL    HW2 1377   4.703   4.379   1.696
  160SOL     OW 1378   6.599   5.041   0.103
  160SOL    HW1 1379   6.622   5.051   0.200
  160SOL    HW2 1380   6.674   4.995   0.056
  161SOL     OW 1381   1.704   5.340   5.019
  161SOL    HW1 1382   1.650   5.283   5.082
  161SOL    HW2 1383   1.738   5.420   5.068
  162SOL     OW 1384   3.973   6.664   0.420
  162SOL    HW1 1385   3.907   6.594   0.447
  162SOL    HW2 1386   4.037   6.681   0.495
  163SOL     OW 1387   5.439   5.679   1.313
  163SOL    HW1 1388   5.371   5.749   1.292
  163SOL    HW2 1389   5.528   5.705   1.275
  164SOL     OW 1390   6.424   4.757   0.888
  164SOL    HW1 1391   6.502   4.815   0.913
  164SOL    HW2 1392   6.450   4.698   0.812
  165SOL     OW 1393   5.558   3.288   1.106
  165SOL    HW1 1394   5.553   3.309   1.008
  165SOL    HW2 1395   5.540   3.190   1.120
  166SOL     OW 1396   0.334   4.937   3.233
  166SOL    HW1 1397   0.336   4.934   3.133
  166SOL    HW2 1398   0.286   5.019   3.263
  167SOL     OW 1399   5.723   2.399   0.382
  167SOL    HW1 1400   5.781   2.477   0.408
  167SOL    HW2 1401   5.632   2.412   0.421
  168SOL     OW 1402   2.456   3.770   1.103
  168SOL    HW1 1403   2.445   3.724   1.190
  168SOL    HW2 1404   2.436   3.867   1.113
  169SOL     OW 1405   3.825   0.481   2.170
  169SOL    HW1 1406   3.756   0.432   2.117
  169SOL    HW2 1407   3.793   0.492   2.264
  170SOL     OW 1408   0.262   1.376   3.640
  170SOL    HW1 1409   0.346   1.344   3.683
  170SOL    HW2 1410   0.199   1.299   3.628
  171SOL     OW 1411   3.931   4.189   0.453
  171SOL    HW1 1412   3.906   4.232   0.540
  171SOL    HW2 1413   4.031   4.188   0.444
  172SOL     OW 1414   6.559   1.877   4.290
  172SOL    HW1 1415   6.636   1.941   4.286
  172SOL    HW2 1416   6.490   1.906   4.223
  173SOL     OW 1417   6.773   1.740   4.124
  173SOL    HW1 1418   6.686   1.776   4.158
  173SOL    HW2 1419   6.843   1.748   4.195
  174SOL     OW 1420   3.381   5.588   4.136
  174SOL    HW1 1421   3.372   5.531   4.218
  174SOL    HW2 1422   3.478   5.605   4.119
  175SOL     OW 1423   1.977   0.002   1.981
  175SOL    HW1 1424   2.065   0.041   1.956
  175SOL    HW2 1425   1.989   6.934   2.013
  176SOL     OW 1426   1.027   4.135   1.460
  176SOL    HW1 1427   1.075   4.051   1.432
  176SOL    HW2 1428   1.068   4.214   1.414
  177SOL     OW 1429   5.810   2.986   2.553
  177SOL    HW1 1430   5.742   2.969   2.623
  177SOL    HW2 1431   5.768   2.978   2.463
  178SOL     OW 1432   3.699   2.726   6.272
  178SOL    HW1 1433   3.653   2.731   6.183
  178SOL    HW2 1434   3.798   2.736   6.259
  179SOL     OW 1435   2.367   1.891   5.738
  179SOL    HW1 1436   2.387   1.946   5.819
  179SOL    HW2 1437   2.287   1.834   5.755
  180SOL     OW 1438   1.424   0.063   6.299
  180SOL    HW1 1439   1.398   7.007   6.249
  180SOL    HW2 1440   1.438   0.040   6.396
  181SOL     OW 1441   3.471   1.468   6.344
  181SOL    HW1 1442   3.538   1.542   6.331
  181SOL    HW2 1443   3.503   1.386   6.296
  182SOL     OW 1444   3.774   2.140   4.327
  182SOL    HW1 1445   3.701   2.169   4.266
  182SOL    HW2 1446   3.858   2.125   4.275
  183SOL     OW 1447   3.461   1.984   3.367
  183SOL    HW1 1448   3.480   2.001   3.464
  183SOL    HW2 1449   3.519   1.910   3.335
  184SOL     OW 1450   1.581   6.632   4.382
  184SOL    HW1 1451   1.492   6.585   4.382
  184SOL    HW2 1452   1.650   6.572   4.422
  185SOL     OW 1453   0.818   2.198   6.357
  185SOL    HW1 1454   0.897   2.165   6.305
  185SOL    HW2 1455   0.780   2.122   6.410
  186SOL     OW 1456   6.387   1.202   3.250
  186SOL    HW1 1457   6.299   1.244   3.272
  186SOL    HW2 1458   6.439   1.261   3.189
  187SOL     OW 1459   4.727   0.995   3.108
  187SOL    HW1 1460   4.718   1.074   3.169
  187SOL    HW2 1461   4.804   0.939   3.137
  188SOL     OW 1462   6.592   1.889   2.238
  188SOL    HW1 1463   6.671   1.905   2.296
  188SOL    HW2 1464   6.529   1.965   2.245
  189SOL     OW 1465   2.012   5.364   2.534
  189SOL    HW1 1466   2.096   5.411   2.505
  189SOL    HW2 1467   2.020   5.337   2.630
  190SOL     OW 1468   4.260   1.465   4.853
  190SOL    HW1 1469   4.196   1.468   4.929
  190SOL    HW2 1470   4.214   1.491   4.768
  191SOL     OW 1471   5.498   5.755   5.793
  191SOL    HW1 1472   5.573   5.705   5.835
  191SOL    HW2 1473   5.421   5.761   5.857
  192SOL     OW 1474   0.118   6.170   1.890
  192SOL    HW1 1475   0.159   6.087   1.928
  192SOL    HW2 1476   0.058   6.145   1.815
  193SOL     OW 1477   4.759   2.273   5.204
  193SOL    HW1 1478   4.683   2.282   5.139
  193SOL    HW2 1479   4.758   2.349   5.268
  194SOL     OW 1480   3.193   0.601   2.933
  194SOL    HW1 1481   3.226   0.620   3.025
  194SOL    HW2 1482   3.127   0.671   2.905
  195SOL     OW 1483   2.002   6.706   4.181
  195SOL    HW1 1484   2.019   6.652   4.263
  195SOL    HW2 1485   2.077   6.770   4.167
  196SOL     OW 1486   2.694   1.638   6.703
  196SOL    HW1 1487   2.695   1.598   6.795
  196SOL    HW2 1488   2.654   1.729   6.707
  197SOL     OW 1489   2.237   1.111   0.302
  197SOL    HW1 1490   2.165   1.053   0.263
  197SOL    HW2 1491   2.318   1.108   0.244
  198SOL     OW 1492   4.736   1.434   3.005
  198SOL    HW1 1493   4.685   1.371   2.946
  198SOL    HW2 1494   4.683   1.517   3.019
  199SOL     OW 1495   1.164   2.041   4.547
  199SOL    HW1 1496   1.233   2.035   4.476
  199SOL    HW2 1497   1.106   2.121   4.531
  200SOL     OW 1498   1.361   3.809   0.675
  200SOL    HW1 1499   1.290   3.879   0.673
  200SOL    HW2 1500   1.320   3.720   0.651
  201SOL     OW 1501   0.477   6.533   5.680
  201SOL    HW1 1502   0.473   6.592   5.600
  201SOL    HW2 1503   0.566   6.543   5.725
  202SOL     OW 1504   3.629   1.702   6.541
  202SOL    HW1 1505   3.552   1.657   6.586
  202SOL    HW2 1506   3.594   1.768   6.474
  203SOL     OW 1507   6.267   1.982   5.165
  203SOL    HW1 1508   6.351   1.980   5.219
  203SOL    HW2 1509   6.208   1.906   5.191
  204SOL     OW 1510   0.785   6.855   4.019
  204SOL    HW1 1511   0.879   6.876   3.993
  204SOL    HW2 1512   0.775   6.757   4.035
  205SOL     OW 1513   1.617   2.489   2.690
  205SOL    HW1 1514   1.583   2.401   2.723
  205SOL    HW2 1515   1.711   2.501   2.720
  206SOL     OW 1516   0.880   3.532   1.211
  206SOL    HW1 1517   0.923   3.623   1.204
  206SOL    HW2 1518   0.942   3.463   1.173
  207SOL     OW 1519   5.888   0.518   3.845
  207SOL    HW1 1520   5.921   0.529   3.751
  207SOL    HW2 1521   5.796   0.477   3.843
  208SOL     OW 1522   0.177   3.870   5.915
  208SOL    HW1 1523   0.111   3.877   5.990
  208SOL    HW2 1524   0.262   3.917   5.940
  209SOL     OW 1525   6.652   4.477   2.964
  209SOL    HW1 1526   6.661   4.377   2.966
  209SOL    HW2 1527   6.728   4.519   3.013
  210SOL     OW 1528   4.630   2.072   0.672
  210SOL    HW1 1529   4.559   2.110   0.731
  210SOL    HW2 1530   4.681   2.147   0.629
  211SOL     OW 1531   1.153   6.746   2.339
  211SOL    HW1 1532   1.114   6.654   2.335
  211SOL    HW2 1533   1.245   6.741   2.376
  212SOL     OW 1534   1.147   3.426   2.487
  212SOL    HW1 1535   1.180   3.407   2.580
  212SOL    HW2 1536   1.079   3.498   2.490
  213SOL     OW 1537   1.683   6.088   1.231
  213SOL    HW1 1538   1.777   6.057   1.216
  213SOL    HW2 1539   1.657   6.069   1.325
  214SOL     OW 1540   3.493   5.228   3.001
  214SOL    HW1 1541   3.554   5.286   3.056
  214SOL    HW2 1542   3.533   5.215   2.910
  215SOL     OW 1543   2.821   4.263   1.101
  215SOL    HW1 1544   2.820   4.220   1.011
  215SOL    HW2 1545   2.915   4.282   1.129
  216SOL     OW 1546   0.845   6.328   2.915
  216SOL    HW1 1547   0.777   6.376   2.859
  216SOL    HW2 1548   0.870   6.243   2.870
  217SOL     OW 1549   1.401   2.369   4.732
  217SOL    HW1 1550   1.425   2.371   4.635
  217SOL    HW2 1551   1.365   2.279   4.756
  218SOL     OW 1552   0.783   2.642   4.155
  218SOL    HW1 1553   0.703   2.693   4.186
  218SOL    HW2 1554   0.861   2.663   4.215
  219SOL     OW 1555   4.196   0.283   0.653
  219SOL    HW1 1556   4.183   0.206   0.715
  219SOL    HW2 1557   4.203   0.251   0.559
  220SOL     OW 1558   2.316   0.068   0.901
  220SOL    HW1 1559   2.414   0.046   0.899
  220SOL    HW2 1560   2.278   0.058   0.809
  221SOL     OW 1561   6.125   4.239   1.230
  221SOL    HW1 1562   6.165   4.314   1.282
  221SOL    HW2 1563   6.108   4.162   1.291
  222SOL     OW 1564   1.789   4.634   5.655
  222SOL    HW1 1565   1.710   4.693   5.642
  222SOL    HW2 1566   1.867   4.689   5.684
  223SOL     OW 1567   6.874   3.118   5.726
  223SOL    HW1 1568   6.793   3.165   5.692
  223SOL    HW2 1569   6.956   3.169   5.699
  224SOL     OW 1570   3.292   1.065   6.720
  224SOL    HW1 1571   3.365   1.001   6.744
  224SOL    HW2 1572   3.331   1.156   6.704
  225SOL     OW 1573   4.474   3.801   6.082
  225SOL    HW1 1574   4.512   3.812   5.990
  225SOL    HW2 1575   4.531   3.738   6.134
  226SOL     OW 1576   0.690   1.668   6.218
  226SOL    HW1 1577   0.630   1.729   6.270
  226SOL    HW2 1578   0.783   1.705   6.216
  227SOL     OW 1579   1.896   4.533   2.371
  227SOL    HW1 1580   1.921   4.626   2.346
  227SOL    HW2 1581   1.957   4.468   2.326
  228SOL     OW 1582   2.195   0.236   2.427
  228SOL    HW1 1583   2.226   0.188   2.509
  228SOL    HW2 1584   2.115   0.292   2.449
  229SOL     OW 1585   5.209   5.583   5.633
  229SOL    HW1 1586   5.238   5.561   5.726
  229SOL    HW2 1587   5.131   5.526   5.608
  230SOL     OW 1588   4.420   5.556   4.446
  230SOL    HW1 1589   4.382   5.568   4.537
  230SOL    HW2 1590   4.390   5.632   4.387
  231SOL     OW 1591   6.131   1.377   6.296
  231SOL    HW1 1592   6.049   1.331   6.329
  231SOL    HW2 1593   6.196   1.386   6.371
  232SOL     OW 1594   0.327   3.367   6.655
  232SOL    HW1 1595   0.295   3.377   6.560
  232SOL    HW2 1596   0.323   3.456   6.701
  233SOL     OW 1597   4.447   1.371   3.090
  233SOL    HW1 1598   4.364   1.339   3.136
  233SOL    HW2 1599   4.489   1.445   3.143
  234SOL     OW 1600   5.871   0.893   6.966
  234SOL    HW1 1601   5.851   0.970   6.906
  234SOL    HW2 1602   5.841   0.913   0.033
  235SOL     OW 1603   4.850   2.917   2.270
  235SOL    HW1 1604   4.800   2.848   2.322
  235SOL    HW2 1605   4.787   2.965   2.209
  236SOL     OW 1606   4.976   3.111   6.876
  236SOL    HW1 1607   4.904   3.148   6.935
  236SOL    HW2 1608   5.065   3.127   6.918
  237SOL     OW 1609   7.023   4.143   1.754
  237SOL    HW1 1610   6.930   4.179   1.753
  237SOL    HW2 1611   0.057   4.206   1.802
  238SOL     OW 1612   6.147   1.623   0.278
  238SOL    HW1 1613   6.147   1.721   0.296
  238SOL    HW2 1614   6.239   1.594   0.251
  239SOL     OW 1615   0.784   4.682   0.278
  239SOL    HW1 1616   0.792   4.593   0.322
  239SOL    HW2 1617   0.705   4.681   0.217
  240SOL     OW 1618   0.930   3.254   3.270
  240SOL    HW1 1619   1.016   3.207   3.292
  240SOL    HW2 1620   0.869   3.249   3.349
  241SOL     OW 1621   3.142   2.156   4.783
  241SOL    HW1 1622   3.075   2.211   4.733
  241SOL    HW2 1623   3.154   2.192   4.875
  242SOL     OW 1624   3.431   3.518   3.745
  242SOL    HW1 1625   3.446   3.561   3.656
  242SOL    HW2 1626   3.333   3.516   3.765
  243SOL     OW 1627   4.929   1.776   0.528
  243SOL    HW1 1628   4.978   1.690   0.548
  243SOL    HW2 1629   4.935   1.796   0.430
  244SOL     OW 1630   5.752   4.097   5.592
  244SOL    HW1 1631   5.713   4.188   5.577
  244SOL    HW2 1632   5.681   4.034   5.624
  245SOL     OW 1633   4.328   2.335   3.829
  245SOL    HW1 1634   4.363   2.409   3.886
  245SOL    HW2 1635   4.258   2.284   3.880
  246SOL     OW 1636   4.932   1.822   3.583
  246SOL    HW1 1637   4.939   1.727   3.611
  246SOL    HW2 1638   4.875   1.872   3.649
  247SOL     OW 1639   2.613   1.783   0.741
  247SOL    HW1 1640   2.687   1.840   0.705
  247SOL    HW2 1641   2.650   1.708   0.794
  248SOL     OW 1642   3.035   1.367   2.996
  248SOL    HW1 1643   3.049   1.382   2.898
  248SOL    HW2 1644   3.004   1.273   3.011
  249SOL     OW 1645   5.479   6.865   5.222
  249SOL    HW1 1646   5.386   6.854   5.256
  249SOL    HW2 1647   5.502   6.962   5.220
  250SOL     OW 1648   4.562   3.096   0.563
  250SOL    HW1 1649   4.513   3.182   0.552
  250SOL    HW2 1650   4.505   3.031   0.613
  251SOL     OW 1651   4.495   3.464   5.307
  251SOL    HW1 1652   4.402   3.502   5.307
  251SOL    HW2 1653   4.557   3.528   5.261
  252SOL     OW 1654   6.862   6.273   4.852
  252SOL    HW1 1655   6.866   6.353   4.912
  252SOL    HW2 1656   6.896   6.298   4.761
  253SOL     OW 1657   3.596   5.498   6.915
  253SOL    HW1 1658   3.570   5.402   6.927
  253SOL    HW2 1659   3.570   5.528   6.823
  254SOL     OW 1660   6.288   2.346   3.749
  254SOL    HW1 1661   6.344   2.269   3.778
  254SOL    HW2 1662   6.259   2.333   3.654
  255SOL     OW 1663   2.219   4.726   5.502
  255SOL    HW1 1664   2.250   4.641   5.460
  255SOL    HW2 1665   2.290   4.761   5.563
  256SOL     OW 1666   5.860   3.652   6.029
  256SOL    HW1 1667   5.848   3.748   6.005
  256SOL    HW2 1668   5.786   3.623   6.090
  257SOL     OW 1669   5.166   0.112   3.447
  257SOL    HW1 1670   5.189   0.133   3.541
  257SOL    HW2 1671   5.200   0.184   3.387
  258SOL     OW 1672   2.424   4.233   5.375
  258SOL    HW1 1673   2.501   4.285   5.338
  258SOL    HW2 1674   2.424   4.141   5.335
  259SOL     OW 1675   6.248   0.703   2.183
  259SOL    HW1 1676   6.321   0.759   2.144
  259SOL    HW2 1677   6.173   0.696   2.118
  260SOL     OW 1678   4.312   5.712   3.109
  260SOL    HW1 1679   4.245   5.759   3.167
  260SOL    HW2 1680   4.370   5.654   3.166
  261SOL     OW 1681   5.835   3.149   0.983
  261SOL    HW1 1682   5.885   3.103   0.909
  261SOL    HW2 1683   5.744   3.174   0.950
  262SOL     OW 1684   1.335   4.236   0.407
  262SOL    HW1 1685   1.300   4.167   0.469
  262SOL    HW2 1686   1.278   4.318   0.412
  263SOL     OW 1687   1.883   0.422   4.991
  263SOL    HW1 1688   1.885   0.336   4.939
  263SOL    HW2 1689   1.928   0.408   5.079
  264SOL     OW 1690   6.066   2.554   0.074
  264SOL    HW1 1691   6.046   2.589   7.009
  264SOL    HW2 1692   6.098   2.629   0.132
  265SOL     OW 1693   5.147   6.466   2.939
  265SOL    HW1 1694   5.088   6.430   3.011
  265SOL    HW2 1695   5.104   6.448   2.850
  266SOL     OW 1696   4.475   2.949   5.739
  266SOL    HW1 1697   4.536   2.987   5.809
  266SOL    HW2 1698   4.514   2.967   5.649
  267SOL     OW 1699   0.858   1.860   5.967
  267SOL    HW1 1700   0.834   1.763   5.961
  267SOL    HW2 1701   0.930   1.881   5.901
  268SOL     OW 1702   3.211   0.933   6.235
  268SOL    HW1 1703   3.248   1.024   6.214
  268SOL    HW2 1704   3.115   0.942   6.259
  269SOL     OW 1705   2.104   3.929   0.979
  269SOL    HW1 1706   2.129   3.999   1.046
  269SOL    HW2 1707   2.014   3.950   0.941
  270SOL     OW 1708   1.223   6.240   0.638
  270SOL    HW1 1709   1.165   6.218   0.559
  270SOL    HW2 1710   1.169   6.288   0.707
  271SOL     OW 1711   6.788   1.292   6.120
  271SOL    HW1 1712   6.771   1.351   6.042
  271SOL    HW2 1713   6.886   1.291   6.141
  272SOL     OW 1714   3.798   6.425   4.221
  272SOL    HW1 1715   3.881   6.388   4.263
  272SOL    HW2 1716   3.722   6.363   4.240
  273SOL     OW 1717   2.274   4.766   4.451
  273SOL    HW1 1718   2.348   4.700   4.441
  273SOL    HW2 1719   2.291   4.844   4.390
  274SOL     OW 1720   3.804   1.342   3.172
  274SOL    HW1 1721   3.841   1.292   3.251
  274SOL    HW2 1722   3.831   1.438   3.178
  275SOL     OW 1723   6.471   5.901   3.690
  275SOL    HW1 1724   6.537   5.845   3.639
  275SOL    HW2 1725   6.489   5.892   3.788
  276SOL     OW 1726   0.242   6.657   3.192
  276SOL    HW1 1727   0.191   6.621   3.115
  276SOL    HW2 1728   0.315   6.717   3.159
  277SOL     OW 1729   1.866   4.100   0.789
  277SOL    HW1 1730   1.926   4.138   0.719
  277SOL    HW2 1731   1.789   4.161   0.805
  278SOL     OW 1732   0.011   3.882   1.253
  278SOL    HW1 1733   7.001   3.929   1.333
  278SOL    HW2 1734   6.963   3.867   1.188
  279SOL     OW 1735   5.790   3.278   4.355
  279SOL    HW1 1736   5.857   3.352   4.347
  279SOL    HW2 1737   5.701   3.310   4.322
  280SOL     OW 1738   2.584   5.705   2.538
  280SOL    HW1 1739   2.494   5.667   2.559
  280SOL    HW2 1740   2.654   5.653   2.587
  281SOL     OW 1741   2.687   4.631   1.681
  281SOL    HW1 1742   2.707   4.728   1.666
  281SOL    HW2 1743   2.749   4.594   1.751
  282SOL     OW 1744   3.532   1.681   5.622
  282SOL    HW1 1745   3.530   1.654   5.526
  282SOL    HW2 1746   3.453   1.740   5.641
  283SOL     OW 1747   5.989   2.708   6.608
  283SOL    HW1 1748   5.992   2.620   6.560
  283SOL    HW2 1749   5.896   2.744   6.607
  284SOL     OW 1750   1.825   3.743   3.963
  284SOL    HW1 1751   1.772   3.790   3.893
  284SOL    HW2 1752   1.807   3.645   3.959
  285SOL     OW 1753   5.594   5.366   4.076
  285SOL    HW1 1754   5.631   5.280   4.111
  285SOL    HW2 1755   5.623   5.441   4.136
  286SOL     OW 1756   3.594   5.014   6.837
  286SOL    HW1 1757   3.677   5.000   6.891
  286SOL    HW2 1758   3.619   5.031   6.742
  287SOL     OW 1759   1.236   3.806   1.052
  287SOL    HW1 1760   1.235   3.730   0.987
  287SOL    HW2 1761   1.166   3.791   1.122
  288SOL     OW 1762   3.673   1.499   6.984
  288SOL    HW1 1763   3.728   1.526   0.037
  288SOL    HW2 1764   3.719   1.528   6.900
  289SOL     OW 1765   2.399   4.153   5.666
  289SOL    HW1 1766   2.304   4.124   5.678
  289SOL    HW2 1767   2.411   4.191   5.575
  290SOL     OW 1768   6.181   1.949   4.860
  290SOL    HW1 1769   6.159   2.022   4.794
  290SOL    HW2 1770   6.215   1.990   4.944
  291SOL     OW 1771   0.417   1.840   4.774
  291SOL    HW1 1772   0.464   1.908   4.718
  291SOL    HW2 1773   0.327   1.823   4.735
  292SOL     OW 1774   2.175   1.983   2.842
  292SOL    HW1 1775   2.142   2.078   2.848
  292SOL    HW2 1776   2.202   1.964   2.747
  293SOL     OW 1777   4.543   5.781   3.316
  293SOL    HW1 1778   4.504   5.767   3.225
  293SOL    HW2 1779   4.471   5.773   3.385
  294SOL     OW 1780   6.967   6.201   6.934
  294SOL    HW1 1781   7.007   6.187   7.024
  294SOL    HW2 1782   6.880   6.152   6.927
  295SOL     OW 1783   3.524   1.340   3.131
  295SOL    HW1 1784   3.624   1.339   3.125
  295SOL    HW2 1785   3.486   1.292   3.052
  296SOL     OW 1786   3.124   1.373   2.726
  296SOL    HW1 1787   3.213   1.333   2.745
  296SOL    HW2 1788   3.122   1.406   2.631
  297SOL     OW 1789   2.414   4.323   4.314
  297SOL    HW1 1790   2.367   4.238   4.293
  297SOL    HW2 1791   2.455   4.360   4.231
  298SOL     OW 1792   4.204   6.221   1.733
  298SOL    HW1 1793   4.166   6.169   1.810
  298SOL    HW2 1794   4.134   6.234   1.663
  299SOL     OW 1795   5.087   3.681   5.703
  299SOL    HW1 1796   5.105   3.621   5.626
  299SOL    HW2 1797   4.999   3.727   5.691
  300SOL     OW 1798   6.267   0.341   2.195
  300SOL    HW1 1799   6.226   0.292   2.271
  300SOL    HW2 1800   6.195   0.389   2.144
  301SOL     OW 1801   5.169   3.772   0.528
  301SOL    HW1 1802   5.255   3.821   0.544
  301SOL    HW2 1803   5.181   3.676   0.552
  302SOL     OW 1804   1.320   0.227   3.145
  302SOL    HW1 1805   1.350   0.322   3.138
  302SOL    HW2 1806   1.398   0.169   3.170
  303SOL     OW 1807   5.721   0.617   2.177
  303SOL    HW1 1808   5.780   0.576   2.245
  303SOL    HW2 1809   5.776   0.664   2.108
  304SOL     OW 1810   2.054   0.423   3.439
  304SOL    HW1 1811   2.094   0.486   3.505
  304SOL    HW2 1812   2.025   0.474   3.358
  305SOL     OW 1813   0.543   3.621   6.338
  305SOL    HW1 1814   0.460   3.576   6.370
  305SOL    HW2 1815   0.604   3.554   6.296
  306SOL     OW 1816   1.249   1.230   3.602
  306SOL    HW1 1817   1.270   1.314   3.654
  306SOL    HW2 1818   1.284   1.151   3.651
  307SOL     OW 1819   4.904   6.495   1.464
  307SOL    HW1 1820   4.956   6.415   1.494
  307SOL    HW2 1821   4.814   6.466   1.431
  308SOL     OW 1822   7.013   4.617   4.711
  308SOL    HW1 1823   6.984   4.541   4.653
  308SOL    HW2 1824   6.973   4.605   4.802
  309SOL     OW 1825   3.527   4.442   5.282
  309SOL    HW1 1826   3.577   4.420   5.366
  309SOL    HW2 1827   3.549   4.374   5.212
  310SOL     OW 1828   6.350   6.877   5.760
  310SOL    HW1 1829   6.290   6.931   5.819
  310SOL    HW2 1830   6.445   6.888   5.790
  311SOL     OW 1831   6.793   4.788   1.847
  311SOL    HW1 1832   6.747   4.745   1.925
  311SOL    HW2 1833   6.738   4.774   1.764
  312SOL     OW 1834   5.002   1.737   5.742
  312SOL    HW1 1835   5.011   1.837   5.745
  312SOL    HW2 1836   4.909   1.713   5.715
  313SOL     OW 1837   2.618   4.242   1.698
  313SOL    HW1 1838   2.710   4.265   1.666
  313SOL    HW2 1839   2.613   4.144   1.718
  314SOL     OW 1840   3.290   6.233   0.591
  314SOL    HW1 1841   3.215   6.195   0.537
  314SOL    HW2 1842   3.256   6.266   0.679
  315SOL     OW 1843   0.420   2.201   3.728
  315SOL    HW1 1844   0.405   2.105   3.704
  315SOL    HW2 1845   0.389   2.260   3.654
  316SOL     OW 1846   2.214   2.862   4.607
  316SOL    HW1 1847   2.190   2.797   4.680
  316SOL    HW2 1848   2.247   2.811   4.528
  317SOL     OW 1849   0.782   1.634   6.664
  317SOL    HW1 1850   0.818   1.718   6.623
  317SOL    HW2 1851   0.816   1.555   6.613
  318SOL     OW 1852   1.021   4.934   1.075
  318SOL    HW1 1853   0.979   4.900   1.160
  318SOL    HW2 1854   0.950   4.944   1.005
  319SOL     OW 1855   0.700   0.470   2.141
  319SOL    HW1 1856   0.683   0.417   2.058
  319SOL    HW2 1857   0.795   0.500   2.142
  320SOL     OW 1858   5.631   2.587   0.146
  320SOL    HW1 1859   5.539   2.596   0.108
  320SOL    HW2 1860   5.642   2.496   0.185
  321SOL     OW 1861   2.159   1.893   2.529
  321SOL    HW1 1862   2.190   1.988   2.531
  321SOL    HW2 1863   2.163   1.858   2.436
  322SOL     OW 1864   3.229   3.041   4.315
  322SOL    HW1 1865   3.325   3.028   4.292
  322SOL    HW2 1866   3.185   3.095   4.243
  323SOL     OW 1867   0.924   4.367   0.229
  323SOL    HW1 1868   0.889   4.309   0.302
  323SOL    HW2 1869   0.937   4.313   0.146
  324SOL     OW 1870   1.258   2.760   4.065
  324SOL    HW1 1871   1.335   2.720   4.115
  324SOL    HW2 1872   1.287   2.783   3.972
  325SOL     OW 1873   2.250   3.292   1.084
  325SOL    HW1 1874   2.218   3.326   1.172
  325SOL    HW2 1875   2.346   3.267   1.090
  326SOL     OW 1876   1.703   6.091   6.984
  326SOL    HW1 1877   1.784   6.100   6.925
  326SOL    HW2 1878   1.702   6.166   0.024
  327SOL     OW 1879   0.635   4.826   4.144
  327SOL    HW1 1880   0.580   4.908   4.163
  327SOL    HW2 1881   0.731   4.844   4.164
  328SOL     OW 1882   3.362   5.375   2.605
  328SOL    HW1 1883   3.409   5.418   2.529
  328SOL    HW2 1884   3.421   5.305   2.647
  329SOL     OW 1885   3.574   3.876   3.515
  329SOL    HW1 1886   3.607   3.970   3.519
  329SOL    HW2 1887   3.532   3.859   3.425
  330SOL     OW 1888   3.294   6.391   2.005
  330SOL    HW1 1889   3.393   6.396   1.998
  330SOL    HW2 1890   3.252   6.442   1.930
  331SOL     OW 1891   4.897   4.958   6.185
  331SOL    HW1 1892   4.933   4.905   6.261
  331SOL    HW2 1893   4.972   4.990   6.128
  332SOL     OW 1894   3.652   2.103   3.839
  332SOL    HW1 1895   3.694   2.058   3.918
  332SOL    HW2 1896   3.553   2.113   3.855
  333SOL     OW 1897   4.061   0.286   6.534
  333SOL    HW1 1898   4.128   0.345   6.578
  333SOL    HW2 1899   4.064   0.299   6.435
  334SOL     OW 1900   3.069   6.647   2.138
  334SOL    HW1 1901   2.997   6.675   2.202
  334SOL    HW2 1902   3.099   6.555   2.160
  335SOL     OW 1903   3.428   5.998   3.927
  335SOL    HW1 1904   3.360   5.996   4.001
  335SOL    HW2 1905   3.471   6.088   3.923
  336SOL     OW 1906   2.238   1.242   3.427
  336SOL    HW1 1907   2.273   1.296   3.504
  336SOL    HW2 1908   2.298   1.254   3.348
  337SOL     OW 1909   0.088   3.526   0.825
  337SOL    HW1 1910   0.020   3.533   0.898
  337SOL    HW2 1911   0.059   3.457   0.759
  338SOL     OW 1912   2.939   3.281   1.621
  338SOL    HW1 1913   2.908   3.336   1.544
  338SOL    HW2 1914   3.029   3.313   1.651
  339SOL     OW 1915   3.679   7.025   3.249
  339SOL    HW1 1916   3.678   0.072   3.317
  339SOL    HW2 1917   3.730   0.029   3.168
  340SOL     OW 1918   5.195   4.091   5.070
  340SOL    HW1 1919   5.141   4.062   4.991
  340SOL    HW2 1920   5.233   4.011   5.117
  341SOL     OW 1921   6.134   6.051   4.062
  341SOL    HW1 1922   6.042   6.090   4.065
  341SOL    HW2 1923   6.199   6.116   4.103
  342SOL     OW 1924   5.645   4.321   0.066
  342SOL    HW1 1925   5.655   4.239   0.121
  342SOL    HW2 1926   5.634   4.400   0.127
  343SOL     OW 1927   2.872   6.476   1.635
  343SOL    HW1 1928   2.946   6.412   1.657
  343SOL    HW2 1929   2.865   6.544   1.707
  344SOL     OW 1930   2.317   5.321   0.892
  344SOL    HW1 1931   2.266   5.239   0.867
  344SOL    HW2 1932   2.368   5.354   0.812
  345SOL     OW 1933   0.206   0.698   5.907
  345SOL    HW1 1934   0.148   0.729   5.831
  345SOL    HW2 1935   0.294   0.667   5.871
  346SOL     OW 1936   1.588   0.478   2.279
  346SOL    HW1 1937   1.537   0.459   2.195
  346SOL    HW2 1938   1.528   0.463   2.358
  347SOL     OW 1939   5.671   0.020   6.746
  347SOL    HW1 1940   5.706   0.039   6.654
  347SOL    HW2 1941   5.630   6.955   6.748
  348SOL     OW 1942   4.147   5.114   1.654
  348SOL    HW1 1943   4.062   5.103   1.602
  348SOL    HW2 1944   4.173   5.211   1.656
  349SOL     OW 1945   0.143   4.588   2.264
  349SOL    HW1 1946   0.106   4.650   2.194
  349SOL    HW2 1947   0.112   4.495   2.246
  350SOL     OW 1948   3.775   3.710   1.569
  350SOL    HW1 1949   3.847   3.704   1.639
  350SOL    HW2 1950   3.758   3.618   1.532
  351SOL     OW 1951   2.755   2.137   0.610
  351SOL    HW1 1952   2.769   2.217   0.551
  351SOL    HW2 1953   2.686   2.078   0.569
  352SOL     OW 1954   3.740   0.822   4.861
  352SOL    HW1 1955   3.724   0.910   4.816
  352SOL    HW2 1956   3.737   0.749   4.793
  353SOL     OW 1957   2.259   6.999   0.354
  353SOL    HW1 1958   2.175   6.960   0.316
  353SOL    HW2 1959   2.319   0.002   0.280
  354SOL     OW 1960   4.168   2.393   0.723
  354SOL    HW1 1961   4.089   2.333   0.734
  354SOL    HW2 1962   4.168   2.462   0.795
  355SOL     OW 1963   6.557   3.031   2.804
  355SOL    HW1 1964   6.613   3.091   2.860
  355SOL    HW2 1965   6.460   3.053   2.818
  356SOL     OW 1966   4.372   5.419   4.940
  356SOL    HW1 1967   4.472   5.420   4.948
  356SOL    HW2 1968   4.335   5.505   4.975
  357SOL     OW 1969   0.316   6.118   5.699
  357SOL    HW1 1970   0.282   6.196   5.751
  357SOL    HW2 1971   0.411   6.134   5.672
  358SOL     OW 1972   6.333   0.084   1.116
  358SOL    HW1 1973   6.250   0.055   1.163
  358SOL    HW2 1974   6.385   0.145   1.176
  359SOL     OW 1975   1.648   2.552   2.271
  359SOL    HW1 1976   1.644   2.604   2.185
  359SOL    HW2 1977   1.636   2.614   2.348
  360SOL     OW 1978   3.208   6.414   6.264
  360SOL    HW1 1979   3.123   6.420   6.316
  360SOL    HW2 1980   3.225   6.319   6.239
  361SOL     OW 1981   5.817   5.584   3.295
  361SOL    HW1 1982   5.803   5.620   3.387
  361SOL    HW2 1983   5.911   5.551   3.287
  362SOL     OW 1984   3.030   4.258   0.232
  362SOL    HW1 1985   2.938   4.279   0.200
  362SOL    HW2 1986   3.086   4.226   0.155
  363SOL     OW 1987   3.469   4.914   4.126
  363SOL    HW1 1988   3.552   4.933   4.072
  363SOL    HW2 1989   3.392   4.902   4.064
  364SOL     OW 1990   0.797   6.009   5.653
  364SOL    HW1 1991   0.717   6.032   5.597
  364SOL    HW2 1992   0.857   5.947   5.602
  365SOL     OW 1993   4.930   6.323   3.215
  365SOL    HW1 1994   4.980   6.327   3.302
  365SOL    HW2 1995   4.934   6.413   3.171
  366SOL     OW 1996   5.839   1.180   6.903
  366SOL    HW1 1997   5.764   1.246   6.910
  366SOL    HW2 1998   5.894   1.183   6.986
  367SOL     OW 1999   5.142   3.054   1.037
  367SOL    HW1 2000   5.048   3.082   1.013
  367SOL    HW2 2001   5.187   3.128   1.087
  368SOL     OW 2002   1.581   4.622   4.999
  368SOL    HW1 2003   1.606   4.613   4.903
  368SOL    HW2 2004   1.485   4.599   5.011
  369SOL     OW 2005   6.226   4.353   1.706
  369SOL    HW1 2006   6.175   4.280   1.661
  369SOL    HW2 2007   6.196   4.441   1.670
  370SOL     OW 2008   2.892   0.561   5.401
  370SOL    HW1 2009   2.839   0.589   5.481
  370SOL    HW2 2010   2.909   0.640   5.343
  371SOL     OW 2011   2.482   3.479   6.761
  371SOL    HW1 2012   2.551   3.539   6.802
  371SOL    HW2 2013   2.429   3.436   6.834
  372SOL     OW 2014   0.308   0.194   5.063
  372SOL    HW1 2015   0.237   0.246   5.015
  372SOL    HW2 2016   0.265   0.134   5.131
  373SOL     OW 2017   0.195   6.672   6.551
  373SOL    HW1 2018   0.210   6.575   6.533
  373SOL    HW2 2019   0.267   6.726   6.508
  374SOL     OW 2020   4.082   0.292   2.322
  374SOL    HW1 2021   4.004   0.279   2.261
  374SOL    HW2 2022   4.083   0.218   2.389
  375SOL     OW 2023   6.923   4.584   4.068
  375SOL    HW1 2024   6.866   4.556   3.991
  375SOL    HW2 2025   6.882   4.552   4.154
  376SOL     OW 2026   1.695   3.082   3.987
  376SOL    HW1 2027   1.738   3.123   3.907
  376SOL    HW2 2028   1.735   3.120   4.070
  377SOL     OW 2029   5.296   2.389   2.727
  377SOL    HW1 2030   5.374   2.329   2.707
  377SOL    HW2 2031   5.233   2.389   2.650
  378SOL     OW 2032   3.907   3.093   5.578
  378SOL    HW1 2033   3.883   3.018   5.517
  378SOL    HW2 2034   3.850   3.172   5.557
  379SOL     OW 2035   5.994   3.318   1.421
  379SOL    HW1 2036   6.026   3.238   1.370
  379SOL    HW2 2037   5.895   3.322   1.419
  380SOL     OW 2038   1.627   1.708   1.081
  380SOL    HW1 2039   1.575   1.754   1.153
  380SOL    HW2 2040   1.669   1.625   1.117
  381SOL     OW 2041   2.371   5.102   2.038
  381SOL    HW1 2042   2.322   5.119   2.124
  381SOL    HW2 2043   2.469   5.111   2.054
  382SOL     OW 2044   3.077   6.332   0.291
  382SOL    HW1 2045   3.072   6.268   0.214
  382SOL    HW2 2046   3.154   6.394   0.278
  383SOL     OW 2047   6.390   2.775   6.828
  383SOL    HW1 2048   6.406   2.679   6.802
  383SOL    HW2 2049   6.391   2.832   6.746
  384SOL     OW 2050   1.050   4.968   5.489
  384SOL    HW1 2051   1.117   4.980   5.415
  384SOL    HW2 2052   1.081   5.016   5.571
  385SOL     OW 2053   5.049   6.416   0.156
  385SOL    HW1 2054   5.041   6.510   0.190
  385SOL    HW2 2055   5.145   6.387   0.159
  386SOL     OW 2056   4.102   6.723   5.186
  386SOL    HW1 2057   4.021   6.765   5.145
  386SOL    HW2 2058   4.075   6.674   5.269
  387SOL     OW 2059   0.137   6.996   3.963
  387SOL    HW1 2060   0.172   6.924   4.024
  387SOL    HW2 2061   0.061   6.959   3.908
  388SOL     OW 2062   6.733   2.624   5.236
  388SOL    HW1 2063   6.641   2.663   5.233
  388SOL    HW2 2064   6.735   2.539   5.182
  389SOL     OW 2065   4.404   4.366   1.707
  389SOL    HW1 2066   4.324   4.313   1.678
  389SOL    HW2 2067   4.458   4.311   1.772
  390SOL     OW 2068   3.476   1.088   0.915
  390SOL    HW1 2069   3.527   1.173   0.903
  390SOL    HW2 2070   3.402   1.102   0.981
  391SOL     OW 2071   2.884   4.158   5.759
  391SOL    HW1 2072   2.798   4.182   5.804
  391SOL    HW2 2073   2.866   4.128   5.665
  392SOL     OW 2074   1.509   3.557   2.363
  392SOL    HW1 2075   1.603   3.572   2.394
  392SOL    HW2 2076   1.477   3.468   2.394
  393SOL     OW 2077   0.630   4.734   0.912
  393SOL    HW1 2078   0.692   4.670   0.867
  393SOL    HW2 2079   0.611   4.811   0.851
  394SOL     OW 2080   6.793   3.037   0.147
  394SOL    HW1 2081   6.761   3.103   0.079
  394SOL    HW2 2082   6.841   2.962   0.102
  395SOL     OW 2083   4.748   4.441   1.986
  395SOL    HW1 2084   4.653   4.411   1.996
  395SOL    HW2 2085   4.804   4.364   1.955
  396SOL     OW 2086   2.987   2.050   1.975
  396SOL    HW1 2087   2.996   2.149   1.979
  396SOL    HW2 2088   2.897   2.023   2.008
  397SOL     OW 2089   4.946   1.185   5.378
  397SOL    HW1 2090   4.970   1.163   5.283
  397SOL    HW2 2091   5.026   1.221   5.426
  398SOL     OW 2092   0.969   0.478   4.481
  398SOL    HW1 2093   0.953   0.513   4.573
  398SOL    HW2 2094   0.923   0.390   4.470
  399SOL     OW 2095   5.495   5.936   4.048
  399SOL    HW1 2096   5.451   5.997   3.983
  399SOL    HW2 2097   5.558   5.875   3.999
  400SOL     OW 2098   6.259   0.256   4.658
  400SOL    HW1 2099   6.274   0.215   4.569
  400SOL    HW2 2100   6.344   0.297   4.691
  401SOL     OW 2101   6.596   0.057   5.349
  401SOL    HW1 2102   6.588   6.984   5.336
  401SOL    HW2 2103   6.549   0.082   5.434
  402SOL     OW 2104   6.356   0.218   2.581
  402SOL    HW1 2105   6.454   0.229   2.594
  402SOL    HW2 2106   6.308   0.296   2.621
  403SOL     OW 2107   2.952   0.884   6.262
  403SOL    HW1 2108   2.932   0.831   6.179
  403SOL    HW2 2109   2.867   0.909   6.307
  404SOL     OW 2110   3.652   6.334   5.930
  404SOL    HW1 2111   3.663   6.357   6.027
  404SOL    HW2 2112   3.710   6.394   5.875
  405SOL     OW 2113   1.870   3.725   3.174
  405SOL    HW1 2114   1.845   3.818   3.146
  405SOL    HW2 2115   1.963   3.724   3.210
  406SOL     OW 2116   0.942   5.309   5.512
  406SOL    HW1 2117   0.900   5.253   5.440
  406SOL    HW2 2118   1.041   5.295   5.511
  407SOL     OW 2119   1.255   3.376   3.686
  407SOL    HW1 2120   1.299   3.302   3.736
  407SOL    HW2 2121   1.245   3.455   3.747
  408SOL     OW 2122   3.487   1.748   2.586
  408SOL    HW1 2123   3.450   1.838   2.563
  408SOL    HW2 2124   3.582   1.758   2.615
  409SOL     OW 2125   1.186   3.846   2.420
  409SOL    HW1 2126   1.121   3.812   2.489
  409SOL    HW2 2127   1.278   3.815   2.443
  410SOL     OW 2128   1.502   2.615   1.002
  410SOL    HW1 2129   1.487   2.684   1.073
  410SOL    HW2 2130   1.436   2.627   0.929
  411SOL     OW 2131   0.433   1.896   1.694
  411SOL    HW1 2132   0.446   1.909   1.596
  411SOL    HW2 2133   0.336   1.908   1.717
  412SOL     OW 2134   2.566   4.900   2.896
  412SOL    HW1 2135   2.586   4.929   2.989
  412SOL    HW2 2136   2.610   4.812   2.878
  413SOL     OW 2137   3.960   5.124   2.145
  413SOL    HW1 2138   4.000   5.156   2.059
  413SOL    HW2 2139   3.939   5.026   2.137
  414SOL     OW 2140   2.618   6.911   3.796
  414SOL    HW1 2141   2.593   6.984   3.732
  414SOL    HW2 2142   2.622   6.948   3.889
  415SOL     OW 2143   6.387   1.173   0.695
  415SOL    HW1 2144   6.466   1.219   0.736
  415SOL    HW2 2145   6.308   1.182   0.756
  416SOL     OW 2146   4.985   3.823   5.113
  416SOL    HW1 2147   4.942   3.747   5.065
  416SOL    HW2 2148   4.976   3.810   5.212
  417SOL     OW 2149   3.229   2.522   6.792
  417SOL    HW1 2150   3.192   2.444   6.843
  417SOL    HW2 2151   3.307   2.492   6.737
  418SOL     OW 2152   3.603   0.047   4.216
  418SOL    HW1 2153   3.535   0.087   4.277
  418SOL    HW2 2154   3.574   0.057   4.121
  419SOL     OW 2155   0.722   6.913   1.650
  419SOL    HW1 2156   0.654   6.984   1.669
  419SOL    HW2 2157   0.813   6.948   1.667
  420SOL     OW 2158   5.564   0.459   6.584
  420SOL    HW1 2159   5.653   0.416   6.574
  420SOL    HW2 2160   5.510   0.444   6.501
  421SOL     OW 2161   5.150   4.141   4.218
  421SOL    HW1 2162   5.111   4.231   4.201
  421SOL    HW2 2163   5.208   4.144   4.299
  422SOL     OW 2164   5.110   2.388   1.389
  422SOL    HW1 2165   5.182   2.359   1.452
  422SOL    HW2 2166   5.100   2.487   1.394
  423SOL     OW 2167   2.988   1.592   6.063
  423SOL    HW1 2168   2.978   1.494   6.082
  423SOL    HW2 2169   3.051   1.604   5.986
  424SOL     OW 2170   1.626   4.416   3.034
  424SOL    HW1 2171   1.615   4.466   3.120
  424SOL    HW2 2172   1.629   4.317   3.054
  425SOL     OW 2173   3.909   0.367   5.370
  425SOL    HW1 2174   3.935   0.299   5.439
  425SOL    HW2 2175   3.843   0.327   5.307
  426SOL     OW 2176   2.351   2.087   4.892
  426SOL    HW1 2177   2.271   2.113   4.946
  426SOL    HW2 2178   2.417   2.163   4.893
  427SOL     OW 2179   4.031   1.786   3.345
  427SOL    HW1 2180   3.968   1.804   3.420
  427SOL    HW2 2181   4.049   1.688   3.339
  428SOL     OW 2182   2.665   1.234   5.396
  428SOL    HW1 2183   2.689   1.321   5.440
  428SOL    HW2 2184   2.590   1.250   5.332
  429SOL     OW 2185   1.223   5.775   3.271
  429SOL    HW1 2186   1.240   5.774   3.370
  429SOL    HW2 2187   1.197   5.867   3.242
  430SOL     OW 2188   1.997   0.242   3.866
  430SOL    HW1 2189   1.955   0.309   3.928
  430SOL    HW2 2190   2.070   0.194   3.914
  431SOL     OW 2191   2.676   2.234   1.275
  431SOL    HW1 2192   2.607   2.188   1.329
  431SOL    HW2 2193   2.632   2.290   1.205
  432SOL     OW 2194   4.056   2.041   1.460
  432SOL    HW1 2195   4.081   2.137   1.451
  432SOL    HW2 2196   4.093   1.990   1.382
  433SOL     OW 2197   2.247   6.832   7.005
  433SOL    HW1 2198   2.281   6.806   6.915
  433SOL    HW2 2199   2.317   6.812   0.048
  434SOL     OW 2200   4.210   6.619   4.068
  434SOL    HW1 2201   4.121   6.573   4.075
  434SOL    HW2 2202   4.254   6.619   4.157
  435SOL     OW 2203   3.667   1.691   6.210
  435SOL    HW1 2204   3.642   1.774   6.260
  435SOL    HW2 2205   3.614   1.686   6.126
  436SOL     OW 2206   3.915   6.433   3.762
  436SOL    HW1 2207   3.976   6.404   3.689
  436SOL    HW2 2208   3.845   6.495   3.724
  437SOL     OW 2209   0.428   0.568   4.376
  437SOL    HW1 2210   0.332   0.561   4.350
  437SOL    HW2 2211   0.485   0.521   4.308
  438SOL     OW 2212   1.055   4.465   2.826
  438SOL    HW1 2213   1.115   4.428   2.755
  438SOL    HW2 2214   1.007   4.390   2.871
  439SOL     OW 2215   5.604   0.527   3.110
  439SOL    HW1 2216   5.569   0.443   3.069
  439SOL    HW2 2217   5.556   0.606   3.070
  440SOL     OW 2218   4.816   0.968   6.865
  440SOL    HW1 2219   4.776   0.944   6.953
  440SOL    HW2 2220   4.755   1.028   6.815
  441SOL     OW 2221   0.006   4.390   2.640
  441SOL    HW1 2222   6.950   4.359   2.592
  441SOL    HW2 2223   0.007   4.351   2.732
  442SOL     OW 2224   5.633   3.839   5.429
  442SOL    HW1 2225   5.635   3.916   5.365
  442SOL    HW2 2226   5.649   3.754   5.379
  443SOL     OW 2227   5.197   4.257   3.057
  443SOL    HW1 2228   5.199   4.296   3.149
  443SOL    HW2 2229   5.204   4.157   3.063
  444SOL     OW 2230   4.017   1.106   1.288
  444SOL    HW1 2231   3.963   1.176   1.241
  444SOL    HW2 2232   4.090   1.075   1.227
  445SOL     OW 2233   1.716   5.254   2.515
  445SOL    HW1 2234   1.799   5.199   2.509
  445SOL    HW2 2235   1.740   5.351   2.509
  446SOL     OW 2236   6.042   6.625   2.731
  446SOL    HW1 2237   5.971   6.680   2.687
  446SOL    HW2 2238   6.063   6.546   2.674
  447SOL     OW 2239   5.916   3.760   0.024
  447SOL    HW1 2240   5.875   3.694   0.087
  447SOL    HW2 2241   5.914   3.723   6.957
  448SOL     OW 2242   2.878   0.799   2.482
  448SOL    HW1 2243   2.797   0.791   2.539
  448SOL    HW2 2244   2.916   0.892   2.491
  449SOL     OW 2245   2.021   2.695   4.358
  449SOL    HW1 2246   2.068   2.610   4.335
  449SOL    HW2 2247   2.065   2.772   4.310
  450SOL     OW 2248   1.244   4.126   2.797
  450SOL    HW1 2249   1.227   4.156   2.703
  450SOL    HW2 2250   1.176   4.166   2.858
  451SOL     OW 2251   0.746   2.098   3.287
  451SOL    HW1 2252   0.766   2.108   3.385
  451SOL    HW2 2253   0.831   2.077   3.238
  452SOL     OW 2254   4.032   6.443   3.530
  452SOL    HW1 2255   3.983   6.419   3.446
  452SOL    HW2 2256   4.122   6.480   3.506
  453SOL     OW 2257   4.259   6.942   0.030
  453SOL    HW1 2258   4.276   6.844   0.040
  453SOL    HW2 2259   4.210   6.958   6.970
  454SOL     OW 2260   0.015   4.578   6.651
  454SOL    HW1 2261   0.069   4.572   6.735
  454SOL    HW2 2262   7.011   4.673   6.638
  455SOL     OW 2263   6.553   4.652   5.977
  455SOL    HW1 2264   6.560   4.752   5.980
  455SOL    HW2 2265   6.474   4.622   6.031
  456SOL     OW 2266   2.927   1.068   2.495
  456SOL    HW1 2267   2.893   1.111   2.579
  456SOL    HW2 2268   2.921   1.133   2.419
  457SOL     OW 2269   2.471   6.642   6.171
  457SOL    HW1 2270   2.427   6.573   6.229
  457SOL    HW2 2271   2.530   6.700   6.227
  458SOL     OW 2272   1.851   2.026   3.143
  458SOL    HW1 2273   1.845   1.970   3.225
  458SOL    HW2 2274   1.877   1.969   3.065
  459SOL     OW 2275   2.156   0.057   4.769
  459SOL    HW1 2276   2.183   6.998   4.813
  459SOL    HW2 2277   2.152   0.044   4.670
  460SOL     OW 2278   1.293   1.852   4.740
  460SOL    HW1 2279   1.298   1.815   4.833
  460SOL    HW2 2280   1.283   1.778   4.674
  461SOL     OW 2281   0.927   4.692   6.058
  461SOL    HW1 2282   0.992   4.655   5.992
  461SOL    HW2 2283   0.930   4.638   6.142
  462SOL     OW 2284   3.335   3.772   4.511
  462SOL    HW1 2285   3.386   3.838   4.564
  462SOL    HW2 2286   3.368   3.772   4.416
  463SOL     OW 2287   6.169   6.480   2.442
  463SOL    HW1 2288   6.202   6.461   2.534
  463SOL    HW2 2289   6.085   6.430   2.425
  464SOL     OW 2290   3.371   6.268   6.564
  464SOL    HW1 2291   3.351   6.351   6.616
  464SOL    HW2 2292   3.443   6.216   6.609
  465SOL     OW 2293   1.529   2.431   0.486
  465SOL    HW1 2294   1.431   2.447   0.478
  465SOL    HW2 2295   1.548   2.333   0.488
  466SOL     OW 2296   3.507   6.000   4.767
  466SOL    HW1 2297   3.490   6.023   4.863
  466SOL    HW2 2298   3.529   6.083   4.716
  467SOL     OW 2299   6.414   1.099   2.451
  467SOL    HW1 2300   6.509   1.110   2.481
  467SOL    HW2 2301   6.376   1.017   2.493
  468SOL     OW 2302   3.837   0.395   6.667
  468SOL    HW1 2303   3.851   0.369   6.762
  468SOL    HW2 2304   3.892   0.336   6.608
  469SOL     OW 2305   2.743   5.096   5.894
  469SOL    HW1 2306   2.681   5.173   5.907
  469SOL    HW2 2307   2.790   5.075   5.980
  470SOL     OW 2308   2.618   4.966   3.187
  470SOL    HW1 2309   2.696   4.904   3.195
  470SOL    HW2 2310   2.646   5.059   3.210
  471SOL     OW 2311   2.900   2.130   4.082
  471SOL    HW1 2312   2.954   2.050   4.059
  471SOL    HW2 2313   2.878   2.181   3.999
  472SOL     OW 2314   6.266   4.344   6.078
  472SOL    HW1 2315   6.290   4.368   6.172
  472SOL    HW2 2316   6.239   4.248   6.074
  473SOL     OW 2317   0.065   2.430   2.653
  473SOL    HW1 2318   0.136   2.500   2.655
  473SOL    HW2 2319   7.008   2.464   2.698
  474SOL     OW 2320   6.003   6.430   4.507
  474SOL    HW1 2321   5.959   6.519   4.495
  474SOL    HW2 2322   5.933   6.361   4.526
  475SOL     OW 2323   5.864   1.271   0.940
  475SOL    HW1 2324   5.817   1.359   0.932
  475SOL    HW2 2325   5.819   1.204   0.880
  476SOL     OW 2326   0.570   4.071   1.668
  476SOL    HW1 2327   0.646   4.049   1.729
  476SOL    HW2 2328   0.577   4.167   1.639
  477SOL     OW 2329   1.732   5.030   3.811
  477SOL    HW1 2330   1.823   5.048   3.849
  477SOL    HW2 2331   1.707   4.935   3.828
  478SOL     OW 2332   4.711   5.843   2.342
  478SOL    HW1 2333   4.653   5.912   2.299
  478SOL    HW2 2334   4.714   5.859   2.441
  479SOL     OW 2335   3.996   3.873   3.977
  479SOL    HW1 2336   4.046   3.788   3.994
  479SOL    HW2 2337   3.941   3.896   4.057
  480SOL     OW 2338   1.897   7.010   2.797
  480SOL    HW1 2339   1.853   0.071   2.774
  480SOL    HW2 2340   1.970   6.991   2.732
  481SOL     OW 2341   0.484   6.796   0.530
  481SOL    HW1 2342   0.430   6.741   0.466
  481SOL    HW2 2343   0.578   6.803   0.497
  482SOL     OW 2344   5.223   4.656   1.919
  482SOL    HW1 2345   5.234   4.557   1.925
  482SOL    HW2 2346   5.302   4.701   1.960
  483SOL     OW 2347   6.026   2.164   3.022
  483SOL    HW1 2348   6.109   2.204   3.062
  483SOL    HW2 2349   6.027   2.065   3.035
  484SOL     OW 2350   2.262   4.125   4.243
  484SOL    HW1 2351   2.262   4.029   4.213
  484SOL    HW2 2352   2.192   4.175   4.192
  485SOL     OW 2353   5.368   3.307   2.278
  485SOL    HW1 2354   5.454   3.325   2.326
  485SOL    HW2 2355   5.361   3.210   2.257
  486SOL     OW 2356   6.210   6.318   6.234
  486SOL    HW1 2357   6.284   6.309   6.168
  486SOL    HW2 2358   6.200   6.233   6.285
  487SOL     OW 2359   7.011   6.395   4.637
  487SOL    HW1 2360   6.947   6.393   4.560
  487SOL    HW2 2361   0.020   6.488   4.650
  488SOL     OW 2362   1.649   6.305   3.533
  488SOL    HW1 2363   1.563   6.297   3.583
  488SOL    HW2 2364   1.677   6.401   3.530
  489SOL     OW 2365   0.084   5.785   5.923
  489SOL    HW1 2366   0.019   5.772   5.997
  489SOL    HW2 2367   0.136   5.701   5.908
  490SOL     OW 2368   1.634   4.908   5.687
  490SOL    HW1 2369   1.543   4.868   5.677
  490SOL    HW2 2370   1.639   4.993   5.635
  491SOL     OW 2371   0.340   2.567   0.955
  491SOL    HW1 2372   0.328   2.475   0.919
  491SOL    HW2 2373   0.370   2.562   1.051
  492SOL     OW 2374   1.476   1.605   5.631
  492SOL    HW1 2375   1.400   1.669   5.627
  492SOL    HW2 2376   1.446   1.515   5.598
  493SOL     OW 2377   2.150   6.305   4.885
  493SOL    HW1 2378   2.170   6.231   4.948
  493SOL    HW2 2379   2.209   6.383   4.906
  494SOL     OW 2380   2.396   0.081   5.051
  494SOL    HW1 2381   2.447   0.030   4.981
  494SOL    HW2 2382   2.339   0.150   5.007
  495SOL     OW 2383   3.984   5.830   5.494
  495SOL    HW1 2384   4.003   5.804   5.400
  495SOL    HW2 2385   3.964   5.749   5.549
  496SOL     OW 2386   4.914   1.591   2.744
  496SOL    HW1 2387   4.938   1.602   2.840
  496SOL    HW2 2388   4.814   1.591   2.734
  497SOL     OW 2389   3.201   0.856   6.574
  497SOL    HW1 2390   3.112   0.888   6.543
  497SOL    HW2 2391   3.218   0.890   6.667
  498SOL     OW 2392   0.711   5.997   1.909
  498SOL    HW1 2393   0.760   6.084   1.913
  498SOL    HW2 2394   0.642   6.001   1.837
  499SOL     OW 2395   3.607   5.822   7.026
  499SOL    HW1 2396   3.630   5.810   6.929
  499SOL    HW2 2397   3.533   5.889   0.007
  500SOL     OW 2398   5.805   1.946   0.272
  500SOL    HW1 2399   5.786   2.033   0.226
  500SOL    HW2 2400   5.798   1.871   0.206
  501SOL     OW 2401   0.860   0.216   2.760
  501SOL    HW1 2402   0.840   0.143   2.695
  501SOL    HW2 2403   0.892   0.176   2.847
  502SOL     OW 2404   2.129   5.152   6.825
  502SOL    HW1 2405   2.075   5.156   6.741
  502SOL    HW2 2406   2.192   5.229   6.827
  503SOL     OW 2407   3.554   5.328   0.202
  503SOL    HW1 2408   3.492   5.324   0.280
  503SOL    HW2 2409   3.516   5.275   0.126
  504SOL     OW 2410   5.844   6.487   2.267
  504SOL    HW1 2411   5.874   6.486   2.172
  504SOL    HW2 2412   5.744   6.490   2.270
  505SOL     OW 2413   5.019   6.811   5.056
  505SOL    HW1 2414   5.093   6.759   5.098
  505SOL    HW2 2415   5.058   6.882   4.996
  506SOL     OW 2416   3.619   5.562   2.672
  506SOL    HW1 2417   3.690   5.499   2.641
  506SOL    HW2 2418   3.633   5.585   2.768
  507SOL     OW 2419   3.608   0.835   1.240
  507SOL    HW1 2420   3.579   0.830   1.145
  507SOL    HW2 2421   3.696   0.882   1.246
  508SOL     OW 2422   0.366   4.650   4.252
  508SOL    HW1 2423   0.418   4.624   4.171
  508SOL    HW2 2424   0.370   4.749   4.265
  509SOL     OW 2425   4.458   0.057   6.200
  509SOL    HW1 2426   4.407   0.005   6.268
  509SOL    HW2 2427   4.555   0.031   6.203
  510SOL     OW 2428   6.702   4.310   6.964
  510SOL    HW1 2429   6.623   4.325   6.905
  510SOL    HW2 2430   6.718   4.211   6.973
  511SOL     OW 2431   1.082   1.789   0.202
  511SOL    HW1 2432   1.177   1.774   0.174
  511SOL    HW2 2433   1.021   1.749   0.133
  512SOL     OW 2434   6.519   2.302   6.555
  512SOL    HW1 2435   6.482   2.230   6.496
  512SOL    HW2 2436   6.614   2.321   6.529
  513SOL     OW 2437   5.557   0.098   3.005
  513SOL    HW1 2438   5.610   0.102   3.090
  513SOL    HW2 2439   5.480   0.034   3.017
  514SOL     OW 2440   6.586   6.804   4.330
  514SOL    HW1 2441   6.606   6.710   4.360
  514SOL    HW2 2442   6.495   6.829   4.361
  515SOL     OW 2443   3.544   6.780   6.974
  515SOL    HW1 2444   3.550   6.689   7.015
  515SOL    HW2 2445   3.575   6.776   6.879
  516SOL     OW 2446   2.166   5.524   1.512
  516SOL    HW1 2447   2.135   5.607   1.465
  516SOL    HW2 2448   2.209   5.549   1.599
  517SOL     OW 2449   3.175   5.098   2.429
  517SOL    HW1 2450   3.134   5.179   2.471
  517SOL    HW2 2451   3.269   5.118   2.403
  518SOL     OW 2452   2.122   3.014   3.430
  518SOL    HW1 2453   2.106   3.098   3.482
  518SOL    HW2 2454   2.163   2.945   3.490
  519SOL     OW 2455   0.549   6.793   3.476
  519SOL    HW1 2456   0.466   6.748   3.441
  519SOL    HW2 2457   0.629   6.755   3.430
  520SOL     OW 2458   1.397   2.733   0.195
  520SOL    HW1 2459   1.425   2.790   0.273
  520SOL    HW2 2460   1.345   2.655   0.228
  521SOL     OW 2461   5.079   5.072   5.415
  521SOL    HW1 2462   5.156   5.136   5.419
  521SOL    HW2 2463   5.030   5.084   5.329
  522SOL     OW 2464   4.052   3.695   1.424
  522SOL    HW1 2465   4.093   3.604   1.417
  522SOL    HW2 2466   4.008   3.718   1.337
  523SOL     OW 2467   0.073   6.746   1.580
  523SOL    HW1 2468   0.066   6.647   1.591
  523SOL    HW2 2469   0.169   6.771   1.567
  524SOL     OW 2470   6.785   2.589   2.165
  524SOL    HW1 2471   6.746   2.660   2.223
  524SOL    HW2 2472   6.728   2.577   2.083
  525SOL     OW 2473   1.378   3.764   6.825
  525SOL    HW1 2474   1.452   3.815   6.868
  525SOL    HW2 2475   1.341   3.817   6.749
  526SOL     OW 2476   3.149   0.353   4.677
  526SOL    HW1 2477   3.067   0.298   4.688
  526SOL    HW2 2478   3.194   0.364   4.766
  527SOL     OW 2479   1.204   2.246   6.859
  527SOL    HW1 2480   1.224   2.198   6.773
  527SOL    HW2 2481   1.120   2.299   6.849
  528SOL     OW 2482   6.980   3.003   4.088
  528SOL    HW1 2483   6.889   3.040   4.067
  528SOL    HW2 2484   6.970   2.917   4.138
  529SOL     OW 2485   2.219   0.381   5.757
  529SOL    HW1 2486   2.280   0.306   5.784
  529SOL    HW2 2487   2.209   0.445   5.833
  530SOL     OW 2488   3.691   3.425   1.397
  530SOL    HW1 2489   3.617   3.490   1.381
  530SOL    HW2 2490   3.683   3.387   1.489
  531SOL     OW 2491   2.382   0.798   2.136
  531SOL    HW1 2492   2.342   0.874   2.085
  531SOL    HW2 2493   2.308   0.741   2.173
  532SOL     OW 2494   3.209   2.852   0.156
  532SOL    HW1 2495   3.263   2.778   0.195
  532SOL    HW2 2496   3.179   2.827   0.064
  533SOL     OW 2497   4.168   0.221   3.865
  533SOL    HW1 2498   4.117   0.184   3.787
  533SOL    HW2 2499   4.205   0.311   3.842
  534SOL     OW 2500   0.659   5.527   1.186
  534SOL    HW1 2501   0.720   5.453   1.158
  534SOL    HW2 2502   0.571   5.517   1.140
  535SOL     OW 2503   5.608   3.922   3.209
  535SOL    HW1 2504   5.651   3.865   3.140
  535SOL    HW2 2505   5.549   3.990   3.165
  536SOL     OW 2506   6.396   6.176   3.280
  536SOL    HW1 2507   6.319   6.114   3.268
  536SOL    HW2 2508   6.419   6.183   3.377
  537SOL     OW 2509   3.236   0.508   4.138
  537SOL    HW1 2510   3.304   0.434   4.138
  537SOL    HW2 2511   3.178   0.500   4.057
  538SOL     OW 2512   2.451   5.135   5.447
  538SOL    HW1 2513   2.452   5.230   5.478
  538SOL    HW2 2514   2.357   5.108   5.425
  539SOL     OW 2515   0.961   6.289   0.532
  539SOL    HW1 2516   0.926   6.246   0.615
  539SOL    HW2 2517   0.894   6.356   0.499
  540SOL     OW 2518   1.209   0.498   3.415
  540SOL    HW1 2519   1.252   0.438   3.481
  540SOL    HW2 2520   1.110   0.487   3.420
  541SOL     OW 2521   3.850   6.386   4.572
  541SOL    HW1 2522   3.858   6.352   4.666
  541SOL    HW2 2523   3.880   6.316   4.508
  542SOL     OW 2524   2.790   6.539   6.614
  542SOL    HW1 2525   2.711   6.597   6.637
  542SOL    HW2 2526   2.874   6.586   6.640
  543SOL     OW 2527   5.844   2.716   4.053
  543SOL    HW1 2528   5.853   2.744   3.958
  543SOL    HW2 2529   5.930   2.735   4.102
  544SOL     OW 2530   0.278   4.743   0.161
  544SOL    HW1 2531   0.291   4.733   0.063
  544SOL    HW2 2532   0.197   4.799   0.179
  545SOL     OW 2533   5.151   1.457   1.459
  545SOL    HW1 2534   5.123   1.501   1.373
  545SOL    HW2 2535   5.114   1.365   1.463
  546SOL     OW 2536   0.385   4.246   2.201
  546SOL    HW1 2537   0.420   4.168   2.251
  546SOL    HW2 2538   0.424   4.247   2.109
  547SOL     OW 2539   4.244   1.509   0.081
  547SOL    HW1 2540   4.335   1.549   0.081
  547SOL    HW2 2541   4.210   1.502   0.175
  548SOL     OW 2542   3.653   3.044   7.020
  548SOL    HW1 2543   3.753   3.054   7.025
  548SOL    HW2 2544   3.618   3.020   0.085
  549SOL     OW 2545   6.350   2.042   0.625
  549SOL    HW1 2546   6.343   2.141   0.612
  549SOL    HW2 2547   6.344   2.020   0.722
  550SOL     OW 2548   0.105   4.693   2.803
  550SOL    HW1 2549   0.090   4.628   2.728
  550SOL    HW2 2550   0.185   4.666   2.856
  551SOL     OW 2551   6.982   0.966   0.157
  551SOL    HW1 2552   6.897   0.968   0.103
  551SOL    HW2 2553   6.960   0.971   0.254
  552SOL     OW 2554   5.463   5.463   5.559
  552SOL    HW1 2555   5.374   5.501   5.584
  552SOL    HW2 2556   5.526   5.537   5.536
  553SOL     OW 2557   3.299   1.265   5.770
  553SOL    HW1 2558   3.207   1.224   5.771
  553SOL    HW2 2559   3.321   1.296   5.678
  554SOL     OW 2560   5.829   6.023   0.839
  554SOL    HW1 2561   5.808   5.927   0.821
  554SOL    HW2 2562   5.836   6.072   0.752
  555SOL     OW 2563   2.614   5.382   5.417
  555SOL    HW1 2564   2.618   5.481   5.429
  555SOL    HW2 2565   2.596   5.360   5.321
  556SOL     OW 2566   4.833   1.981   3.801
  556SOL    HW1 2567   4.928   2.002   3.826
  556SOL    HW2 2568   4.771   2.032   3.861
  557SOL     OW 2569   6.827   5.272   5.838
  557SOL    HW1 2570   6.766   5.314   5.904
  557SOL    HW2 2571   6.776   5.253   5.753
  558SOL     OW 2572   3.718   3.453   2.753
  558SOL    HW1 2573   3.632   3.450   2.703
  558SOL    HW2 2574   3.752   3.360   2.766
  559SOL     OW 2575   6.452   6.423   5.522
  559SOL    HW1 2576   6.482   6.445   5.615
  559SOL    HW2 2577   6.413   6.504   5.480
  560SOL     OW 2578   6.622   2.851   3.313
  560SOL    HW1 2579   6.565   2.919   3.266
  560SOL    HW2 2580   6.693   2.819   3.251
  561SOL     OW 2581   0.288   3.413   6.379
  561SOL    HW1 2582   0.363   3.348   6.364
  561SOL    HW2 2583   0.230   3.417   6.298
  562SOL     OW 2584   4.762   6.527   5.918
  562SOL    HW1 2585   4.741   6.514   5.821
  562SOL    HW2 2586   4.756   6.624   5.941
  563SOL     OW 2587   1.787   1.866   4.450
  563SOL    HW1 2588   1.713   1.896   4.511
  563SOL    HW2 2589   1.768   1.896   4.357
  564SOL     OW 2590   0.321   1.497   5.743
  564SOL    HW1 2591   0.305   1.423   5.808
  564SOL    HW2 2592   0.348   1.458   5.655
  565SOL     OW 2593   3.238   2.903   3.743
  565SOL    HW1 2594   3.167   2.968   3.717
  565SOL    HW2 2595   3.201   2.838   3.810
  566SOL     OW 2596   3.107   5.407   3.092
  566SOL    HW1 2597   3.175   5.418   3.020
  566SOL    HW2 2598   3.028   5.358   3.056
  567SOL     OW 2599   2.385   2.909   6.922
  567SOL    HW1 2600   2.286   2.900   6.935
  567SOL    HW2 2601   2.432   2.870   7.001
  568SOL     OW 2602   5.934   6.860   0.590
  568SOL    HW1 2603   5.952   6.882   0.494
  568SOL    HW2 2604   5.984   6.778   0.615
  569SOL     OW 2605   0.019   2.300   6.989
  569SOL    HW1 2606   0.101   2.331   6.942
  569SOL    HW2 2607   7.007   2.220   6.942
  570SOL     OW 2608   2.951   0.331   6.185
  570SOL    HW1 2609   2.873   0.269   6.201
  570SOL    HW2 2610   3.019   0.318   6.257
  571SOL     OW 2611   2.793   4.765   3.103
  571SOL    HW1 2612   2.891   4.782   3.114
  571SOL    HW2 2613   2.776   4.721   3.015
  572SOL     OW 2614   1.704   5.774   4.508
  572SOL    HW1 2615   1.716   5.679   4.482
  572SOL    HW2 2616   1.780   5.802   4.567
  573SOL     OW 2617   6.182   2.196   5.642
  573SOL    HW1 2618   6.133   2.129   5.587
  573SOL    HW2 2619   6.188   2.164   5.737
  574SOL     OW 2620   3.173   1.774   4.981
  574SOL    HW1 2621   3.268   1.804   4.986
  574SOL    HW2 2622   3.116   1.836   5.035
  575SOL     OW 2623   3.280   3.329   0.519
  575SOL    HW1 2624   3.222   3.359   0.443
  575SOL    HW2 2625   3.244   3.367   0.605
  576SOL     OW 2626   2.034   3.417   3.005
  576SOL    HW1 2627   2.063   3.416   3.101
  576SOL    HW2 2628   2.005   3.326   2.978
  577SOL     OW 2629   0.830   1.258   2.100
  577SOL    HW1 2630   0.876   1.241   2.013
  577SOL    HW2 2631   0.897   1.259   2.174
  578SOL     OW 2632   1.736   5.620   0.359
  578SOL    HW1 2633   1.675   5.576   0.424
  578SOL    HW2 2634   1.732   5.572   0.271
  579SOL     OW 2635   2.749   4.725   2.576
  579SOL    HW1 2636   2.729   4.683   2.488
  579SOL    HW2 2637   2.789   4.815   2.561
  580SOL     OW 2638   3.954   5.186   4.942
  580SOL    HW1 2639   4.026   5.138   4.893
  580SOL    HW2 2640   3.994   5.246   5.012
  581SOL     OW 2641   0.893   2.729   3.603
  581SOL    HW1 2642   0.879   2.768   3.512
  581SOL    HW2 2643   0.954   2.789   3.656
  582SOL     OW 2644   5.419   4.866   3.352
  582SOL    HW1 2645   5.418   4.917   3.438
  582SOL    HW2 2646   5.349   4.903   3.291
  583SOL     OW 2647   3.175   5.097   5.821
  583SOL    HW1 2648   3.160   5.075   5.725
  583SOL    HW2 2649   3.125   5.180   5.845
  584SOL     OW 2650   3.540   0.141   6.438
  584SOL    HW1 2651   3.469   0.139   6.508
  584SOL    HW2 2652   3.510   0.087   6.359
  585SOL     OW 2653   2.616   6.750   1.473
  585SOL    HW1 2654   2.689   6.792   1.419
  585SOL    HW2 2655   2.568   6.821   1.525
  586SOL     OW 2656   4.368   0.417   1.582
  586SOL    HW1 2657   4.300   0.346   1.598
  586SOL    HW2 2658   4.386   0.467   1.667
  587SOL     OW 2659   5.211   2.011   2.073
  587SOL    HW1 2660   5.265   2.059   2.003
  587SOL    HW2 2661   5.270   1.989   2.150
  588SOL     OW 2662   1.146   5.498   1.108
  588SOL    HW1 2663   1.243   5.504   1.132
  588SOL    HW2 2664   1.094   5.566   1.159
  589SOL     OW 2665   3.431   6.029   1.263
  589SOL    HW1 2666   3.412   5.958   1.331
  589SOL    HW2 2667   3.345   6.073   1.236
  590SOL     OW 2668   5.886   1.815   1.007
  590SOL    HW1 2669   5.936   1.745   0.956
  590SOL    HW2 2670   5.865   1.892   0.947
  591SOL     OW 2671   4.386   5.241   4.551
  591SOL    HW1 2672   4.356   5.222   4.458
  591SOL    HW2 2673   4.317   5.297   4.598
  592SOL     OW 2674   4.918   1.425   4.146
  592SOL    HW1 2675   4.880   1.515   4.125
  592SOL    HW2 2676   4.846   1.365   4.180
  593SOL     OW 2677   3.980   2.207   5.171
  593SOL    HW1 2678   4.033   2.292   5.172
  593SOL    HW2 2679   4.015   2.146   5.243
  594SOL     OW 2680   5.623   2.055   1.469
  594SOL    HW1 2681   5.555   2.102   1.413
  594SOL    HW2 2682   5.664   1.980   1.416
  595SOL     OW 2683   4.971   6.319   2.761
  595SOL    HW1 2684   4.971   6.380   2.682
  595SOL    HW2 2685   4.879   6.285   2.777
  596SOL     OW 2686   6.770   3.842   4.227
  596SOL    HW1 2687   6.671   3.831   4.223
  596SOL    HW2 2688   6.815   3.758   4.194
  597SOL     OW 2689   3.051   6.652   5.809
  597SOL    HW1 2690   3.071   6.731   5.868
  597SOL    HW2 2691   3.104   6.660   5.724
  598SOL     OW 2692   2.895   3.434   4.910
  598SOL    HW1 2693   2.941   3.347   4.891
  598SOL    HW2 2694   2.826   3.421   4.981
  599SOL     OW 2695   1.775   6.271   1.912
  599SOL    HW1 2696   1.758   6.248   1.817
  599SOL    HW2 2697   1.788   6.188   1.966
  600SOL     OW 2698   6.925   4.083   4.794
  600SOL    HW1 2699   6.992   4.077   4.720
  600SOL    HW2 2700   6.963   4.042   4.877
  601SOL     OW 2701   1.155   0.978   4.908
  601SOL    HW1 2702   1.154   0.906   4.839
  601SOL    HW2 2703   1.224   0.956   4.978
  602SOL     OW 2704   2.548   6.622   5.079
  602SOL    HW1 2705   2.628   6.564   5.064
  602SOL    HW2 2706   2.543   6.648   5.176
  603SOL     OW 2707   1.674   0.928   5.028
  603SOL    HW1 2708   1.750   0.961   4.973
  603SOL    HW2 2709   1.704   0.852   5.085
  604SOL     OW 2710   0.278   2.462   1.753
  604SOL    HW1 2711   0.206   2.435   1.689
  604SOL    HW2 2712   0.237   2.494   1.838
  605SOL     OW 2713   0.010   4.317   2.056
  605SOL    HW1 2714   0.042   4.294   2.148
  605SOL    HW2 2715   0.069   4.386   2.016
  606SOL     OW 2716   3.887   6.832   5.017
  606SOL    HW1 2717   3.799   6.869   4.987
  606SOL    HW2 2718   3.903   6.744   4.973
  607SOL     OW 2719   1.471   5.069   6.541
  607SOL    HW1 2720   1.447   5.030   6.452
  607SOL    HW2 2721   1.569   5.086   6.545
  608SOL     OW 2722   3.982   0.014   6.565
  608SOL    HW1 2723   4.018   0.105   6.546
  608SOL    HW2 2724   3.901   7.024   6.509
  609SOL     OW 2725   3.761   2.324   1.398
  609SOL    HW1 2726   3.829   2.283   1.337
  609SOL    HW2 2727   3.797   2.326   1.491
  610SOL     OW 2728   4.581   2.528   7.025
  610SOL    HW1 2729   4.637   2.606   7.000
  610SOL    HW2 2730   4.488   2.558   0.018
  611SOL     OW 2731   3.922   6.857   2.359
  611SOL    HW1 2732   3.843   6.896   2.311
  611SOL    HW2 2733   3.900   6.846   2.456
  612SOL     OW 2734   3.629   5.033   5.703
  612SOL    HW1 2735   3.665   4.960   5.645
  612SOL    HW2 2736   3.542   5.005   5.743
  613SOL     OW 2737   5.196   5.775   4.898
  613SOL    HW1 2738   5.292   5.799   4.908
  613SOL    HW2 2739   5.176   5.692   4.951
  614SOL     OW 2740   5.074   5.320   5.047
  614SOL    HW1 2741   5.155   5.332   4.990
  614SOL    HW2 2742   5.095   5.347   5.141
  615SOL     OW 2743   0.247   4.289   0.787
  615SOL    HW1 2744   0.235   4.221   0.860
  615SOL    HW2 2745   0.178   4.272   0.716
  616SOL     OW 2746   6.494   2.697   3.557
  616SOL    HW1 2747   6.414   2.756   3.570
  616SOL    HW2 2748   6.576   2.754   3.549
  617SOL     OW 2749   2.572   5.739   5.957
  617SOL    HW1 2750   2.593   5.660   5.898
  617SOL    HW2 2751   2.586   5.714   6.053
  618SOL     OW 2752   1.833   1.607   1.583
  618SOL    HW1 2753   1.818   1.698   1.622
  618SOL    HW2 2754   1.925   1.576   1.608
  619SOL     OW 2755   1.484   1.941   6.659
  619SOL    HW1 2756   1.448   1.865   6.604
  619SOL    HW2 2757   1.578   1.921   6.685
  620SOL     OW 2758   4.711   2.785   0.705
  620SOL    HW1 2759   4.680   2.778   0.800
  620SOL    HW2 2760   4.665   2.717   0.649
  621SOL     OW 2761   6.014   4.954   0.094
  621SOL    HW1 2762   6.011   5.038   0.148
  621SOL    HW2 2763   5.974   4.970   0.004
  622SOL     OW 2764   1.999   1.552   0.228
  622SOL    HW1 2765   2.064   1.619   0.263
  622SOL    HW2 2766   1.933   1.598   0.169
  623SOL     OW 2767   0.748   4.983   6.098
  623SOL    HW1 2768   0.651   5.002   6.083
  623SOL    HW2 2769   0.762   4.885   6.109
  624SOL     OW 2770   0.606   2.342   2.737
  624SOL    HW1 2771   0.627   2.356   2.640
  624SOL    HW2 2772   0.537   2.270   2.746
  625SOL     OW 2773   2.726   1.785   2.477
  625SOL    HW1 2774   2.740   1.689   2.454
  625SOL    HW2 2775   2.787   1.842   2.423
  626SOL     OW 2776   2.109   6.339   3.394
  626SOL    HW1 2777   2.155   6.422   3.361
  626SOL    HW2 2778   2.054   6.300   3.320
  627SOL     OW 2779   5.504   0.878   0.281
  627SOL    HW1 2780   5.520   0.779   0.280
  627SOL    HW2 2781   5.586   0.925   0.249
  628SOL     OW 2782   5.026   5.111   4.563
  628SOL    HW1 2783   5.064   5.196   4.526
  628SOL    HW2 2784   5.090   5.036   4.545
  629SOL     OW 2785   0.605   0.316   1.438
  629SOL    HW1 2786   0.582   0.340   1.533
  629SOL    HW2 2787   0.574   0.223   1.418
  630SOL     OW 2788   4.835   1.461   1.742
  630SOL    HW1 2789   4.781   1.441   1.660
  630SOL    HW2 2790   4.796   1.414   1.821
  631SOL     OW 2791   2.691   6.879   5.322
  631SOL    HW1 2792   2.763   6.891   5.253
  631SOL    HW2 2793   2.640   6.964   5.332
  632SOL     OW 2794   2.389   1.112   0.557
  632SOL    HW1 2795   2.349   1.039   0.613
  632SOL    HW2 2796   2.333   1.127   0.476
  633SOL     OW 2797   3.474   5.678   0.720
  633SOL    HW1 2798   3.482   5.644   0.813
  633SOL    HW2 2799   3.378   5.680   0.693
  634SOL     OW 2800   4.483   5.690   1.326
  634SOL    HW1 2801   4.546   5.764   1.302
  634SOL    HW2 2802   4.532   5.618   1.375
  635SOL     OW 2803   3.580   0.310   3.222
  635SOL    HW1 2804   3.635   0.285   3.142
  635SOL    HW2 2805   3.639   0.327   3.300
  636SOL     OW 2806   5.045   5.244   6.636
  636SOL    HW1 2807   5.121   5.240   6.700
  636SOL    HW2 2808   4.993   5.158   6.640
  637SOL     OW 2809   5.025   4.831   1.781
  637SOL    HW1 2810   5.091   4.778   1.833
  637SOL    HW2 2811   4.932   4.800   1.803
  638SOL     OW 2812   4.896   0.899   2.140
  638SOL    HW1 2813   4.824   0.944   2.193
  638SOL    HW2 2814   4.986   0.927   2.174
  639SOL     OW 2815   4.545   4.612   1.679
  639SOL    HW1 2816   4.639   4.623   1.710
  639SOL    HW2 2817   4.521   4.515   1.681
  640SOL     OW 2818   2.189   3.806   5.884
  640SOL    HW1 2819   2.127   3.738   5.925
  640SOL    HW2 2820   2.215   3.776   5.792
  641SOL     OW 2821   0.830   5.588   4.718
  641SOL    HW1 2822   0.910   5.640   4.691
  641SOL    HW2 2823   0.857   5.514   4.781
  642SOL     OW 2824   0.363   4.684   5.168
  642SOL    HW1 2825   0.450   4.730   5.186
  642SOL    HW2 2826   0.373   4.586   5.186
  643SOL     OW 2827   7.007   5.922   5.097
  643SOL    HW1 2828   0.009   5.964   5.011
  643SOL    HW2 2829   6.914   5.886   5.088
  644SOL     OW 2830   1.056   6.486   2.975
  644SOL    HW1 2831   0.980   6.422   2.962
  644SOL    HW2 2832   1.080   6.491   3.072
  645SOL     OW 2833   4.779   2.412   4.498
  645SOL    HW1 2834   4.818   2.476   4.563
  645SOL    HW2 2835   4.754   2.327   4.545
  646SOL     OW 2836   1.721   1.402   3.639
  646SOL    HW1 2837   1.815   1.372   3.652
  646SOL    HW2 2838   1.720   1.501   3.620
  647SOL     OW 2839   6.259   2.790   0.047
  647SOL    HW1 2840   6.309   2.735   0.114
  647SOL    HW2 2841   6.276   2.753   6.982
  648SOL     OW 2842   5.837   3.509   2.500
  648SOL    HW1 2843   5.743   3.541   2.494
  648SOL    HW2 2844   5.865   3.470   2.412
  649SOL     OW 2845   3.814   4.256   0.954
  649SOL    HW1 2846   3.781   4.293   1.041
  649SOL    HW2 2847   3.779   4.163   0.942
  650SOL     OW 2848   4.665   4.923   0.644
  650SOL    HW1 2849   4.651   4.965   0.554
  650SOL    HW2 2850   4.750   4.870   0.642
  651SOL     OW 2851   0.342   6.463   1.189
  651SOL    HW1 2852   0.363   6.560   1.201
  651SOL    HW2 2853   0.395   6.409   1.254
  652SOL     OW 2854   4.545   0.016   2.950
  652SOL    HW1 2855   4.543   0.087   2.879
  652SOL    HW2 2856   4.607   6.969   2.923
  653SOL     OW 2857   3.446   5.181   4.202
  653SOL    HW1 2858   3.349   5.178   4.225
  653SOL    HW2 2859   3.483   5.088   4.201
  654SOL     OW 2860   6.665   5.724   6.452
  654SOL    HW1 2861   6.725   5.644   6.459
  654SOL    HW2 2862   6.648   5.761   6.543
  655SOL     OW 2863   0.907   0.271   1.495
  655SOL    HW1 2864   0.931   0.200   1.561
  655SOL    HW2 2865   0.813   0.258   1.463
  656SOL     OW 2866   2.417   6.265   2.038
  656SOL    HW1 2867   2.420   6.215   2.124
  656SOL    HW2 2868   2.327   6.251   1.995
  657SOL     OW 2869   2.635   1.621   1.177
  657SOL    HW1 2870   2.563   1.659   1.118
  657SOL    HW2 2871   2.712   1.684   1.180
  658SOL     OW 2872   3.152   4.110   7.007
  658SOL    HW1 2873   3.248   4.115   0.009
  658SOL    HW2 2874   3.139   4.035   6.943
  659SOL     OW 2875   2.354   6.807   6.697
  659SOL    HW1 2876   2.280   6.873   6.683
  659SOL    HW2 2877   2.317   6.714   6.693
  660SOL     OW 2878   4.107   6.118   1.965
  660SOL    HW1 2879   4.024   6.165   1.995
  660SOL    HW2 2880   4.083   6.045   1.900
  661SOL     OW 2881   4.724   5.455   3.277
  661SOL    HW1 2882   4.723   5.489   3.183
  661SOL    HW2 2883   4.710   5.356   3.276
  662SOL     OW 2884   3.651   1.145   5.682
  662SOL    HW1 2885   3.604   1.089   5.751
  662SOL    HW2 2886   3.604   1.233   5.674
  663SOL     OW 2887   1.686   4.314   4.841
  663SOL    HW1 2888   1.722   4.237   4.788
  663SOL    HW2 2889   1.709   4.400   4.794
  664SOL     OW 2890   0.471   6.211   6.484
  664SOL    HW1 2891   0.480   6.275   6.408
  664SOL    HW2 2892   0.533   6.134   6.470
  665SOL     OW 2893   3.760   5.338   3.477
  665SOL    HW1 2894   3.666   5.371   3.470
  665SOL    HW2 2895   3.766   5.247   3.437
  666SOL     OW 2896   4.103   0.847   2.640
  666SOL    HW1 2897   4.068   0.866   2.731
  666SOL    HW2 2898   4.029   0.857   2.573
  667SOL     OW 2899   0.570   5.146   1.728
  667SOL    HW1 2900   0.632   5.163   1.651
  667SOL    HW2 2901   0.572   5.225   1.790
  668SOL     OW 2902   5.741   4.770   6.284
  668SOL    HW1 2903   5.654   4.799   6.322
  668SOL    HW2 2904   5.754   4.673   6.302
  669SOL     OW 2905   5.381   1.136   2.940
  669SOL    HW1 2906   5.322   1.216   2.939
  669SOL    HW2 2907   5.357   1.078   3.019
  670SOL     OW 2908   2.014   1.809   3.302
  670SOL    HW1 2909   2.070   1.888   3.279
  670SOL    HW2 2910   2.004   1.750   3.222
  671SOL     OW 2911   2.605   6.501   1.547
  671SOL    HW1 2912   2.598   6.593   1.508
  671SOL    HW2 2913   2.701   6.473   1.547
  672SOL     OW 2914   0.521   5.894   2.099
  672SOL    HW1 2915   0.567   5.807   2.117
  672SOL    HW2 2916   0.585   5.957   2.055
  673SOL     OW 2917   5.232   6.768   0.995
  673SOL    HW1 2918   5.189   6.858   0.994
  673SOL    HW2 2919   5.225   6.726   0.904
  674SOL     OW 2920   6.600   1.520   4.901
  674SOL    HW1 2921   6.515   1.538   4.850
  674SOL    HW2 2922   6.616   1.594   4.967
  675SOL     OW 2923   6.005   2.277   2.168
  675SOL    HW1 2924   5.911   2.309   2.155
  675SOL    HW2 2925   6.007   2.204   2.236
  676SOL     OW 2926   2.593   4.729   4.710
  676SOL    HW1 2927   2.533   4.681   4.774
  676SOL    HW2 2928   2.663   4.779   4.760
  677SOL     OW 2929   4.790   1.062   1.703
  677SOL    HW1 2930   4.850   1.007   1.760
  677SOL    HW2 2931   4.778   1.017   1.614
  678SOL     OW 2932   2.862   4.585   5.437
  678SOL    HW1 2933   2.900   4.671   5.472
  678SOL    HW2 2934   2.918   4.552   5.361
  679SOL     OW 2935   5.803   1.871   4.772
  679SOL    HW1 2936   5.739   1.808   4.730
  679SOL    HW2 2937   5.775   1.889   4.867
  680SOL     OW 2938   5.322   6.381   4.132
  680SOL    HW1 2939   5.315   6.457   4.066
  680SOL    HW2 2940   5.255   6.310   4.108
  681SOL     OW 2941   5.127   5.826   2.492
  681SOL    HW1 2942   5.086   5.782   2.572
  681SOL    HW2 2943   5.138   5.924   2.510
  682SOL     OW 2944   0.009   1.245   2.039
  682SOL    HW1 2945   6.964   1.315   2.033
  682SOL    HW2 2946   6.994   1.158   2.064
  683SOL     OW 2947   4.416   3.069   1.393
  683SOL    HW1 2948   4.318   3.061   1.413
  683SOL    HW2 2949   4.465   3.089   1.478
  684SOL     OW 2950   6.261   0.225   6.722
  684SOL    HW1 2951   6.272   0.193   6.817
  684SOL    HW2 2952   6.342   0.199   6.670
  685SOL     OW 2953   3.287   1.127   3.603
  685SOL    HW1 2954   3.264   1.224   3.602
  685SOL    HW2 2955   3.268   1.087   3.513
  686SOL     OW 2956   4.331   1.212   3.671
  686SOL    HW1 2957   4.339   1.226   3.770
  686SOL    HW2 2958   4.346   1.298   3.624
  687SOL     OW 2959   0.910   1.959   4.327
  687SOL    HW1 2960   0.984   1.950   4.394
  687SOL    HW2 2961   0.923   1.891   4.255
  688SOL     OW 2962   0.492   1.208   6.146
  688SOL    HW1 2963   0.516   1.246   6.057
  688SOL    HW2 2964   0.447   1.278   6.202
  689SOL     OW 2965   1.171   4.587   5.590
  689SOL    HW1 2966   1.088   4.636   5.561
  689SOL    HW2 2967   1.198   4.521   5.520
  690SOL     OW 2968   6.093   3.299   2.873
  690SOL    HW1 2969   6.039   3.329   2.794
  690SOL    HW2 2970   6.055   3.215   2.910
  691SOL     OW 2971   4.109   1.476   0.347
  691SOL    HW1 2972   4.180   1.420   0.388
  691SOL    HW2 2973   4.095   1.559   0.402
  692SOL     OW 2974   3.109   1.687   5.536
  692SOL    HW1 2975   3.180   1.700   5.467
  692SOL    HW2 2976   3.038   1.626   5.500
  693SOL     OW 2977   4.440   5.962   3.572
  693SOL    HW1 2978   4.396   6.041   3.530
  693SOL    HW2 2979   4.477   5.988   3.661
  694SOL     OW 2980   3.592   6.483   4.462
  694SOL    HW1 2981   3.574   6.581   4.455
  694SOL    HW2 2982   3.671   6.468   4.522
  695SOL     OW 2983   3.089   6.164   4.399
  695SOL    HW1 2984   3.073   6.136   4.304
  695SOL    HW2 2985   3.185   6.147   4.422
  696SOL     OW 2986   5.240   4.351   3.310
  696SOL    HW1 2987   5.187   4.433   3.292
  696SOL    HW2 2988   5.236   4.328   3.407
  697SOL     OW 2989   0.818   3.809   1.886
  697SOL    HW1 2990   0.749   3.740   1.868
  697SOL    HW2 2991   0.908   3.766   1.890
  698SOL     OW 2992   4.880   6.668   1.240
  698SOL    HW1 2993   4.882   6.592   1.176
  698SOL    HW2 2994   4.874   6.634   1.334
  699SOL     OW 2995   2.602   3.168   6.592
  699SOL    HW1 2996   2.648   3.196   6.677
  699SOL    HW2 2997   2.505   3.193   6.597
  700SOL     OW 2998   3.346   0.062   2.654
  700SOL    HW1 2999   3.313   0.068   2.560
  700SOL    HW2 3000   3.270   0.071   2.718
  701SOL     OW 3001   6.060   4.636   0.927
  701SOL    HW1 3002   6.109   4.576   0.990
  701SOL    HW2 3003   6.124   4.702   0.888
  702SOL     OW 3004   2.584   0.539   4.466
  702SOL    HW1 3005   2.493   0.564   4.499
  702SOL    HW2 3006   2.653   0.595   4.512
  703SOL     OW 3007   2.950   3.369   5.566
  703SOL    HW1 3008   2.863   3.321   5.558
  703SOL    HW2 3009   3.023   3.312   5.529
  704SOL     OW 3010   1.362   2.964   6.293
  704SOL    HW1 3011   1.391   2.879   6.250
  704SOL    HW2 3012   1.263   2.963   6.307
  705SOL     OW 3013   6.826   6.502   4.127
  705SOL    HW1 3014   6.909   6.545   4.165
  705SOL    HW2 3015   6.832   6.503   4.027
  706SOL     OW 3016   4.349   1.115   5.475
  706SOL    HW1 3017   4.266   1.170   5.476
  706SOL    HW2 3018   4.325   1.019   5.460
  707SOL     OW 3019   3.887   5.458   3.286
  707SOL    HW1 3020   3.876   5.557   3.290
  707SOL    HW2 3021   3.853   5.418   3.371
  708SOL     OW 3022   2.901   0.899   3.762
  708SOL    HW1 3023   2.868   0.823   3.817
  708SOL    HW2 3024   2.860   0.984   3.795
  709SOL     OW 3025   1.784   6.640   1.544
  709SOL    HW1 3026   1.827   6.728   1.564
  709SOL    HW2 3027   1.846   6.566   1.569
  710SOL     OW 3028   4.926   2.617   1.804
  710SOL    HW1 3029   4.891   2.676   1.877
  710SOL    HW2 3030   5.009   2.657   1.766
  711SOL     OW 3031   0.089   2.850   5.892
  711SOL    HW1 3032   0.012   2.847   5.829
  711SOL    HW2 3033   0.100   2.944   5.927
  712SOL     OW 3034   4.477   2.988   1.146
  712SOL    HW1 3035   4.444   3.019   1.235
  712SOL    HW2 3036   4.558   3.040   1.120
  713SOL     OW 3037   4.203   2.807   5.326
  713SOL    HW1 3038   4.148   2.890   5.317
  713SOL    HW2 3039   4.170   2.738   5.261
  714SOL     OW 3040   5.961   4.853   3.550
  714SOL    HW1 3041   6.057   4.877   3.565
  714SOL    HW2 3042   5.922   4.817   3.635
  715SOL     OW 3043   6.184   5.053   5.630
  715SOL    HW1 3044   6.258   5.003   5.584
  715SOL    HW2 3045   6.118   4.989   5.667
  716SOL     OW 3046   2.032   1.013   2.619
  716SOL    HW1 3047   1.939   0.976   2.616
  716SOL    HW2 3048   2.033   1.105   2.579
  717SOL     OW 3049   5.712   4.533   4.384
  717SOL    HW1 3050   5.717   4.502   4.479
  717SOL    HW2 3051   5.720   4.454   4.323
  718SOL     OW 3052   4.615   2.549   4.327
  718SOL    HW1 3053   4.646   2.638   4.293
  718SOL    HW2 3054   4.684   2.512   4.389
  719SOL     OW 3055   6.730   0.517   2.426
  719SOL    HW1 3056   6.759   0.580   2.497
  719SOL    HW2 3057   6.792   0.525   2.347
  720SOL     OW 3058   1.875   0.575   5.973
  720SOL    HW1 3059   1.907   0.518   6.049
  720SOL    HW2 3060   1.947   0.638   5.946
  721SOL     OW 3061   0.687   2.083   1.970
  721SOL    HW1 3062   0.687   1.983   1.967
  721SOL    HW2 3063   0.607   2.118   1.921
  722SOL     OW 3064   4.235   0.639   6.271
  722SOL    HW1 3065   4.207   0.607   6.361
  722SOL    HW2 3066   4.308   0.707   6.280
  723SOL     OW 3067   2.692   5.797   3.651
  723SOL    HW1 3068   2.769   5.762   3.598
  723SOL    HW2 3069   2.611   5.804   3.593
  724SOL     OW 3070   0.550   0.777   3.502
  724SOL    HW1 3071   0.608   0.760   3.423
  724SOL    HW2 3072   0.456   0.749   3.481
  725SOL     OW 3073   2.555   4.568   2.114
  725SOL    HW1 3074   2.538   4.493   2.050
  725SOL    HW2 3075   2.625   4.630   2.076
  726SOL     OW 3076   2.805   5.020   0.663
  726SOL    HW1 3077   2.821   4.960   0.741
  726SOL    HW2 3078   2.822   5.115   0.690
  727SOL     OW 3079   4.684   5.520   6.563
  727SOL    HW1 3080   4.702   5.511   6.465
  727SOL    HW2 3081   4.614   5.590   6.577
  728SOL     OW 3082   0.075   3.079   4.510
  728SOL    HW1 3083   0.134   3.045   4.584
  728SOL    HW2 3084   7.007   3.083   4.541
  729SOL     OW 3085   6.899   3.190   0.802
  729SOL    HW1 3086   6.931   3.187   0.897
  729SOL    HW2 3087   6.970   3.231   0.745
  730SOL     OW 3088   5.229   0.447   2.731
  730SOL    HW1 3089   5.141   0.460   2.776
  730SOL    HW2 3090   5.287   0.388   2.788
  731SOL     OW 3091   4.746   4.037   6.296
  731SOL    HW1 3092   4.823   4.100   6.308
  731SOL    HW2 3093   4.777   3.943   6.309
  732SOL     OW 3094   5.316   1.914   2.365
  732SOL    HW1 3095   5.333   1.869   2.453
  732SOL    HW2 3096   5.339   1.851   2.291
  733SOL     OW 3097   5.700   6.915   3.983
  733SOL    HW1 3098   5.766   6.951   3.917
  733SOL    HW2 3099   5.740   6.838   4.032
  734SOL     OW 3100   6.605   4.546   2.684
  734SOL    HW1 3101   6.634   4.561   2.779
  734SOL    HW2 3102   6.506   4.558   2.678
  735SOL     OW 3103   5.585   0.444   1.373
  735SOL    HW1 3104   5.563   0.347   1.387
  735SOL    HW2 3105   5.617   0.457   1.279
  736SOL     OW 3106   1.390   1.532   3.971
  736SOL    HW1 3107   1.402   1.539   3.872
  736SOL    HW2 3108   1.468   1.483   4.010
  737SOL     OW 3109   5.753   1.599   5.681
  737SOL    HW1 3110   5.789   1.545   5.757
  737SOL    HW2 3111   5.806   1.581   5.599
  738SOL     OW 3112   3.242   4.136   1.043
  738SOL    HW1 3113   3.200   4.061   0.992
  738SOL    HW2 3114   3.280   4.203   0.979
  739SOL     OW 3115   3.346   7.016   5.067
  739SOL    HW1 3116   3.345   0.089   5.081
  739SOL    HW2 3117   3.438   6.987   5.042
  740SOL     OW 3118   5.572   2.271   2.623
  740SOL    HW1 3119   5.613   2.195   2.573
  740SOL    HW2 3120   5.644   2.328   2.663
  741SOL     OW 3121   1.938   0.774   4.673
  741SOL    HW1 3122   1.915   0.871   4.659
  741SOL    HW2 3123   1.871   0.732   4.735
  742SOL     OW 3124   1.179   6.123   0.957
  742SOL    HW1 3125   1.165   6.034   0.914
  742SOL    HW2 3126   1.190   6.111   1.056
  743SOL     OW 3127   0.612   6.365   3.632
  743SOL    HW1 3128   0.683   6.349   3.564
  743SOL    HW2 3129   0.645   6.430   3.700
  744SOL     OW 3130   6.583   1.371   0.695
  744SOL    HW1 3131   6.659   1.317   0.660
  744SOL    HW2 3132   6.577   1.457   0.645
  745SOL     OW 3133   1.749   5.568   5.198
  745SOL    HW1 3134   1.679   5.631   5.232
  745SOL    HW2 3135   1.822   5.620   5.155
  746SOL     OW 3136   5.340   4.203   5.258
  746SOL    HW1 3137   5.378   4.285   5.217
  746SOL    HW2 3138   5.294   4.148   5.188
  747SOL     OW 3139   4.989   5.201   3.425
  747SOL    HW1 3140   5.034   5.124   3.471
  747SOL    HW2 3141   5.042   5.226   3.344
  748SOL     OW 3142   5.339   4.947   2.864
  748SOL    HW1 3143   5.301   4.980   2.778
  748SOL    HW2 3144   5.287   4.867   2.895
  749SOL     OW 3145   4.961   3.485   3.430
  749SOL    HW1 3146   4.920   3.401   3.465
  749SOL    HW2 3147   4.926   3.504   3.339
  750SOL     OW 3148   2.881   1.193   1.414
  750SOL    HW1 3149   2.867   1.255   1.336
  750SOL    HW2 3150   2.806   1.127   1.418
  751SOL     OW 3151   5.008   2.466   0.547
  751SOL    HW1 3152   5.063   2.395   0.591
  751SOL    HW2 3153   4.997   2.543   0.611
  752SOL     OW 3154   3.946   2.109   6.194
  752SOL    HW1 3155   3.983   2.171   6.262
  752SOL    HW2 3156   3.921   2.160   6.111
  753SOL     OW 3157   3.251   3.418   5.027
  753SOL    HW1 3158   3.185   3.477   4.982
  753SOL    HW2 3159   3.202   3.346   5.077
  754SOL     OW 3160   5.881   1.108   6.641
  754SOL    HW1 3161   5.872   1.152   6.730
  754SOL    HW2 3162   5.791   1.091   6.602
  755SOL     OW 3163   2.921   4.274   5.282
  755SOL    HW1 3164   2.937   4.306   5.375
  755SOL    HW2 3165   2.945   4.345   5.216
  756SOL     OW 3166   3.209   5.073   0.044
  756SOL    HW1 3167   3.224   4.975   0.030
  756SOL    HW2 3168   3.285   5.111   0.097
  757SOL     OW 3169   2.217   6.764   2.453
  757SOL    HW1 3170   2.307   6.725   2.473
  757SOL    HW2 3171   2.182   6.727   2.367
  758SOL     OW 3172   3.897   1.376   3.879
  758SOL    HW1 3173   3.916   1.304   3.812
  758SOL    HW2 3174   3.963   1.450   3.868
  759SOL     OW 3175   0.243   2.699   3.115
  759SOL    HW1 3176   0.205   2.611   3.142
  759SOL    HW2 3177   0.291   2.690   3.028
  760SOL     OW 3178   6.746   6.724   3.884
  760SOL    HW1 3179   6.818   6.657   3.869
  760SOL    HW2 3180   6.687   6.729   3.804
  761SOL     OW 3181   5.435   4.398   5.572
  761SOL    HW1 3182   5.430   4.301   5.547
  761SOL    HW2 3183   5.529   4.419   5.602
  762SOL     OW 3184   2.924   6.454   5.689
  762SOL    HW1 3185   2.962   6.529   5.741
  762SOL    HW2 3186   2.832   6.434   5.721
  763SOL     OW 3187   5.393   0.142   6.561
  763SOL    HW1 3188   5.427   0.175   6.649
  763SOL    HW2 3189   5.296   0.119   6.570
  764SOL     OW 3190   6.026   1.085   5.780
  764SOL    HW1 3191   6.108   1.027   5.783
  764SOL    HW2 3192   5.954   1.043   5.835
  765SOL     OW 3193   0.880   7.025   0.663
  765SOL    HW1 3194   0.847   6.950   0.721
  765SOL    HW2 3195   0.979   7.021   0.656
  766SOL     OW 3196   2.447   2.457   5.373
  766SOL    HW1 3197   2.523   2.519   5.392
  766SOL    HW2 3198   2.394   2.493   5.296
  767SOL     OW 3199   6.988   6.597   3.491
  767SOL    HW1 3200   6.956   6.621   3.399
  767SOL    HW2 3201   0.004   6.677   3.533
  768SOL     OW 3202   2.271   6.019   2.874
  768SOL    HW1 3203   2.265   6.117   2.859
  768SOL    HW2 3204   2.323   5.977   2.800
  769SOL     OW 3205   3.515   1.918   5.271
  769SOL    HW1 3206   3.482   1.827   5.297
  769SOL    HW2 3207   3.468   1.949   5.188
  770SOL     OW 3208   1.844   5.256   4.218
  770SOL    HW1 3209   1.836   5.220   4.311
  770SOL    HW2 3210   1.873   5.352   4.222
  771SOL     OW 3211   1.405   5.280   3.337
  771SOL    HW1 3212   1.460   5.363   3.331
  771SOL    HW2 3213   1.418   5.225   3.254
  772SOL     OW 3214   5.408   5.149   0.014
  772SOL    HW1 3215   5.329   5.152   6.977
  772SOL    HW2 3216   5.489   5.185   6.993
  773SOL     OW 3217   1.185   3.513   3.151
  773SOL    HW1 3218   1.267   3.493   3.097
  773SOL    HW2 3219   1.181   3.450   3.229
  774SOL     OW 3220   2.115   1.981   3.975
  774SOL    HW1 3221   2.081   1.981   4.069
  774SOL    HW2 3222   2.197   1.925   3.969
  775SOL     OW 3223   2.132   3.879   4.111
  775SOL    HW1 3224   2.136   3.786   4.147
  775SOL    HW2 3225   2.058   3.929   4.156
  776SOL     OW 3226   0.709   6.928   6.145
  776SOL    HW1 3227   0.777   6.910   6.215
  776SOL    HW2 3228   0.646   7.000   6.176
  777SOL     OW 3229   1.492   3.630   0.375
  777SOL    HW1 3230   1.484   3.558   0.306
  777SOL    HW2 3231   1.426   3.612   0.449
  778SOL     OW 3232   3.019   6.880   1.943
  778SOL    HW1 3233   2.945   6.947   1.942
  778SOL    HW2 3234   3.001   6.809   1.874
  779SOL     OW 3235   0.500   2.474   1.979
  779SOL    HW1 3236   0.534   2.482   2.073
  779SOL    HW2 3237   0.406   2.507   1.975
  780SOL     OW 3238   1.390   2.304   4.462
  780SOL    HW1 3239   1.364   2.376   4.398
  780SOL    HW2 3240   1.421   2.224   4.411
  781SOL     OW 3241   6.876   4.350   0.409
  781SOL    HW1 3242   6.779   4.333   0.426
  781SOL    HW2 3243   6.890   4.376   0.314
  782SOL     OW 3244   1.921   3.818   6.075
  782SOL    HW1 3245   1.873   3.731   6.065
  782SOL    HW2 3246   1.942   3.855   5.985
  783SOL     OW 3247   5.469   4.839   6.308
  783SOL    HW1 3248   5.475   4.932   6.274
  783SOL    HW2 3249   5.472   4.839   6.408
  784SOL     OW 3250   2.784   6.005   1.971
  784SOL    HW1 3251   2.700   5.971   2.014
  784SOL    HW2 3252   2.845   5.928   1.953
  785SOL     OW 3253   0.820   0.185   4.181
  785SOL    HW1 3254   0.900   0.230   4.142
  785SOL    HW2 3255   0.743   0.191   4.117
  786SOL     OW 3256   6.522   0.691   3.723
  786SOL    HW1 3257   6.545   0.706   3.819
  786SOL    HW2 3258   6.605   0.676   3.670
  787SOL     OW 3259   2.421   0.831   0.175
  787SOL    HW1 3260   2.423   0.907   0.110
  787SOL    HW2 3261   2.458   0.749   0.132
  788SOL     OW 3262   3.898   3.024   1.433
  788SOL    HW1 3263   3.807   3.005   1.469
  788SOL    HW2 3264   3.891   3.065   1.342
  789SOL     OW 3265   4.518   5.386   1.967
  789SOL    HW1 3266   4.462   5.308   1.937
  789SOL    HW2 3267   4.539   5.376   2.064
  790SOL     OW 3268   0.782   2.636   1.518
  790SOL    HW1 3269   0.800   2.553   1.465
  790SOL    HW2 3270   0.739   2.611   1.605
  791SOL     OW 3271   2.895   5.661   5.370
  791SOL    HW1 3272   2.963   5.733   5.354
  791SOL    HW2 3273   2.929   5.574   5.334
  792SOL     OW 3274   0.756   1.397   0.282
  792SOL    HW1 3275   0.835   1.443   0.321
  792SOL    HW2 3276   0.713   1.340   0.352
  793SOL     OW 3277   4.371   5.481   4.124
  793SOL    HW1 3278   4.362   5.541   4.204
  793SOL    HW2 3279   4.453   5.507   4.072
  794SOL     OW 3280   3.137   3.574   3.776
  794SOL    HW1 3281   3.107   3.539   3.687
  794SOL    HW2 3282   3.067   3.634   3.813
  795SOL     OW 3283   3.928   0.636   6.051
  795SOL    HW1 3284   3.886   0.718   6.012
  795SOL    HW2 3285   3.934   0.647   6.151
  796SOL     OW 3286   1.110   2.889   6.319
  796SOL    HW1 3287   1.073   2.815   6.262
  796SOL    HW2 3288   1.054   2.899   6.401
  797SOL     OW 3289   4.467   0.391   0.929
  797SOL    HW1 3290   4.410   0.311   0.908
  797SOL    HW2 3291   4.563   0.363   0.931
  798SOL     OW 3292   3.021   6.213   1.423
  798SOL    HW1 3293   3.084   6.140   1.449
  798SOL    HW2 3294   3.060   6.302   1.450
  799SOL     OW 3295   0.550   2.295   6.732
  799SOL    HW1 3296   0.586   2.301   6.825
  799SOL    HW2 3297   0.617   2.334   6.668
  800SOL     OW 3298   5.819   1.233   1.807
  800SOL    HW1 3299   5.796   1.322   1.848
  800SOL    HW2 3300   5.878   1.248   1.728
  801SOL     OW 3301   1.945   5.254   5.780
  801SOL    HW1 3302   1.954   5.173   5.838
  801SOL    HW2 3303   2.035   5.294   5.763
  802SOL     OW 3304   5.521   1.977   6.840
  802SOL    HW1 3305   5.436   1.949   6.884
  802SOL    HW2 3306   5.505   1.992   6.743
  803SOL     OW 3307   3.072   0.598   5.862
  803SOL    HW1 3308   2.979   0.563   5.850
  803SOL    HW2 3309   3.137   0.523   5.846
  804SOL     OW 3310   5.940   0.347   1.677
  804SOL    HW1 3311   5.901   0.289   1.606
  804SOL    HW2 3312   5.959   0.292   1.759
  805SOL     OW 3313   2.666   0.709   3.433
  805SOL    HW1 3314   2.740   0.747   3.488
  805SOL    HW2 3315   2.579   0.728   3.477
  806SOL     OW 3316   0.853   0.210   5.522
  806SOL    HW1 3317   0.913   0.136   5.490
  806SOL    HW2 3318   0.786   0.173   5.586
  807SOL     OW 3319   0.895   6.419   4.835
  807SOL    HW1 3320   0.807   6.446   4.873
  807SOL    HW2 3321   0.969   6.447   4.897
  808SOL     OW 3322   5.891   2.860   0.590
  808SOL    HW1 3323   5.839   2.806   0.524
  808SOL    HW2 3324   5.970   2.807   0.622
  809SOL     OW 3325   0.246   4.830   6.902
  809SOL    HW1 3326   0.323   4.840   6.839
  809SOL    HW2 3327   0.227   4.918   6.945
  810SOL     OW 3328   2.315   3.345   0.377
  810SOL    HW1 3329   2.236   3.405   0.367
  810SOL    HW2 3330   2.315   3.305   0.469
  811SOL     OW 3331   5.309   5.041   4.960
  811SOL    HW1 3332   5.339   5.114   4.898
  811SOL    HW2 3333   5.218   5.009   4.933
  812SOL     OW 3334   0.882   2.245   2.033
  812SOL    HW1 3335   0.815   2.171   2.023
  812SOL    HW2 3336   0.966   2.208   2.071
  813SOL     OW 3337   2.156   1.284   4.744
  813SOL    HW1 3338   2.209   1.271   4.660
  813SOL    HW2 3339   2.209   1.253   4.823
  814SOL     OW 3340   0.210   5.727   2.914
  814SOL    HW1 3341   0.184   5.777   2.997
  814SOL    HW2 3342   0.151   5.756   2.839
  815SOL     OW 3343   5.211   2.437   3.524
  815SOL    HW1 3344   5.286   2.376   3.548
  815SOL    HW2 3345   5.145   2.440   3.598
  816SOL     OW 3346   4.555   3.992   0.267
  816SOL    HW1 3347   4.651   3.980   0.293
  816SOL    HW2 3348   4.550   4.032   0.175
  817SOL     OW 3349   0.844   5.329   1.138
  817SOL    HW1 3350   0.918   5.297   1.078
  817SOL    HW2 3351   0.766   5.267   1.131
  818SOL     OW 3352   5.628   2.556   3.628
  818SOL    HW1 3353   5.625   2.495   3.707
  818SOL    HW2 3354   5.598   2.506   3.547
  819SOL     OW 3355   5.972   2.468   1.488
  819SOL    HW1 3356   5.954   2.558   1.449
  819SOL    HW2 3357   5.928   2.398   1.433
  820SOL     OW 3358   2.369   2.069   4.483
  820SOL    HW1 3359   2.345   1.988   4.536
  820SOL    HW2 3360   2.294   2.135   4.487
  821SOL     OW 3361   5.687   4.279   4.686
  821SOL    HW1 3362   5.714   4.255   4.593
  821SOL    HW2 3363   5.661   4.196   4.736
  822SOL     OW 3364   1.018   4.151   3.222
  822SOL    HW1 3365   0.955   4.147   3.299
  822SOL    HW2 3366   1.075   4.069   3.220
  823SOL     OW 3367   0.981   3.239   5.725
  823SOL    HW1 3368   1.049   3.306   5.695
  823SOL    HW2 3369   1.012   3.147   5.701
  824SOL     OW 3370   5.618   1.270   4.886
  824SOL    HW1 3371   5.630   1.308   4.977
  824SOL    HW2 3372   5.578   1.339   4.826
  825SOL     OW 3373   6.110   6.213   1.028
  825SOL    HW1 3374   6.045   6.253   0.964
  825SOL    HW2 3375   6.077   6.123   1.057
  826SOL     OW 3376   4.055   1.570   5.880
  826SOL    HW1 3377   4.139   1.625   5.881
  826SOL    HW2 3378   3.981   1.622   5.922
  827SOL     OW 3379   3.135   4.008   4.469
  827SOL    HW1 3380   3.220   3.959   4.481
  827SOL    HW2 3381   3.064   3.968   4.527
  828SOL     OW 3382   6.299   5.317   4.333
  828SOL    HW1 3383   6.319   5.354   4.243
  828SOL    HW2 3384   6.340   5.226   4.342
  829SOL     OW 3385   3.601   2.915   2.291
  829SOL    HW1 3386   3.700   2.928   2.294
  829SOL    HW2 3387   3.557   3.000   2.259
  830SOL     OW 3388   5.966   4.789   6.687
  830SOL    HW1 3389   6.001   4.798   6.594
  830SOL    HW2 3390   6.036   4.748   6.745
  831SOL     OW 3391   5.180   6.284   1.686
  831SOL    HW1 3392   5.185   6.238   1.597
  831SOL    HW2 3393   5.089   6.271   1.725
  832SOL     OW 3394   3.909   1.506   4.729
  832SOL    HW1 3395   3.925   1.512   4.630
  832SOL    HW2 3396   3.929   1.414   4.761
  833SOL     OW 3397   1.443   4.022   6.081
  833SOL    HW1 3398   1.398   3.933   6.067
  833SOL    HW2 3399   1.524   4.028   6.022
  834SOL     OW 3400   4.450   3.449   6.622
  834SOL    HW1 3401   4.466   3.434   6.719
  834SOL    HW2 3402   4.519   3.399   6.569
  835SOL     OW 3403   1.467   0.006   4.404
  835SOL    HW1 3404   1.372   6.999   4.400
  835SOL    HW2 3405   1.529   6.956   4.385
  836SOL     OW 3406   3.773   2.248   5.615
  836SOL    HW1 3407   3.831   2.313   5.665
  836SOL    HW2 3408   3.800   2.247   5.519
  837SOL     OW 3409   1.439   0.319   1.469
  837SOL    HW1 3410   1.434   0.382   1.547
  837SOL    HW2 3411   1.397   0.232   1.494
  838SOL     OW 3412   2.220   5.466   4.063
  838SOL    HW1 3413   2.296   5.458   3.998
  838SOL    HW2 3414   2.219   5.559   4.101
  839SOL     OW 3415   2.158   0.891   1.026
  839SOL    HW1 3416   2.095   0.965   1.003
  839SOL    HW2 3417   2.106   0.812   1.060
  840SOL     OW 3418   6.031   5.566   0.062
  840SOL    HW1 3419   6.031   5.468   0.042
  840SOL    HW2 3420   6.117   5.591   0.107
  841SOL     OW 3421   4.444   5.247   6.019
  841SOL    HW1 3422   4.346   5.246   6.001
  841SOL    HW2 3423   4.493   5.276   5.937
  842SOL     OW 3424   3.048   6.963   6.948
  842SOL    HW1 3425   3.141   7.000   6.955
  842SOL    HW2 3426   2.983   0.003   6.984
  843SOL     OW 3427   1.744   1.745   1.353
  843SOL    HW1 3428   1.825   1.746   1.295
  843SOL    HW2 3429   1.759   1.687   1.432
  844SOL     OW 3430   0.378   6.860   1.058
  844SOL    HW1 3431   0.432   6.817   0.985
  844SOL    HW2 3432   0.379   6.802   1.139
  845SOL     OW 3433   4.041   1.813   2.905
  845SOL    HW1 3434   4.045   1.780   2.811
  845SOL    HW2 3435   4.079   1.906   2.909
  846SOL     OW 3436   3.218   1.366   6.407
  846SOL    HW1 3437   3.302   1.419   6.422
  846SOL    HW2 3438   3.166   1.362   6.492
  847SOL     OW 3439   2.532   3.422   1.625
  847SOL    HW1 3440   2.468   3.430   1.701
  847SOL    HW2 3441   2.565   3.327   1.619
  848SOL     OW 3442   5.970   6.687   5.878
  848SOL    HW1 3443   5.874   6.660   5.871
  848SOL    HW2 3444   6.024   6.634   5.812
  849SOL     OW 3445   5.662   3.843   0.303
  849SOL    HW1 3446   5.600   3.804   0.371
  849SOL    HW2 3447   5.728   3.773   0.275
  850SOL     OW 3448   6.422   0.973   4.602
  850SOL    HW1 3449   6.381   0.986   4.512
  850SOL    HW2 3450   6.382   0.893   4.646
  851SOL     OW 3451   6.682   3.061   6.841
  851SOL    HW1 3452   6.643   2.991   6.901
  851SOL    HW2 3453   6.781   3.066   6.854
  852SOL     OW 3454   6.663   4.670   1.054
  852SOL    HW1 3455   6.666   4.770   1.050
  852SOL    HW2 3456   6.726   4.632   0.986
  853SOL     OW 3457   2.114   4.506   0.469
  853SOL    HW1 3458   2.020   4.540   0.477
  853SOL    HW2 3459   2.165   4.531   0.552
  854SOL     OW 3460   5.957   6.266   0.245
  854SOL    HW1 3461   5.890   6.194   0.266
  854SOL    HW2 3462   5.915   6.334   0.185
  855SOL     OW 3463   0.007   0.680   0.156
  855SOL    HW1 3464   7.014   0.773   0.188
  855SOL    HW2 3465   6.984   0.663   0.070
  856SOL     OW 3466   1.980   6.658   6.781
  856SOL    HW1 3467   2.049   6.635   6.713
  856SOL    HW2 3468   2.008   6.622   6.870
  857SOL     OW 3469   6.993   4.324   3.058
  857SOL    HW1 3470   6.912   4.345   3.113
  857SOL    HW2 3471   0.045   4.306   3.117
  858SOL     OW 3472   3.357   3.786   0.820
  858SOL    HW1 3473   3.348   3.740   0.731
  858SOL    HW2 3474   3.346   3.718   0.893
  859SOL     OW 3475   4.855   6.094   5.728
  859SOL    HW1 3476   4.862   6.009   5.781
  859SOL    HW2 3477   4.759   6.122   5.723
  860SOL     OW 3478   5.487   2.903   5.613
  860SOL    HW1 3479   5.392   2.929   5.602
  860SOL    HW2 3480   5.504   2.876   5.708
  861SOL     OW 3481   1.946   5.130   2.904
  861SOL    HW1 3482   1.950   5.226   2.876
  861SOL    HW2 3483   1.851   5.105   2.923
  862SOL     OW 3484   2.021   4.809   3.807
  862SOL    HW1 3485   1.999   4.797   3.711
  862SOL    HW2 3486   2.077   4.891   3.819
  863SOL     OW 3487   6.741   0.221   5.818
  863SOL    HW1 3488   6.649   0.238   5.851
  863SOL    HW2 3489   6.806   0.278   5.868
  864SOL     OW 3490   4.135   6.651   5.641
  864SOL    HW1 3491   4.133   6.733   5.698
  864SOL    HW2 3492   4.114   6.571   5.697
  865SOL     OW 3493   2.164   6.041   5.000
  865SOL    HW1 3494   2.152   6.007   4.907
  865SOL    HW2 3495   2.163   5.964   5.064
  866SOL     OW 3496   2.856   6.750   0.624
  866SOL    HW1 3497   2.927   6.680   0.633
  866SOL    HW2 3498   2.895   6.832   0.584
  867SOL     OW 3499   6.038   2.274   0.749
  867SOL    HW1 3500   6.081   2.187   0.775
  867SOL    HW2 3501   5.989   2.262   0.662
  868SOL     OW 3502   0.370   2.233   2.279
  868SOL    HW1 3503   0.465   2.223   2.248
  868SOL    HW2 3504   0.355   2.173   2.357
  869SOL     OW 3505   6.889   3.938   3.892
  869SOL    HW1 3506   6.790   3.924   3.899
  869SOL    HW2 3507   6.936   3.874   3.952
  870SOL     OW 3508   3.521   5.092   1.577
  870SOL    HW1 3509   3.597   5.146   1.614
  870SOL    HW2 3510   3.519   5.002   1.622
  871SOL     OW 3511   4.654   2.303   4.201
  871SOL    HW1 3512   4.742   2.281   4.244
  871SOL    HW2 3513   4.621   2.390   4.237
  872SOL     OW 3514   6.876   2.023   4.762
  872SOL    HW1 3515   6.871   2.109   4.711
  872SOL    HW2 3516   6.831   1.950   4.710
  873SOL     OW 3517   4.991   6.405   5.906
  873SOL    HW1 3518   5.013   6.362   5.994
  873SOL    HW2 3519   4.909   6.460   5.916
  874SOL     OW 3520   6.411   4.335   6.842
  874SOL    HW1 3521   6.403   4.389   6.758
  874SOL    HW2 3522   6.446   4.244   6.820
  875SOL     OW 3523   5.420   5.099   1.217
  875SOL    HW1 3524   5.386   5.165   1.283
  875SOL    HW2 3525   5.422   5.141   1.126
  876SOL     OW 3526   0.625   5.357   1.901
  876SOL    HW1 3527   0.701   5.408   1.940
  876SOL    HW2 3528   0.556   5.422   1.867
  877SOL     OW 3529   3.116   4.623   6.730
  877SOL    HW1 3530   3.061   4.597   6.651
  877SOL    HW2 3531   3.138   4.721   6.725
  878SOL     OW 3532   4.003   7.013   4.165
  878SOL    HW1 3533   4.040   6.932   4.212
  878SOL    HW2 3534   4.074   0.057   4.159
  879SOL     OW 3535   3.946   0.244   1.577
  879SOL    HW1 3536   3.990   0.333   1.560
  879SOL    HW2 3537   4.015   0.177   1.605
  880SOL     OW 3538   3.595   4.163   3.777
  880SOL    HW1 3539   3.661   4.099   3.816
  880SOL    HW2 3540   3.621   4.184   3.683
  881SOL     OW 3541   4.763   2.834   4.718
  881SOL    HW1 3542   4.723   2.877   4.798
  881SOL    HW2 3543   4.718   2.869   4.635
  882SOL     OW 3544   1.053   3.400   4.245
  882SOL    HW1 3545   0.993   3.478   4.226
  882SOL    HW2 3546   1.031   3.363   4.335
  883SOL     OW 3547   2.973   0.662   2.263
  883SOL    HW1 3548   2.936   0.698   2.348
  883SOL    HW2 3549   3.069   0.689   2.255
  884SOL     OW 3550   4.950   3.063   5.574
  884SOL    HW1 3551   4.928   2.997   5.502
  884SOL    HW2 3552   4.866   3.106   5.607
  885SOL     OW 3553   3.169   1.252   5.494
  885SOL    HW1 3554   3.226   1.312   5.437
  885SOL    HW2 3555   3.188   1.157   5.470
  886SOL     OW 3556   3.724   0.497   0.379
  886SOL    HW1 3557   3.639   0.462   0.419
  886SOL    HW2 3558   3.727   0.473   0.282
  887SOL     OW 3559   4.226   0.152   4.128
  887SOL    HW1 3560   4.259   0.243   4.153
  887SOL    HW2 3561   4.195   0.153   4.033
  888SOL     OW 3562   0.747   5.977   2.675
  888SOL    HW1 3563   0.697   5.903   2.630
  888SOL    HW2 3564   0.760   6.052   2.611
  889SOL     OW 3565   0.529   3.887   0.800
  889SOL    HW1 3566   0.501   3.854   0.890
  889SOL    HW2 3567   0.523   3.987   0.798
  890SOL     OW 3568   1.892   5.285   3.619
  890SOL    HW1 3569   1.983   5.285   3.659
  890SOL    HW2 3570   1.874   5.198   3.574
  891SOL     OW 3571   5.516   5.595   0.586
  891SOL    HW1 3572   5.510   5.677   0.529
  891SOL    HW2 3573   5.503   5.514   0.529
  892SOL     OW 3574   2.535   3.624   5.486
  892SOL    HW1 3575   2.591   3.683   5.544
  892SOL    HW2 3576   2.592   3.580   5.417
  893SOL     OW 3577   2.523   7.004   3.115
  893SOL    HW1 3578   2.520   7.015   3.016
  893SOL    HW2 3579   2.588   6.932   3.139
  894SOL     OW 3580   0.716   3.345   1.370
  894SOL    HW1 3581   0.813   3.368   1.375
  894SOL    HW2 3582   0.670   3.408   1.307
  895SOL     OW 3583   0.851   4.353   3.392
  895SOL    HW1 3584   0.864   4.437   3.340
  895SOL    HW2 3585   0.802   4.286   3.336
  896SOL     OW 3586   5.739   4.812   0.228
  896SOL    HW1 3587   5.732   4.855   0.138
  896SOL    HW2 3588   5.811   4.857   0.280
  897SOL     OW 3589   4.809   1.403   0.215
  897SOL    HW1 3590   4.800   1.402   0.115
  897SOL    HW2 3591   4.883   1.343   0.242
  898SOL     OW 3592   3.192   6.143   2.714
  898SOL    HW1 3593   3.242   6.117   2.796
  898SOL    HW2 3594   3.217   6.236   2.687
  899SOL     OW 3595   0.216   6.144   6.804
  899SOL    HW1 3596   0.192   6.214   6.872
  899SOL    HW2 3597   0.148   6.145   6.730
  900SOL     OW 3598   6.143   6.486   0.352
  900SOL    HW1 3599   6.227   6.481   0.407
  900SOL    HW2 3600   6.141   6.573   0.303
  901SOL     OW 3601   2.143   0.948   2.964
  901SOL    HW1 3602   2.046   0.943   2.940
  901SOL    HW2 3603   2.168   1.043   2.982
  902SOL     OW 3604   6.862   2.458   0.689
  902SOL    HW1 3605   6.821   2.506   0.612
  902SOL    HW2 3606   6.815   2.483   0.773
  903SOL     OW 3607   6.856   2.313   6.584
  903SOL    HW1 3608   6.876   2.273   6.495
  903SOL    HW2 3609   6.874   2.246   6.656
  904SOL     OW 3610   2.780   2.328   3.391
  904SOL    HW1 3611   2.866   2.329   3.443
  904SOL    HW2 3612   2.732   2.242   3.408
  905SOL     OW 3613   5.053   2.232   0.214
  905SOL    HW1 3614   5.017   2.311   0.164
  905SOL    HW2 3615   5.090   2.262   0.302
  906SOL     OW 3616   0.377   2.264   5.655
  906SOL    HW1 3617   0.393   2.287   5.559
  906SOL    HW2 3618   0.383   2.165   5.667
  907SOL     OW 3619   5.107   3.891   0.137
  907SOL    HW1 3620   5.079   3.971   0.190
  907SOL    HW2 3621   5.027   3.834   0.118
  908SOL     OW 3622   2.709   4.634   2.884
  908SOL    HW1 3623   2.653   4.567   2.932
  908SOL    HW2 3624   2.746   4.594   2.800
  909SOL     OW 3625   4.364   5.889   0.727
  909SOL    HW1 3626   4.273   5.912   0.691
  909SOL    HW2 3627   4.369   5.790   0.742
  910SOL     OW 3628   3.040   2.833   1.207
  910SOL    HW1 3629   2.956   2.887   1.209
  910SOL    HW2 3630   3.109   2.875   1.266
  911SOL     OW 3631   1.124   5.928   6.522
  911SOL    HW1 3632   1.156   5.846   6.569
  911SOL    HW2 3633   1.079   5.988   6.588
  912SOL     OW 3634   5.751   2.397   2.789
  912SOL    HW1 3635   5.784   2.302   2.787
  912SOL    HW2 3636   5.768   2.436   2.880
  913SOL     OW 3637   4.481   6.057   3.194
  913SOL    HW1 3638   4.533   6.027   3.274
  913SOL    HW2 3639   4.537   6.117   3.138
  914SOL     OW 3640   1.899   0.179   6.450
  914SOL    HW1 3641   1.883   0.218   6.360
  914SOL    HW2 3642   1.969   0.231   6.498
  915SOL     OW 3643   5.934   4.261   6.304
  915SOL    HW1 3644   5.984   4.269   6.218
  915SOL    HW2 3645   5.869   4.185   6.297
  916SOL     OW 3646   1.643   2.598   1.980
  916SOL    HW1 3647   1.727   2.632   2.022
  916SOL    HW2 3648   1.638   2.629   1.886
  917SOL     OW 3649   0.013   6.245   0.931
  917SOL    HW1 3650   0.080   6.262   1.004
  917SOL    HW2 3651   0.060   6.233   0.844
  918SOL     OW 3652   2.956   6.969   0.510
  918SOL    HW1 3653   2.946   0.010   0.583
  918SOL    HW2 3654   3.049   6.970   0.475
  919SOL     OW 3655   5.491   1.201   3.248
  919SOL    HW1 3656   5.550   1.122   3.231
  919SOL    HW2 3657   5.527   1.281   3.199
  920SOL     OW 3658   1.942   4.857   1.703
  920SOL    HW1 3659   2.020   4.907   1.664
  920SOL    HW2 3660   1.976   4.778   1.754
  921SOL     OW 3661   5.164   5.320   4.462
  921SOL    HW1 3662   5.124   5.348   4.375
  921SOL    HW2 3663   5.238   5.383   4.486
  922SOL     OW 3664   3.581   3.907   4.511
  922SOL    HW1 3665   3.544   3.990   4.552
  922SOL    HW2 3666   3.542   3.894   4.420
  923SOL     OW 3667   2.391   2.668   6.105
  923SOL    HW1 3668   2.397   2.592   6.040
  923SOL    HW2 3669   2.368   2.752   6.056
  924SOL     OW 3670   6.170   3.749   2.098
  924SOL    HW1 3671   6.187   3.676   2.164
  924SOL    HW2 3672   6.226   3.828   2.122
  925SOL     OW 3673   6.711   2.688   0.191
  925SOL    HW1 3674   6.720   2.705   0.289
  925SOL    HW2 3675   6.761   2.605   0.166
  926SOL     OW 3676   6.830   1.755   0.988
  926SOL    HW1 3677   6.922   1.787   0.966
  926SOL    HW2 3678   6.764   1.797   0.926
  927SOL     OW 3679   6.095   4.105   3.541
  927SOL    HW1 3680   6.072   4.048   3.462
  927SOL    HW2 3681   6.018   4.165   3.562
  928SOL     OW 3682   2.681   6.385   0.675
  928SOL    HW1 3683   2.609   6.427   0.729
  928SOL    HW2 3684   2.759   6.447   0.668
  929SOL     OW 3685   6.850   0.618   6.993
  929SOL    HW1 3686   6.841   0.530   0.012
  929SOL    HW2 3687   6.836   0.607   6.894
  930SOL     OW 3688   4.538   5.766   6.728
  930SOL    HW1 3689   4.614   5.753   6.791
  930SOL    HW2 3690   4.451   5.760   6.778
  931SOL     OW 3691   6.561   1.921   3.774
  931SOL    HW1 3692   6.574   1.833   3.821
  931SOL    HW2 3693   6.502   1.908   3.695
  932SOL     OW 3694   3.329   1.800   3.772
  932SOL    HW1 3695   3.344   1.707   3.739
  932SOL    HW2 3696   3.232   1.813   3.793
  933SOL     OW 3697   1.458   4.462   2.564
  933SOL    HW1 3698   1.549   4.437   2.530
  933SOL    HW2 3699   1.462   4.479   2.662
  934SOL     OW 3700   2.824   5.882   5.964
  934SOL    HW1 3701   2.729   5.851   5.973
  934SOL    HW2 3702   2.866   5.889   6.054
  935SOL     OW 3703   5.127   3.840   3.404
  935SOL    HW1 3704   5.124   3.886   3.493
  935SOL    HW2 3705   5.206   3.778   3.401
  936SOL     OW 3706   1.658   0.034   6.135
  936SOL    HW1 3707   1.578   0.033   6.195
  936SOL    HW2 3708   1.685   6.966   6.115
  937SOL     OW 3709   5.055   1.200   5.839
  937SOL    HW1 3710   5.030   1.297   5.837
  937SOL    HW2 3711   5.038   1.159   5.750
  938SOL     OW 3712   7.015   5.623   3.917
  938SOL    HW1 3713   6.966   5.538   3.938
  938SOL    HW2 3714   0.032   5.615   3.827
  939SOL     OW 3715   6.804   7.007   4.519
  939SOL    HW1 3716   6.798   0.010   4.423
  939SOL    HW2 3717   6.874   0.034   4.566
  940SOL     OW 3718   0.990   4.674   0.885
  940SOL    HW1 3719   0.912   4.614   0.900
  940SOL    HW2 3720   0.962   4.769   0.894
  941SOL     OW 3721   4.948   0.221   6.791
  941SOL    HW1 3722   4.906   0.164   6.720
  941SOL    HW2 3723   4.894   0.304   6.804
  942SOL     OW 3724   6.606   6.437   1.257
  942SOL    HW1 3725   6.561   6.378   1.190
  942SOL    HW2 3726   6.584   6.533   1.238
  943SOL     OW 3727   2.487   4.856   2.628
  943SOL    HW1 3728   2.473   4.887   2.722
  943SOL    HW2 3729   2.584   4.863   2.604
  944SOL     OW 3730   0.453   5.670   4.423
  944SOL    HW1 3731   0.411   5.657   4.332
  944SOL    HW2 3732   0.479   5.765   4.435
  945SOL     OW 3733   0.744   4.996   5.542
  945SOL    HW1 3734   0.844   4.998   5.541
  945SOL    HW2 3735   0.709   5.031   5.455
  946SOL     OW 3736   4.967   4.566   4.474
  946SOL    HW1 3737   4.931   4.657   4.494
  946SOL    HW2 3738   5.057   4.556   4.518
  947SOL     OW 3739   4.129   3.315   3.684
  947SOL    HW1 3740   4.045   3.278   3.724
  947SOL    HW2 3741   4.148   3.266   3.599
  948SOL     OW 3742   5.143   1.138   2.581
  948SOL    HW1 3743   5.155   1.228   2.624
  948SOL    HW2 3744   5.072   1.143   2.511
  949SOL     OW 3745   2.811   6.440   0.294
  949SOL    HW1 3746   2.906   6.433   0.323
  949SOL    HW2 3747   2.777   6.348   0.271
  950SOL     OW 3748   6.220   5.748   2.042
  950SOL    HW1 3749   6.189   5.681   2.109
  950SOL    HW2 3750   6.318   5.735   2.025
  951SOL     OW 3751   1.675   0.157   3.659
  951SOL    HW1 3752   1.764   0.131   3.696
  951SOL    HW2 3753   1.681   0.164   3.559
  952SOL     OW 3754   4.014   1.700   2.637
  952SOL    HW1 3755   4.003   1.602   2.653
  952SOL    HW2 3756   3.935   1.735   2.587
  953SOL     OW 3757   0.080   6.127   4.897
  953SOL    HW1 3758   0.157   6.143   4.836
  953SOL    HW2 3759   0.003   6.185   4.870
  954SOL     OW 3760   4.343   5.560   2.624
  954SOL    HW1 3761   4.350   5.461   2.610
  954SOL    HW2 3762   4.330   5.605   2.535
  955SOL     OW 3763   1.964   4.181   0.539
  955SOL    HW1 3764   1.984   4.278   0.528
  955SOL    HW2 3765   1.866   4.166   0.527
  956SOL     OW 3766   0.201   1.070   1.108
  956SOL    HW1 3767   0.280   1.013   1.085
  956SOL    HW2 3768   0.230   1.165   1.117
  957SOL     OW 3769   6.243   1.300   1.978
  957SOL    HW1 3770   6.164   1.240   1.991
  957SOL    HW2 3771   6.295   1.305   2.063
  958SOL     OW 3772   5.105   6.219   2.042
  958SOL    HW1 3773   5.071   6.182   2.128
  958SOL    HW2 3774   5.038   6.283   2.004
  959SOL     OW 3775   3.393   0.064   4.760
  959SOL    HW1 3776   3.448   7.021   4.807
  959SOL    HW2 3777   3.437   0.153   4.768
  960SOL     OW 3778   1.059   0.552   0.995
  960SOL    HW1 3779   1.042   0.640   1.038
  960SOL    HW2 3780   1.124   0.563   0.919
  961SOL     OW 3781   3.432   6.918   3.212
  961SOL    HW1 3782   3.528   6.937   3.233
  961SOL    HW2 3783   3.426   6.860   3.131
  962SOL     OW 3784   6.432   6.825   5.117
  962SOL    HW1 3785   6.414   6.917   5.081
  962SOL    HW2 3786   6.514   6.827   5.174
  963SOL     OW 3787   4.422   1.777   1.554
  963SOL    HW1 3788   4.478   1.803   1.476
  963SOL    HW2 3789   4.450   1.829   1.635
  964SOL     OW 3790   4.960   4.650   5.122
  964SOL    HW1 3791   4.961   4.746   5.095
  964SOL    HW2 3792   4.946   4.593   5.042
  965SOL     OW 3793   5.696   2.359   2.319
  965SOL    HW1 3794   5.602   2.391   2.309
  965SOL    HW2 3795   5.696   2.264   2.351
  966SOL     OW 3796   5.047   2.003   3.423
  966SOL    HW1 3797   4.993   1.938   3.477
  966SOL    HW2 3798   4.986   2.065   3.374
  967SOL     OW 3799   3.982   4.508   6.073
  967SOL    HW1 3800   3.984   4.598   6.115
  967SOL    HW2 3801   4.061   4.455   6.104
  968SOL     OW 3802   3.363   0.451   1.532
  968SOL    HW1 3803   3.278   0.448   1.478
  968SOL    HW2 3804   3.422   0.523   1.495
  969SOL     OW 3805   3.409   5.222   5.940
  969SOL    HW1 3806   3.459   5.137   5.959
  969SOL    HW2 3807   3.341   5.205   5.869
  970SOL     OW 3808   6.391   0.683   5.632
  970SOL    HW1 3809   6.340   0.598   5.620
  970SOL    HW2 3810   6.477   0.678   5.581
  971SOL     OW 3811   7.017   4.084   2.749
  971SOL    HW1 3812   6.923   4.105   2.724
  971SOL    HW2 3813   7.017   4.018   2.825
  972SOL     OW 3814   6.617   2.553   1.146
  972SOL    HW1 3815   6.606   2.464   1.191
  972SOL    HW2 3816   6.539   2.570   1.086
  973SOL     OW 3817   0.416   4.053   6.132
  973SOL    HW1 3818   0.332   4.102   6.155
  973SOL    HW2 3819   0.493   4.116   6.132
  974SOL     OW 3820   0.567   4.820   3.307
  974SOL    HW1 3821   0.618   4.866   3.379
  974SOL    HW2 3822   0.474   4.857   3.304
  975SOL     OW 3823   2.452   6.992   1.543
  975SOL    HW1 3824   2.447   0.028   1.464
  975SOL    HW2 3825   2.359   6.961   1.566
  976SOL     OW 3826   6.461   4.260   1.596
  976SOL    HW1 3827   6.371   4.288   1.629
  976SOL    HW2 3828   6.530   4.324   1.630
  977SOL     OW 3829   0.797   1.748   2.075
  977SOL    HW1 3830   0.776   1.661   2.120
  977SOL    HW2 3831   0.745   1.756   1.991
  978SOL     OW 3832   5.771   2.119   1.679
  978SOL    HW1 3833   5.712   2.089   1.605
  978SOL    HW2 3834   5.842   2.051   1.696
  979SOL     OW 3835   0.041   3.206   6.233
  979SOL    HW1 3836   0.046   3.302   6.205
  979SOL    HW2 3837   7.024   3.200   6.323
  980SOL     OW 3838   4.175   1.088   4.817
  980SOL    HW1 3839   4.116   1.167   4.806
  980SOL    HW2 3840   4.238   1.103   4.893
  981SOL     OW 3841   6.778   7.005   4.925
  981SOL    HW1 3842   6.844   0.039   4.880
  981SOL    HW2 3843   6.812   6.981   5.016
  982SOL     OW 3844   0.196   2.040   5.289
  982SOL    HW1 3845   0.268   1.972   5.304
  982SOL    HW2 3846   0.129   2.034   5.362
  983SOL     OW 3847   6.572   3.575   3.204
  983SOL    HW1 3848   6.522   3.547   3.285
  983SOL    HW2 3849   6.523   3.647   3.157
  984SOL     OW 3850   1.844   2.382   2.964
  984SOL    HW1 3851   1.840   2.350   3.059
  984SOL    HW2 3852   1.791   2.320   2.906
  985SOL     OW 3853   5.971   3.697   4.150
  985SOL    HW1 3854   5.986   3.719   4.054
  985SOL    HW2 3855   5.988   3.600   4.165
  986SOL     OW 3856   4.976   4.149   1.320
  986SOL    HW1 3857   4.931   4.134   1.409
  986SOL    HW2 3858   4.921   4.106   1.248
  987SOL     OW 3859   5.514   6.034   3.246
  987SOL    HW1 3860   5.539   6.124   3.209
  987SOL    HW2 3861   5.415   6.024   3.244
  988SOL     OW 3862   3.412   4.006   1.777
  988SOL    HW1 3863   3.472   4.052   1.842
  988SOL    HW2 3864   3.463   3.936   1.727
  989SOL     OW 3865   6.958   2.226   0.564
  989SOL    HW1 3866   6.930   2.152   0.626
  989SOL    HW2 3867   6.928   2.314   0.603
  990SOL     OW 3868   3.228   0.712   3.170
  990SOL    HW1 3869   3.143   0.691   3.218
  990SOL    HW2 3870   3.297   0.643   3.194
  991SOL     OW 3871   6.917   4.199   3.814
  991SOL    HW1 3872   6.896   4.245   3.900
  991SOL    HW2 3873   6.932   4.102   3.830
  992SOL     OW 3874   0.927   2.920   1.057
  992SOL    HW1 3875   0.909   2.848   1.123
  992SOL    HW2 3876   1.014   2.964   1.077
  993SOL     OW 3877   1.292   4.106   1.347
  993SOL    HW1 3878   1.349   4.105   1.264
  993SOL    HW2 3879   1.252   4.197   1.358
  994SOL     OW 3880   3.749   6.477   1.097
  994SOL    HW1 3881   3.710   6.390   1.126
  994SOL    HW2 3882   3.693   6.517   1.024
  995SOL     OW 3883   4.665   3.421   5.772
  995SOL    HW1 3884   4.760   3.406   5.800
  995SOL    HW2 3885   4.659   3.499   5.711
  996SOL     OW 3886   4.467   6.075   5.533
  996SOL    HW1 3887   4.491   6.037   5.443
  996SOL    HW2 3888   4.369   6.064   5.549
  997SOL     OW 3889   1.560   6.844   3.397
  997SOL    HW1 3890   1.562   6.775   3.325
  997SOL    HW2 3891   1.636   6.827   3.460
  998SOL     OW 3892   5.969   0.159   6.110
  998SOL    HW1 3893   5.949   0.062   6.098
  998SOL    HW2 3894   5.989   0.177   6.206
  999SOL     OW 3895   4.756   3.600   1.662
  999SOL    HW1 3896   4.785   3.695   1.652
  999SOL    HW2 3897   4.811   3.556   1.733
 1000SOL     OW 3898   4.144   1.533   1.289
 1000SOL    HW1 3899   4.157   1.484   1.202
 1000SOL    HW2 3900   4.222   1.514   1.349
 1001SOL     OW 3901   2.628   6.228   1.876
 1001SOL    HW1 3902   2.539   6.244   1.918
 1001SOL    HW2 3903   2.659   6.136   1.899
 1002SOL     OW 3904   4.993   2.115   1.850
 1002SOL    HW1 3905   4.973   2.208   1.818
 1002SOL    HW2 3906   5.019   2.118   1.946
 1003SOL     OW 3907   1.409   6.352   2.606
 1003SOL    HW1 3908   1.403   6.256   2.634
 1003SOL    HW2 3909   1.331   6.403   2.643
 1004SOL     OW 3910   6.329   1.265   2.687
 1004SOL    HW1 3911   6.374   1.355   2.683
 1004SOL    HW2 3912   6.359   1.210   2.609
 1005SOL     OW 3913   1.644   4.247   4.247
 1005SOL    HW1 3914   1.692   4.164   4.273
 1005SOL    HW2 3915   1.698   4.297   4.179
 1006SOL     OW 3916   2.409   4.245   0.533
 1006SOL    HW1 3917   2.342   4.228   0.461
 1006SOL    HW2 3918   2.501   4.238   0.494
 1007SOL     OW 3919   4.551   1.572   6.904
 1007SOL    HW1 3920   4.495   1.589   6.823
 1007SOL    HW2 3921   4.539   1.647   6.969
 1008SOL     OW 3922   0.762   3.810   5.358
 1008SOL    HW1 3923   0.793   3.870   5.432
 1008SOL    HW2 3924   0.786   3.850   5.270
 1009SOL     OW 3925   6.105   5.101   5.276
 1009SOL    HW1 3926   6.196   5.075   5.245
 1009SOL    HW2 3927   6.108   5.124   5.373
 1010SOL     OW 3928   2.203   2.540   1.789
 1010SOL    HW1 3929   2.202   2.636   1.817
 1010SOL    HW2 3930   2.297   2.511   1.775
 1011SOL     OW 3931   0.898   5.547   2.809
 1011SOL    HW1 3932   0.915   5.614   2.737
 1011SOL    HW2 3933   0.985   5.511   2.842
 1012SOL     OW 3934   6.638   0.174   2.569
 1012SOL    HW1 3935   6.618   0.213   2.479
 1012SOL    HW2 3936   6.735   0.150   2.574
 1013SOL     OW 3937   0.062   0.982   6.151
 1013SOL    HW1 3938   7.026   0.977   6.229
 1013SOL    HW2 3939   0.014   1.019   6.072
 1014SOL     OW 3940   1.238   4.590   4.409
 1014SOL    HW1 3941   1.193   4.611   4.496
 1014SOL    HW2 3942   1.283   4.501   4.415
 1015SOL     OW 3943   3.168   0.277   6.358
 1015SOL    HW1 3944   3.242   0.313   6.415
 1015SOL    HW2 3945   3.146   0.184   6.385
 1016SOL     OW 3946   5.099   4.224   0.923
 1016SOL    HW1 3947   5.040   4.303   0.939
 1016SOL    HW2 3948   5.174   4.250   0.863
 1017SOL     OW 3949   2.241   1.886   1.687
 1017SOL    HW1 3950   2.266   1.794   1.655
 1017SOL    HW2 3951   2.181   1.879   1.766
 1018SOL     OW 3952   0.042   4.673   3.669
 1018SOL    HW1 3953   0.138   4.701   3.662
 1018SOL    HW2 3954   0.034   4.575   3.652
 1019SOL     OW 3955   6.837   5.127   0.443
 1019SOL    HW1 3956   6.817   5.153   0.537
 1019SOL    HW2 3957   6.864   5.208   0.391
 1020SOL     OW 3958   6.766   0.571   1.245
 1020SOL    HW1 3959   6.863   0.596   1.240
 1020SOL    HW2 3960   6.710   0.654   1.238
 1021SOL     OW 3961   6.575   5.793   2.263
 1021SOL    HW1 3962   6.515   5.736   2.207
 1021SOL    HW2 3963   6.606   5.740   2.342
 1022SOL     OW 3964   3.030   6.275   5.960
 1022SOL    HW1 3965   2.966   6.297   6.034
 1022SOL    HW2 3966   3.002   6.323   5.877
 1023SOL     OW 3967   6.681   1.046   2.500
 1023SOL    HW1 3968   6.695   1.140   2.467
 1023SOL    HW2 3969   6.751   1.024   2.568
 1024SOL     OW 3970   0.673   1.118   4.624
 1024SOL    HW1 3971   0.734   1.135   4.701
 1024SOL    HW2 3972   0.659   1.019   4.613
 1025SOL     OW 3973   5.094   3.390   7.016
 1025SOL    HW1 3974   5.140   3.462   0.042
 1025SOL    HW2 3975   5.016   3.355   0.043
 1026SOL     OW 3976   3.022   2.611   1.696
 1026SOL    HW1 3977   2.927   2.618   1.663
 1026SOL    HW2 3978   3.022   2.571   1.788
 1027SOL     OW 3979   1.186   6.095   1.653
 1027SOL    HW1 3980   1.185   6.117   1.750
 1027SOL    HW2 3981   1.158   5.999   1.640
 1028SOL     OW 3982   1.092   6.182   3.242
 1028SOL    HW1 3983   1.107   6.280   3.233
 1028SOL    HW2 3984   1.171   6.132   3.206
 1029SOL     OW 3985   1.118   2.090   5.624
 1029SOL    HW1 3986   1.070   2.146   5.693
 1029SOL    HW2 3987   1.118   1.995   5.653
 1030SOL     OW 3988   3.291   3.062   1.696
 1030SOL    HW1 3989   3.283   3.161   1.683
 1030SOL    HW2 3990   3.221   3.031   1.760
 1031SOL     OW 3991   3.669   3.350   1.683
 1031SOL    HW1 3992   3.620   3.265   1.699
 1031SOL    HW2 3993   3.607   3.427   1.694
 1032SOL     OW 3994   2.511   1.426   5.170
 1032SOL    HW1 3995   2.461   1.484   5.105
 1032SOL    HW2 3996   2.585   1.379   5.123
 1033SOL     OW 3997   1.450   6.181   2.365
 1033SOL    HW1 3998   1.490   6.260   2.319
 1033SOL    HW2 3999   1.351   6.179   2.346
 1034SOL     OW 4000   2.471   6.306   4.403
 1034SOL    HW1 4001   2.447   6.228   4.460
 1034SOL    HW2 4002   2.433   6.390   4.442
 1035SOL     OW 4003   0.701   2.518   6.061
 1035SOL    HW1 4004   0.761   2.438   6.069
 1035SOL    HW2 4005   0.622   2.506   6.121
 1036SOL     OW 4006   4.774   1.363   1.319
 1036SOL    HW1 4007   4.859   1.409   1.344
 1036SOL    HW2 4008   4.777   1.336   1.223
 1037SOL     OW 4009   1.807   2.336   2.192
 1037SOL    HW1 4010   1.879   2.343   2.123
 1037SOL    HW2 4011   1.756   2.422   2.198
 1038SOL     OW 4012   2.042   1.128   6.896
 1038SOL    HW1 4013   1.982   1.054   6.864
 1038SOL    HW2 4014   2.043   1.201   6.829
 1039SOL     OW 4015   3.066   3.117   3.691
 1039SOL    HW1 4016   2.994   3.174   3.729
 1039SOL    HW2 4017   3.142   3.175   3.662
 1040SOL     OW 4018   5.269   0.778   3.335
 1040SOL    HW1 4019   5.361   0.766   3.373
 1040SOL    HW2 4020   5.201   0.772   3.408
 1041SOL     OW 4021   6.980   6.702   4.287
 1041SOL    HW1 4022   6.963   6.799   4.299
 1041SOL    HW2 4023   0.035   6.688   4.231
 1042SOL     OW 4024   4.754   4.951   2.644
 1042SOL    HW1 4025   4.665   4.994   2.634
 1042SOL    HW2 4026   4.826   5.017   2.622
 1043SOL     OW 4027   3.304   1.471   3.194
 1043SOL    HW1 4028   3.371   1.410   3.151
 1043SOL    HW2 4029   3.221   1.419   3.214
 1044SOL     OW 4030   6.227   5.583   1.447
 1044SOL    HW1 4031   6.128   5.568   1.438
 1044SOL    HW2 4032   6.259   5.640   1.372
 1045SOL     OW 4033   2.303   0.188   3.281
 1045SOL    HW1 4034   2.282   0.280   3.248
 1045SOL    HW2 4035   2.390   0.157   3.241
 1046SOL     OW 4036   2.577   1.144   1.325
 1046SOL    HW1 4037   2.597   1.119   1.230
 1046SOL    HW2 4038   2.514   1.222   1.326
 1047SOL     OW 4039   3.284   0.029   4.098
 1047SOL    HW1 4040   3.210   7.015   4.044
 1047SOL    HW2 4041   3.254   0.041   4.193
 1048SOL     OW 4042   2.466   6.093   2.282
 1048SOL    HW1 4043   2.515   6.046   2.209
 1048SOL    HW2 4044   2.529   6.116   2.356
 1049SOL     OW 4045   4.367   6.993   4.242
 1049SOL    HW1 4046   4.304   6.922   4.275
 1049SOL    HW2 4047   4.315   0.039   4.196
 1050SOL     OW 4048   3.832   5.152   3.040
 1050SOL    HW1 4049   3.771   5.210   3.094
 1050SOL    HW2 4050   3.921   5.146   3.086
 1051SOL     OW 4051   6.813   6.495   0.463
 1051SOL    HW1 4052   6.803   6.483   0.365
 1051SOL    HW2 4053   6.756   6.428   0.511
 1052SOL     OW 4054   4.168   0.440   5.654
 1052SOL    HW1 4055   4.249   0.382   5.664
 1052SOL    HW2 4056   4.113   0.407   5.577
 1053SOL     OW 4057   5.549   3.572   1.989
 1053SOL    HW1 4058   5.486   3.649   1.998
 1053SOL    HW2 4059   5.633   3.602   1.944
 1054SOL     OW 4060   3.142   3.896   0.962
 1054SOL    HW1 4061   3.202   3.839   0.905
 1054SOL    HW2 4062   3.101   3.841   1.034
 1055SOL     OW 4063   5.336   5.634   6.400
 1055SOL    HW1 4064   5.237   5.629   6.411
 1055SOL    HW2 4065   5.378   5.655   6.488
 1056SOL     OW 4066   2.221   3.838   0.719
 1056SOL    HW1 4067   2.187   3.846   0.812
 1056SOL    HW2 4068   2.238   3.742   0.697
 1057SOL     OW 4069   3.507   1.734   2.185
 1057SOL    HW1 4070   3.413   1.706   2.201
 1057SOL    HW2 4071   3.511   1.832   2.167
 1058SOL     OW 4072   3.955   2.182   3.196
 1058SOL    HW1 4073   3.967   2.201   3.294
 1058SOL    HW2 4074   3.859   2.162   3.177
 1059SOL     OW 4075   2.644   6.780   1.856
 1059SOL    HW1 4076   2.603   6.869   1.836
 1059SOL    HW2 4077   2.573   6.719   1.892
 1060SOL     OW 4078   0.576   5.112   4.341
 1060SOL    HW1 4079   0.584   5.113   4.242
 1060SOL    HW2 4080   0.577   5.206   4.376
 1061SOL     OW 4081   6.373   4.367   0.087
 1061SOL    HW1 4082   6.378   4.391   7.016
 1061SOL    HW2 4083   6.319   4.284   0.098
 1062SOL     OW 4084   4.134   6.477   5.024
 1062SOL    HW1 4085   4.157   6.508   5.116
 1062SOL    HW2 4086   4.036   6.487   5.008
 1063SOL     OW 4087   0.703   0.043   5.677
 1063SOL    HW1 4088   0.783   0.002   5.721
 1063SOL    HW2 4089   0.628   0.051   5.743
 1064SOL     OW 4090   0.793   4.492   1.631
 1064SOL    HW1 4091   0.755   4.562   1.571
 1064SOL    HW2 4092   0.746   4.495   1.719
 1065SOL     OW 4093   3.656   1.075   3.627
 1065SOL    HW1 4094   3.623   0.984   3.654
 1065SOL    HW2 4095   3.631   1.092   3.531
 1066SOL     OW 4096   5.267   6.856   2.106
 1066SOL    HW1 4097   5.263   6.956   2.116
 1066SOL    HW2 4098   5.193   6.814   2.159
 1067SOL     OW 4099   2.786   1.294   0.110
 1067SOL    HW1 4100   2.701   1.254   0.143
 1067SOL    HW2 4101   2.813   1.249   0.025
 1068SOL     OW 4102   6.431   4.101   1.183
 1068SOL    HW1 4103   6.376   4.090   1.100
 1068SOL    HW2 4104   6.453   4.198   1.195
 1069SOL     OW 4105   5.907   4.667   0.600
 1069SOL    HW1 4106   5.874   4.685   0.693
 1069SOL    HW2 4107   5.898   4.750   0.544
 1070SOL     OW 4108   2.227   0.070   2.242
 1070SOL    HW1 4109   2.224   0.146   2.306
 1070SOL    HW2 4110   2.144   0.015   2.251
 1071SOL     OW 4111   0.386   2.275   4.776
 1071SOL    HW1 4112   0.420   2.200   4.719
 1071SOL    HW2 4113   0.423   2.266   4.869
 1072SOL     OW 4114   2.263   0.673   1.683
 1072SOL    HW1 4115   2.297   0.722   1.602
 1072SOL    HW2 4116   2.226   0.739   1.748
 1073SOL     OW 4117   5.816   1.956   2.857
 1073SOL    HW1 4118   5.829   1.876   2.799
 1073SOL    HW2 4119   5.764   1.931   2.939
 1074SOL     OW 4120   2.792   5.020   2.288
 1074SOL    HW1 4121   2.720   4.954   2.267
 1074SOL    HW2 4122   2.846   4.987   2.365
 1075SOL     OW 4123   5.874   1.556   4.795
 1075SOL    HW1 4124   5.939   1.623   4.830
 1075SOL    HW2 4125   5.913   1.508   4.717
 1076SOL     OW 4126   2.096   3.772   5.573
 1076SOL    HW1 4127   2.020   3.730   5.525
 1076SOL    HW2 4128   2.150   3.827   5.510
 1077SOL     OW 4129   0.017   0.448   0.318
 1077SOL    HW1 4130   0.010   0.540   0.281
 1077SOL    HW2 4131   0.114   0.424   0.328
 1078SOL     OW 4132   6.465   6.931   3.600
 1078SOL    HW1 4133   6.466   6.956   3.503
 1078SOL    HW2 4134   6.372   6.906   3.627
 1079SOL     OW 4135   1.239   5.346   2.692
 1079SOL    HW1 4136   1.196   5.353   2.782
 1079SOL    HW2 4137   1.203   5.265   2.644
 1080SOL     OW 4138   2.377   5.661   5.264
 1080SOL    HW1 4139   2.472   5.673   5.293
 1080SOL    HW2 4140   2.364   5.568   5.230
 1081SOL     OW 4141   0.007   5.757   4.351
 1081SOL    HW1 4142   6.984   5.762   4.437
 1081SOL    HW2 4143   0.095   5.804   4.359
 1082SOL     OW 4144   6.138   1.127   6.046
 1082SOL    HW1 4145   6.147   1.045   5.989
 1082SOL    HW2 4146   6.054   1.176   6.021
 1083SOL     OW 4147   4.673   4.435   0.601
 1083SOL    HW1 4148   4.594   4.481   0.642
 1083SOL    HW2 4149   4.643   4.372   0.529
 1084SOL     OW 4150   6.157   6.786   6.553
 1084SOL    HW1 4151   6.085   6.782   6.483
 1084SOL    HW2 4152   6.117   6.772   6.643
 1085SOL     OW 4153   1.674   3.696   4.349
 1085SOL    HW1 4154   1.613   3.617   4.357
 1085SOL    HW2 4155   1.732   3.701   4.429
 1086SOL     OW 4156   6.645   4.462   6.184
 1086SOL    HW1 4157   6.715   4.392   6.169
 1086SOL    HW2 4158   6.642   4.524   6.105
 1087SOL     OW 4159   1.344   1.533   5.270
 1087SOL    HW1 4160   1.324   1.451   5.323
 1087SOL    HW2 4161   1.425   1.517   5.213
 1088SOL     OW 4162   0.485   5.148   3.422
 1088SOL    HW1 4163   0.576   5.190   3.413
 1088SOL    HW2 4164   0.488   5.079   3.495
 1089SOL     OW 4165   0.486   5.339   4.873
 1089SOL    HW1 4166   0.495   5.243   4.846
 1089SOL    HW2 4167   0.536   5.397   4.808
 1090SOL     OW 4168   5.861   2.239   3.513
 1090SOL    HW1 4169   5.857   2.173   3.588
 1090SOL    HW2 4170   5.827   2.328   3.545
 1091SOL     OW 4171   2.073   3.254   3.548
 1091SOL    HW1 4172   2.043   3.246   3.644
 1091SOL    HW2 4173   2.163   3.298   3.545
 1092SOL     OW 4174   0.573   4.974   1.380
 1092SOL    HW1 4175   0.660   5.010   1.414
 1092SOL    HW2 4176   0.542   4.901   1.440
 1093SOL     OW 4177   2.848   6.860   1.351
 1093SOL    HW1 4178   2.933   6.856   1.404
 1093SOL    HW2 4179   2.826   6.955   1.329
 1094SOL     OW 4180   0.781   6.907   2.770
 1094SOL    HW1 4181   0.828   6.818   2.773
 1094SOL    HW2 4182   0.702   6.905   2.831
 1095SOL     OW 4183   6.974   2.375   6.287
 1095SOL    HW1 4184   6.950   2.415   6.199
 1095SOL    HW2 4185   6.956   2.277   6.285
 1096SOL     OW 4186   2.973   5.518   0.984
 1096SOL    HW1 4187   2.969   5.460   1.065
 1096SOL    HW2 4188   3.055   5.575   0.987
 1097SOL     OW 4189   1.891   5.722   3.599
 1097SOL    HW1 4190   1.846   5.633   3.605
 1097SOL    HW2 4191   1.823   5.794   3.605
 1098SOL     OW 4192   6.151   4.217   6.707
 1098SOL    HW1 4193   6.237   4.267   6.695
 1098SOL    HW2 4194   6.164   4.121   6.682
 1099SOL     OW 4195   4.524   1.180   6.151
 1099SOL    HW1 4196   4.616   1.164   6.115
 1099SOL    HW2 4197   4.466   1.101   6.133
 1100SOL     OW 4198   3.619   1.465   3.919
 1100SOL    HW1 4199   3.552   1.411   3.970
 1100SOL    HW2 4200   3.707   1.419   3.921
 1101SOL     OW 4201   5.267   3.774   5.479
 1101SOL    HW1 4202   5.277   3.674   5.485
 1101SOL    HW2 4203   5.247   3.811   5.569
 1102SOL     OW 4204   2.391   0.702   4.699
 1102SOL    HW1 4205   2.446   0.784   4.717
 1102SOL    HW2 4206   2.350   0.670   4.784
 1103SOL     OW 4207   2.771   1.734   6.984
 1103SOL    HW1 4208   2.696   1.669   6.971
 1103SOL    HW2 4209   2.750   1.820   6.938
 1104SOL     OW 4210   1.174   3.919   3.238
 1104SOL    HW1 4211   1.135   3.880   3.322
 1104SOL    HW2 4212   1.167   3.852   3.164
 1105SOL     OW 4213   5.365   2.194   5.039
 1105SOL    HW1 4214   5.379   2.252   5.119
 1105SOL    HW2 4215   5.338   2.251   4.961
 1106SOL     OW 4216   0.478   1.336   0.167
 1106SOL    HW1 4217   0.558   1.394   0.182
 1106SOL    HW2 4218   0.434   1.317   0.255
 1107SOL     OW 4219   1.361   0.302   6.465
 1107SOL    HW1 4220   1.364   0.254   6.377
 1107SOL    HW2 4221   1.374   0.400   6.450
 1108SOL     OW 4222   3.715   6.691   4.166
 1108SOL    HW1 4223   3.784   6.730   4.106
 1108SOL    HW2 4224   3.744   6.600   4.195
 1109SOL     OW 4225   5.899   1.379   3.713
 1109SOL    HW1 4226   5.803   1.403   3.695
 1109SOL    HW2 4227   5.902   1.291   3.760
 1110SOL     OW 4228   3.217   1.153   3.093
 1110SOL    HW1 4229   3.205   1.181   2.998
 1110SOL    HW2 4230   3.295   1.090   3.099
 1111SOL     OW 4231   4.503   4.087   6.230
 1111SOL    HW1 4232   4.467   3.999   6.201
 1111SOL    HW2 4233   4.594   4.075   6.270
 1112SOL     OW 4234   6.270   6.598   3.488
 1112SOL    HW1 4235   6.329   6.603   3.407
 1112SOL    HW2 4236   6.277   6.506   3.528
 1113SOL     OW 4237   6.650   3.795   2.425
 1113SOL    HW1 4238   6.655   3.809   2.524
 1113SOL    HW2 4239   6.656   3.698   2.405
 1114SOL     OW 4240   4.371   2.171   5.963
 1114SOL    HW1 4241   4.283   2.133   5.935
 1114SOL    HW2 4242   4.363   2.271   5.972
 1115SOL     OW 4243   3.675   4.469   5.793
 1115SOL    HW1 4244   3.749   4.421   5.840
 1115SOL    HW2 4245   3.689   4.567   5.799
 1116SOL     OW 4246   4.951   0.942   0.185
 1116SOL    HW1 4247   5.050   0.939   0.177
 1116SOL    HW2 4248   4.917   0.853   0.215
 1117SOL     OW 4249   1.156   2.284   1.046
 1117SOL    HW1 4250   1.058   2.271   1.065
 1117SOL    HW2 4251   1.178   2.244   0.957
 1118SOL     OW 4252   2.447   5.944   6.360
 1118SOL    HW1 4253   2.543   5.954   6.331
 1118SOL    HW2 4254   2.391   5.922   6.280
 1119SOL     OW 4255   4.498   4.412   2.536
 1119SOL    HW1 4256   4.424   4.347   2.552
 1119SOL    HW2 4257   4.485   4.457   2.447
 1120SOL     OW 4258   6.354   5.721   1.233
 1120SOL    HW1 4259   6.301   5.802   1.257
 1120SOL    HW2 4260   6.339   5.699   1.136
 1121SOL     OW 4261   0.674   5.257   4.603
 1121SOL    HW1 4262   0.718   5.345   4.619
 1121SOL    HW2 4263   0.575   5.270   4.597
 1122SOL     OW 4264   5.903   2.937   1.884
 1122SOL    HW1 4265   5.882   2.931   1.982
 1122SOL    HW2 4266   5.932   2.848   1.850
 1123SOL     OW 4267   4.618   2.293   3.414
 1123SOL    HW1 4268   4.534   2.246   3.386
 1123SOL    HW2 4269   4.603   2.391   3.416
 1124SOL     OW 4270   1.622   3.064   5.113
 1124SOL    HW1 4271   1.664   3.144   5.070
 1124SOL    HW2 4272   1.523   3.064   5.094
 1125SOL     OW 4273   1.669   3.623   5.173
 1125SOL    HW1 4274   1.614   3.544   5.149
 1125SOL    HW2 4275   1.609   3.696   5.207
 1126SOL     OW 4276   4.275   5.468   5.746
 1126SOL    HW1 4277   4.255   5.457   5.649
 1126SOL    HW2 4278   4.284   5.378   5.789
 1127SOL     OW 4279   5.677   6.379   4.081
 1127SOL    HW1 4280   5.664   6.287   4.118
 1127SOL    HW2 4281   5.616   6.392   4.003
 1128SOL     OW 4282   5.860   0.925   4.183
 1128SOL    HW1 4283   5.930   0.877   4.130
 1128SOL    HW2 4284   5.773   0.922   4.135
 1129SOL     OW 4285   1.920   6.478   0.692
 1129SOL    HW1 4286   1.943   6.399   0.635
 1129SOL    HW2 4287   1.979   6.555   0.668
 1130SOL     OW 4288   1.906   5.526   2.192
 1130SOL    HW1 4289   1.995   5.483   2.178
 1130SOL    HW2 4290   1.835   5.468   2.151
 1131SOL     OW 4291   1.632   6.867   4.253
 1131SOL    HW1 4292   1.549   6.889   4.201
 1131SOL    HW2 4293   1.627   6.772   4.284
 1132SOL     OW 4294   4.673   0.855   2.412
 1132SOL    HW1 4295   4.626   0.777   2.372
 1132SOL    HW2 4296   4.730   0.824   2.489
 1133SOL     OW 4297   1.592   0.181   5.602
 1133SOL    HW1 4298   1.647   0.241   5.661
 1133SOL    HW2 4299   1.508   0.228   5.575
 1134SOL     OW 4300   5.293   6.641   1.917
 1134SOL    HW1 4301   5.238   6.669   1.839
 1134SOL    HW2 4302   5.293   6.713   1.986
 1135SOL     OW 4303   2.341   6.281   4.167
 1135SOL    HW1 4304   2.411   6.307   4.101
 1135SOL    HW2 4305   2.369   6.310   4.259
 1136SOL     OW 4306   3.493   6.059   3.220
 1136SOL    HW1 4307   3.468   6.156   3.216
 1136SOL    HW2 4308   3.494   6.030   3.316
 1137SOL     OW 4309   0.703   6.001   6.806
 1137SOL    HW1 4310   0.634   6.069   6.779
 1137SOL    HW2 4311   0.659   5.912   6.818
 1138SOL     OW 4312   1.480   2.825   5.369
 1138SOL    HW1 4313   1.404   2.853   5.311
 1138SOL    HW2 4314   1.523   2.906   5.409
 1139SOL     OW 4315   2.365   4.999   4.287
 1139SOL    HW1 4316   2.354   4.933   4.213
 1139SOL    HW2 4317   2.334   5.089   4.257
 1140SOL     OW 4318   2.003   1.199   1.667
 1140SOL    HW1 4319   1.927   1.150   1.625
 1140SOL    HW2 4320   2.059   1.241   1.596
 1141SOL     OW 4321   6.034   5.301   5.971
 1141SOL    HW1 4322   6.035   5.377   6.036
 1141SOL    HW2 4323   5.976   5.324   5.893
 1142SOL     OW 4324   2.545   0.056   3.582
 1142SOL    HW1 4325   2.498   0.144   3.576
 1142SOL    HW2 4326   2.607   0.045   3.504
 1143SOL     OW 4327   1.444   3.149   2.114
 1143SOL    HW1 4328   1.387   3.229   2.132
 1143SOL    HW2 4329   1.386   3.068   2.102
 1144SOL     OW 4330   5.567   4.122   2.811
 1144SOL    HW1 4331   5.497   4.105   2.742
 1144SOL    HW2 4332   5.652   4.077   2.784
 1145SOL     OW 4333   1.390   2.724   0.638
 1145SOL    HW1 4334   1.350   2.648   0.586
 1145SOL    HW2 4335   1.322   2.761   0.701
 1146SOL     OW 4336   0.698   1.820   0.968
 1146SOL    HW1 4337   0.605   1.842   0.997
 1146SOL    HW2 4338   0.762   1.841   1.041
 1147SOL     OW 4339   2.555   5.751   1.328
 1147SOL    HW1 4340   2.518   5.843   1.338
 1147SOL    HW2 4341   2.639   5.754   1.274
 1148SOL     OW 4342   4.315   6.493   1.863
 1148SOL    HW1 4343   4.233   6.444   1.833
 1148SOL    HW2 4344   4.375   6.509   1.785
 1149SOL     OW 4345   6.193   3.016   1.917
 1149SOL    HW1 4346   6.192   3.007   1.817
 1149SOL    HW2 4347   6.109   2.978   1.955
 1150SOL     OW 4348   1.166   4.449   0.075
 1150SOL    HW1 4349   1.123   4.372   0.123
 1150SOL    HW2 4350   1.246   4.418   0.024
 1151SOL     OW 4351   6.165   4.789   4.173
 1151SOL    HW1 4352   6.134   4.874   4.131
 1151SOL    HW2 4353   6.209   4.809   4.261
 1152SOL     OW 4354   4.480   0.114   0.481
 1152SOL    HW1 4355   4.558   0.146   0.534
 1152SOL    HW2 4356   4.418   0.191   0.464
 1153SOL     OW 4357   7.019   0.170   1.379
 1153SOL    HW1 4358   0.002   0.172   1.279
 1153SOL    HW2 4359   6.946   0.232   1.407
 1154SOL     OW 4360   0.938   3.467   2.229
 1154SOL    HW1 4361   0.851   3.452   2.181
 1154SOL    HW2 4362   0.964   3.384   2.278
 1155SOL     OW 4363   1.974   6.466   4.731
 1155SOL    HW1 4364   2.020   6.380   4.754
 1155SOL    HW2 4365   2.030   6.542   4.763
 1156SOL     OW 4366   4.454   1.832   5.061
 1156SOL    HW1 4367   4.502   1.841   5.148
 1156SOL    HW2 4368   4.519   1.802   4.990
 1157SOL     OW 4369   4.810   0.823   5.323
 1157SOL    HW1 4370   4.756   0.903   5.349
 1157SOL    HW2 4371   4.750   0.745   5.310
 1158SOL     OW 4372   5.342   6.312   4.388
 1158SOL    HW1 4373   5.350   6.332   4.290
 1158SOL    HW2 4374   5.432   6.289   4.424
 1159SOL     OW 4375   6.051   6.218   3.089
 1159SOL    HW1 4376   6.025   6.214   2.992
 1159SOL    HW2 4377   6.124   6.285   3.100
 1160SOL     OW 4378   4.262   6.618   0.945
 1160SOL    HW1 4379   4.240   6.711   0.973
 1160SOL    HW2 4380   4.304   6.619   0.854
 1161SOL     OW 4381   6.675   5.163   6.222
 1161SOL    HW1 4382   6.584   5.127   6.243
 1161SOL    HW2 4383   6.744   5.105   6.266
 1162SOL     OW 4384   2.063   2.788   5.849
 1162SOL    HW1 4385   2.111   2.874   5.831
 1162SOL    HW2 4386   2.124   2.711   5.830
 1163SOL     OW 4387   6.053   4.180   1.578
 1163SOL    HW1 4388   6.059   4.121   1.497
 1163SOL    HW2 4389   6.015   4.127   1.654
 1164SOL     OW 4390   5.623   2.203   4.863
 1164SOL    HW1 4391   5.588   2.110   4.863
 1164SOL    HW2 4392   5.585   2.253   4.941
 1165SOL     OW 4393   4.541   6.095   3.771
 1165SOL    HW1 4394   4.608   6.094   3.697
 1165SOL    HW2 4395   4.524   6.190   3.798
 1166SOL     OW 4396   1.662   6.533   6.947
 1166SOL    HW1 4397   1.750   6.494   6.975
 1166SOL    HW2 4398   1.666   6.632   6.955
 1167SOL     OW 4399   4.846   3.903   1.771
 1167SOL    HW1 4400   4.889   3.982   1.727
 1167SOL    HW2 4401   4.747   3.915   1.771
 1168SOL     OW 4402   6.095   2.038   2.319
 1168SOL    HW1 4403   6.120   1.973   2.246
 1168SOL    HW2 4404   6.175   2.092   2.344
 1169SOL     OW 4405   5.972   1.905   5.941
 1169SOL    HW1 4406   6.008   1.824   5.895
 1169SOL    HW2 4407   5.878   1.921   5.910
 1170SOL     OW 4408   4.496   0.229   2.755
 1170SOL    HW1 4409   4.506   0.329   2.750
 1170SOL    HW2 4410   4.431   0.199   2.686
 1171SOL     OW 4411   2.401   0.065   0.584
 1171SOL    HW1 4412   2.319   0.021   0.547
 1171SOL    HW2 4413   2.467   0.080   0.509
 1172SOL     OW 4414   5.008   3.314   0.857
 1172SOL    HW1 4415   4.962   3.226   0.872
 1172SOL    HW2 4416   4.980   3.379   0.926
 1173SOL     OW 4417   1.937   0.871   1.260
 1173SOL    HW1 4418   1.995   0.903   1.334
 1173SOL    HW2 4419   1.850   0.922   1.261
 1174SOL     OW 4420   3.550   3.847   1.595
 1174SOL    HW1 4421   3.537   3.886   1.504
 1174SOL    HW2 4422   3.639   3.802   1.600
 1175SOL     OW 4423   4.283   3.122   5.611
 1175SOL    HW1 4424   4.343   3.061   5.663
 1175SOL    HW2 4425   4.188   3.093   5.624
 1176SOL     OW 4426   4.700   2.970   5.900
 1176SOL    HW1 4427   4.736   3.053   5.859
 1176SOL    HW2 4428   4.724   2.967   5.998
 1177SOL     OW 4429   6.289   3.516   5.471
 1177SOL    HW1 4430   6.215   3.582   5.462
 1177SOL    HW2 4431   6.295   3.485   5.566
 1178SOL     OW 4432   2.621   3.457   0.798
 1178SOL    HW1 4433   2.548   3.517   0.831
 1178SOL    HW2 4434   2.628   3.464   0.699
 1179SOL     OW 4435   2.364   5.800   0.095
 1179SOL    HW1 4436   2.367   5.758   0.186
 1179SOL    HW2 4437   2.457   5.824   0.067
 1180SOL     OW 4438   3.030   5.918   2.718
 1180SOL    HW1 4439   3.086   6.001   2.718
 1180SOL    HW2 4440   3.048   5.866   2.802
 1181SOL     OW 4441   0.071   5.412   6.311
 1181SOL    HW1 4442   7.004   5.434   6.279
 1181SOL    HW2 4443   0.079   5.440   6.407
 1182SOL     OW 4444   4.124   5.821   3.377
 1182SOL    HW1 4445   4.034   5.778   3.371
 1182SOL    HW2 4446   4.123   5.909   3.330
 1183SOL     OW 4447   2.107   4.691   0.873
 1183SOL    HW1 4448   2.032   4.699   0.807
 1183SOL    HW2 4449   2.071   4.659   0.961
 1184SOL     OW 4450   0.633   0.702   4.833
 1184SOL    HW1 4451   0.605   0.645   4.756
 1184SOL    HW2 4452   0.729   0.728   4.823
 1185SOL     OW 4453   0.427   1.178   6.749
 1185SOL    HW1 4454   0.352   1.113   6.739
 1185SOL    HW2 4455   0.503   1.151   6.689
 1186SOL     OW 4456   4.877   5.839   5.162
 1186SOL    HW1 4457   4.863   5.917   5.100
 1186SOL    HW2 4458   4.938   5.867   5.236
 1187SOL     OW 4459   6.458   6.655   0.215
 1187SOL    HW1 4460   6.473   6.753   0.209
 1187SOL    HW2 4461   6.464   6.625   0.310
 1188SOL     OW 4462   3.583   6.300   4.976
 1188SOL    HW1 4463   3.528   6.363   4.922
 1188SOL    HW2 4464   3.547   6.207   4.966
 1189SOL     OW 4465   6.844   2.798   3.166
 1189SOL    HW1 4466   6.897   2.882   3.159
 1189SOL    HW2 4467   6.886   2.727   3.110
 1190SOL     OW 4468   2.399   6.081   3.769
 1190SOL    HW1 4469   2.338   6.005   3.792
 1190SOL    HW2 4470   2.350   6.145   3.710
 1191SOL     OW 4471   4.456   4.544   3.387
 1191SOL    HW1 4472   4.439   4.453   3.424
 1191SOL    HW2 4473   4.369   4.591   3.371
 1192SOL     OW 4474   3.678   5.371   3.137
 1192SOL    HW1 4475   3.764   5.384   3.186
 1192SOL    HW2 4476   3.665   5.444   3.070
 1193SOL     OW 4477   6.238   4.024   4.619
 1193SOL    HW1 4478   6.208   4.032   4.714
 1193SOL    HW2 4479   6.209   3.936   4.583
 1194SOL     OW 4480   5.150   6.713   1.486
 1194SOL    HW1 4481   5.069   6.654   1.479
 1194SOL    HW2 4482   5.124   6.808   1.466
 1195SOL     OW 4483   6.225   4.617   1.596
 1195SOL    HW1 4484   6.252   4.575   1.509
 1195SOL    HW2 4485   6.143   4.673   1.582
 1196SOL     OW 4486   0.131   5.908   3.151
 1196SOL    HW1 4487   0.166   5.885   3.242
 1196SOL    HW2 4488   0.171   5.995   3.121
 1197SOL     OW 4489   3.967   0.429   5.873
 1197SOL    HW1 4490   4.000   0.459   5.783
 1197SOL    HW2 4491   3.983   0.502   5.940
 1198SOL     OW 4492   1.212   3.310   1.668
 1198SOL    HW1 4493   1.239   3.330   1.762
 1198SOL    HW2 4494   1.140   3.239   1.669
 1199SOL     OW 4495   4.544   4.759   2.156
 1199SOL    HW1 4496   4.522   4.856   2.161
 1199SOL    HW2 4497   4.641   4.747   2.135
 1200SOL     OW 4498   3.493   3.529   3.093
 1200SOL    HW1 4499   3.411   3.475   3.113
 1200SOL    HW2 4500   3.490   3.560   2.998
 1201SOL     OW 4501   1.172   1.240   4.331
 1201SOL    HW1 4502   1.163   1.339   4.324
 1201SOL    HW2 4503   1.091   1.203   4.377
 1202SOL     OW 4504   0.974   5.480   6.376
 1202SOL    HW1 4505   1.011   5.509   6.287
 1202SOL    HW2 4506   0.936   5.560   6.424
 1203SOL     OW 4507   5.732   6.025   6.907
 1203SOL    HW1 4508   5.675   6.044   6.827
 1203SOL    HW2 4509   5.694   5.947   6.957
 1204SOL     OW 4510   3.162   6.825   0.958
 1204SOL    HW1 4511   3.170   6.884   0.877
 1204SOL    HW2 4512   3.072   6.782   0.958
 1205SOL     OW 4513   5.722   4.073   1.466
 1205SOL    HW1 4514   5.763   4.154   1.509
 1205SOL    HW2 4515   5.650   4.103   1.403
 1206SOL     OW 4516   3.287   2.732   5.335
 1206SOL    HW1 4517   3.265   2.804   5.401
 1206SOL    HW2 4518   3.206   2.675   5.319
 1207SOL     OW 4519   1.790   6.796   1.017
 1207SOL    HW1 4520   1.702   6.752   1.035
 1207SOL    HW2 4521   1.794   6.883   1.066
 1208SOL     OW 4522   3.022   3.925   0.633
 1208SOL    HW1 4523   2.974   3.991   0.576
 1208SOL    HW2 4524   3.115   3.957   0.651
 1209SOL     OW 4525   4.391   0.798   5.572
 1209SOL    HW1 4526   4.375   0.755   5.483
 1209SOL    HW2 4527   4.489   0.811   5.586
 1210SOL     OW 4528   2.621   0.395   2.925
 1210SOL    HW1 4529   2.523   0.412   2.934
 1210SOL    HW2 4530   2.647   0.406   2.829
 1211SOL     OW 4531   1.422   3.769   1.546
 1211SOL    HW1 4532   1.437   3.732   1.638
 1211SOL    HW2 4533   1.506   3.810   1.512
 1212SOL     OW 4534   6.346   0.257   6.362
 1212SOL    HW1 4535   6.366   0.168   6.322
 1212SOL    HW2 4536   6.248   0.275   6.356
 1213SOL     OW 4537   6.459   2.277   0.442
 1213SOL    HW1 4538   6.547   2.325   0.441
 1213SOL    HW2 4539   6.392   2.333   0.490
 1214SOL     OW 4540   6.980   3.069   0.508
 1214SOL    HW1 4541   7.003   3.134   0.580
 1214SOL    HW2 4542   6.894   3.096   0.464
 1215SOL     OW 4543   1.323   4.050   3.946
 1215SOL    HW1 4544   1.241   4.019   3.995
 1215SOL    HW2 4545   1.404   4.029   4.000
 1216SOL     OW 4546   5.139   0.977   1.276
 1216SOL    HW1 4547   5.136   1.074   1.301
 1216SOL    HW2 4548   5.234   0.950   1.261
 1217SOL     OW 4549   1.511   5.066   0.888
 1217SOL    HW1 4550   1.470   5.101   0.972
 1217SOL    HW2 4551   1.550   5.142   0.836
 1218SOL     OW 4552   1.877   4.733   4.603
 1218SOL    HW1 4553   1.824   4.755   4.521
 1218SOL    HW2 4554   1.949   4.802   4.616
 1219SOL     OW 4555   5.409   5.227   2.149
 1219SOL    HW1 4556   5.471   5.244   2.225
 1219SOL    HW2 4557   5.335   5.295   2.151
 1220SOL     OW 4558   0.751   5.274   3.434
 1220SOL    HW1 4559   0.794   5.343   3.376
 1220SOL    HW2 4560   0.752   5.304   3.529
 1221SOL     OW 4561   4.733   3.162   5.690
 1221SOL    HW1 4562   4.692   3.248   5.720
 1221SOL    HW2 4563   4.670   3.115   5.628
 1222SOL     OW 4564   6.370   6.560   6.664
 1222SOL    HW1 4565   6.360   6.496   6.740
 1222SOL    HW2 4566   6.292   6.551   6.602
 1223SOL     OW 4567   3.564   0.534   0.960
 1223SOL    HW1 4568   3.565   0.634   0.956
 1223SOL    HW2 4569   3.469   0.502   0.967
 1224SOL     OW 4570   2.415   5.844   0.720
 1224SOL    HW1 4571   2.335   5.785   0.708
 1224SOL    HW2 4572   2.386   5.940   0.717
 1225SOL     OW 4573   3.420   3.853   6.060
 1225SOL    HW1 4574   3.482   3.913   6.010
 1225SOL    HW2 4575   3.325   3.876   6.036
 1226SOL     OW 4576   2.711   5.267   0.980
 1226SOL    HW1 4577   2.685   5.319   1.062
 1226SOL    HW2 4578   2.809   5.278   0.964
 1227SOL     OW 4579   0.206   3.755   6.669
 1227SOL    HW1 4580   0.215   3.760   6.768
 1227SOL    HW2 4581   0.271   3.818   6.626
 1228SOL     OW 4582   4.064   2.667   6.675
 1228SOL    HW1 4583   4.012   2.642   6.593
 1228SOL    HW2 4584   4.017   2.742   6.722
 1229SOL     OW 4585   4.068   4.744   6.230
 1229SOL    HW1 4586   4.021   4.763   6.317
 1229SOL    HW2 4587   4.071   4.828   6.176
 1230SOL     OW 4588   4.240   0.776   4.118
 1230SOL    HW1 4589   4.205   0.715   4.048
 1230SOL    HW2 4590   4.195   0.865   4.111
 1231SOL     OW 4591   1.103   3.815   5.030
 1231SOL    HW1 4592   1.139   3.776   5.115
 1231SOL    HW2 4593   1.095   3.914   5.040
 1232SOL     OW 4594   1.222   1.699   5.460
 1232SOL    HW1 4595   1.126   1.679   5.441
 1232SOL    HW2 4596   1.280   1.652   5.393
 1233SOL     OW 4597   1.804   3.293   4.691
 1233SOL    HW1 4598   1.801   3.193   4.698
 1233SOL    HW2 4599   1.713   3.330   4.709
 1234SOL     OW 4600   6.482   4.013   4.848
 1234SOL    HW1 4601   6.494   3.914   4.841
 1234SOL    HW2 4602   6.388   4.034   4.872
 1235SOL     OW 4603   7.009   6.068   2.729
 1235SOL    HW1 4604   0.042   5.987   2.730
 1235SOL    HW2 4605   0.039   6.150   2.712
 1236SOL     OW 4606   5.470   0.945   6.682
 1236SOL    HW1 4607   5.440   0.902   6.767
 1236SOL    HW2 4608   5.437   1.040   6.679
 1237SOL     OW 4609   2.998   5.198   6.742
 1237SOL    HW1 4610   2.934   5.251   6.685
 1237SOL    HW2 4611   3.006   5.241   6.832
 1238SOL     OW 4612   1.867   0.979   0.995
 1238SOL    HW1 4613   1.801   0.949   0.928
 1238SOL    HW2 4614   1.874   0.911   1.068
 1239SOL     OW 4615   7.020   6.203   6.649
 1239SOL    HW1 4616   7.009   6.193   6.748
 1239SOL    HW2 4617   0.056   6.279   6.630
 1240SOL     OW 4618   5.665   6.056   2.000
 1240SOL    HW1 4619   5.743   6.047   1.939
 1240SOL    HW2 4620   5.582   6.072   1.947
 1241SOL     OW 4621   6.722   3.099   4.112
 1241SOL    HW1 4622   6.721   3.192   4.149
 1241SOL    HW2 4623   6.673   3.098   4.025
 1242SOL     OW 4624   1.774   3.682   0.930
 1242SOL    HW1 4625   1.712   3.637   0.866
 1242SOL    HW2 4626   1.845   3.731   0.879
 1243SOL     OW 4627   1.302   6.112   5.427
 1243SOL    HW1 4628   1.217   6.063   5.444
 1243SOL    HW2 4629   1.309   6.133   5.330
 1244SOL     OW 4630   0.303   6.198   3.022
 1244SOL    HW1 4631   0.225   6.205   3.083
 1244SOL    HW2 4632   0.378   6.151   3.068
 1245SOL     OW 4633   4.206   3.711   6.097
 1245SOL    HW1 4634   4.169   3.673   6.012
 1245SOL    HW2 4635   4.298   3.747   6.079
 1246SOL     OW 4636   2.363   6.506   2.195
 1246SOL    HW1 4637   2.452   6.461   2.206
 1246SOL    HW2 4638   2.295   6.459   2.251
 1247SOL     OW 4639   2.922   0.293   6.564
 1247SOL    HW1 4640   2.969   0.284   6.475
 1247SOL    HW2 4641   2.990   0.293   6.637
 1248SOL     OW 4642   2.266   6.810   3.989
 1248SOL    HW1 4643   2.222   6.779   3.905
 1248SOL    HW2 4644   2.239   6.904   4.009
 1249SOL     OW 4645   5.581   2.968   2.393
 1249SOL    HW1 4646   5.511   3.005   2.333
 1249SOL    HW2 4647   5.551   2.880   2.430
 1250SOL     OW 4648   0.587   4.614   4.764
 1250SOL    HW1 4649   0.592   4.571   4.674
 1250SOL    HW2 4650   0.492   4.617   4.795
 1251SOL     OW 4651   3.839   0.362   4.592
 1251SOL    HW1 4652   3.934   0.333   4.598
 1251SOL    HW2 4653   3.815   0.378   4.496
 1252SOL     OW 4654   3.424   3.585   6.096
 1252SOL    HW1 4655   3.412   3.684   6.087
 1252SOL    HW2 4656   3.517   3.560   6.070
 1253SOL     OW 4657   4.003   5.950   1.744
 1253SOL    HW1 4658   3.949   5.869   1.722
 1253SOL    HW2 4659   4.041   5.990   1.661
 1254SOL     OW 4660   6.255   2.970   2.475
 1254SOL    HW1 4661   6.238   2.880   2.436
 1254SOL    HW2 4662   6.171   3.023   2.477
 1255SOL     OW 4663   6.910   0.911   4.806
 1255SOL    HW1 4664   6.920   0.848   4.728
 1255SOL    HW2 4665   7.000   0.935   4.842
 1256SOL     OW 4666   6.915   0.019   3.197
 1256SOL    HW1 4667   6.876   0.110   3.177
 1256SOL    HW2 4668   6.988   0.028   3.264
 1257SOL     OW 4669   0.531   0.061   3.599
 1257SOL    HW1 4670   0.532   0.159   3.622
 1257SOL    HW2 4671   0.622   0.023   3.617
 1258SOL     OW 4672   0.452   5.452   3.475
 1258SOL    HW1 4673   0.362   5.423   3.443
 1258SOL    HW2 4674   0.469   5.413   3.566
 1259SOL     OW 4675   3.884   1.857   4.550
 1259SOL    HW1 4676   3.846   1.845   4.642
 1259SOL    HW2 4677   3.821   1.913   4.495
 1260SOL     OW 4678   0.973   1.660   7.010
 1260SOL    HW1 4679   0.878   1.644   6.983
 1260SOL    HW2 4680   1.018   1.573   0.000
 1261SOL     OW 4681   0.011   5.315   0.078
 1261SOL    HW1 4682   0.017   5.401   0.028
 1261SOL    HW2 4683   6.954   5.266   0.050
 1262SOL     OW 4684   5.205   5.440   2.127
 1262SOL    HW1 4685   5.140   5.442   2.202
 1262SOL    HW2 4686   5.276   5.508   2.142
 1263SOL     OW 4687   0.584   1.738   2.389
 1263SOL    HW1 4688   0.665   1.690   2.424
 1263SOL    HW2 4689   0.593   1.836   2.410
 1264SOL     OW 4690   1.013   3.843   5.841
 1264SOL    HW1 4691   0.963   3.764   5.874
 1264SOL    HW2 4692   0.966   3.882   5.762
 1265SOL     OW 4693   6.643   5.348   4.143
 1265SOL    HW1 4694   6.682   5.258   4.160
 1265SOL    HW2 4695   6.546   5.339   4.118
 1266SOL     OW 4696   0.694   0.820   4.577
 1266SOL    HW1 4697   0.763   0.750   4.597
 1266SOL    HW2 4698   0.607   0.793   4.619
 1267SOL     OW 4699   5.571   0.453   2.034
 1267SOL    HW1 4700   5.561   0.494   1.943
 1267SOL    HW2 4701   5.611   0.520   2.096
 1268SOL     OW 4702   3.997   2.367   5.721
 1268SOL    HW1 4703   4.081   2.313   5.715
 1268SOL    HW2 4704   4.014   2.460   5.687
 1269SOL     OW 4705   5.280   2.459   4.329
 1269SOL    HW1 4706   5.202   2.437   4.269
 1269SOL    HW2 4707   5.246   2.500   4.413
 1270SOL     OW 4708   1.912   4.979   2.258
 1270SOL    HW1 4709   1.897   5.024   2.170
 1270SOL    HW2 4710   1.906   5.046   2.332
 1271SOL     OW 4711   1.766   0.712   1.051
 1271SOL    HW1 4712   1.717   0.625   1.058
 1271SOL    HW2 4713   1.803   0.737   1.140
 1272SOL     OW 4714   6.521   3.368   6.764
 1272SOL    HW1 4715   6.446   3.383   6.699
 1272SOL    HW2 4716   6.584   3.300   6.726
 1273SOL     OW 4717   1.353   4.358   4.793
 1273SOL    HW1 4718   1.390   4.285   4.737
 1273SOL    HW2 4719   1.404   4.364   4.879
 1274SOL     OW 4720   0.404   4.509   1.669
 1274SOL    HW1 4721   0.409   4.478   1.764
 1274SOL    HW2 4722   0.369   4.435   1.611
 1275SOL     OW 4723   2.619   0.450   3.684
 1275SOL    HW1 4724   2.549   0.478   3.619
 1275SOL    HW2 4725   2.576   0.410   3.765
 1276SOL     OW 4726   5.554   4.637   4.180
 1276SOL    HW1 4727   5.490   4.565   4.151
 1276SOL    HW2 4728   5.602   4.606   4.262
 1277SOL     OW 4729   0.839   5.620   6.975
 1277SOL    HW1 4730   0.809   5.603   0.043
 1277SOL    HW2 4731   0.760   5.632   6.916
 1278SOL     OW 4732   1.525   0.080   3.223
 1278SOL    HW1 4733   1.571   7.025   3.186
 1278SOL    HW2 4734   1.589   0.130   3.282
 1279SOL     OW 4735   2.615   3.769   6.131
 1279SOL    HW1 4736   2.666   3.851   6.106
 1279SOL    HW2 4737   2.560   3.740   6.052
 1280SOL     OW 4738   3.334   0.791   3.909
 1280SOL    HW1 4739   3.274   0.870   3.908
 1280SOL    HW2 4740   3.372   0.779   4.001
 1281SOL     OW 4741   3.183   6.054   3.812
 1281SOL    HW1 4742   3.282   6.052   3.828
 1281SOL    HW2 4743   3.147   5.960   3.816
 1282SOL     OW 4744   6.574   2.987   0.619
 1282SOL    HW1 4745   6.497   2.953   0.566
 1282SOL    HW2 4746   6.659   2.951   0.581
 1283SOL     OW 4747   6.340   3.954   5.200
 1283SOL    HW1 4748   6.349   3.892   5.122
 1283SOL    HW2 4749   6.384   4.041   5.179
 1284SOL     OW 4750   3.852   0.887   1.332
 1284SOL    HW1 4751   3.881   0.817   1.268
 1284SOL    HW2 4752   3.910   0.968   1.323
 1285SOL     OW 4753   3.706   1.391   5.079
 1285SOL    HW1 4754   3.794   1.348   5.103
 1285SOL    HW2 4755   3.720   1.488   5.063
 1286SOL     OW 4756   5.060   2.821   1.648
 1286SOL    HW1 4757   5.142   2.858   1.692
 1286SOL    HW2 4758   4.980   2.872   1.678
 1287SOL     OW 4759   5.839   4.753   5.190
 1287SOL    HW1 4760   5.848   4.731   5.093
 1287SOL    HW2 4761   5.751   4.720   5.224
 1288SOL     OW 4762   4.360   4.448   6.475
 1288SOL    HW1 4763   4.420   4.492   6.542
 1288SOL    HW2 4764   4.414   4.421   6.395
 1289SOL     OW 4765   6.577   0.745   1.450
 1289SOL    HW1 4766   6.507   0.680   1.481
 1289SOL    HW2 4767   6.565   0.761   1.352
 1290SOL     OW 4768   1.439   0.458   0.364
 1290SOL    HW1 4769   1.368   0.454   0.434
 1290SOL    HW2 4770   1.523   0.494   0.404
 1291SOL     OW 4771   6.371   5.036   4.327
 1291SOL    HW1 4772   6.391   4.997   4.237
 1291SOL    HW2 4773   6.285   4.997   4.361
 1292SOL     OW 4774   0.079   5.634   2.493
 1292SOL    HW1 4775   7.007   5.653   2.500
 1292SOL    HW2 4776   0.096   5.541   2.525
 1293SOL     OW 4777   2.242   1.852   6.959
 1293SOL    HW1 4778   2.198   1.932   7.000
 1293SOL    HW2 4779   2.179   1.775   6.961
 1294SOL     OW 4780   2.117   4.537   6.721
 1294SOL    HW1 4781   2.081   4.496   6.637
 1294SOL    HW2 4782   2.216   4.523   6.724
 1295SOL     OW 4783   0.354   4.034   1.150
 1295SOL    HW1 4784   0.291   4.027   1.072
 1295SOL    HW2 4785   0.343   3.954   1.208
 1296SOL     OW 4786   5.051   6.743   5.616
 1296SOL    HW1 4787   4.965   6.740   5.565
 1296SOL    HW2 4788   5.045   6.683   5.696
 1297SOL     OW 4789   0.940   6.939   2.338
 1297SOL    HW1 4790   1.013   6.875   2.362
 1297SOL    HW2 4791   0.878   6.897   2.273
 1298SOL     OW 4792   5.270   5.709   3.178
 1298SOL    HW1 4793   5.275   5.809   3.174
 1298SOL    HW2 4794   5.258   5.672   3.086
 1299SOL     OW 4795   2.152   3.253   4.142
 1299SOL    HW1 4796   2.144   3.185   4.070
 1299SOL    HW2 4797   2.177   3.209   4.228
 1300SOL     OW 4798   2.116   3.652   1.154
 1300SOL    HW1 4799   2.111   3.743   1.112
 1300SOL    HW2 4800   2.115   3.582   1.082
 1301SOL     OW 4801   0.676   0.560   1.344
 1301SOL    HW1 4802   0.657   0.467   1.376
 1301SOL    HW2 4803   0.709   0.616   1.421
 1302SOL     OW 4804   5.508   0.341   5.480
 1302SOL    HW1 4805   5.567   0.270   5.443
 1302SOL    HW2 4806   5.447   0.375   5.407
 1303SOL     OW 4807   4.070   6.881   1.749
 1303SOL    HW1 4808   4.054   6.926   1.661
 1303SOL    HW2 4809   4.103   6.948   1.815
 1304SOL     OW 4810   1.098   1.159   1.019
 1304SOL    HW1 4811   1.013   1.160   1.071
 1304SOL    HW2 4812   1.172   1.124   1.078
 1305SOL     OW 4813   5.112   4.268   6.096
 1305SOL    HW1 4814   5.198   4.314   6.116
 1305SOL    HW2 4815   5.057   4.263   6.179
 1306SOL     OW 4816   0.906   6.159   5.072
 1306SOL    HW1 4817   0.832   6.157   5.004
 1306SOL    HW2 4818   0.885   6.095   5.146
 1307SOL     OW 4819   1.839   3.285   4.148
 1307SOL    HW1 4820   1.837   3.325   4.240
 1307SOL    HW2 4821   1.933   3.280   4.116
 1308SOL     OW 4822   6.313   5.986   6.554
 1308SOL    HW1 4823   6.230   6.039   6.536
 1308SOL    HW2 4824   6.296   5.922   6.629
 1309SOL     OW 4825   5.194   4.874   5.979
 1309SOL    HW1 4826   5.287   4.904   5.959
 1309SOL    HW2 4827   5.140   4.952   6.009
 1310SOL     OW 4828   0.390   3.943   4.001
 1310SOL    HW1 4829   0.381   3.854   3.957
 1310SOL    HW2 4830   0.304   3.993   3.992
 1311SOL     OW 4831   6.396   5.446   6.919
 1311SOL    HW1 4832   6.342   5.387   6.859
 1311SOL    HW2 4833   6.336   5.513   6.962
 1312SOL     OW 4834   1.097   1.183   6.069
 1312SOL    HW1 4835   1.078   1.086   6.056
 1312SOL    HW2 4836   1.176   1.210   6.014
 1313SOL     OW 4837   6.064   5.458   3.283
 1313SOL    HW1 4838   6.145   5.503   3.247
 1313SOL    HW2 4839   6.085   5.362   3.302
 1314SOL     OW 4840   3.105   1.876   4.712
 1314SOL    HW1 4841   3.110   1.969   4.748
 1314SOL    HW2 4842   3.104   1.811   4.787
 1315SOL     OW 4843   6.801   0.583   3.691
 1315SOL    HW1 4844   6.898   0.573   3.709
 1315SOL    HW2 4845   6.748   0.533   3.760
 1316SOL     OW 4846   3.971   0.155   5.541
 1316SOL    HW1 4847   3.927   0.074   5.501
 1316SOL    HW2 4848   3.954   0.157   5.640
 1317SOL     OW 4849   2.046   4.314   5.724
 1317SOL    HW1 4850   2.023   4.223   5.760
 1317SOL    HW2 4851   2.060   4.308   5.625
 1318SOL     OW 4852   2.200   3.267   6.947
 1318SOL    HW1 4853   2.112   3.234   6.980
 1318SOL    HW2 4854   2.215   3.235   6.853
 1319SOL     OW 4855   0.070   5.692   0.078
 1319SOL    HW1 4856   7.002   5.725   0.081
 1319SOL    HW2 4857   0.087   5.648   7.017
 1320SOL     OW 4858   3.293   2.847   6.473
 1320SOL    HW1 4859   3.370   2.792   6.507
 1320SOL    HW2 4860   3.211   2.790   6.468
 1321SOL     OW 4861   4.709   2.010   6.754
 1321SOL    HW1 4862   4.791   1.967   6.715
 1321SOL    HW2 4863   4.699   1.981   6.849
 1322SOL     OW 4864   3.320   1.412   5.299
 1322SOL    HW1 4865   3.386   1.344   5.267
 1322SOL    HW2 4866   3.275   1.455   5.220
 1323SOL     OW 4867   3.597   0.140   0.635
 1323SOL    HW1 4868   3.501   0.164   0.620
 1323SOL    HW2 4869   3.611   0.042   0.618
 1324SOL     OW 4870   1.423   3.803   0.189
 1324SOL    HW1 4871   1.423   3.896   0.227
 1324SOL    HW2 4872   1.452   3.738   0.259
 1325SOL     OW 4873   3.158   6.048   5.589
 1325SOL    HW1 4874   3.119   6.047   5.681
 1325SOL    HW2 4875   3.255   6.022   5.594
 1326SOL     OW 4876   4.738   4.341   5.018
 1326SOL    HW1 4877   4.829   4.361   5.054
 1326SOL    HW2 4878   4.741   4.260   4.960
 1327SOL     OW 4879   0.319   0.073   1.199
 1327SOL    HW1 4880   0.233   0.120   1.177
 1327SOL    HW2 4881   0.322   7.012   1.152
 1328SOL     OW 4882   1.277   3.078   6.042
 1328SOL    HW1 4883   1.306   3.064   6.137
 1328SOL    HW2 4884   1.178   3.094   6.040
 1329SOL     OW 4885   0.534   1.618   2.661
 1329SOL    HW1 4886   0.575   1.660   2.742
 1329SOL    HW2 4887   0.517   1.688   2.592
 1330SOL     OW 4888   0.312   2.014   0.780
 1330SOL    HW1 4889   0.355   2.005   0.690
 1330SOL    HW2 4890   0.382   2.013   0.851
 1331SOL     OW 4891   4.352   1.915   2.941
 1331SOL    HW1 4892   4.438   1.963   2.928
 1331SOL    HW2 4893   4.301   1.957   3.016
 1332SOL     OW 4894   1.923   0.560   0.525
 1332SOL    HW1 4895   1.952   0.567   0.621
 1332SOL    HW2 4896   1.982   0.495   0.477
 1333SOL     OW 4897   3.471   3.879   3.273
 1333SOL    HW1 4898   3.499   3.969   3.239
 1333SOL    HW2 4899   3.519   3.808   3.221
 1334SOL     OW 4900   6.871   1.810   3.253
 1334SOL    HW1 4901   6.961   1.783   3.288
 1334SOL    HW2 4902   6.833   1.736   3.199
 1335SOL     OW 4903   1.787   3.021   1.562
 1335SOL    HW1 4904   1.782   3.068   1.649
 1335SOL    HW2 4905   1.869   2.963   1.560
 1336SOL     OW 4906   4.133   1.264   5.537
 1336SOL    HW1 4907   4.071   1.185   5.536
 1336SOL    HW2 4908   4.079   1.348   5.527
 1337SOL     OW 4909   6.659   1.129   2.944
 1337SOL    HW1 4910   6.736   1.077   2.980
 1337SOL    HW2 4911   6.595   1.068   2.898
 1338SOL     OW 4912   6.249   4.046   4.185
 1338SOL    HW1 4913   6.162   4.057   4.233
 1338SOL    HW2 4914   6.233   4.042   4.086
 1339SOL     OW 4915   0.415   0.539   0.275
 1339SOL    HW1 4916   0.362   0.469   0.228
 1339SOL    HW2 4917   0.486   0.574   0.213
 1340SOL     OW 4918   4.733   1.775   2.370
 1340SOL    HW1 4919   4.693   1.803   2.457
 1340SOL    HW2 4920   4.683   1.819   2.295
 1341SOL     OW 4921   4.695   6.304   0.387
 1341SOL    HW1 4922   4.738   6.341   0.305
 1341SOL    HW2 4923   4.758   6.312   0.465
 1342SOL     OW 4924   3.078   5.615   0.328
 1342SOL    HW1 4925   3.162   5.562   0.345
 1342SOL    HW2 4926   3.014   5.558   0.277
 1343SOL     OW 4927   6.120   5.187   3.095
 1343SOL    HW1 4928   6.202   5.158   3.143
 1343SOL    HW2 4929   6.039   5.165   3.150
 1344SOL     OW 4930   0.536   6.228   4.109
 1344SOL    HW1 4931   0.458   6.190   4.059
 1344SOL    HW2 4932   0.521   6.325   4.127
 1345SOL     OW 4933   0.711   4.856   2.101
 1345SOL    HW1 4934   0.612   4.844   2.111
 1345SOL    HW2 4935   0.732   4.884   2.008
 1346SOL     OW 4936   2.113   5.082   5.946
 1346SOL    HW1 4937   2.196   5.138   5.946
 1346SOL    HW2 4938   2.138   4.985   5.951
 1347SOL     OW 4939   1.764   0.397   5.687
 1347SOL    HW1 4940   1.793   0.435   5.774
 1347SOL    HW2 4941   1.754   0.471   5.620
 1348SOL     OW 4942   0.217   6.001   5.467
 1348SOL    HW1 4943   0.281   5.928   5.444
 1348SOL    HW2 4944   0.254   6.056   5.541
 1349SOL     OW 4945   5.752   2.903   4.206
 1349SOL    HW1 4946   5.757   2.826   4.144
 1349SOL    HW2 4947   5.796   2.879   4.293
 1350SOL     OW 4948   3.831   4.547   0.388
 1350SOL    HW1 4949   3.877   4.482   0.327
 1350SOL    HW2 4950   3.749   4.583   0.342
 1351SOL     OW 4951   5.877   1.753   3.739
 1351SOL    HW1 4952   5.853   1.714   3.650
 1351SOL    HW2 4953   5.910   1.847   3.726
 1352SOL     OW 4954   0.185   0.242   2.175
 1352SOL    HW1 4955   0.105   0.184   2.190
 1352SOL    HW2 4956   0.261   0.186   2.143
 1353SOL     OW 4957   0.637   2.018   0.788
 1353SOL    HW1 4958   0.661   1.931   0.831
 1353SOL    HW2 4959   0.619   2.004   0.691
 1354SOL     OW 4960   7.025   4.021   2.058
 1354SOL    HW1 4961   6.934   3.981   2.058
 1354SOL    HW2 4962   7.018   4.120   2.069
 1355SOL     OW 4963   6.205   3.778   4.231
 1355SOL    HW1 4964   6.111   3.758   4.206
 1355SOL    HW2 4965   6.217   3.877   4.239
 1356SOL     OW 4966   3.859   2.981   2.169
 1356SOL    HW1 4967   3.914   3.049   2.219
 1356SOL    HW2 4968   3.920   2.917   2.122
 1357SOL     OW 4969   6.488   3.438   5.950
 1357SOL    HW1 4970   6.489   3.538   5.953
 1357SOL    HW2 4971   6.581   3.403   5.960
 1358SOL     OW 4972   6.312   0.141   6.986
 1358SOL    HW1 4973   6.264   0.141   0.048
 1358SOL    HW2 4974   6.322   0.048   6.952
 1359SOL     OW 4975   5.993   4.712   1.509
 1359SOL    HW1 4976   5.947   4.801   1.519
 1359SOL    HW2 4977   5.970   4.674   1.419
 1360SOL     OW 4978   3.360   3.518   0.089
 1360SOL    HW1 4979   3.343   3.617   0.088
 1360SOL    HW2 4980   3.289   3.472   0.141
 1361SOL     OW 4981   0.217   4.964   4.865
 1361SOL    HW1 4982   0.297   4.904   4.857
 1361SOL    HW2 4983   0.244   5.052   4.904
 1362SOL     OW 4984   4.032   3.459   2.645
 1362SOL    HW1 4985   4.020   3.389   2.716
 1362SOL    HW2 4986   4.064   3.544   2.687
 1363SOL     OW 4987   0.064   5.515   5.014
 1363SOL    HW1 4988   0.016   5.441   4.967
 1363SOL    HW2 4989   0.088   5.484   5.107
 1364SOL     OW 4990   4.280   4.812   6.842
 1364SOL    HW1 4991   4.340   4.752   6.895
 1364SOL    HW2 4992   4.274   4.779   6.748
 1365SOL     OW 4993   0.699   4.395   6.323
 1365SOL    HW1 4994   0.714   4.475   6.264
 1365SOL    HW2 4995   0.747   4.409   6.410
 1366SOL     OW 4996   1.643   0.067   5.355
 1366SOL    HW1 4997   1.587   0.108   5.283
 1366SOL    HW2 4998   1.624   0.113   5.442
 1367SOL     OW 4999   1.617   1.757   2.467
 1367SOL    HW1 5000   1.691   1.822   2.450
 1367SOL    HW2 5001   1.529   1.805   2.464
 1368SOL     OW 5002   5.517   6.671   4.503
 1368SOL    HW1 5003   5.532   6.652   4.406
 1368SOL    HW2 5004   5.423   6.651   4.528
 1369SOL     OW 5005   0.829   6.186   3.197
 1369SOL    HW1 5006   0.785   6.217   3.113
 1369SOL    HW2 5007   0.928   6.181   3.184
 1370SOL     OW 5008   3.068   0.656   1.244
 1370SOL    HW1 5009   3.124   0.727   1.287
 1370SOL    HW2 5010   2.975   0.660   1.281
 1371SOL     OW 5011   4.360   0.612   5.893
 1371SOL    HW1 5012   4.280   0.636   5.838
 1371SOL    HW2 5013   4.336   0.536   5.953
 1372SOL     OW 5014   2.195   2.526   1.057
 1372SOL    HW1 5015   2.117   2.588   1.044
 1372SOL    HW2 5016   2.280   2.576   1.045
 1373SOL     OW 5017   6.844   5.218   0.942
 1373SOL    HW1 5018   6.931   5.256   0.974
 1373SOL    HW2 5019   6.769   5.256   0.997
 1374SOL     OW 5020   4.100   1.936   1.160
 1374SOL    HW1 5021   4.154   2.021   1.163
 1374SOL    HW2 5022   4.004   1.959   1.147
 1375SOL     OW 5023   6.903   5.053   6.038
 1375SOL    HW1 5024   6.990   5.010   6.012
 1375SOL    HW2 5025   6.878   5.121   5.969
 1376SOL     OW 5026   5.027   2.802   3.681
 1376SOL    HW1 5027   5.060   2.852   3.760
 1376SOL    HW2 5028   5.087   2.818   3.603
 1377SOL     OW 5029   0.296   4.753   5.428
 1377SOL    HW1 5030   0.387   4.715   5.408
 1377SOL    HW2 5031   0.262   4.802   5.348
 1378SOL     OW 5032   1.013   2.628   6.813
 1378SOL    HW1 5033   0.964   2.542   6.804
 1378SOL    HW2 5034   1.007   2.660   6.908
 1379SOL     OW 5035   3.321   5.852   3.194
 1379SOL    HW1 5036   3.240   5.897   3.233
 1379SOL    HW2 5037   3.395   5.919   3.186
 1380SOL     OW 5038   6.753   6.824   2.771
 1380SOL    HW1 5039   6.798   6.855   2.688
 1380SOL    HW2 5040   6.816   6.833   2.849
 1381SOL     OW 5041   6.016   2.862   0.280
 1381SOL    HW1 5042   6.067   2.864   0.194
 1381SOL    HW2 5043   5.994   2.956   0.308
 1382SOL     OW 5044   5.914   4.965   6.190
 1382SOL    HW1 5045   5.856   4.890   6.221
 1382SOL    HW2 5046   5.887   4.993   6.098
 1383SOL     OW 5047   0.811   0.442   0.196
 1383SOL    HW1 5048   0.773   0.445   0.289
 1383SOL    HW2 5049   0.832   0.347   0.172
 1384SOL     OW 5050   4.181   1.369   3.180
 1384SOL    HW1 5051   4.177   1.389   3.082
 1384SOL    HW2 5052   4.113   1.300   3.203
 1385SOL     OW 5053   6.468   2.749   2.886
 1385SOL    HW1 5054   6.480   2.844   2.913
 1385SOL    HW2 5055   6.438   2.744   2.791
 1386SOL     OW 5056   2.200   3.135   4.417
 1386SOL    HW1 5057   2.287   3.087   4.430
 1386SOL    HW2 5058   2.129   3.093   4.474
 1387SOL     OW 5059   3.517   0.674   5.094
 1387SOL    HW1 5060   3.433   0.653   5.143
 1387SOL    HW2 5061   3.532   0.773   5.093
 1388SOL     OW 5062   6.506   0.774   4.373
 1388SOL    HW1 5063   6.432   0.780   4.305
 1388SOL    HW2 5064   6.559   0.858   4.371
 1389SOL     OW 5065   5.805   6.934   4.323
 1389SOL    HW1 5066   5.814   7.017   4.269
 1389SOL    HW2 5067   5.729   6.879   4.288
 1390SOL     OW 5068   4.155   1.662   1.541
 1390SOL    HW1 5069   4.238   1.718   1.542
 1390SOL    HW2 5070   4.121   1.654   1.448
 1391SOL     OW 5071   6.181   0.755   4.732
 1391SOL    HW1 5072   6.121   0.779   4.808
 1391SOL    HW2 5073   6.268   0.720   4.768
 1392SOL     OW 5074   4.886   5.793   0.040
 1392SOL    HW1 5075   4.830   5.722   0.083
 1392SOL    HW2 5076   4.849   5.883   0.065
 1393SOL     OW 5077   6.521   1.237   6.146
 1393SOL    HW1 5078   6.472   1.250   6.060
 1393SOL    HW2 5079   6.619   1.234   6.128
 1394SOL     OW 5080   4.075   6.889   3.594
 1394SOL    HW1 5081   4.152   6.837   3.631
 1394SOL    HW2 5082   3.991   6.835   3.604
 1395SOL     OW 5083   1.488   4.503   2.834
 1395SOL    HW1 5084   1.417   4.533   2.897
 1395SOL    HW2 5085   1.569   4.475   2.886
 1396SOL     OW 5086   2.544   1.200   4.596
 1396SOL    HW1 5087   2.637   1.226   4.571
 1396SOL    HW2 5088   2.528   1.225   4.692
 1397SOL     OW 5089   0.684   5.133   4.061
 1397SOL    HW1 5090   0.783   5.137   4.070
 1397SOL    HW2 5091   0.659   5.099   3.970
 1398SOL     OW 5092   1.130   1.437   0.668
 1398SOL    HW1 5093   1.222   1.466   0.641
 1398SOL    HW2 5094   1.102   1.486   0.750
 1399SOL     OW 5095   3.714   0.462   0.739
 1399SOL    HW1 5096   3.757   0.376   0.714
 1399SOL    HW2 5097   3.665   0.451   0.826
 1400SOL     OW 5098   6.267   0.485   4.164
 1400SOL    HW1 5099   6.204   0.471   4.241
 1400SOL    HW2 5100   6.217   0.473   4.078
 1401SOL     OW 5101   5.799   0.069   3.152
 1401SOL    HW1 5102   5.826   0.136   3.082
 1401SOL    HW2 5103   5.859   0.077   3.231
 1402SOL     OW 5104   6.073   3.765   1.595
 1402SOL    HW1 5105   6.057   3.668   1.612
 1402SOL    HW2 5106   5.988   3.809   1.566
 1403SOL     OW 5107   3.585   2.945   0.235
 1403SOL    HW1 5108   3.611   2.851   0.210
 1403SOL    HW2 5109   3.638   2.974   0.314
 1404SOL     OW 5110   4.424   6.913   0.906
 1404SOL    HW1 5111   4.466   6.838   0.957
 1404SOL    HW2 5112   4.336   6.936   0.946
 1405SOL     OW 5113   2.489   3.152   1.209
 1405SOL    HW1 5114   2.411   3.096   1.235
 1405SOL    HW2 5115   2.574   3.103   1.230
 1406SOL     OW 5116   2.883   3.628   1.446
 1406SOL    HW1 5117   2.795   3.595   1.413
 1406SOL    HW2 5118   2.957   3.571   1.409
 1407SOL     OW 5119   0.404   3.391   1.198
 1407SOL    HW1 5120   0.441   3.418   1.109
 1407SOL    HW2 5121   0.424   3.462   1.265
 1408SOL     OW 5122   5.869   5.606   6.619
 1408SOL    HW1 5123   5.835   5.698   6.636
 1408SOL    HW2 5124   5.807   5.558   6.557
 1409SOL     OW 5125   0.162   1.239   5.780
 1409SOL    HW1 5126   0.201   1.209   5.867
 1409SOL    HW2 5127   0.184   1.171   5.710
 1410SOL     OW 5128   3.682   2.122   6.294
 1410SOL    HW1 5129   3.763   2.094   6.242
 1410SOL    HW2 5130   3.703   2.202   6.349
 1411SOL     OW 5131   4.094   5.916   0.573
 1411SOL    HW1 5132   4.138   6.006   0.576
 1411SOL    HW2 5133   4.024   5.916   0.502
 1412SOL     OW 5134   1.748   2.559   0.620
 1412SOL    HW1 5135   1.734   2.657   0.628
 1412SOL    HW2 5136   1.670   2.517   0.574
 1413SOL     OW 5137   1.775   1.717   4.700
 1413SOL    HW1 5138   1.696   1.759   4.745
 1413SOL    HW2 5139   1.746   1.677   4.613
 1414SOL     OW 5140   1.163   3.599   2.072
 1414SOL    HW1 5141   1.245   3.633   2.119
 1414SOL    HW2 5142   1.085   3.603   2.134
 1415SOL     OW 5143   1.923   1.829   3.820
 1415SOL    HW1 5144   1.999   1.775   3.784
 1415SOL    HW2 5145   1.960   1.901   3.880
 1416SOL     OW 5146   4.447   6.943   5.631
 1416SOL    HW1 5147   4.441   6.958   5.730
 1416SOL    HW2 5148   4.376   6.996   5.585
 1417SOL     OW 5149   3.904   2.928   5.973
 1417SOL    HW1 5150   3.808   2.956   5.970
 1417SOL    HW2 5151   3.942   2.929   5.881
 1418SOL     OW 5152   3.691   4.226   6.922
 1418SOL    HW1 5153   3.709   4.143   6.870
 1418SOL    HW2 5154   3.737   4.221   7.010
 1419SOL     OW 5155   2.115   4.693   3.428
 1419SOL    HW1 5156   2.023   4.720   3.457
 1419SOL    HW2 5157   2.118   4.594   3.413
 1420SOL     OW 5158   3.427   5.571   3.240
 1420SOL    HW1 5159   3.408   5.528   3.152
 1420SOL    HW2 5160   3.387   5.663   3.242
 1421SOL     OW 5161   1.606   5.554   5.972
 1421SOL    HW1 5162   1.520   5.587   6.011
 1421SOL    HW2 5163   1.674   5.545   6.045
 1422SOL     OW 5164   2.617   3.475   5.741
 1422SOL    HW1 5165   2.611   3.409   5.666
 1422SOL    HW2 5166   2.708   3.515   5.742
 1423SOL     OW 5167   4.651   1.205   4.820
 1423SOL    HW1 5168   4.668   1.140   4.894
 1423SOL    HW2 5169   4.738   1.228   4.775
 1424SOL     OW 5170   5.714   2.734   6.573
 1424SOL    HW1 5171   5.714   2.681   6.658
 1424SOL    HW2 5172   5.669   2.822   6.589
 1425SOL     OW 5173   4.239   6.462   3.834
 1425SOL    HW1 5174   4.243   6.513   3.921
 1425SOL    HW2 5175   4.147   6.467   3.797
 1426SOL     OW 5176   2.737   2.269   6.822
 1426SOL    HW1 5177   2.745   2.246   6.725
 1426SOL    HW2 5178   2.761   2.365   6.835
 1427SOL     OW 5179   1.368   1.328   3.374
 1427SOL    HW1 5180   1.334   1.288   3.460
 1427SOL    HW2 5181   1.461   1.295   3.356
 1428SOL     OW 5182   6.836   3.954   3.563
 1428SOL    HW1 5183   6.930   3.988   3.565
 1428SOL    HW2 5184   6.816   3.907   3.649
 1429SOL     OW 5185   5.769   1.041   0.770
 1429SOL    HW1 5186   5.769   1.000   0.861
 1429SOL    HW2 5187   5.791   0.971   0.701
 1430SOL     OW 5188   2.089   3.557   3.546
 1430SOL    HW1 5189   2.132   3.601   3.625
 1430SOL    HW2 5190   2.008   3.609   3.519
 1431SOL     OW 5191   2.186   1.691   5.435
 1431SOL    HW1 5192   2.130   1.774   5.439
 1431SOL    HW2 5193   2.169   1.644   5.349
 1432SOL     OW 5194   2.619   1.740   2.135
 1432SOL    HW1 5195   2.628   1.812   2.067
 1432SOL    HW2 5196   2.709   1.717   2.172
 1433SOL     OW 5197   3.071   0.293   4.317
 1433SOL    HW1 5198   3.048   0.198   4.337
 1433SOL    HW2 5199   3.168   0.300   4.292
 1434SOL     OW 5200   0.077   3.495   6.761
 1434SOL    HW1 5201   0.132   3.562   6.713
 1434SOL    HW2 5202   0.112   3.483   6.854
 1435SOL     OW 5203   0.980   6.875   4.889
 1435SOL    HW1 5204   1.067   6.922   4.905
 1435SOL    HW2 5205   0.996   6.789   4.842
 1436SOL     OW 5206   5.598   1.794   0.978
 1436SOL    HW1 5207   5.697   1.777   0.983
 1436SOL    HW2 5208   5.571   1.850   1.057
 1437SOL     OW 5209   4.629   0.362   5.788
 1437SOL    HW1 5210   4.721   0.388   5.756
 1437SOL    HW2 5211   4.628   0.362   5.888
 1438SOL     OW 5212   2.640   0.687   1.535
 1438SOL    HW1 5213   2.688   0.688   1.622
 1438SOL    HW2 5214   2.541   0.699   1.550
 1439SOL     OW 5215   6.963   4.983   6.808
 1439SOL    HW1 5216   6.951   4.891   6.846
 1439SOL    HW2 5217   6.944   4.982   6.710
 1440SOL     OW 5218   2.885   3.482   3.165
 1440SOL    HW1 5219   2.946   3.558   3.188
 1440SOL    HW2 5220   2.919   3.436   3.083
 1441SOL     OW 5221   0.007   2.487   3.442
 1441SOL    HW1 5222   6.978   2.569   3.456
 1441SOL    HW2 5223   0.072   2.477   3.517
 1442SOL     OW 5224   4.874   4.557   0.728
 1442SOL    HW1 5225   4.799   4.514   0.679
 1442SOL    HW2 5226   4.883   4.652   0.698
 1443SOL     OW 5227   1.022   1.914   3.444
 1443SOL    HW1 5228   1.085   1.954   3.377
 1443SOL    HW2 5229   0.963   1.986   3.480
 1444SOL     OW 5230   4.160   1.060   3.507
 1444SOL    HW1 5231   4.161   0.984   3.573
 1444SOL    HW2 5232   4.232   1.125   3.529
 1445SOL     OW 5233   6.370   2.854   2.020
 1445SOL    HW1 5234   6.304   2.925   1.996
 1445SOL    HW2 5235   6.439   2.847   1.948
 1446SOL     OW 5236   3.496   1.767   1.470
 1446SOL    HW1 5237   3.587   1.783   1.433
 1446SOL    HW2 5238   3.446   1.853   1.475
 1447SOL     OW 5239   6.476   1.078   4.854
 1447SOL    HW1 5240   6.401   1.042   4.909
 1447SOL    HW2 5241   6.479   1.031   4.766
 1448SOL     OW 5242   5.380   0.791   6.374
 1448SOL    HW1 5243   5.377   0.885   6.409
 1448SOL    HW2 5244   5.424   0.791   6.284
 1449SOL     OW 5245   4.886   5.537   1.193
 1449SOL    HW1 5246   4.972   5.556   1.146
 1449SOL    HW2 5247   4.885   5.585   1.282
 1450SOL     OW 5248   5.822   2.746   3.103
 1450SOL    HW1 5249   5.821   2.796   3.017
 1450SOL    HW2 5250   5.736   2.761   3.152
 1451SOL     OW 5251   1.605   6.534   2.574
 1451SOL    HW1 5252   1.619   6.582   2.660
 1451SOL    HW2 5253   1.572   6.442   2.592
 1452SOL     OW 5254   4.945   1.007   5.654
 1452SOL    HW1 5255   4.870   0.958   5.699
 1452SOL    HW2 5256   4.915   1.041   5.565
 1453SOL     OW 5257   5.281   4.681   5.084
 1453SOL    HW1 5258   5.195   4.672   5.134
 1453SOL    HW2 5259   5.332   4.760   5.119
 1454SOL     OW 5260   4.891   3.477   1.847
 1454SOL    HW1 5261   4.983   3.438   1.849
 1454SOL    HW2 5262   4.831   3.425   1.908
 1455SOL     OW 5263   1.372   2.116   1.766
 1455SOL    HW1 5264   1.421   2.184   1.819
 1455SOL    HW2 5265   1.393   2.127   1.669
 1456SOL     OW 5266   6.551   6.394   4.523
 1456SOL    HW1 5267   6.454   6.412   4.513
 1456SOL    HW2 5268   6.566   6.327   4.596
 1457SOL     OW 5269   1.798   0.594   3.354
 1457SOL    HW1 5270   1.848   0.574   3.269
 1457SOL    HW2 5271   1.714   0.539   3.357
 1458SOL     OW 5272   5.838   6.168   6.335
 1458SOL    HW1 5273   5.865   6.076   6.305
 1458SOL    HW2 5274   5.824   6.226   6.255
 1459SOL     OW 5275   2.285   6.378   6.837
 1459SOL    HW1 5276   2.311   6.383   6.933
 1459SOL    HW2 5277   2.367   6.371   6.780
 1460SOL     OW 5278   1.433   0.249   7.010
 1460SOL    HW1 5279   1.352   0.245   0.042
 1460SOL    HW2 5280   1.406   0.261   6.915
 1461SOL     OW 5281   5.602   4.384   2.546
 1461SOL    HW1 5282   5.654   4.322   2.486
 1461SOL    HW2 5283   5.532   4.432   2.491
 1462SOL     OW 5284   5.689   1.036   0.145
 1462SOL    HW1 5285   5.777   1.084   0.153
 1462SOL    HW2 5286   5.638   1.072   0.068
 1463SOL     OW 5287   1.245   1.220   5.019
 1463SOL    HW1 5288   1.194   1.150   4.969
 1463SOL    HW2 5289   1.341   1.219   4.990
 1464SOL     OW 5290   0.102   6.644   1.141
 1464SOL    HW1 5291   0.109   6.709   1.066
 1464SOL    HW2 5292   0.179   6.580   1.137
 1465SOL     OW 5293   0.270   0.026   4.816
 1465SOL    HW1 5294   0.286   0.091   4.890
 1465SOL    HW2 5295   0.228   0.074   4.739
 1466SOL     OW 5296   5.919   4.945   3.293
 1466SOL    HW1 5297   5.935   4.887   3.373
 1466SOL    HW2 5298   5.827   4.929   3.258
 1467SOL     OW 5299   0.694   1.716   3.845
 1467SOL    HW1 5300   0.750   1.665   3.780
 1467SOL    HW2 5301   0.655   1.796   3.800
 1468SOL     OW 5302   5.591   5.715   3.191
 1468SOL    HW1 5303   5.668   5.705   3.254
 1468SOL    HW2 5304   5.552   5.807   3.200
 1469SOL     OW 5305   0.695   1.503   2.168
 1469SOL    HW1 5306   0.746   1.425   2.132
 1469SOL    HW2 5307   0.727   1.523   2.261
 1470SOL     OW 5308   1.237   1.167   2.820
 1470SOL    HW1 5309   1.185   1.205   2.896
 1470SOL    HW2 5310   1.233   1.230   2.742
 1471SOL     OW 5311   0.810   0.160   0.120
 1471SOL    HW1 5312   0.849   0.149   0.212
 1471SOL    HW2 5313   0.714   0.185   0.127
 1472SOL     OW 5314   4.851   0.264   5.977
 1472SOL    HW1 5315   4.875   0.360   5.995
 1472SOL    HW2 5316   4.925   0.220   5.927
 1473SOL     OW 5317   6.100   3.840   3.345
 1473SOL    HW1 5318   6.198   3.819   3.340
 1473SOL    HW2 5319   6.048   3.764   3.306
 1474SOL     OW 5320   5.437   5.501   4.345
 1474SOL    HW1 5321   5.415   5.425   4.283
 1474SOL    HW2 5322   5.405   5.587   4.306
 1475SOL     OW 5323   6.933   1.048   2.624
 1475SOL    HW1 5324   6.941   0.971   2.687
 1475SOL    HW2 5325   6.988   1.030   2.542
 1476SOL     OW 5326   0.190   2.192   1.844
 1476SOL    HW1 5327   0.210   2.161   1.937
 1476SOL    HW2 5328   0.271   2.235   1.805
 1477SOL     OW 5329   2.911   6.016   5.123
 1477SOL    HW1 5330   2.885   6.094   5.179
 1477SOL    HW2 5331   2.829   5.973   5.085
 1478SOL     OW 5332   6.172   4.681   0.473
 1478SOL    HW1 5333   6.103   4.656   0.542
 1478SOL    HW2 5334   6.209   4.598   0.432
 1479SOL     OW 5335   1.850   4.716   0.445
 1479SOL    HW1 5336   1.781   4.694   0.377
 1479SOL    HW2 5337   1.907   4.792   0.411
 1480SOL     OW 5338   2.716   1.400   0.641
 1480SOL    HW1 5339   2.679   1.465   0.575
 1480SOL    HW2 5340   2.802   1.363   0.607
 1481SOL     OW 5341   5.721   2.171   6.048
 1481SOL    HW1 5342   5.692   2.254   6.096
 1481SOL    HW2 5343   5.797   2.194   5.987
 1482SOL     OW 5344   5.946   0.289   6.741
 1482SOL    HW1 5345   6.035   0.245   6.754
 1482SOL    HW2 5346   5.960   0.382   6.708
 1483SOL     OW 5347   5.857   1.928   0.562
 1483SOL    HW1 5348   5.795   1.930   0.484
 1483SOL    HW2 5349   5.920   2.005   0.556
 1484SOL     OW 5350   6.732   5.429   3.241
 1484SOL    HW1 5351   6.709   5.473   3.155
 1484SOL    HW2 5352   6.831   5.413   3.244
 1485SOL     OW 5353   5.316   2.717   3.969
 1485SOL    HW1 5354   5.371   2.724   3.886
 1485SOL    HW2 5355   5.338   2.793   4.030
 1486SOL     OW 5356   4.277   1.728   2.501
 1486SOL    HW1 5357   4.236   1.730   2.410
 1486SOL    HW2 5358   4.353   1.663   2.502
 1487SOL     OW 5359   6.424   0.977   5.267
 1487SOL    HW1 5360   6.514   1.020   5.256
 1487SOL    HW2 5361   6.389   0.998   5.359
 1488SOL     OW 5362   4.714   1.235   2.641
 1488SOL    HW1 5363   4.649   1.279   2.703
 1488SOL    HW2 5364   4.678   1.145   2.616
 1489SOL     OW 5365   3.348   5.173   4.944
 1489SOL    HW1 5366   3.306   5.146   5.030
 1489SOL    HW2 5367   3.287   5.148   4.868
 1490SOL     OW 5368   1.510   2.836   0.420
 1490SOL    HW1 5369   1.476   2.798   0.506
 1490SOL    HW2 5370   1.497   2.935   0.419
 1491SOL     OW 5371   6.922   2.688   3.597
 1491SOL    HW1 5372   6.849   2.756   3.607
 1491SOL    HW2 5373   7.011   2.732   3.607
 1492SOL     OW 5374   5.116   1.974   1.398
 1492SOL    HW1 5375   5.024   1.988   1.361
 1492SOL    HW2 5376   5.110   1.963   1.497
 1493SOL     OW 5377   5.122   0.116   5.265
 1493SOL    HW1 5378   5.096   0.026   5.299
 1493SOL    HW2 5379   5.044   0.179   5.272
 1494SOL     OW 5380   4.247   2.270   5.668
 1494SOL    HW1 5381   4.297   2.346   5.711
 1494SOL    HW2 5382   4.290   2.184   5.695
 1495SOL     OW 5383   1.064   3.152   2.588
 1495SOL    HW1 5384   0.977   3.110   2.614
 1495SOL    HW2 5385   1.059   3.251   2.602
 1496SOL     OW 5386   0.516   0.023   2.579
 1496SOL    HW1 5387   0.481   0.116   2.581
 1496SOL    HW2 5388   0.614   0.024   2.559
 1497SOL     OW 5389   6.685   4.747   4.259
 1497SOL    HW1 5390   6.726   4.657   4.270
 1497SOL    HW2 5391   6.730   4.812   4.321
 1498SOL     OW 5392   2.440   5.333   6.853
 1498SOL    HW1 5393   2.485   5.269   6.916
 1498SOL    HW2 5394   2.428   5.421   6.897
 1499SOL     OW 5395   1.458   3.720   5.324
 1499SOL    HW1 5396   1.475   3.674   5.411
 1499SOL    HW2 5397   1.457   3.819   5.339
 1500SOL     OW 5398   4.996   6.715   0.129
 1500SOL    HW1 5399   4.916   6.711   0.068
 1500SOL    HW2 5400   4.966   6.732   0.223
 1501SOL     OW 5401   3.839   6.956   6.128
 1501SOL    HW1 5402   3.800   7.025   6.188
 1501SOL    HW2 5403   3.938   6.966   6.125
 1502SOL     OW 5404   6.371   6.515   0.531
 1502SOL    HW1 5405   6.405   6.475   0.616
 1502SOL    HW2 5406   6.399   6.610   0.525
 1503SOL     OW 5407   3.312   3.103   6.400
 1503SOL    HW1 5408   3.295   3.011   6.434
 1503SOL    HW2 5409   3.227   3.155   6.399
 1504SOL     OW 5410   3.462   6.763   4.832
 1504SOL    HW1 5411   3.469   6.804   4.741
 1504SOL    HW2 5412   3.367   6.740   4.851
 1505SOL     OW 5413   5.797   5.887   5.984
 1505SOL    HW1 5414   5.871   5.822   5.966
 1505SOL    HW2 5415   5.753   5.913   5.899
 1506SOL     OW 5416   0.966   5.692   4.382
 1506SOL    HW1 5417   1.028   5.756   4.336
 1506SOL    HW2 5418   0.881   5.685   4.329
 1507SOL     OW 5419   1.965   1.631   4.933
 1507SOL    HW1 5420   1.872   1.647   4.968
 1507SOL    HW2 5421   1.960   1.574   4.851
 1508SOL     OW 5422   4.827   6.701   0.893
 1508SOL    HW1 5423   4.752   6.724   0.955
 1508SOL    HW2 5424   4.874   6.785   0.865
 1509SOL     OW 5425   4.230   3.105   0.114
 1509SOL    HW1 5426   4.135   3.102   0.147
 1509SOL    HW2 5427   4.243   3.188   0.060
 1510SOL     OW 5428   6.970   1.779   3.894
 1510SOL    HW1 5429   6.933   1.860   3.849
 1510SOL    HW2 5430   6.907   1.748   3.965
 1511SOL     OW 5431   2.479   2.752   0.475
 1511SOL    HW1 5432   2.447   2.662   0.507
 1511SOL    HW2 5433   2.453   2.822   0.541
 1512SOL     OW 5434   0.174   1.166   1.580
 1512SOL    HW1 5435   0.112   1.175   1.502
 1512SOL    HW2 5436   0.122   1.146   1.663
 1513SOL     OW 5437   3.737   0.171   3.615
 1513SOL    HW1 5438   3.683   0.100   3.661
 1513SOL    HW2 5439   3.682   0.254   3.608
 1514SOL     OW 5440   6.358   1.511   4.760
 1514SOL    HW1 5441   6.263   1.484   4.746
 1514SOL    HW2 5442   6.418   1.453   4.705
 1515SOL     OW 5443   6.919   4.874   4.680
 1515SOL    HW1 5444   6.925   4.942   4.754
 1515SOL    HW2 5445   6.966   4.791   4.708
 1516SOL     OW 5446   0.642   1.526   0.871
 1516SOL    HW1 5447   0.725   1.582   0.863
 1516SOL    HW2 5448   0.586   1.537   0.789
 1517SOL     OW 5449   4.745   5.712   3.155
 1517SOL    HW1 5450   4.816   5.685   3.220
 1517SOL    HW2 5451   4.662   5.738   3.205
 1518SOL     OW 5452   7.014   4.432   1.002
 1518SOL    HW1 5453   6.968   4.493   1.066
 1518SOL    HW2 5454   0.043   4.485   0.938
 1519SOL     OW 5455   6.027   4.160   0.404
 1519SOL    HW1 5456   5.988   4.081   0.358
 1519SOL    HW2 5457   6.027   4.239   0.343
 1520SOL     OW 5458   1.923   3.998   2.724
 1520SOL    HW1 5459   1.972   3.939   2.788
 1520SOL    HW2 5460   1.857   3.944   2.672
 1521SOL     OW 5461   2.361   3.276   6.619
 1521SOL    HW1 5462   2.406   3.366   6.621
 1521SOL    HW2 5463   2.290   3.276   6.549
 1522SOL     OW 5464   6.075   1.918   6.665
 1522SOL    HW1 5465   5.988   1.901   6.710
 1522SOL    HW2 5466   6.081   2.014   6.638
 1523SOL     OW 5467   6.448   2.624   1.458
 1523SOL    HW1 5468   6.547   2.613   1.466
 1523SOL    HW2 5469   6.405   2.535   1.444
 1524SOL     OW 5470   6.854   1.044   1.832
 1524SOL    HW1 5471   6.833   1.008   1.741
 1524SOL    HW2 5472   6.952   1.060   1.839
 1525SOL     OW 5473   4.528   1.905   6.049
 1525SOL    HW1 5474   4.487   1.981   5.998
 1525SOL    HW2 5475   4.468   1.881   6.125
 1526SOL     OW 5476   6.996   2.632   1.782
 1526SOL    HW1 5477   6.943   2.718   1.788
 1526SOL    HW2 5478   7.010   2.595   1.874
 1527SOL     OW 5479   3.379   2.075   5.472
 1527SOL    HW1 5480   3.426   2.163   5.486
 1527SOL    HW2 5481   3.439   2.012   5.424
 1528SOL     OW 5482   4.711   6.080   3.508
 1528SOL    HW1 5483   4.694   6.016   3.434
 1528SOL    HW2 5484   4.731   6.171   3.469
 1529SOL     OW 5485   3.375   0.027   6.149
 1529SOL    HW1 5486   3.330   0.115   6.133
 1529SOL    HW2 5487   3.394   7.009   6.062
 1530SOL     OW 5488   3.347   6.483   2.267
 1530SOL    HW1 5489   3.311   6.459   2.176
 1530SOL    HW2 5490   3.306   6.423   2.336
 1531SOL     OW 5491   6.141   6.973   4.552
 1531SOL    HW1 5492   6.213   6.943   4.614
 1531SOL    HW2 5493   6.052   6.941   4.586
 1532SOL     OW 5494   3.112   2.173   5.395
 1532SOL    HW1 5495   3.190   2.119   5.425
 1532SOL    HW2 5496   3.139   2.232   5.319
 1533SOL     OW 5497   6.445   3.004   6.660
 1533SOL    HW1 5498   6.526   3.006   6.719
 1533SOL    HW2 5499   6.377   3.067   6.696
 1534SOL     OW 5500   0.637   6.156   1.044
 1534SOL    HW1 5501   0.667   6.241   1.088
 1534SOL    HW2 5502   0.694   6.081   1.076
 1535SOL     OW 5503   4.453   4.470   4.191
 1535SOL    HW1 5504   4.448   4.566   4.166
 1535SOL    HW2 5505   4.383   4.419   4.140
 1536SOL     OW 5506   2.681   5.654   4.931
 1536SOL    HW1 5507   2.645   5.565   4.959
 1536SOL    HW2 5508   2.777   5.661   4.958
 1537SOL     OW 5509   1.500   5.397   4.844
 1537SOL    HW1 5510   1.565   5.354   4.906
 1537SOL    HW2 5511   1.543   5.410   4.755
 1538SOL     OW 5512   2.623   5.015   6.750
 1538SOL    HW1 5513   2.608   5.061   6.663
 1538SOL    HW2 5514   2.597   5.075   6.825
 1539SOL     OW 5515   3.778   4.605   1.664
 1539SOL    HW1 5516   3.780   4.684   1.603
 1539SOL    HW2 5517   3.722   4.627   1.744
 1540SOL     OW 5518   0.892   0.204   5.050
 1540SOL    HW1 5519   0.817   0.138   5.059
 1540SOL    HW2 5520   0.853   0.295   5.037
 1541SOL     OW 5521   4.877   2.763   1.208
 1541SOL    HW1 5522   4.914   2.736   1.297
 1541SOL    HW2 5523   4.847   2.858   1.212
 1542SOL     OW 5524   0.417   6.710   1.282
 1542SOL    HW1 5525   0.515   6.728   1.289
 1542SOL    HW2 5526   0.373   6.731   1.369
 1543SOL     OW 5527   3.587   3.966   4.041
 1543SOL    HW1 5528   3.527   4.029   4.092
 1543SOL    HW2 5529   3.550   3.952   3.949
 1544SOL     OW 5530   3.179   4.077   2.849
 1544SOL    HW1 5531   3.189   4.044   2.943
 1544SOL    HW2 5532   3.171   4.177   2.849
 1545SOL     OW 5533   5.990   0.331   4.668
 1545SOL    HW1 5534   6.085   0.312   4.644
 1545SOL    HW2 5535   5.934   0.331   4.586
 1546SOL     OW 5536   6.414   6.058   6.121
 1546SOL    HW1 5537   6.504   6.015   6.113
 1546SOL    HW2 5538   6.375   6.038   6.210
 1547SOL     OW 5539   2.893   5.696   2.528
 1547SOL    HW1 5540   2.932   5.784   2.553
 1547SOL    HW2 5541   2.963   5.641   2.481
 1548SOL     OW 5542   4.966   4.364   4.789
 1548SOL    HW1 5543   4.917   4.378   4.703
 1548SOL    HW2 5544   4.982   4.452   4.833
 1549SOL     OW 5545   6.809   2.438   1.545
 1549SOL    HW1 5546   6.840   2.365   1.485
 1549SOL    HW2 5547   6.821   2.526   1.499
 1550SOL     OW 5548   1.558   5.999   4.407
 1550SOL    HW1 5549   1.618   6.031   4.333
 1550SOL    HW2 5550   1.590   5.911   4.440
 1551SOL     OW 5551   2.064   2.901   0.864
 1551SOL    HW1 5552   1.988   2.965   0.879
 1551SOL    HW2 5553   2.134   2.917   0.934
 1552SOL     OW 5554   1.459   0.805   1.011
 1552SOL    HW1 5555   1.374   0.821   0.961
 1552SOL    HW2 5556   1.476   0.707   1.016
 1553SOL     OW 5557   6.110   1.746   6.422
 1553SOL    HW1 5558   6.147   1.667   6.471
 1553SOL    HW2 5559   6.105   1.825   6.483
 1554SOL     OW 5560   3.833   1.770   1.886
 1554SOL    HW1 5561   3.824   1.865   1.855
 1554SOL    HW2 5562   3.855   1.712   1.808
 1555SOL     OW 5563   3.516   1.376   5.616
 1555SOL    HW1 5564   3.530   1.371   5.517
 1555SOL    HW2 5565   3.494   1.470   5.641
 1556SOL     OW 5566   3.729   0.728   0.745
 1556SOL    HW1 5567   3.706   0.630   0.751
 1556SOL    HW2 5568   3.827   0.740   0.760
 1557SOL     OW 5569   1.790   2.340   1.172
 1557SOL    HW1 5570   1.857   2.367   1.103
 1557SOL    HW2 5571   1.698   2.348   1.134
 1558SOL     OW 5572   6.072   3.555   5.701
 1558SOL    HW1 5573   5.998   3.622   5.705
 1558SOL    HW2 5574   6.160   3.602   5.707
 1559SOL     OW 5575   1.718   4.622   3.225
 1559SOL    HW1 5576   1.748   4.655   3.136
 1559SOL    HW2 5577   1.624   4.652   3.242
 1560SOL     OW 5578   3.767   1.431   1.613
 1560SOL    HW1 5579   3.716   1.358   1.568
 1560SOL    HW2 5580   3.706   1.480   1.675
 1561SOL     OW 5581   5.745   5.693   1.804
 1561SOL    HW1 5582   5.654   5.652   1.801
 1561SOL    HW2 5583   5.760   5.747   1.721
 1562SOL     OW 5584   3.604   6.646   2.266
 1562SOL    HW1 5585   3.509   6.619   2.247
 1562SOL    HW2 5586   3.610   6.682   2.359
 1563SOL     OW 5587   4.002   2.111   4.200
 1563SOL    HW1 5588   3.948   2.035   4.165
 1563SOL    HW2 5589   4.041   2.163   4.124
 1564SOL     OW 5590   1.078   2.130   2.193
 1564SOL    HW1 5591   1.105   2.189   2.268
 1564SOL    HW2 5592   1.012   2.062   2.226
 1565SOL     OW 5593   3.767   0.551   3.997
 1565SOL    HW1 5594   3.837   0.487   4.028
 1565SOL    HW2 5595   3.783   0.576   3.902
 1566SOL     OW 5596   4.744   4.298   2.844
 1566SOL    HW1 5597   4.795   4.213   2.851
 1566SOL    HW2 5598   4.771   4.347   2.761
 1567SOL     OW 5599   5.284   6.416   5.273
 1567SOL    HW1 5600   5.231   6.358   5.211
 1567SOL    HW2 5601   5.355   6.362   5.317
 1568SOL     OW 5602   1.914   6.501   3.163
 1568SOL    HW1 5603   1.949   6.500   3.069
 1568SOL    HW2 5604   1.936   6.588   3.206
 1569SOL     OW 5605   2.375   0.286   3.543
 1569SOL    HW1 5606   2.395   0.383   3.534
 1569SOL    HW2 5607   2.331   0.253   3.459
 1570SOL     OW 5608   3.512   6.843   0.220
 1570SOL    HW1 5609   3.555   6.761   0.259
 1570SOL    HW2 5610   3.522   6.842   0.121
 1571SOL     OW 5611   0.862   2.164   3.851
 1571SOL    HW1 5612   0.905   2.253   3.838
 1571SOL    HW2 5613   0.918   2.108   3.913
 1572SOL     OW 5614   1.574   4.798   1.974
 1572SOL    HW1 5615   1.588   4.757   1.884
 1572SOL    HW2 5616   1.482   4.838   1.978
 1573SOL     OW 5617   4.883   4.927   1.036
 1573SOL    HW1 5618   4.939   4.920   0.953
 1573SOL    HW2 5619   4.936   4.892   1.113
 1574SOL     OW 5620   6.836   3.598   2.675
 1574SOL    HW1 5621   6.826   3.508   2.631
 1574SOL    HW2 5622   6.933   3.620   2.684
 1575SOL     OW 5623   0.605   1.093   0.706
 1575SOL    HW1 5624   0.682   1.078   0.767
 1575SOL    HW2 5625   0.607   1.025   0.633
 1576SOL     OW 5626   0.329   6.717   2.185
 1576SOL    HW1 5627   0.334   6.787   2.256
 1576SOL    HW2 5628   0.397   6.646   2.204
 1577SOL     OW 5629   4.097   0.010   6.148
 1577SOL    HW1 5630   4.143   0.076   6.089
 1577SOL    HW2 5631   4.161   7.004   6.218
 1578SOL     OW 5632   4.780   0.624   0.556
 1578SOL    HW1 5633   4.784   0.722   0.536
 1578SOL    HW2 5634   4.787   0.610   0.654
 1579SOL     OW 5635   1.976   2.821   1.580
 1579SOL    HW1 5636   1.949   2.726   1.595
 1579SOL    HW2 5637   2.071   2.824   1.549
 1580SOL     OW 5638   3.587   3.983   2.986
 1580SOL    HW1 5639   3.650   3.922   2.938
 1580SOL    HW2 5640   3.520   4.020   2.922
 1581SOL     OW 5641   0.170   4.189   6.195
 1581SOL    HW1 5642   0.184   4.225   6.103
 1581SOL    HW2 5643   0.111   4.252   6.246
 1582SOL     OW 5644   4.692   6.411   6.410
 1582SOL    HW1 5645   4.664   6.350   6.484
 1582SOL    HW2 5646   4.780   6.452   6.432
 1583SOL     OW 5647   1.194   5.738   5.490
 1583SOL    HW1 5648   1.250   5.755   5.409
 1583SOL    HW2 5649   1.235   5.665   5.544
 1584SOL     OW 5650   0.827   5.143   6.569
 1584SOL    HW1 5651   0.732   5.164   6.546
 1584SOL    HW2 5652   0.833   5.048   6.598
 1585SOL     OW 5653   4.160   0.009   3.170
 1585SOL    HW1 5654   4.085   6.993   3.220
 1585SOL    HW2 5655   4.133   0.025   3.075
 1586SOL     OW 5656   3.010   5.736   4.250
 1586SOL    HW1 5657   2.994   5.677   4.329
 1586SOL    HW2 5658   2.954   5.705   4.174
 1587SOL     OW 5659   2.244   5.779   6.473
 1587SOL    HW1 5660   2.271   5.875   6.460
 1587SOL    HW2 5661   2.194   5.747   6.393
 1588SOL     OW 5662   6.166   0.073   2.762
 1588SOL    HW1 5663   6.248   0.051   2.709
 1588SOL    HW2 5664   6.134   0.164   2.737
 1589SOL     OW 5665   6.750   4.162   2.714
 1589SOL    HW1 5666   6.735   4.186   2.810
 1589SOL    HW2 5667   6.698   4.079   2.693
 1590SOL     OW 5668   6.813   1.584   3.102
 1590SOL    HW1 5669   6.877   1.521   3.057
 1590SOL    HW2 5670   6.740   1.608   3.037
 1591SOL     OW 5671   0.827   6.086   1.627
 1591SOL    HW1 5672   0.731   6.072   1.650
 1591SOL    HW2 5673   0.857   6.175   1.662
 1592SOL     OW 5674   1.503   4.060   0.270
 1592SOL    HW1 5675   1.489   4.094   0.177
 1592SOL    HW2 5676   1.463   4.124   0.335
 1593SOL     OW 5677   0.818   0.353   6.552
 1593SOL    HW1 5678   0.916   0.370   6.548
 1593SOL    HW2 5679   0.802   0.262   6.591
 1594SOL     OW 5680   6.506   0.230   1.540
 1594SOL    HW1 5681   6.520   0.145   1.591
 1594SOL    HW2 5682   6.513   0.308   1.603
 1595SOL     OW 5683   1.468   4.165   0.027
 1595SOL    HW1 5684   1.396   4.210   7.000
 1595SOL    HW2 5685   1.548   4.225   0.033
 1596SOL     OW 5686   5.881   4.463   2.316
 1596SOL    HW1 5687   5.974   4.461   2.279
 1596SOL    HW2 5688   5.856   4.372   2.348
 1597SOL     OW 5689   3.379   6.455   0.768
 1597SOL    HW1 5690   3.333   6.463   0.856
 1597SOL    HW2 5691   3.377   6.360   0.738
 1598SOL     OW 5692   1.659   5.607   6.964
 1598SOL    HW1 5693   1.597   5.588   6.888
 1598SOL    HW2 5694   1.702   5.521   6.993
 1599SOL     OW 5695   4.161   5.069   4.047
 1599SOL    HW1 5696   4.131   5.013   3.969
 1599SOL    HW2 5697   4.147   5.018   4.132
 1600SOL     OW 5698   3.442   6.916   2.872
 1600SOL    HW1 5699   3.419   6.942   2.778
 1600SOL    HW2 5700   3.536   6.945   2.892
 1601SOL     OW 5701   5.923   6.518   4.053
 1601SOL    HW1 5702   5.848   6.454   4.066
 1601SOL    HW2 5703   5.956   6.513   3.959
 1602SOL     OW 5704   4.205   5.156   3.575
 1602SOL    HW1 5705   4.277   5.131   3.640
 1602SOL    HW2 5706   4.127   5.193   3.625
 1603SOL     OW 5707   2.708   6.340   4.021
 1603SOL    HW1 5708   2.727   6.379   4.112
 1603SOL    HW2 5709   2.793   6.338   3.968
 1604SOL     OW 5710   3.905   4.846   2.154
 1604SOL    HW1 5711   3.832   4.800   2.104
 1604SOL    HW2 5712   3.888   4.840   2.252
 1605SOL     OW 5713   4.615   4.851   1.564
 1605SOL    HW1 5714   4.596   4.761   1.603
 1605SOL    HW2 5715   4.668   4.840   1.480
 1606SOL     OW 5716   4.196   6.139   4.711
 1606SOL    HW1 5717   4.218   6.131   4.614
 1606SOL    HW2 5718   4.198   6.236   4.737
 1607SOL     OW 5719   4.800   5.987   3.222
 1607SOL    HW1 5720   4.794   5.901   3.171
 1607SOL    HW2 5721   4.896   6.007   3.242
 1608SOL     OW 5722   6.570   0.421   2.846
 1608SOL    HW1 5723   6.543   0.326   2.860
 1608SOL    HW2 5724   6.543   0.475   2.926
 1609SOL     OW 5725   2.945   6.643   0.952
 1609SOL    HW1 5726   2.939   6.583   0.872
 1609SOL    HW2 5727   2.963   6.587   1.033
 1610SOL     OW 5728   4.546   6.975   0.184
 1610SOL    HW1 5729   4.556   7.025   0.270
 1610SOL    HW2 5730   4.476   7.019   0.128
 1611SOL     OW 5731   0.814   4.008   1.333
 1611SOL    HW1 5732   0.878   4.078   1.365
 1611SOL    HW2 5733   0.720   4.042   1.342
 1612SOL     OW 5734   3.317   6.316   1.138
 1612SOL    HW1 5735   3.403   6.289   1.180
 1612SOL    HW2 5736   3.262   6.235   1.118
 1613SOL     OW 5737   0.139   5.854   2.681
 1613SOL    HW1 5738   0.120   5.804   2.596
 1613SOL    HW2 5739   0.235   5.879   2.685
 1614SOL     OW 5740   5.784   2.721   6.984
 1614SOL    HW1 5741   5.789   2.665   6.902
 1614SOL    HW2 5742   5.741   2.668   0.032
 1615SOL     OW 5743   0.440   4.971   6.409
 1615SOL    HW1 5744   0.372   4.930   6.347
 1615SOL    HW2 5745   0.522   4.913   6.411
 1616SOL     OW 5746   2.570   1.345   4.851
 1616SOL    HW1 5747   2.553   1.440   4.824
 1616SOL    HW2 5748   2.647   1.342   4.915
 1617SOL     OW 5749   4.796   6.542   3.568
 1617SOL    HW1 5750   4.764   6.578   3.656
 1617SOL    HW2 5751   4.888   6.505   3.578
 1618SOL     OW 5752   2.529   6.228   3.231
 1618SOL    HW1 5753   2.465   6.161   3.268
 1618SOL    HW2 5754   2.598   6.182   3.175
 1619SOL     OW 5755   0.890   5.198   6.920
 1619SOL    HW1 5756   0.815   5.137   6.892
 1619SOL    HW2 5757   0.866   5.242   7.007
 1620SOL     OW 5758   3.411   5.248   0.912
 1620SOL    HW1 5759   3.443   5.155   0.928
 1620SOL    HW2 5760   3.460   5.287   0.834
 1621SOL     OW 5761   6.020   6.449   1.166
 1621SOL    HW1 5762   6.007   6.473   1.262
 1621SOL    HW2 5763   6.012   6.350   1.155
 1622SOL     OW 5764   0.967   3.801   4.810
 1622SOL    HW1 5765   1.033   3.790   4.885
 1622SOL    HW2 5766   0.889   3.855   4.842
 1623SOL     OW 5767   0.557   2.044   4.627
 1623SOL    HW1 5768   0.486   2.065   4.559
 1623SOL    HW2 5769   0.647   2.062   4.589
 1624SOL     OW 5770   4.219   1.361   0.834
 1624SOL    HW1 5771   4.231   1.380   0.931
 1624SOL    HW2 5772   4.307   1.341   0.792
 1625SOL     OW 5773   2.196   5.083   0.796
 1625SOL    HW1 5774   2.232   4.997   0.832
 1625SOL    HW2 5775   2.096   5.080   0.797
 1626SOL     OW 5776   3.184   2.116   1.369
 1626SOL    HW1 5777   3.189   2.136   1.271
 1626SOL    HW2 5778   3.089   2.095   1.394
 1627SOL     OW 5779   4.649   2.605   3.812
 1627SOL    HW1 5780   4.672   2.666   3.736
 1627SOL    HW2 5781   4.720   2.535   3.822
 1628SOL     OW 5782   5.168   5.858   6.577
 1628SOL    HW1 5783   5.213   5.821   6.659
 1628SOL    HW2 5784   5.237   5.880   6.508
 1629SOL     OW 5785   2.611   1.884   2.700
 1629SOL    HW1 5786   2.659   1.826   2.634
 1629SOL    HW2 5787   2.581   1.968   2.655
 1630SOL     OW 5788   0.593   4.343   0.351
 1630SOL    HW1 5789   0.545   4.430   0.341
 1630SOL    HW2 5790   0.606   4.302   0.260
 1631SOL     OW 5791   0.474   3.590   0.645
 1631SOL    HW1 5792   0.447   3.632   0.559
 1631SOL    HW2 5793   0.569   3.558   0.638
 1632SOL     OW 5794   6.133   4.291   2.381
 1632SOL    HW1 5795   6.215   4.234   2.380
 1632SOL    HW2 5796   6.154   4.380   2.343
 1633SOL     OW 5797   4.964   3.480   3.974
 1633SOL    HW1 5798   4.982   3.448   4.067
 1633SOL    HW2 5799   5.041   3.457   3.915
 1634SOL     OW 5800   4.938   0.711   4.665
 1634SOL    HW1 5801   4.871   0.637   4.664
 1634SOL    HW2 5802   5.014   0.687   4.604
 1635SOL     OW 5803   3.760   5.398   5.240
 1635SOL    HW1 5804   3.854   5.369   5.221
 1635SOL    HW2 5805   3.699   5.319   5.233
 1636SOL     OW 5806   5.052   5.819   1.461
 1636SOL    HW1 5807   5.036   5.793   1.557
 1636SOL    HW2 5808   4.970   5.800   1.408
 1637SOL     OW 5809   0.072   6.933   2.269
 1637SOL    HW1 5810   0.003   7.004   2.277
 1637SOL    HW2 5811   0.152   6.970   2.221
 1638SOL     OW 5812   6.662   3.359   1.750
 1638SOL    HW1 5813   6.567   3.328   1.746
 1638SOL    HW2 5814   6.669   3.448   1.705
 1639SOL     OW 5815   5.371   3.607   2.283
 1639SOL    HW1 5816   5.313   3.657   2.219
 1639SOL    HW2 5817   5.361   3.509   2.268
 1640SOL     OW 5818   6.331   0.350   0.714
 1640SOL    HW1 5819   6.292   0.268   0.756
 1640SOL    HW2 5820   6.368   0.410   0.785
 1641SOL     OW 5821   0.129   2.231   2.844
 1641SOL    HW1 5822   0.059   2.257   2.910
 1641SOL    HW2 5823   0.131   2.298   2.769
 1642SOL     OW 5824   5.312   2.656   5.664
 1642SOL    HW1 5825   5.381   2.729   5.668
 1642SOL    HW2 5826   5.237   2.678   5.726
 1643SOL     OW 5827   3.535   5.386   4.406
 1643SOL    HW1 5828   3.568   5.325   4.334
 1643SOL    HW2 5829   3.483   5.333   4.473
 1644SOL     OW 5830   5.957   3.090   0.431
 1644SOL    HW1 5831   5.936   3.010   0.488
 1644SOL    HW2 5832   5.873   3.143   0.417
 1645SOL     OW 5833   2.752   1.050   5.883
 1645SOL    HW1 5834   2.732   1.087   5.974
 1645SOL    HW2 5835   2.694   1.096   5.815
 1646SOL     OW 5836   0.832   5.347   0.634
 1646SOL    HW1 5837   0.924   5.383   0.647
 1646SOL    HW2 5838   0.831   5.284   0.557
 1647SOL     OW 5839   6.324   2.565   4.517
 1647SOL    HW1 5840   6.375   2.551   4.602
 1647SOL    HW2 5841   6.322   2.662   4.496
 1648SOL     OW 5842   5.420   6.123   0.812
 1648SOL    HW1 5843   5.515   6.152   0.805
 1648SOL    HW2 5844   5.363   6.181   0.754
 1649SOL     OW 5845   2.943   0.686   3.275
 1649SOL    HW1 5846   2.952   0.742   3.358
 1649SOL    HW2 5847   2.847   0.679   3.251
 1650SOL     OW 5848   2.696   5.488   6.626
 1650SOL    HW1 5849   2.682   5.574   6.578
 1650SOL    HW2 5850   2.792   5.461   6.620
 1651SOL     OW 5851   0.850   2.894   3.905
 1651SOL    HW1 5852   0.751   2.884   3.893
 1651SOL    HW2 5853   0.871   2.897   4.002
 1652SOL     OW 5854   0.833   2.904   1.429
 1652SOL    HW1 5855   0.869   2.987   1.473
 1652SOL    HW2 5856   0.787   2.848   1.498
 1653SOL     OW 5857   6.740   5.271   2.545
 1653SOL    HW1 5858   6.667   5.204   2.563
 1653SOL    HW2 5859   6.704   5.363   2.558
 1654SOL     OW 5860   0.630   3.179   2.222
 1654SOL    HW1 5861   0.647   3.129   2.137
 1654SOL    HW2 5862   0.637   3.117   2.300
 1655SOL     OW 5863   6.898   0.754   4.588
 1655SOL    HW1 5864   6.802   0.780   4.596
 1655SOL    HW2 5865   6.905   0.654   4.582
 1656SOL     OW 5866   1.953   5.638   4.504
 1656SOL    HW1 5867   2.049   5.666   4.500
 1656SOL    HW2 5868   1.922   5.615   4.412
 1657SOL     OW 5869   7.014   0.569   5.621
 1657SOL    HW1 5870   6.973   0.554   5.711
 1657SOL    HW2 5871   6.992   0.492   5.561
 1658SOL     OW 5872   6.737   6.948   0.494
 1658SOL    HW1 5873   6.718   0.020   0.493
 1658SOL    HW2 5874   6.835   6.933   0.507
 1659SOL     OW 5875   4.183   6.821   6.573
 1659SOL    HW1 5876   4.125   6.742   6.552
 1659SOL    HW2 5877   4.128   6.904   6.575
 1660SOL     OW 5878   1.544   6.666   2.075
 1660SOL    HW1 5879   1.609   6.591   2.084
 1660SOL    HW2 5880   1.573   6.727   2.000
 1661SOL     OW 5881   3.500   5.177   2.739
 1661SOL    HW1 5882   3.417   5.121   2.743
 1661SOL    HW2 5883   3.580   5.120   2.754
 1662SOL     OW 5884   6.838   1.371   5.384
 1662SOL    HW1 5885   6.889   1.417   5.311
 1662SOL    HW2 5886   6.879   1.392   5.472
 1663SOL     OW 5887   4.549   4.839   1.065
 1663SOL    HW1 5888   4.635   4.882   1.093
 1663SOL    HW2 5889   4.515   4.781   1.139
 1664SOL     OW 5890   0.675   0.050   5.058
 1664SOL    HW1 5891   0.610   0.117   5.094
 1664SOL    HW2 5892   0.659   6.988   5.101
 1665SOL     OW 5893   2.257   3.903   1.361
 1665SOL    HW1 5894   2.185   3.865   1.419
 1665SOL    HW2 5895   2.307   3.828   1.317
 1666SOL     OW 5896   5.631   0.371   6.278
 1666SOL    HW1 5897   5.718   0.398   6.319
 1666SOL    HW2 5898   5.617   0.272   6.292
 1667SOL     OW 5899   0.506   6.751   0.805
 1667SOL    HW1 5900   0.590   6.795   0.839
 1667SOL    HW2 5901   0.495   6.770   0.708
 1668SOL     OW 5902   5.036   4.348   3.799
 1668SOL    HW1 5903   4.949   4.335   3.751
 1668SOL    HW2 5904   5.018   4.366   3.896
 1669SOL     OW 5905   0.137   3.645   5.351
 1669SOL    HW1 5906   0.188   3.724   5.318
 1669SOL    HW2 5907   0.059   3.628   5.291
 1670SOL     OW 5908   1.882   4.640   6.127
 1670SOL    HW1 5909   1.865   4.730   6.088
 1670SOL    HW2 5910   1.920   4.580   6.056
 1671SOL     OW 5911   4.930   1.727   1.822
 1671SOL    HW1 5912   4.861   1.772   1.878
 1671SOL    HW2 5913   4.899   1.635   1.798
 1672SOL     OW 5914   0.452   2.855   0.166
 1672SOL    HW1 5915   0.506   2.840   0.249
 1672SOL    HW2 5916   0.512   2.855   0.087
 1673SOL     OW 5917   2.387   1.503   4.396
 1673SOL    HW1 5918   2.387   1.408   4.428
 1673SOL    HW2 5919   2.363   1.564   4.471
 1674SOL     OW 5920   4.868   2.723   2.593
 1674SOL    HW1 5921   4.797   2.737   2.524
 1674SOL    HW2 5922   4.945   2.674   2.553
 1675SOL     OW 5923   5.700   0.771   1.296
 1675SOL    HW1 5924   5.638   0.716   1.241
 1675SOL    HW2 5925   5.649   0.847   1.337
 1676SOL     OW 5926   2.092   2.236   2.897
 1676SOL    HW1 5927   2.008   2.253   2.948
 1676SOL    HW2 5928   2.121   2.321   2.851
 1677SOL     OW 5929   4.155   3.587   3.587
 1677SOL    HW1 5930   4.159   3.491   3.615
 1677SOL    HW2 5931   4.145   3.592   3.488
 1678SOL     OW 5932   0.277   6.580   0.844
 1678SOL    HW1 5933   0.361   6.633   0.834
 1678SOL    HW2 5934   0.203   6.638   0.878
 1679SOL     OW 5935   1.957   1.902   5.079
 1679SOL    HW1 5936   2.044   1.908   5.127
 1679SOL    HW2 5937   1.892   1.965   5.122
 1680SOL     OW 5938   5.018   2.870   4.620
 1680SOL    HW1 5939   5.102   2.851   4.672
 1680SOL    HW2 5940   4.939   2.845   4.676
 1681SOL     OW 5941   1.906   5.898   3.879
 1681SOL    HW1 5942   1.835   5.899   3.809
 1681SOL    HW2 5943   1.973   5.970   3.860
 1682SOL     OW 5944   2.631   6.617   5.389
 1682SOL    HW1 5945   2.650   6.704   5.343
 1682SOL    HW2 5946   2.551   6.627   5.447
 1683SOL     OW 5947   5.599   4.761   2.592
 1683SOL    HW1 5948   5.699   4.753   2.590
 1683SOL    HW2 5949   5.560   4.681   2.637
 1684SOL     OW 5950   1.757   4.995   1.867
 1684SOL    HW1 5951   1.812   4.955   1.794
 1684SOL    HW2 5952   1.700   4.924   1.909
 1685SOL     OW 5953   0.927   1.692   5.450
 1685SOL    HW1 5954   0.907   1.677   5.353
 1685SOL    HW2 5955   0.894   1.783   5.477
 1686SOL     OW 5956   4.693   4.936   3.326
 1686SOL    HW1 5957   4.698   4.838   3.348
 1686SOL    HW2 5958   4.682   4.988   3.411
 1687SOL     OW 5959   0.052   3.368   2.413
 1687SOL    HW1 5960   0.017   3.380   2.320
 1687SOL    HW2 5961   7.009   3.325   2.470
 1688SOL     OW 5962   2.287   2.178   3.631
 1688SOL    HW1 5963   2.306   2.275   3.646
 1688SOL    HW2 5964   2.188   2.165   3.625
 1689SOL     OW 5965   6.158   0.863   1.976
 1689SOL    HW1 5966   6.252   0.858   2.011
 1689SOL    HW2 5967   6.159   0.856   1.877
 1690SOL     OW 5968   0.522   3.928   4.234
 1690SOL    HW1 5969   0.454   3.955   4.302
 1690SOL    HW2 5970   0.479   3.923   4.144
 1691SOL     OW 5971   5.207   3.095   4.821
 1691SOL    HW1 5972   5.289   3.136   4.861
 1691SOL    HW2 5973   5.210   2.996   4.831
 1692SOL     OW 5974   5.970   5.094   2.170
 1692SOL    HW1 5975   5.926   5.031   2.105
 1692SOL    HW2 5976   6.034   5.152   2.121
 1693SOL     OW 5977   6.461   0.771   5.869
 1693SOL    HW1 5978   6.493   0.861   5.839
 1693SOL    HW2 5979   6.424   0.721   5.791
 1694SOL     OW 5980   5.716   1.026   4.844
 1694SOL    HW1 5981   5.677   1.108   4.887
 1694SOL    HW2 5982   5.709   0.949   4.908
 1695SOL     OW 5983   3.964   0.632   6.730
 1695SOL    HW1 5984   3.916   0.560   6.680
 1695SOL    HW2 5985   3.998   0.700   6.665
 1696SOL     OW 5986   4.540   5.777   0.045
 1696SOL    HW1 5987   4.460   5.766   0.104
 1696SOL    HW2 5988   4.608   5.708   0.067
 1697SOL     OW 5989   6.107   2.040   1.181
 1697SOL    HW1 5990   6.057   1.989   1.250
 1697SOL    HW2 5991   6.090   2.138   1.193
 1698SOL     OW 5992   3.222   0.745   2.254
 1698SOL    HW1 5993   3.219   0.696   2.167
 1698SOL    HW2 5994   3.193   0.839   2.241
 1699SOL     OW 5995   2.889   0.863   6.670
 1699SOL    HW1 5996   2.919   0.847   6.764
 1699SOL    HW2 5997   2.893   0.961   6.649
 1700SOL     OW 5998   6.107   3.251   3.190
 1700SOL    HW1 5999   6.102   3.240   3.090
 1700SOL    HW2 6000   6.073   3.168   3.234
 1701SOL     OW 6001   6.651   4.817   4.627
 1701SOL    HW1 6002   6.672   4.745   4.693
 1701SOL    HW2 6003   6.732   4.875   4.614
 1702SOL     OW 6004   1.687   1.922   5.796
 1702SOL    HW1 6005   1.717   1.835   5.755
 1702SOL    HW2 6006   1.607   1.955   5.746
 1703SOL     OW 6007   3.274   1.740   6.588
 1703SOL    HW1 6008   3.177   1.718   6.593
 1703SOL    HW2 6009   3.285   1.832   6.550
 1704SOL     OW 6010   3.078   1.720   0.698
 1704SOL    HW1 6011   2.998   1.757   0.651
 1704SOL    HW2 6012   3.066   1.622   0.714
 1705SOL     OW 6013   3.540   1.435   1.802
 1705SOL    HW1 6014   3.477   1.360   1.823
 1705SOL    HW2 6015   3.576   1.473   1.887
 1706SOL     OW 6016   4.369   2.206   0.753
 1706SOL    HW1 6017   4.301   2.132   0.755
 1706SOL    HW2 6018   4.322   2.294   0.745
 1707SOL     OW 6019   4.473   1.125   2.328
 1707SOL    HW1 6020   4.520   1.208   2.298
 1707SOL    HW2 6021   4.474   1.121   2.428
 1708SOL     OW 6022   3.314   5.160   2.172
 1708SOL    HW1 6023   3.264   5.232   2.125
 1708SOL    HW2 6024   3.367   5.107   2.106
 1709SOL     OW 6025   5.295   5.881   0.808
 1709SOL    HW1 6026   5.335   5.970   0.833
 1709SOL    HW2 6027   5.240   5.847   0.884
 1710SOL     OW 6028   4.581   5.443   2.994
 1710SOL    HW1 6029   4.620   5.351   2.983
 1710SOL    HW2 6030   4.509   5.440   3.063
 1711SOL     OW 6031   3.586   5.871   6.171
 1711SOL    HW1 6032   3.532   5.874   6.255
 1711SOL    HW2 6033   3.661   5.937   6.176
 1712SOL     OW 6034   0.330   2.095   4.475
 1712SOL    HW1 6035   0.261   2.167   4.475
 1712SOL    HW2 6036   0.379   2.095   4.387
 1713SOL     OW 6037   4.103   0.561   2.965
 1713SOL    HW1 6038   4.022   0.514   3.001
 1713SOL    HW2 6039   4.075   0.647   2.922
 1714SOL     OW 6040   3.616   2.812   6.845
 1714SOL    HW1 6041   3.599   2.832   6.749
 1714SOL    HW2 6042   3.621   2.898   6.897
 1715SOL     OW 6043   1.334   6.484   2.004
 1715SOL    HW1 6044   1.393   6.546   2.056
 1715SOL    HW2 6045   1.287   6.535   1.932
 1716SOL     OW 6046   4.547   0.672   3.951
 1716SOL    HW1 6047   4.468   0.670   3.889
 1716SOL    HW2 6048   4.551   0.586   4.002
 1717SOL     OW 6049   3.830   6.100   5.777
 1717SOL    HW1 6050   3.763   6.170   5.800
 1717SOL    HW2 6051   3.820   6.022   5.838
 1718SOL     OW 6052   1.928   2.669   2.021
 1718SOL    HW1 6053   1.941   2.734   2.096
 1718SOL    HW2 6054   2.000   2.600   2.024
 1719SOL     OW 6055   0.900   4.888   1.796
 1719SOL    HW1 6056   0.802   4.877   1.807
 1719SOL    HW2 6057   0.920   4.969   1.741
 1720SOL     OW 6058   6.901   2.863   5.683
 1720SOL    HW1 6059   6.807   2.828   5.693
 1720SOL    HW2 6060   6.899   2.963   5.685
 1721SOL     OW 6061   1.041   1.577   1.780
 1721SOL    HW1 6062   1.041   1.677   1.791
 1721SOL    HW2 6063   1.087   1.554   1.694
 1722SOL     OW 6064   3.096   2.044   2.911
 1722SOL    HW1 6065   3.046   2.131   2.919
 1722SOL    HW2 6066   3.173   2.055   2.848
 1723SOL     OW 6067   4.924   2.412   0.077
 1723SOL    HW1 6068   4.844   2.409   0.017
 1723SOL    HW2 6069   4.977   2.495   0.057
 1724SOL     OW 6070   6.316   2.336   1.387
 1724SOL    HW1 6071   6.300   2.253   1.441
 1724SOL    HW2 6072   6.245   2.345   1.318
 1725SOL     OW 6073   2.452   5.138   6.145
 1725SOL    HW1 6074   2.529   5.201   6.147
 1725SOL    HW2 6075   2.476   5.055   6.195
 1726SOL     OW 6076   5.512   4.259   3.903
 1726SOL    HW1 6077   5.578   4.333   3.906
 1726SOL    HW2 6078   5.560   4.171   3.908
 1727SOL     OW 6079   2.933   3.800   3.588
 1727SOL    HW1 6080   3.026   3.813   3.553
 1727SOL    HW2 6081   2.929   3.828   3.684
 1728SOL     OW 6082   4.750   3.092   5.212
 1728SOL    HW1 6083   4.744   3.045   5.124
 1728SOL    HW2 6084   4.658   3.105   5.249
 1729SOL     OW 6085   1.998   3.996   1.958
 1729SOL    HW1 6086   2.046   4.055   1.892
 1729SOL    HW2 6087   2.026   4.021   2.051
 1730SOL     OW 6088   2.729   4.874   5.733
 1730SOL    HW1 6089   2.741   4.962   5.780
 1730SOL    HW2 6090   2.665   4.817   5.785
 1731SOL     OW 6091   5.759   4.012   3.896
 1731SOL    HW1 6092   5.781   4.110   3.899
 1731SOL    HW2 6093   5.789   3.969   3.981
 1732SOL     OW 6094   1.934   5.125   6.627
 1732SOL    HW1 6095   1.920   5.031   6.658
 1732SOL    HW2 6096   1.885   5.140   6.542
 1733SOL     OW 6097   2.627   3.495   0.231
 1733SOL    HW1 6098   2.567   3.417   0.247
 1733SOL    HW2 6099   2.573   3.576   0.209
 1734SOL     OW 6100   6.890   2.915   1.427
 1734SOL    HW1 6101   6.889   2.990   1.493
 1734SOL    HW2 6102   6.895   2.953   1.334
 1735SOL     OW 6103   3.866   5.548   6.741
 1735SOL    HW1 6104   3.929   5.470   6.744
 1735SOL    HW2 6105   3.777   5.518   6.706
 1736SOL     OW 6106   4.936   3.550   1.017
 1736SOL    HW1 6107   4.952   3.572   1.113
 1736SOL    HW2 6108   4.966   3.627   0.960
 1737SOL     OW 6109   4.534   1.397   4.486
 1737SOL    HW1 6110   4.582   1.483   4.504
 1737SOL    HW2 6111   4.522   1.347   4.572
 1738SOL     OW 6112   1.042   3.791   3.896
 1738SOL    HW1 6113   0.942   3.796   3.885
 1738SOL    HW2 6114   1.071   3.852   3.970
 1739SOL     OW 6115   5.111   0.204   4.291
 1739SOL    HW1 6116   5.043   0.230   4.359
 1739SOL    HW2 6117   5.094   0.253   4.205
 1740SOL     OW 6118   6.876   2.028   4.430
 1740SOL    HW1 6119   6.938   2.032   4.352
 1740SOL    HW2 6120   6.817   2.109   4.430
 1741SOL     OW 6121   1.055   1.742   4.574
 1741SOL    HW1 6122   0.975   1.787   4.614
 1741SOL    HW2 6123   1.135   1.802   4.581
 1742SOL     OW 6124   6.147   6.029   6.313
 1742SOL    HW1 6125   6.129   6.026   6.215
 1742SOL    HW2 6126   6.107   5.949   6.357
 1743SOL     OW 6127   1.220   0.951   2.998
 1743SOL    HW1 6128   1.201   0.863   2.954
 1743SOL    HW2 6129   1.235   1.020   2.928
 1744SOL     OW 6130   5.058   2.458   3.287
 1744SOL    HW1 6131   5.155   2.457   3.307
 1744SOL    HW2 6132   5.016   2.373   3.319
 1745SOL     OW 6133   6.536   6.342   1.529
 1745SOL    HW1 6134   6.595   6.278   1.579
 1745SOL    HW2 6135   6.586   6.378   1.450
 1746SOL     OW 6136   1.551   4.236   3.270
 1746SOL    HW1 6137   1.650   4.224   3.266
 1746SOL    HW2 6138   1.506   4.154   3.235
 1747SOL     OW 6139   3.153   0.986   2.183
 1747SOL    HW1 6140   3.159   1.021   2.276
 1747SOL    HW2 6141   3.139   1.063   2.120
 1748SOL     OW 6142   7.015   1.741   4.290
 1748SOL    HW1 6143   0.081   1.719   4.322
 1748SOL    HW2 6144   7.016   1.830   4.245
 1749SOL     OW 6145   2.422   5.427   1.328
 1749SOL    HW1 6146   2.394   5.335   1.302
 1749SOL    HW2 6147   2.352   5.467   1.388
 1750SOL     OW 6148   4.620   0.648   5.811
 1750SOL    HW1 6149   4.530   0.615   5.837
 1750SOL    HW2 6150   4.665   0.581   5.751
 1751SOL     OW 6151   6.025   2.670   4.924
 1751SOL    HW1 6152   6.030   2.759   4.970
 1751SOL    HW2 6153   5.934   2.631   4.939
 1752SOL     OW 6154   6.390   0.936   1.200
 1752SOL    HW1 6155   6.473   0.886   1.179
 1752SOL    HW2 6156   6.317   0.909   1.137
 1753SOL     OW 6157   6.048   1.194   1.637
 1753SOL    HW1 6158   6.064   1.098   1.661
 1753SOL    HW2 6159   5.987   1.198   1.558
 1754SOL     OW 6160   2.906   5.658   5.704
 1754SOL    HW1 6161   2.836   5.729   5.697
 1754SOL    HW2 6162   2.873   5.574   5.659
 1755SOL     OW 6163   6.116   6.900   5.257
 1755SOL    HW1 6164   6.160   6.907   5.167
 1755SOL    HW2 6165   6.087   6.991   5.287
 1756SOL     OW 6166   5.612   0.644   5.952
 1756SOL    HW1 6167   5.623   0.678   5.859
 1756SOL    HW2 6168   5.686   0.580   5.973
 1757SOL     OW 6169   2.546   5.212   5.177
 1757SOL    HW1 6170   2.531   5.163   5.263
 1757SOL    HW2 6171   2.519   5.153   5.100
 1758SOL     OW 6172   1.844   6.490   4.477
 1758SOL    HW1 6173   1.782   6.424   4.519
 1758SOL    HW2 6174   1.898   6.536   4.548
 1759SOL     OW 6175   1.252   6.262   0.278
 1759SOL    HW1 6176   1.190   6.285   0.203
 1759SOL    HW2 6177   1.283   6.346   0.323
 1760SOL     OW 6178   6.351   0.642   5.139
 1760SOL    HW1 6179   6.420   0.585   5.095
 1760SOL    HW2 6180   6.368   0.738   5.118
 1761SOL     OW 6181   6.840   2.208   1.387
 1761SOL    HW1 6182   6.771   2.178   1.453
 1761SOL    HW2 6183   6.795   2.228   1.300
 1762SOL     OW 6184   0.466   1.496   5.323
 1762SOL    HW1 6185   0.511   1.551   5.393
 1762SOL    HW2 6186   0.524   1.490   5.242
 1763SOL     OW 6187   0.630   3.727   4.398
 1763SOL    HW1 6188   0.640   3.755   4.493
 1763SOL    HW2 6189   0.585   3.800   4.346
 1764SOL     OW 6190   1.235   4.933   2.466
 1764SOL    HW1 6191   1.217   4.900   2.373
 1764SOL    HW2 6192   1.308   4.878   2.507
 1765SOL     OW 6193   5.646   2.896   1.638
 1765SOL    HW1 6194   5.637   2.978   1.695
 1765SOL    HW2 6195   5.713   2.834   1.679
 1766SOL     OW 6196   4.234   5.044   4.350
 1766SOL    HW1 6197   4.140   5.058   4.383
 1766SOL    HW2 6198   4.283   4.986   4.415
 1767SOL     OW 6199   0.199   5.045   2.680
 1767SOL    HW1 6200   0.108   5.082   2.661
 1767SOL    HW2 6201   0.193   4.980   2.755
 1768SOL     OW 6202   5.065   6.696   2.238
 1768SOL    HW1 6203   5.034   6.789   2.259
 1768SOL    HW2 6204   4.995   6.630   2.265
 1769SOL     OW 6205   5.580   0.109   6.352
 1769SOL    HW1 6206   5.509   0.115   6.423
 1769SOL    HW2 6207   5.665   0.077   6.393
 1770SOL     OW 6208   2.265   4.979   6.319
 1770SOL    HW1 6209   2.265   4.932   6.231
 1770SOL    HW2 6210   2.274   5.078   6.304
 1771SOL     OW 6211   0.707   3.972   5.798
 1771SOL    HW1 6212   0.751   3.960   5.886
 1771SOL    HW2 6213   0.674   3.883   5.765
 1772SOL     OW 6214   2.494   4.586   4.400
 1772SOL    HW1 6215   2.489   4.487   4.384
 1772SOL    HW2 6216   2.569   4.606   4.464
 1773SOL     OW 6217   0.498   6.922   5.207
 1773SOL    HW1 6218   0.447   6.981   5.270
 1773SOL    HW2 6219   0.433   6.866   5.155
 1774SOL     OW 6220   5.889   5.665   1.182
 1774SOL    HW1 6221   5.961   5.649   1.115
 1774SOL    HW2 6222   5.902   5.607   1.262
 1775SOL     OW 6223   2.290   5.345   6.122
 1775SOL    HW1 6224   2.195   5.326   6.149
 1775SOL    HW2 6225   2.344   5.262   6.131
 1776SOL     OW 6226   4.274   1.057   5.756
 1776SOL    HW1 6227   4.242   1.140   5.711
 1776SOL    HW2 6228   4.373   1.047   5.740
 1777SOL     OW 6229   4.503   6.850   6.895
 1777SOL    HW1 6230   4.490   6.798   6.979
 1777SOL    HW2 6231   4.595   6.888   6.894
 1778SOL     OW 6232   6.096   0.349   3.953
 1778SOL    HW1 6233   6.033   0.277   3.982
 1778SOL    HW2 6234   6.054   0.403   3.880
 1779SOL     OW 6235   5.622   6.203   3.644
 1779SOL    HW1 6236   5.678   6.281   3.617
 1779SOL    HW2 6237   5.601   6.209   3.741
 1780SOL     OW 6238   1.870   5.348   5.321
 1780SOL    HW1 6239   1.821   5.429   5.289
 1780SOL    HW2 6240   1.920   5.370   5.405
 1781SOL     OW 6241   4.538   0.410   4.011
 1781SOL    HW1 6242   4.617   0.366   4.055
 1781SOL    HW2 6243   4.459   0.406   4.071
 1782SOL     OW 6244   1.761   1.775   2.821
 1782SOL    HW1 6245   1.808   1.693   2.791
 1782SOL    HW2 6246   1.793   1.854   2.768
 1783SOL     OW 6247   1.665   4.454   6.568
 1783SOL    HW1 6248   1.668   4.374   6.628
 1783SOL    HW2 6249   1.694   4.428   6.476
 1784SOL     OW 6250   2.407   0.612   0.803
 1784SOL    HW1 6251   2.482   0.570   0.752
 1784SOL    HW2 6252   2.335   0.545   0.819
 1785SOL     OW 6253   1.438   6.595   4.071
 1785SOL    HW1 6254   1.530   6.601   4.109
 1785SOL    HW2 6255   1.434   6.646   3.985
 1786SOL     OW 6256   0.979   5.867   0.826
 1786SOL    HW1 6257   0.988   5.769   0.843
 1786SOL    HW2 6258   0.996   5.886   0.729
 1787SOL     OW 6259   1.887   3.820   5.782
 1787SOL    HW1 6260   1.795   3.783   5.796
 1787SOL    HW2 6261   1.939   3.758   5.722
 1788SOL     OW 6262   4.409   4.074   0.645
 1788SOL    HW1 6263   4.446   4.164   0.624
 1788SOL    HW2 6264   4.474   4.024   0.702
 1789SOL     OW 6265   6.724   3.776   1.998
 1789SOL    HW1 6266   6.713   3.826   2.084
 1789SOL    HW2 6267   6.686   3.684   2.009
 1790SOL     OW 6268   2.710   2.262   4.321
 1790SOL    HW1 6269   2.703   2.269   4.222
 1790SOL    HW2 6270   2.672   2.345   4.363
 1791SOL     OW 6271   5.488   0.002   3.431
 1791SOL    HW1 6272   5.530   6.952   3.479
 1791SOL    HW2 6273   5.388   7.025   3.444
 1792SOL     OW 6274   6.918   1.309   5.072
 1792SOL    HW1 6275   6.942   1.296   4.976
 1792SOL    HW2 6276   6.923   1.407   5.094
 1793SOL     OW 6277   0.059   1.049   5.535
 1793SOL    HW1 6278   0.133   0.996   5.577
 1793SOL    HW2 6279   6.997   1.019   5.573
 1794SOL     OW 6280   0.473   6.761   6.176
 1794SOL    HW1 6281   0.431   6.776   6.086
 1794SOL    HW2 6282   0.569   6.789   6.174
 1795SOL     OW 6283   5.739   4.926   6.691
 1795SOL    HW1 6284   5.671   4.865   6.650
 1795SOL    HW2 6285   5.829   4.882   6.687
 1796SOL     OW 6286   0.557   6.394   6.146
 1796SOL    HW1 6287   0.618   6.411   6.068
 1796SOL    HW2 6288   0.566   6.469   6.212
 1797SOL     OW 6289   2.201   5.930   4.741
 1797SOL    HW1 6290   2.262   6.009   4.746
 1797SOL    HW2 6291   2.136   5.943   4.666
 1798SOL     OW 6292   2.936   3.870   4.672
 1798SOL    HW1 6293   2.978   3.877   4.762
 1798SOL    HW2 6294   2.857   3.931   4.667
 1799SOL     OW 6295   3.100   0.979   0.106
 1799SOL    HW1 6296   3.041   0.929   0.043
 1799SOL    HW2 6297   3.113   1.073   0.073
 1800SOL     OW 6298   5.186   3.392   4.789
 1800SOL    HW1 6299   5.268   3.445   4.765
 1800SOL    HW2 6300   5.185   3.308   4.735
 1801SOL     OW 6301   0.932   1.911   2.269
 1801SOL    HW1 6302   0.878   1.844   2.218
 1801SOL    HW2 6303   0.941   1.881   2.364
 1802SOL     OW 6304   6.906   4.852   3.782
 1802SOL    HW1 6305   6.942   4.879   3.871
 1802SOL    HW2 6306   6.962   4.778   3.745
 1803SOL     OW 6307   1.140   7.008   3.218
 1803SOL    HW1 6308   1.091   7.026   3.303
 1803SOL    HW2 6309   1.175   0.067   3.180
 1804SOL     OW 6310   2.210   3.181   5.740
 1804SOL    HW1 6311   2.235   3.184   5.643
 1804SOL    HW2 6312   2.270   3.242   5.792
 1805SOL     OW 6313   6.929   6.091   6.386
 1805SOL    HW1 6314   7.005   6.122   6.328
 1805SOL    HW2 6315   6.916   6.156   6.460
 1806SOL     OW 6316   6.884   1.963   2.337
 1806SOL    HW1 6317   6.888   1.871   2.376
 1806SOL    HW2 6318   6.943   1.967   2.256
 1807SOL     OW 6319   6.640   3.499   2.037
 1807SOL    HW1 6320   6.726   3.457   2.007
 1807SOL    HW2 6321   6.563   3.455   1.991
 1808SOL     OW 6322   5.155   1.986   5.782
 1808SOL    HW1 6323   5.234   1.937   5.818
 1808SOL    HW2 6324   5.184   2.047   5.708
 1809SOL     OW 6325   3.924   1.711   6.074
 1809SOL    HW1 6326   3.979   1.745   6.151
 1809SOL    HW2 6327   3.865   1.784   6.040
 1810SOL     OW 6328   0.399   7.013   3.902
 1810SOL    HW1 6329   0.434   6.962   3.823
 1810SOL    HW2 6330   0.300   7.002   3.908
 1811SOL     OW 6331   4.140   5.686   2.764
 1811SOL    HW1 6332   4.192   5.745   2.826
 1811SOL    HW2 6333   4.200   5.616   2.726
 1812SOL     OW 6334   4.534   0.087   5.111
 1812SOL    HW1 6335   4.539   7.026   5.063
 1812SOL    HW2 6336   4.488   0.074   5.199
 1813SOL     OW 6337   4.716   4.244   2.294
 1813SOL    HW1 6338   4.647   4.284   2.354
 1813SOL    HW2 6339   4.711   4.287   2.204
 1814SOL     OW 6340   0.223   6.454   0.581
 1814SOL    HW1 6341   0.134   6.500   0.574
 1814SOL    HW2 6342   0.257   6.461   0.675
 1815SOL     OW 6343   5.890   6.047   1.860
 1815SOL    HW1 6344   5.898   6.143   1.835
 1815SOL    HW2 6345   5.941   5.991   1.794
 1816SOL     OW 6346   4.444   5.622   6.380
 1816SOL    HW1 6347   4.482   5.532   6.358
 1816SOL    HW2 6348   4.414   5.667   6.296
 1817SOL     OW 6349   1.382   1.963   3.770
 1817SOL    HW1 6350   1.298   1.918   3.738
 1817SOL    HW2 6351   1.440   1.896   3.815
 1818SOL     OW 6352   2.280   6.752   0.742
 1818SOL    HW1 6353   2.235   6.832   0.704
 1818SOL    HW2 6354   2.374   6.747   0.708
 1819SOL     OW 6355   2.379   4.688   3.218
 1819SOL    HW1 6356   2.337   4.702   3.129
 1819SOL    HW2 6357   2.312   4.706   3.290
 1820SOL     OW 6358   3.695   0.797   4.131
 1820SOL    HW1 6359   3.597   0.791   4.148
 1820SOL    HW2 6360   3.729   0.710   4.096
 1821SOL     OW 6361   4.103   2.262   2.390
 1821SOL    HW1 6362   4.031   2.258   2.460
 1821SOL    HW2 6363   4.062   2.246   2.300
 1822SOL     OW 6364   0.321   2.967   2.386
 1822SOL    HW1 6365   0.255   3.033   2.352
 1822SOL    HW2 6366   0.325   2.971   2.486
 1823SOL     OW 6367   4.360   6.703   2.652
 1823SOL    HW1 6368   4.396   6.790   2.685
 1823SOL    HW2 6369   4.326   6.715   2.558
 1824SOL     OW 6370   3.864   3.010   0.680
 1824SOL    HW1 6371   3.819   3.049   0.600
 1824SOL    HW2 6372   3.838   3.063   0.761
 1825SOL     OW 6373   1.964   1.929   4.808
 1825SOL    HW1 6374   1.940   1.896   4.899
 1825SOL    HW2 6375   1.908   1.881   4.740
 1826SOL     OW 6376   3.409   2.164   1.754
 1826SOL    HW1 6377   3.478   2.228   1.788
 1826SOL    HW2 6378   3.355   2.207   1.682
 1827SOL     OW 6379   5.637   4.606   0.557
 1827SOL    HW1 6380   5.646   4.508   0.543
 1827SOL    HW2 6381   5.727   4.647   0.568
 1828SOL     OW 6382   1.308   3.292   5.321
 1828SOL    HW1 6383   1.257   3.208   5.341
 1828SOL    HW2 6384   1.253   3.371   5.347
 1829SOL     OW 6385   3.111   0.967   3.891
 1829SOL    HW1 6386   3.119   1.062   3.862
 1829SOL    HW2 6387   3.035   0.923   3.843
 1830SOL     OW 6388   5.460   6.630   4.981
 1830SOL    HW1 6389   5.396   6.616   4.906
 1830SOL    HW2 6390   5.420   6.692   5.048
 1831SOL     OW 6391   4.874   5.447   1.976
 1831SOL    HW1 6392   4.831   5.513   1.914
 1831SOL    HW2 6393   4.973   5.447   1.961
 1832SOL     OW 6394   2.837   2.927   0.596
 1832SOL    HW1 6395   2.788   3.011   0.618
 1832SOL    HW2 6396   2.792   2.881   0.519
 1833SOL     OW 6397   5.021   0.247   0.991
 1833SOL    HW1 6398   5.081   0.323   1.015
 1833SOL    HW2 6399   5.077   0.167   0.967
 1834SOL     OW 6400   2.433   2.876   6.618
 1834SOL    HW1 6401   2.419   2.897   6.715
 1834SOL    HW2 6402   2.422   2.959   6.564
 1835SOL     OW 6403   6.942   5.818   0.916
 1835SOL    HW1 6404   6.859   5.853   0.960
 1835SOL    HW2 6405   6.949   5.720   0.934
 1836SOL     OW 6406   5.326   2.326   1.548
 1836SOL    HW1 6407   5.250   2.353   1.607
 1836SOL    HW2 6408   5.405   2.303   1.605
 1837SOL     OW 6409   2.784   1.793   6.442
 1837SOL    HW1 6410   2.783   1.792   6.342
 1837SOL    HW2 6411   2.691   1.803   6.476
 1838SOL     OW 6412   6.246   0.674   0.503
 1838SOL    HW1 6413   6.314   0.611   0.541
 1838SOL    HW2 6414   6.161   0.667   0.556
 1839SOL     OW 6415   6.360   1.121   6.897
 1839SOL    HW1 6416   6.358   1.024   6.923
 1839SOL    HW2 6417   6.331   1.131   6.802
 1840SOL     OW 6418   4.616   0.059   3.778
 1840SOL    HW1 6419   4.564   0.016   3.852
 1840SOL    HW2 6420   4.605   0.006   3.694
 1841SOL     OW 6421   2.085   1.426   2.178
 1841SOL    HW1 6422   2.184   1.434   2.164
 1841SOL    HW2 6423   2.045   1.517   2.186
 1842SOL     OW 6424   1.366   5.537   0.230
 1842SOL    HW1 6425   1.354   5.589   0.146
 1842SOL    HW2 6426   1.407   5.448   0.208
 1843SOL     OW 6427   3.949   1.234   4.895
 1843SOL    HW1 6428   3.860   1.210   4.854
 1843SOL    HW2 6429   3.978   1.161   4.956
 1844SOL     OW 6430   5.779   1.734   6.689
 1844SOL    HW1 6431   5.758   1.802   6.759
 1844SOL    HW2 6432   5.839   1.663   6.727
 1845SOL     OW 6433   1.588   1.338   2.902
 1845SOL    HW1 6434   1.516   1.277   2.870
 1845SOL    HW2 6435   1.573   1.430   2.865
 1846SOL     OW 6436   4.600   1.371   2.263
 1846SOL    HW1 6437   4.576   1.443   2.198
 1846SOL    HW2 6438   4.679   1.400   2.317
 1847SOL     OW 6439   2.541   0.421   5.678
 1847SOL    HW1 6440   2.554   0.402   5.581
 1847SOL    HW2 6441   2.509   0.338   5.724
 1848SOL     OW 6442   2.369   5.954   4.403
 1848SOL    HW1 6443   2.291   6.013   4.382
 1848SOL    HW2 6444   2.441   6.009   4.447
 1849SOL     OW 6445   4.830   2.785   1.981
 1849SOL    HW1 6446   4.786   2.875   1.978
 1849SOL    HW2 6447   4.819   2.746   2.073
 1850SOL     OW 6448   4.773   1.831   1.505
 1850SOL    HW1 6449   4.793   1.877   1.591
 1850SOL    HW2 6450   4.777   1.897   1.430
 1851SOL     OW 6451   6.960   3.927   5.026
 1851SOL    HW1 6452   6.887   3.910   5.092
 1851SOL    HW2 6453   6.996   3.840   4.993
 1852SOL     OW 6454   1.599   5.769   2.353
 1852SOL    HW1 6455   1.669   5.808   2.295
 1852SOL    HW2 6456   1.587   5.672   2.330
 1853SOL     OW 6457   0.336   2.775   4.369
 1853SOL    HW1 6458   0.322   2.715   4.447
 1853SOL    HW2 6459   0.251   2.823   4.347
 1854SOL     OW 6460   0.366   6.549   3.782
 1854SOL    HW1 6461   0.461   6.541   3.813
 1854SOL    HW2 6462   0.349   6.482   3.710
 1855SOL     OW 6463   4.868   3.335   5.009
 1855SOL    HW1 6464   4.795   3.291   5.062
 1855SOL    HW2 6465   4.843   3.429   4.989
 1856SOL     OW 6466   3.525   2.549   6.998
 1856SOL    HW1 6467   3.545   2.634   6.950
 1856SOL    HW2 6468   3.531   2.473   6.933
 1857SOL     OW 6469   4.923   1.282   0.595
 1857SOL    HW1 6470   4.825   1.302   0.584
 1857SOL    HW2 6471   4.976   1.345   0.539
 1858SOL     OW 6472   4.384   2.418   4.401
 1858SOL    HW1 6473   4.449   2.471   4.347
 1858SOL    HW2 6474   4.385   2.449   4.496
 1859SOL     OW 6475   5.444   1.925   3.932
 1859SOL    HW1 6476   5.405   1.990   3.997
 1859SOL    HW2 6477   5.536   1.955   3.907
 1860SOL     OW 6478   1.325   1.282   4.688
 1860SOL    HW1 6479   1.233   1.248   4.709
 1860SOL    HW2 6480   1.388   1.255   4.761
 1861SOL     OW 6481   6.444   0.255   3.193
 1861SOL    HW1 6482   6.512   0.291   3.257
 1861SOL    HW2 6483   6.485   0.247   3.102
 1862SOL     OW 6484   2.207   6.047   6.649
 1862SOL    HW1 6485   2.123   6.095   6.677
 1862SOL    HW2 6486   2.251   6.007   6.729
 1863SOL     OW 6487   0.660   2.986   1.221
 1863SOL    HW1 6488   0.722   2.962   1.146
 1863SOL    HW2 6489   0.714   3.009   1.302
 1864SOL     OW 6490   3.490   5.807   2.697
 1864SOL    HW1 6491   3.411   5.799   2.757
 1864SOL    HW2 6492   3.539   5.720   2.694
 1865SOL     OW 6493   5.510   0.840   6.113
 1865SOL    HW1 6494   5.497   0.920   6.054
 1865SOL    HW2 6495   5.563   0.771   6.064
 1866SOL     OW 6496   7.011   4.605   3.253
 1866SOL    HW1 6497   6.949   4.637   3.324
 1866SOL    HW2 6498   0.019   4.514   3.277
 1867SOL     OW 6499   2.366   2.428   0.799
 1867SOL    HW1 6500   2.307   2.508   0.787
 1867SOL    HW2 6501   2.315   2.354   0.843
 1868SOL     OW 6502   5.700   4.381   5.629
 1868SOL    HW1 6503   5.713   4.383   5.728
 1868SOL    HW2 6504   5.775   4.429   5.584
 1869SOL     OW 6505   4.820   1.671   4.167
 1869SOL    HW1 6506   4.836   1.754   4.221
 1869SOL    HW2 6507   4.722   1.660   4.152
 1870SOL     OW 6508   0.365   4.927   4.211
 1870SOL    HW1 6509   0.407   5.010   4.249
 1870SOL    HW2 6510   0.278   4.910   4.257
 1871SOL     OW 6511   0.760   6.622   0.221
 1871SOL    HW1 6512   0.730   6.555   0.153
 1871SOL    HW2 6513   0.789   6.575   0.304
 1872SOL     OW 6514   2.703   2.700   1.030
 1872SOL    HW1 6515   2.741   2.659   1.112
 1872SOL    HW2 6516   2.770   2.697   0.956
 1873SOL     OW 6517   6.524   0.904   7.009
 1873SOL    HW1 6518   6.575   0.857   0.055
 1873SOL    HW2 6519   6.585   0.926   6.933
 1874SOL     OW 6520   0.500   6.394   0.216
 1874SOL    HW1 6521   0.508   6.445   0.130
 1874SOL    HW2 6522   0.535   6.302   0.203
 1875SOL     OW 6523   6.459   4.767   0.125
 1875SOL    HW1 6524   6.471   4.844   0.188
 1875SOL    HW2 6525   6.420   4.690   0.173
 1876SOL     OW 6526   6.965   5.911   6.746
 1876SOL    HW1 6527   6.950   5.999   6.700
 1876SOL    HW2 6528   0.014   5.920   6.811
 1877SOL     OW 6529   0.073   0.749   2.035
 1877SOL    HW1 6530   0.000   0.735   1.968
 1877SOL    HW2 6531   0.105   0.661   2.068
 1878SOL     OW 6532   6.786   4.633   3.397
 1878SOL    HW1 6533   6.774   4.732   3.407
 1878SOL    HW2 6534   6.758   4.587   3.481
 1879SOL     OW 6535   4.360   5.625   4.716
 1879SOL    HW1 6536   4.425   5.676   4.771
 1879SOL    HW2 6537   4.337   5.539   4.763
 1880SOL     OW 6538   0.659   1.413   4.286
 1880SOL    HW1 6539   0.663   1.374   4.378
 1880SOL    HW2 6540   0.563   1.429   4.261
 1881SOL     OW 6541   1.158   1.355   3.921
 1881SOL    HW1 6542   1.213   1.437   3.939
 1881SOL    HW2 6543   1.073   1.381   3.876
 1882SOL     OW 6544   1.633   5.841   0.069
 1882SOL    HW1 6545   1.689   5.908   0.020
 1882SOL    HW2 6546   1.623   5.759   0.012
 1883SOL     OW 6547   1.629   2.930   2.799
 1883SOL    HW1 6548   1.547   2.935   2.855
 1883SOL    HW2 6549   1.699   2.877   2.846
 1884SOL     OW 6550   3.407   0.433   0.151
 1884SOL    HW1 6551   3.326   0.482   0.183
 1884SOL    HW2 6552   3.454   0.488   0.082
 1885SOL     OW 6553   6.845   2.236   1.051
 1885SOL    HW1 6554   6.850   2.145   1.092
 1885SOL    HW2 6555   6.932   2.283   1.065
 1886SOL     OW 6556   2.964   2.891   6.816
 1886SOL    HW1 6557   2.980   2.989   6.800
 1886SOL    HW2 6558   2.935   2.878   6.911
 1887SOL     OW 6559   0.902   6.402   5.746
 1887SOL    HW1 6560   0.902   6.333   5.818
 1887SOL    HW2 6561   0.933   6.361   5.661
 1888SOL     OW 6562   2.086   2.368   5.908
 1888SOL    HW1 6563   2.155   2.320   5.854
 1888SOL    HW2 6564   2.088   2.465   5.887
 1889SOL     OW 6565   4.226   2.657   0.321
 1889SOL    HW1 6566   4.127   2.672   0.314
 1889SOL    HW2 6567   4.266   2.729   0.378
 1890SOL     OW 6568   6.624   5.418   6.660
 1890SOL    HW1 6569   6.592   5.390   6.751
 1890SOL    HW2 6570   6.546   5.426   6.599
 1891SOL     OW 6571   6.097   3.286   5.710
 1891SOL    HW1 6572   6.091   3.384   5.692
 1891SOL    HW2 6573   6.051   3.264   5.796
 1892SOL     OW 6574   4.233   5.688   1.658
 1892SOL    HW1 6575   4.182   5.652   1.736
 1892SOL    HW2 6576   4.183   5.670   1.574
 1893SOL     OW 6577   4.119   1.667   4.273
 1893SOL    HW1 6578   4.038   1.721   4.293
 1893SOL    HW2 6579   4.148   1.617   4.354
 1894SOL     OW 6580   4.082   3.729   0.599
 1894SOL    HW1 6581   4.085   3.743   0.500
 1894SOL    HW2 6582   4.171   3.693   0.629
 1895SOL     OW 6583   5.544   0.207   3.267
 1895SOL    HW1 6584   5.619   0.246   3.319
 1895SOL    HW2 6585   5.516   0.120   3.309
 1896SOL     OW 6586   6.973   1.558   5.199
 1896SOL    HW1 6587   0.039   1.560   5.239
 1896SOL    HW2 6588   6.934   1.650   5.200
 1897SOL     OW 6589   6.173   4.825   3.168
 1897SOL    HW1 6590   6.192   4.756   3.239
 1897SOL    HW2 6591   6.084   4.867   3.186
 1898SOL     OW 6592   6.034   4.405   0.594
 1898SOL    HW1 6593   6.064   4.372   0.504
 1898SOL    HW2 6594   5.991   4.494   0.584
 1899SOL     OW 6595   0.836   2.796   2.741
 1899SOL    HW1 6596   0.815   2.882   2.696
 1899SOL    HW2 6597   0.819   2.720   2.678
 1900SOL     OW 6598   2.186   5.527   6.381
 1900SOL    HW1 6599   2.260   5.490   6.437
 1900SOL    HW2 6600   2.101   5.478   6.402
 1901SOL     OW 6601   1.492   1.169   6.469
 1901SOL    HW1 6602   1.575   1.223   6.456
 1901SOL    HW2 6603   1.507   1.101   6.541
 1902SOL     OW 6604   0.852   3.058   4.282
 1902SOL    HW1 6605   0.817   3.013   4.364
 1902SOL    HW2 6606   0.783   3.056   4.210
 1903SOL     OW 6607   6.637   3.080   3.851
 1903SOL    HW1 6608   6.590   3.102   3.766
 1903SOL    HW2 6609   6.605   2.992   3.885
 1904SOL     OW 6610   6.632   6.705   3.640
 1904SOL    HW1 6611   6.576   6.775   3.595
 1904SOL    HW2 6612   6.574   6.628   3.667
 1905SOL     OW 6613   6.852   2.445   3.786
 1905SOL    HW1 6614   6.757   2.429   3.813
 1905SOL    HW2 6615   6.857   2.528   3.730
 1906SOL     OW 6616   2.748   0.472   6.656
 1906SOL    HW1 6617   2.827   0.414   6.636
 1906SOL    HW2 6618   2.717   0.456   6.749
 1907SOL     OW 6619   3.549   6.212   3.834
 1907SOL    HW1 6620   3.645   6.196   3.857
 1907SOL    HW2 6621   3.540   6.215   3.734
 1908SOL     OW 6622   4.393   1.318   6.362
 1908SOL    HW1 6623   4.440   1.282   6.281
 1908SOL    HW2 6624   4.458   1.368   6.419
 1909SOL     OW 6625   2.292   5.281   4.526
 1909SOL    HW1 6626   2.233   5.269   4.447
 1909SOL    HW2 6627   2.275   5.370   4.568
 1910SOL     OW 6628   5.318   1.523   5.918
 1910SOL    HW1 6629   5.391   1.477   5.968
 1910SOL    HW2 6630   5.285   1.601   5.971
 1911SOL     OW 6631   6.319   2.956   4.909
 1911SOL    HW1 6632   6.401   3.011   4.928
 1911SOL    HW2 6633   6.243   3.017   4.886
 1912SOL     OW 6634   3.709   6.719   3.038
 1912SOL    HW1 6635   3.610   6.730   3.043
 1912SOL    HW2 6636   3.730   6.640   2.980
 1913SOL     OW 6637   1.646   5.129   5.517
 1913SOL    HW1 6638   1.638   5.228   5.510
 1913SOL    HW2 6639   1.686   5.093   5.432
 1914SOL     OW 6640   3.737   2.391   6.083
 1914SOL    HW1 6641   3.800   2.412   6.158
 1914SOL    HW2 6642   3.707   2.476   6.040
 1915SOL     OW 6643   3.732   0.173   5.279
 1915SOL    HW1 6644   3.687   0.174   5.369
 1915SOL    HW2 6645   3.795   0.095   5.275
 1916SOL     OW 6646   3.318   6.236   1.589
 1916SOL    HW1 6647   3.293   6.298   1.515
 1916SOL    HW2 6648   3.410   6.257   1.620
 1917SOL     OW 6649   3.127   3.387   4.455
 1917SOL    HW1 6650   3.075   3.469   4.432
 1917SOL    HW2 6651   3.223   3.401   4.430
 1918SOL     OW 6652   5.959   6.124   4.303
 1918SOL    HW1 6653   6.050   6.106   4.339
 1918SOL    HW2 6654   5.900   6.157   4.377
 1919SOL     OW 6655   6.976   6.507   1.622
 1919SOL    HW1 6656   6.906   6.499   1.693
 1919SOL    HW2 6657   6.935   6.490   1.533
 1920SOL     OW 6658   6.678   6.108   4.145
 1920SOL    HW1 6659   6.654   6.205   4.143
 1920SOL    HW2 6660   6.625   6.062   4.216
 1921SOL     OW 6661   0.844   6.474   6.876
 1921SOL    HW1 6662   0.903   6.543   6.917
 1921SOL    HW2 6663   0.897   6.393   6.854
 1922SOL     OW 6664   3.659   3.755   0.823
 1922SOL    HW1 6665   3.724   3.705   0.765
 1922SOL    HW2 6666   3.567   3.718   0.810
 1923SOL     OW 6667   1.718   1.260   0.715
 1923SOL    HW1 6668   1.770   1.175   0.725
 1923SOL    HW2 6669   1.700   1.299   0.805
 1924SOL     OW 6670   0.458   4.406   1.911
 1924SOL    HW1 6671   0.548   4.441   1.935
 1924SOL    HW2 6672   0.458   4.306   1.915
 1925SOL     OW 6673   3.064   4.154   1.466
 1925SOL    HW1 6674   3.021   4.068   1.493
 1925SOL    HW2 6675   3.154   4.161   1.509
 1926SOL     OW 6676   1.442   6.773   3.864
 1926SOL    HW1 6677   1.485   6.705   3.804
 1926SOL    HW2 6678   1.506   6.849   3.878
 1927SOL     OW 6679   3.330   4.083   6.655
 1927SOL    HW1 6680   3.310   4.161   6.715
 1927SOL    HW2 6681   3.254   4.069   6.592
 1928SOL     OW 6682   6.154   3.966   5.791
 1928SOL    HW1 6683   6.242   4.008   5.769
 1928SOL    HW2 6684   6.165   3.866   5.793
 1929SOL     OW 6685   0.527   6.366   1.374
 1929SOL    HW1 6686   0.622   6.371   1.344
 1929SOL    HW2 6687   0.525   6.342   1.471
 1930SOL     OW 6688   5.500   4.514   5.973
 1930SOL    HW1 6689   5.456   4.436   6.017
 1930SOL    HW2 6690   5.437   4.552   5.904
 1931SOL     OW 6691   0.650   3.033   4.089
 1931SOL    HW1 6692   0.586   3.107   4.108
 1931SOL    HW2 6693   0.622   2.986   4.005
 1932SOL     OW 6694   5.233   4.089   1.392
 1932SOL    HW1 6695   5.251   4.069   1.489
 1932SOL    HW2 6696   5.138   4.116   1.380
 1933SOL     OW 6697   2.833   4.592   0.894
 1933SOL    HW1 6698   2.889   4.657   0.842
 1933SOL    HW2 6699   2.812   4.513   0.836
 1934SOL     OW 6700   0.802   6.234   6.171
 1934SOL    HW1 6701   0.713   6.278   6.185
 1934SOL    HW2 6702   0.821   6.228   6.073
 1935SOL     OW 6703   2.589   0.524   3.958
 1935SOL    HW1 6704   2.589   0.529   4.057
 1935SOL    HW2 6705   2.508   0.569   3.921
 1936SOL     OW 6706   6.552   5.983   4.618
 1936SOL    HW1 6707   6.498   5.917   4.670
 1936SOL    HW2 6708   6.577   6.060   4.677
 1937SOL     OW 6709   3.892   6.455   1.872
 1937SOL    HW1 6710   3.884   6.539   1.924
 1937SOL    HW2 6711   3.944   6.472   1.788
 1938SOL     OW 6712   3.955   1.186   3.666
 1938SOL    HW1 6713   3.884   1.125   3.702
 1938SOL    HW2 6714   4.016   1.135   3.607
 1939SOL     OW 6715   1.477   1.359   3.748
 1939SOL    HW1 6716   1.568   1.385   3.713
 1939SOL    HW2 6717   1.471   1.260   3.752
 1940SOL     OW 6718   6.596   5.185   6.903
 1940SOL    HW1 6719   6.535   5.264   6.891
 1940SOL    HW2 6720   6.563   5.129   6.979
 1941SOL     OW 6721   5.375   3.779   1.921
 1941SOL    HW1 6722   5.425   3.805   1.838
 1941SOL    HW2 6723   5.294   3.726   1.895
 1942SOL     OW 6724   6.441   4.835   2.396
 1942SOL    HW1 6725   6.358   4.818   2.448
 1942SOL    HW2 6726   6.515   4.862   2.458
 1943SOL     OW 6727   2.532   4.533   3.550
 1943SOL    HW1 6728   2.581   4.582   3.477
 1943SOL    HW2 6729   2.586   4.537   3.634
 1944SOL     OW 6730   6.214   0.851   0.087
 1944SOL    HW1 6731   6.159   0.874   0.167
 1944SOL    HW2 6732   6.292   0.914   0.081
 1945SOL     OW 6733   3.872   5.168   3.887
 1945SOL    HW1 6734   3.943   5.168   3.958
 1945SOL    HW2 6735   3.899   5.231   3.814
 1946SOL     OW 6736   1.139   0.300   6.874
 1946SOL    HW1 6737   1.161   0.396   6.857
 1946SOL    HW2 6738   1.123   0.286   6.971
 1947SOL     OW 6739   5.321   5.486   3.394
 1947SOL    HW1 6740   5.331   5.549   3.317
 1947SOL    HW2 6741   5.226   5.488   3.426
 1948SOL     OW 6742   6.722   5.723   4.392
 1948SOL    HW1 6743   6.695   5.820   4.390
 1948SOL    HW2 6744   6.643   5.666   4.368
 1949SOL     OW 6745   4.552   4.167   6.654
 1949SOL    HW1 6746   4.499   4.102   6.709
 1949SOL    HW2 6747   4.531   4.153   6.557
 1950SOL     OW 6748   3.120   4.122   6.432
 1950SOL    HW1 6749   3.061   4.142   6.509
 1950SOL    HW2 6750   3.070   4.067   6.365
 1951SOL     OW 6751   6.046   1.411   6.594
 1951SOL    HW1 6752   5.960   1.372   6.561
 1951SOL    HW2 6753   6.040   1.426   6.693
 1952SOL     OW 6754   3.704   2.081   0.468
 1952SOL    HW1 6755   3.718   2.059   0.372
 1952SOL    HW2 6756   3.651   2.165   0.476
 1953SOL     OW 6757   6.918   2.094   6.365
 1953SOL    HW1 6758   6.858   2.028   6.318
 1953SOL    HW2 6759   6.958   2.051   6.445
 1954SOL     OW 6760   3.826   1.943   4.078
 1954SOL    HW1 6761   3.742   1.941   4.132
 1954SOL    HW2 6762   3.865   1.850   4.074
 1955SOL     OW 6763   0.186   6.486   2.212
 1955SOL    HW1 6764   0.124   6.441   2.147
 1955SOL    HW2 6765   0.206   6.579   2.180
 1956SOL     OW 6766   5.661   5.931   2.790
 1956SOL    HW1 6767   5.676   5.987   2.871
 1956SOL    HW2 6768   5.716   5.967   2.714
 1957SOL     OW 6769   0.530   6.362   4.695
 1957SOL    HW1 6770   0.565   6.406   4.777
 1957SOL    HW2 6771   0.448   6.410   4.664
 1958SOL     OW 6772   5.509   3.591   5.582
 1958SOL    HW1 6773   5.556   3.629   5.662
 1958SOL    HW2 6774   5.497   3.663   5.513
 1959SOL     OW 6775   1.269   2.314   6.383
 1959SOL    HW1 6776   1.253   2.410   6.406
 1959SOL    HW2 6777   1.359   2.305   6.339
 1960SOL     OW 6778   5.878   4.919   0.506
 1960SOL    HW1 6779   5.941   4.992   0.531
 1960SOL    HW2 6780   5.792   4.959   0.473
 1961SOL     OW 6781   5.673   4.488   3.900
 1961SOL    HW1 6782   5.677   4.528   3.991
 1961SOL    HW2 6783   5.765   4.483   3.861
 1962SOL     OW 6784   1.306   6.032   3.155
 1962SOL    HW1 6785   1.371   5.956   3.150
 1962SOL    HW2 6786   1.288   6.068   3.064
 1963SOL     OW 6787   0.814   0.620   2.492
 1963SOL    HW1 6788   0.852   0.578   2.574
 1963SOL    HW2 6789   0.742   0.684   2.518
 1964SOL     OW 6790   4.358   2.342   2.289
 1964SOL    HW1 6791   4.404   2.269   2.339
 1964SOL    HW2 6792   4.262   2.346   2.315
 1965SOL     OW 6793   0.804   3.511   2.877
 1965SOL    HW1 6794   0.771   3.468   2.961
 1965SOL    HW2 6795   0.839   3.602   2.898
 1966SOL     OW 6796   0.096   5.319   5.238
 1966SOL    HW1 6797   0.011   5.355   5.277
 1966SOL    HW2 6798   0.132   5.248   5.298
 1967SOL     OW 6799   4.418   2.674   5.416
 1967SOL    HW1 6800   4.423   2.587   5.367
 1967SOL    HW2 6801   4.342   2.729   5.380
 1968SOL     OW 6802   2.355   6.403   0.078
 1968SOL    HW1 6803   2.359   6.450   0.166
 1968SOL    HW2 6804   2.391   6.310   0.089
 1969SOL     OW 6805   6.719   2.413   1.798
 1969SOL    HW1 6806   6.730   2.427   1.700
 1969SOL    HW2 6807   6.649   2.344   1.815
 1970SOL     OW 6808   1.901   6.994   5.010
 1970SOL    HW1 6809   1.846   0.000   4.934
 1970SOL    HW2 6810   1.930   6.899   4.993
 1971SOL     OW 6811   0.396   6.402   6.844
 1971SOL    HW1 6812   0.314   6.403   6.901
 1971SOL    HW2 6813   0.477   6.415   6.901
 1972SOL     OW 6814   0.756   4.547   3.814
 1972SOL    HW1 6815   0.823   4.613   3.780
 1972SOL    HW2 6816   0.745   4.474   3.746
 1973SOL     OW 6817   3.649   2.592   1.397
 1973SOL    HW1 6818   3.698   2.506   1.386
 1973SOL    HW2 6819   3.595   2.589   1.481
 1974SOL     OW 6820   5.499   0.082   4.112
 1974SOL    HW1 6821   5.545   0.022   4.048
 1974SOL    HW2 6822   5.487   0.172   4.070
 1975SOL     OW 6823   2.813   0.669   3.899
 1975SOL    HW1 6824   2.740   0.603   3.915
 1975SOL    HW2 6825   2.898   0.620   3.880
 1976SOL     OW 6826   0.183   6.213   0.432
 1976SOL    HW1 6827   0.204   6.174   0.522
 1976SOL    HW2 6828   0.200   6.311   0.434
 1977SOL     OW 6829   1.000   2.532   4.415
 1977SOL    HW1 6830   0.986   2.615   4.361
 1977SOL    HW2 6831   1.038   2.555   4.504
 1978SOL     OW 6832   0.321   1.291   4.581
 1978SOL    HW1 6833   0.251   1.320   4.646
 1978SOL    HW2 6834   0.362   1.205   4.613
 1979SOL     OW 6835   6.782   4.405   4.818
 1979SOL    HW1 6836   6.838   4.348   4.877
 1979SOL    HW2 6837   6.688   4.371   4.817
 1980SOL     OW 6838   3.482   0.124   1.419
 1980SOL    HW1 6839   3.432   0.189   1.363
 1980SOL    HW2 6840   3.579   0.148   1.421
 1981SOL     OW 6841   5.128   2.870   2.052
 1981SOL    HW1 6842   5.141   2.827   1.963
 1981SOL    HW2 6843   5.033   2.902   2.061
 1982SOL     OW 6844   5.627   4.945   4.779
 1982SOL    HW1 6845   5.575   4.859   4.774
 1982SOL    HW2 6846   5.649   4.975   4.686
 1983SOL     OW 6847   1.394   2.735   3.572
 1983SOL    HW1 6848   1.336   2.712   3.494
 1983SOL    HW2 6849   1.373   2.828   3.603
 1984SOL     OW 6850   4.614   1.690   5.888
 1984SOL    HW1 6851   4.599   1.774   5.940
 1984SOL    HW2 6852   4.594   1.610   5.946
 1985SOL     OW 6853   1.359   0.924   1.851
 1985SOL    HW1 6854   1.366   1.011   1.802
 1985SOL    HW2 6855   1.267   0.887   1.842
 1986SOL     OW 6856   1.435   2.360   6.899
 1986SOL    HW1 6857   1.493   2.299   6.844
 1986SOL    HW2 6858   1.340   2.329   6.894
 1987SOL     OW 6859   2.633   3.499   1.364
 1987SOL    HW1 6860   2.597   3.462   1.450
 1987SOL    HW2 6861   2.602   3.593   1.352
 1988SOL     OW 6862   4.845   3.578   6.773
 1988SOL    HW1 6863   4.910   3.506   6.749
 1988SOL    HW2 6864   4.892   3.666   6.771
 1989SOL     OW 6865   1.902   0.196   4.840
 1989SOL    HW1 6866   1.924   0.240   4.752
 1989SOL    HW2 6867   1.984   0.152   4.876
 1990SOL     OW 6868   2.895   1.156   0.853
 1990SOL    HW1 6869   2.839   1.098   0.793
 1990SOL    HW2 6870   2.979   1.106   0.878
 1991SOL     OW 6871   3.253   5.846   4.750
 1991SOL    HW1 6872   3.324   5.908   4.718
 1991SOL    HW2 6873   3.239   5.859   4.848
 1992SOL     OW 6874   2.257   6.800   5.242
 1992SOL    HW1 6875   2.306   6.840   5.319
 1992SOL    HW2 6876   2.273   6.855   5.160
 1993SOL     OW 6877   3.509   3.983   5.382
 1993SOL    HW1 6878   3.444   4.052   5.416
 1993SOL    HW2 6879   3.597   4.027   5.364
 1994SOL     OW 6880   6.693   2.060   2.006
 1994SOL    HW1 6881   6.777   2.092   1.962
 1994SOL    HW2 6882   6.714   1.985   2.069
 1995SOL     OW 6883   6.392   1.888   1.568
 1995SOL    HW1 6884   6.469   1.855   1.513
 1995SOL    HW2 6885   6.368   1.820   1.637
 1996SOL     OW 6886   3.424   4.080   0.038
 1996SOL    HW1 6887   3.433   4.090   6.965
 1996SOL    HW2 6888   3.495   4.134   0.084
 1997SOL     OW 6889   5.703   0.824   5.022
 1997SOL    HW1 6890   5.748   0.738   4.998
 1997SOL    HW2 6891   5.695   0.831   5.121
 1998SOL     OW 6892   2.776   4.103   6.484
 1998SOL    HW1 6893   2.766   4.166   6.406
 1998SOL    HW2 6894   2.773   4.009   6.451
 1999SOL     OW 6895   2.505   7.014   1.797
 1999SOL    HW1 6896   2.470   0.006   1.705
 1999SOL    HW2 6897   2.440   0.024   1.865
 2000SOL     OW 6898   4.310   1.101   5.082
 2000SOL    HW1 6899   4.268   1.182   5.124
 2000SOL    HW2 6900   4.267   1.019   5.118
 2001SOL     OW 6901   2.951   1.906   1.181
 2001SOL    HW1 6902   3.013   1.880   1.256
 2001SOL    HW2 6903   2.867   1.945   1.219
 2002SOL     OW 6904   2.098   6.053   6.127
 2002SOL    HW1 6905   2.049   5.995   6.192
 2002SOL    HW2 6906   2.049   6.053   6.040
 2003SOL     OW 6907   5.744   6.824   3.162
 2003SOL    HW1 6908   5.746   6.923   3.144
 2003SOL    HW2 6909   5.832   6.784   3.140
 2004SOL     OW 6910   3.233   0.976   5.510
 2004SOL    HW1 6911   3.189   0.952   5.597
 2004SOL    HW2 6912   3.309   0.913   5.493
 2005SOL     OW 6913   2.149   6.314   6.196
 2005SOL    HW1 6914   2.133   6.222   6.160
 2005SOL    HW2 6915   2.221   6.311   6.265
 2006SOL     OW 6916   4.216   4.761   3.693
 2006SOL    HW1 6917   4.191   4.665   3.706
 2006SOL    HW2 6918   4.315   4.771   3.702
 2007SOL     OW 6919   5.040   5.395   6.989
 2007SOL    HW1 6920   5.110   5.378   6.921
 2007SOL    HW2 6921   4.974   5.461   6.953
 2008SOL     OW 6922   6.806   6.585   3.250
 2008SOL    HW1 6923   6.798   6.684   3.243
 2008SOL    HW2 6924   6.715   6.544   3.244
 2009SOL     OW 6925   0.065   0.474   1.822
 2009SOL    HW1 6926   0.129   0.505   1.892
 2009SOL    HW2 6927   0.037   0.551   1.765
 2010SOL     OW 6928   0.962   0.811   0.799
 2010SOL    HW1 6929   0.885   0.792   0.861
 2010SOL    HW2 6930   0.935   0.883   0.734
 2011SOL     OW 6931   6.510   2.253   4.973
 2011SOL    HW1 6932   6.444   2.296   5.035
 2011SOL    HW2 6933   6.470   2.170   4.934
 2012SOL     OW 6934   1.435   4.175   1.827
 2012SOL    HW1 6935   1.376   4.248   1.862
 2012SOL    HW2 6936   1.401   4.144   1.738
 2013SOL     OW 6937   5.917   1.753   2.656
 2013SOL    HW1 6938   5.877   1.817   2.591
 2013SOL    HW2 6939   6.016   1.761   2.654
 2014SOL     OW 6940   1.694   5.894   3.666
 2014SOL    HW1 6941   1.743   5.935   3.589
 2014SOL    HW2 6942   1.618   5.952   3.692
 2015SOL     OW 6943   3.905   0.741   0.220
 2015SOL    HW1 6944   3.851   0.823   0.238
 2015SOL    HW2 6945   3.844   0.662   0.215
 2016SOL     OW 6946   0.768   5.459   3.829
 2016SOL    HW1 6947   0.863   5.439   3.850
 2016SOL    HW2 6948   0.723   5.376   3.795
 2017SOL     OW 6949   2.036   5.944   3.275
 2017SOL    HW1 6950   1.992   5.855   3.270
 2017SOL    HW2 6951   2.040   5.985   3.184
 2018SOL     OW 6952   0.196   5.656   5.545
 2018SOL    HW1 6953   0.201   5.643   5.644
 2018SOL    HW2 6954   0.280   5.698   5.513
 2019SOL     OW 6955   5.723   2.354   0.804
 2019SOL    HW1 6956   5.730   2.423   0.732
 2019SOL    HW2 6957   5.627   2.328   0.817
 2020SOL     OW 6958   2.125   5.265   4.311
 2020SOL    HW1 6959   2.034   5.226   4.328
 2020SOL    HW2 6960   2.163   5.226   4.227
 2021SOL     OW 6961   1.576   1.125   2.669
 2021SOL    HW1 6962   1.665   1.136   2.714
 2021SOL    HW2 6963   1.582   1.158   2.575
 2022SOL     OW 6964   2.514   3.724   1.650
 2022SOL    HW1 6965   2.424   3.743   1.610
 2022SOL    HW2 6966   2.520   3.627   1.673
 2023SOL     OW 6967   6.914   0.942   6.698
 2023SOL    HW1 6968   6.901   1.041   6.702
 2023SOL    HW2 6969   6.973   0.913   6.773
 2024SOL     OW 6970   6.251   0.598   3.665
 2024SOL    HW1 6971   6.258   0.501   3.688
 2024SOL    HW2 6972   6.342   0.640   3.672
 2025SOL     OW 6973   0.539   2.142   1.199
 2025SOL    HW1 6974   0.588   2.191   1.128
 2025SOL    HW2 6975   0.466   2.200   1.236
 2026SOL     OW 6976   2.227   2.573   5.506
 2026SOL    HW1 6977   2.281   2.500   5.464
 2026SOL    HW2 6978   2.132   2.566   5.477
 2027SOL     OW 6979   0.510   1.227   2.131
 2027SOL    HW1 6980   0.462   1.281   2.062
 2027SOL    HW2 6981   0.609   1.237   2.118
 2028SOL     OW 6982   3.545   1.872   0.555
 2028SOL    HW1 6983   3.581   1.965   0.546
 2028SOL    HW2 6984   3.445   1.874   0.548
 2029SOL     OW 6985   1.061   1.158   6.564
 2029SOL    HW1 6986   1.137   1.133   6.624
 2029SOL    HW2 6987   1.036   1.078   6.509
 2030SOL     OW 6988   1.856   2.322   3.806
 2030SOL    HW1 6989   1.847   2.420   3.819
 2030SOL    HW2 6990   1.785   2.274   3.858
 2031SOL     OW 6991   5.383   6.019   2.205
 2031SOL    HW1 6992   5.426   5.945   2.257
 2031SOL    HW2 6993   5.341   5.981   2.122
 2032SOL     OW 6994   5.190   6.292   0.474
 2032SOL    HW1 6995   5.182   6.269   0.571
 2032SOL    HW2 6996   5.156   6.215   0.419
 2033SOL     OW 6997   4.755   4.496   6.441
 2033SOL    HW1 6998   4.685   4.431   6.412
 2033SOL    HW2 6999   4.712   4.581   6.469
 2034SOL     OW 7000   2.326   6.411   3.190
 2034SOL    HW1 7001   2.416   6.368   3.202
 2034SOL    HW2 7002   2.326   6.501   3.234
 2035SOL     OW 7003   0.255   1.655   2.526
 2035SOL    HW1 7004   0.166   1.623   2.493
 2035SOL    HW2 7005   0.327   1.609   2.474
 2036SOL     OW 7006   0.290   5.368   0.831
 2036SOL    HW1 7007   0.292   5.434   0.755
 2036SOL    HW2 7008   0.353   5.293   0.812
 2037SOL     OW 7009   7.010   2.532   5.667
 2037SOL    HW1 7010   6.946   2.572   5.602
 2037SOL    HW2 7011   6.980   2.552   5.760
 2038SOL     OW 7012   0.403   1.804   5.041
 2038SOL    HW1 7013   0.307   1.784   5.055
 2038SOL    HW2 7014   0.421   1.819   4.944
 2039SOL     OW 7015   6.523   5.830   3.953
 2039SOL    HW1 7016   6.587   5.867   4.020
 2039SOL    HW2 7017   6.550   5.738   3.928
 2040SOL     OW 7018   3.891   3.301   4.432
 2040SOL    HW1 7019   3.812   3.355   4.462
 2040SOL    HW2 7020   3.949   3.279   4.511
 2041SOL     OW 7021   5.811   4.511   6.369
 2041SOL    HW1 7022   5.894   4.554   6.333
 2041SOL    HW2 7023   5.803   4.418   6.332
 2042SOL     OW 7024   5.206   5.161   0.870
 2042SOL    HW1 7025   5.133   5.119   0.816
 2042SOL    HW2 7026   5.170   5.240   0.919
 2043SOL     OW 7027   6.491   5.213   2.581
 2043SOL    HW1 7028   6.399   5.246   2.604
 2043SOL    HW2 7029   6.518   5.142   2.645
 2044SOL     OW 7030   5.621   6.744   2.108
 2044SOL    HW1 7031   5.695   6.681   2.089
 2044SOL    HW2 7032   5.643   6.834   2.070
 2045SOL     OW 7033   2.311   4.537   6.105
 2045SOL    HW1 7034   2.228   4.503   6.061
 2045SOL    HW2 7035   2.305   4.521   6.204
 2046SOL     OW 7036   6.910   0.489   4.320
 2046SOL    HW1 7037   6.943   0.439   4.399
 2046SOL    HW2 7038   6.828   0.444   4.284
 2047SOL     OW 7039   4.858   2.324   1.438
 2047SOL    HW1 7040   4.806   2.381   1.375
 2047SOL    HW2 7041   4.956   2.331   1.416
 2048SOL     OW 7042   4.181   0.089   0.217
 2048SOL    HW1 7043   4.102   0.033   0.239
 2048SOL    HW2 7044   4.232   0.046   0.142
 2049SOL     OW 7045   4.729   1.609   6.586
 2049SOL    HW1 7046   4.734   1.633   6.683
 2049SOL    HW2 7047   4.807   1.648   6.537
 2050SOL     OW 7048   5.802   2.448   3.816
 2050SOL    HW1 7049   5.889   2.407   3.843
 2050SOL    HW2 7050   5.733   2.428   3.885
 2051SOL     OW 7051   1.091   5.369   0.251
 2051SOL    HW1 7052   1.163   5.336   0.190
 2051SOL    HW2 7053   1.002   5.335   0.220
 2052SOL     OW 7054   0.622   2.912   6.954
 2052SOL    HW1 7055   0.618   2.930   6.856
 2052SOL    HW2 7056   0.706   2.953   6.992
 2053SOL     OW 7057   6.334   0.330   0.439
 2053SOL    HW1 7058   6.361   0.369   0.527
 2053SOL    HW2 7059   6.355   0.394   0.365
 2054SOL     OW 7060   5.956   2.982   0.807
 2054SOL    HW1 7061   6.048   3.009   0.780
 2054SOL    HW2 7062   5.911   2.935   0.730
 2055SOL     OW 7063   5.600   2.429   3.372
 2055SOL    HW1 7064   5.620   2.490   3.296
 2055SOL    HW2 7065   5.530   2.363   3.345
 2056SOL     OW 7066   2.424   1.287   3.244
 2056SOL    HW1 7067   2.390   1.380   3.254
 2056SOL    HW2 7068   2.522   1.289   3.222
 2057SOL     OW 7069   5.720   1.971   3.954
 2057SOL    HW1 7070   5.719   2.026   4.037
 2057SOL    HW2 7071   5.764   1.883   3.972
 2058SOL     OW 7072   0.239   2.007   3.446
 2058SOL    HW1 7073   0.178   2.077   3.484
 2058SOL    HW2 7074   0.333   2.026   3.474
 2059SOL     OW 7075   1.961   0.671   6.689
 2059SOL    HW1 7076   1.934   0.650   6.596
 2059SOL    HW2 7077   1.985   0.587   6.738
 2060SOL     OW 7078   0.298   4.744   1.849
 2060SOL    HW1 7079   0.320   4.685   1.771
 2060SOL    HW2 7080   0.276   4.836   1.815
 2061SOL     OW 7081   6.663   1.367   2.155
 2061SOL    HW1 7082   6.581   1.330   2.111
 2061SOL    HW2 7083   6.695   1.447   2.103
 2062SOL     OW 7084   4.552   0.157   2.373
 2062SOL    HW1 7085   4.462   0.188   2.342
 2062SOL    HW2 7086   4.620   0.178   2.303
 2063SOL     OW 7087   1.459   2.172   6.081
 2063SOL    HW1 7088   1.490   2.197   6.173
 2063SOL    HW2 7089   1.533   2.188   6.015
 2064SOL     OW 7090   1.022   2.090   5.364
 2064SOL    HW1 7091   0.986   2.171   5.318
 2064SOL    HW2 7092   1.084   2.117   5.437
 2065SOL     OW 7093   5.908   3.445   2.258
 2065SOL    HW1 7094   5.923   3.504   2.178
 2065SOL    HW2 7095   5.960   3.360   2.247
 2066SOL     OW 7096   0.524   5.962   4.354
 2066SOL    HW1 7097   0.566   5.976   4.264
 2066SOL    HW2 7098   0.550   6.037   4.415
 2067SOL     OW 7099   6.673   6.580   0.721
 2067SOL    HW1 7100   6.589   6.527   0.735
 2067SOL    HW2 7101   6.749   6.519   0.700
 2068SOL     OW 7102   2.440   1.472   5.440
 2068SOL    HW1 7103   2.457   1.562   5.482
 2068SOL    HW2 7104   2.460   1.477   5.342
 2069SOL     OW 7105   0.779   2.577   2.595
 2069SOL    HW1 7106   0.851   2.606   2.532
 2069SOL    HW2 7107   0.717   2.513   2.549
 2070SOL     OW 7108   1.311   0.175   2.394
 2070SOL    HW1 7109   1.336   0.266   2.426
 2070SOL    HW2 7110   1.219   0.177   2.355
 2071SOL     OW 7111   0.818   6.327   3.453
 2071SOL    HW1 7112   0.826   6.275   3.368
 2071SOL    HW2 7113   0.907   6.331   3.498
 2072SOL     OW 7114   4.987   5.935   2.278
 2072SOL    HW1 7115   4.891   5.906   2.286
 2072SOL    HW2 7116   5.045   5.871   2.327
 2073SOL     OW 7117   4.085   0.204   4.849
 2073SOL    HW1 7118   4.108   0.197   4.752
 2073SOL    HW2 7119   4.101   0.116   4.894
 2074SOL     OW 7120   6.729   1.941   0.396
 2074SOL    HW1 7121   6.644   1.983   0.364
 2074SOL    HW2 7122   6.748   1.972   0.489
 2075SOL     OW 7123   4.429   3.492   1.320
 2075SOL    HW1 7124   4.333   3.462   1.318
 2075SOL    HW2 7125   4.437   3.577   1.268
 2076SOL     OW 7126   5.576   5.740   6.952
 2076SOL    HW1 7127   5.629   5.660   6.925
 2076SOL    HW2 7128   5.538   5.726   0.017
 2077SOL     OW 7129   4.976   1.893   2.143
 2077SOL    HW1 7130   4.979   1.847   2.232
 2077SOL    HW2 7131   5.067   1.923   2.117
 2078SOL     OW 7132   2.731   5.941   6.284
 2078SOL    HW1 7133   2.826   5.971   6.274
 2078SOL    HW2 7134   2.728   5.841   6.285
 2079SOL     OW 7135   5.433   0.804   3.596
 2079SOL    HW1 7136   5.414   0.726   3.656
 2079SOL    HW2 7137   5.358   0.871   3.604
 2080SOL     OW 7138   2.650   2.297   4.779
 2080SOL    HW1 7139   2.705   2.287   4.862
 2080SOL    HW2 7140   2.625   2.393   4.767
 2081SOL     OW 7141   0.837   6.481   5.391
 2081SOL    HW1 7142   0.813   6.548   5.462
 2081SOL    HW2 7143   0.902   6.415   5.428
 2082SOL     OW 7144   5.630   0.652   1.539
 2082SOL    HW1 7145   5.663   0.710   1.465
 2082SOL    HW2 7146   5.599   0.564   1.502
 2083SOL     OW 7147   3.930   5.731   7.015
 2083SOL    HW1 7148   3.934   5.692   6.923
 2083SOL    HW2 7149   3.835   5.735   0.019
 2084SOL     OW 7150   6.718   2.347   3.132
 2084SOL    HW1 7151   6.791   2.394   3.084
 2084SOL    HW2 7152   6.741   2.340   3.229
 2085SOL     OW 7153   4.808   0.951   6.568
 2085SOL    HW1 7154   4.892   0.923   6.615
 2085SOL    HW2 7155   4.806   0.907   6.478
 2086SOL     OW 7156   3.501   4.739   6.553
 2086SOL    HW1 7157   3.489   4.647   6.515
 2086SOL    HW2 7158   3.572   4.787   6.502
 2087SOL     OW 7159   4.925   6.578   2.581
 2087SOL    HW1 7160   4.890   6.564   2.489
 2087SOL    HW2 7161   5.020   6.608   2.576
 2088SOL     OW 7162   3.169   6.236   0.857
 2088SOL    HW1 7163   3.234   6.159   0.862
 2088SOL    HW2 7164   3.076   6.202   0.872
 2089SOL     OW 7165   4.670   1.627   0.272
 2089SOL    HW1 7166   4.731   1.548   0.281
 2089SOL    HW2 7167   4.590   1.614   0.330
 2090SOL     OW 7168   3.773   4.118   4.445
 2090SOL    HW1 7169   3.773   4.209   4.485
 2090SOL    HW2 7170   3.741   4.052   4.513
 2091SOL     OW 7171   0.485   5.959   0.480
 2091SOL    HW1 7172   0.401   5.905   0.474
 2091SOL    HW2 7173   0.484   6.014   0.564
 2092SOL     OW 7174   5.608   6.135   0.529
 2092SOL    HW1 7175   5.530   6.074   0.543
 2092SOL    HW2 7176   5.591   6.222   0.575
 2093SOL     OW 7177   1.554   2.280   2.409
 2093SOL    HW1 7178   1.556   2.378   2.389
 2093SOL    HW2 7179   1.563   2.228   2.324
 2094SOL     OW 7180   5.928   0.709   1.974
 2094SOL    HW1 7181   6.010   0.763   1.994
 2094SOL    HW2 7182   5.892   0.736   1.884
 2095SOL     OW 7183   5.263   6.409   3.667
 2095SOL    HW1 7184   5.290   6.505   3.672
 2095SOL    HW2 7185   5.167   6.400   3.693
 2096SOL     OW 7186   4.919   3.767   2.788
 2096SOL    HW1 7187   4.893   3.671   2.787
 2096SOL    HW2 7188   4.916   3.804   2.695
 2097SOL     OW 7189   0.395   2.637   6.629
 2097SOL    HW1 7190   0.296   2.642   6.617
 2097SOL    HW2 7191   0.418   2.654   6.724
 2098SOL     OW 7192   3.971   6.242   4.359
 2098SOL    HW1 7193   3.928   6.158   4.327
 2098SOL    HW2 7194   4.071   6.233   4.351
 2099SOL     OW 7195   2.739   0.803   5.012
 2099SOL    HW1 7196   2.688   0.729   4.970
 2099SOL    HW2 7197   2.831   0.807   4.972
 2100SOL     OW 7198   3.777   3.665   6.486
 2100SOL    HW1 7199   3.851   3.704   6.431
 2100SOL    HW2 7200   3.706   3.629   6.426
 2101SOL     OW 7201   0.792   0.015   2.540
 2101SOL    HW1 7202   0.787   6.984   2.622
 2101SOL    HW2 7203   0.844   6.994   2.469
 2102SOL     OW 7204   0.356   5.600   2.392
 2102SOL    HW1 7205   0.369   5.523   2.330
 2102SOL    HW2 7206   0.260   5.604   2.420
 2103SOL     OW 7207   2.737   3.784   0.083
 2103SOL    HW1 7208   2.803   3.859   0.073
 2103SOL    HW2 7209   2.769   3.720   0.152
 2104SOL     OW 7210   1.795   3.300   6.519
 2104SOL    HW1 7211   1.822   3.396   6.522
 2104SOL    HW2 7212   1.817   3.262   6.430
 2105SOL     OW 7213   5.777   5.308   2.721
 2105SOL    HW1 7214   5.681   5.326   2.698
 2105SOL    HW2 7215   5.793   5.210   2.724
 2106SOL     OW 7216   4.145   5.109   6.660
 2106SOL    HW1 7217   4.118   5.204   6.645
 2106SOL    HW2 7218   4.204   5.103   6.740
 2107SOL     OW 7219   3.898   3.530   5.658
 2107SOL    HW1 7220   3.965   3.505   5.589
 2107SOL    HW2 7221   3.814   3.562   5.613
 2108SOL     OW 7222   6.236   5.478   5.279
 2108SOL    HW1 7223   6.139   5.457   5.289
 2108SOL    HW2 7224   6.289   5.393   5.277
 2109SOL     OW 7225   5.022   6.361   3.468
 2109SOL    HW1 7226   5.022   6.344   3.566
 2109SOL    HW2 7227   5.104   6.413   3.442
 2110SOL     OW 7228   2.975   4.368   6.819
 2110SOL    HW1 7229   3.021   4.452   6.791
 2110SOL    HW2 7230   2.878   4.387   6.836
 2111SOL     OW 7231   0.874   2.290   6.047
 2111SOL    HW1 7232   0.961   2.261   6.007
 2111SOL    HW2 7233   0.869   2.258   6.141
 2112SOL     OW 7234   4.282   2.481   1.545
 2112SOL    HW1 7235   4.255   2.569   1.506
 2112SOL    HW2 7236   4.377   2.461   1.519
 2113SOL     OW 7237   1.821   6.955   3.141
 2113SOL    HW1 7238   1.821   6.861   3.175
 2113SOL    HW2 7239   1.914   6.992   3.146
 2114SOL     OW 7240   1.556   3.993   0.672
 2114SOL    HW1 7241   1.486   3.922   0.671
 2114SOL    HW2 7242   1.562   4.033   0.763
 2115SOL     OW 7243   2.155   4.417   3.373
 2115SOL    HW1 7244   2.223   4.400   3.301
 2115SOL    HW2 7245   2.063   4.410   3.334
 2116SOL     OW 7246   6.396   3.981   2.983
 2116SOL    HW1 7247   6.394   4.078   3.008
 2116SOL    HW2 7248   6.429   3.971   2.890
 2117SOL     OW 7249   0.193   5.011   1.787
 2117SOL    HW1 7250   0.202   5.090   1.848
 2117SOL    HW2 7251   0.231   5.033   1.697
 2118SOL     OW 7252   0.217   3.580   2.453
 2118SOL    HW1 7253   0.160   3.498   2.451
 2118SOL    HW2 7254   0.307   3.560   2.413
 2119SOL     OW 7255   1.961   5.729   1.043
 2119SOL    HW1 7256   2.044   5.721   1.097
 2119SOL    HW2 7257   1.899   5.653   1.067
 2120SOL     OW 7258   6.366   4.596   2.584
 2120SOL    HW1 7259   6.295   4.666   2.590
 2120SOL    HW2 7260   6.385   4.576   2.488
 2121SOL     OW 7261   0.676   5.115   5.312
 2121SOL    HW1 7262   0.580   5.141   5.310
 2121SOL    HW2 7263   0.719   5.138   5.225
 2122SOL     OW 7264   5.976   4.757   5.433
 2122SOL    HW1 7265   5.932   4.841   5.465
 2122SOL    HW2 7266   5.930   4.725   5.350
 2123SOL     OW 7267   0.181   4.273   2.891
 2123SOL    HW1 7268   0.105   4.314   2.940
 2123SOL    HW2 7269   0.148   4.195   2.838
 2124SOL     OW 7270   1.510   1.866   1.302
 2124SOL    HW1 7271   1.587   1.809   1.329
 2124SOL    HW2 7272   1.430   1.843   1.358
 2125SOL     OW 7273   1.361   1.189   0.141
 2125SOL    HW1 7274   1.285   1.128   0.120
 2125SOL    HW2 7275   1.447   1.140   0.134
 2126SOL     OW 7276   2.498   1.245   0.144
 2126SOL    HW1 7277   2.442   1.192   0.081
 2126SOL    HW2 7278   2.471   1.341   0.140
 2127SOL     OW 7279   6.061   2.519   4.350
 2127SOL    HW1 7280   6.002   2.480   4.420
 2127SOL    HW2 7281   6.151   2.539   4.389
 2128SOL     OW 7282   0.312   4.656   4.813
 2128SOL    HW1 7283   0.281   4.750   4.805
 2128SOL    HW2 7284   0.254   4.597   4.757
 2129SOL     OW 7285   4.841   2.867   5.416
 2129SOL    HW1 7286   4.761   2.853   5.358
 2129SOL    HW2 7287   4.860   2.782   5.466
 2130SOL     OW 7288   5.182   6.635   2.631
 2130SOL    HW1 7289   5.169   6.721   2.680
 2130SOL    HW2 7290   5.268   6.639   2.579
 2131SOL     OW 7291   0.283   1.300   0.449
 2131SOL    HW1 7292   0.213   1.349   0.397
 2131SOL    HW2 7293   0.251   1.207   0.468
 2132SOL     OW 7294   3.458   2.948   0.777
 2132SOL    HW1 7295   3.436   3.025   0.836
 2132SOL    HW2 7296   3.421   2.965   0.685
 2133SOL     OW 7297   2.666   2.467   5.664
 2133SOL    HW1 7298   2.764   2.479   5.649
 2133SOL    HW2 7299   2.651   2.385   5.720
 2134SOL     OW 7300   6.719   1.971   1.183
 2134SOL    HW1 7301   6.750   1.884   1.145
 2134SOL    HW2 7302   6.629   1.994   1.144
 2135SOL     OW 7303   0.524   4.260   4.398
 2135SOL    HW1 7304   0.561   4.187   4.456
 2135SOL    HW2 7305   0.575   4.261   4.311
 2136SOL     OW 7306   2.978   5.453   1.910
 2136SOL    HW1 7307   2.927   5.371   1.887
 2136SOL    HW2 7308   2.971   5.519   1.834
 2137SOL     OW 7309   3.076   5.484   4.836
 2137SOL    HW1 7310   3.014   5.419   4.790
 2137SOL    HW2 7311   3.140   5.521   4.769
 2138SOL     OW 7312   6.041   0.630   3.151
 2138SOL    HW1 7313   6.117   0.664   3.207
 2138SOL    HW2 7314   6.062   0.538   3.119
 2139SOL     OW 7315   2.972   0.783   5.242
 2139SOL    HW1 7316   3.021   0.869   5.255
 2139SOL    HW2 7317   2.958   0.767   5.144
 2140SOL     OW 7318   3.252   0.639   5.169
 2140SOL    HW1 7319   3.207   0.558   5.209
 2140SOL    HW2 7320   3.184   0.694   5.121
 2141SOL     OW 7321   6.279   3.985   2.183
 2141SOL    HW1 7322   6.221   3.992   2.264
 2141SOL    HW2 7323   6.353   4.052   2.189
 2142SOL     OW 7324   1.655   2.783   3.993
 2142SOL    HW1 7325   1.699   2.873   3.993
 2142SOL    HW2 7326   1.590   2.777   3.918
 2143SOL     OW 7327   1.760   5.555   1.123
 2143SOL    HW1 7328   1.729   5.541   1.029
 2143SOL    HW2 7329   1.812   5.475   1.153
 2144SOL     OW 7330   0.432   5.017   4.553
 2144SOL    HW1 7331   0.482   5.056   4.475
 2144SOL    HW2 7332   0.335   5.036   4.543
 2145SOL     OW 7333   3.701   6.874   4.388
 2145SOL    HW1 7334   3.677   6.960   4.344
 2145SOL    HW2 7335   3.730   6.807   4.319
 2146SOL     OW 7336   2.132   2.316   0.626
 2146SOL    HW1 7337   2.221   2.360   0.611
 2146SOL    HW2 7338   2.135   2.222   0.591
 2147SOL     OW 7339   6.440   1.909   5.780
 2147SOL    HW1 7340   6.385   1.833   5.814
 2147SOL    HW2 7341   6.450   1.902   5.680
 2148SOL     OW 7342   0.025   2.893   6.524
 2148SOL    HW1 7343   6.951   2.896   6.532
 2148SOL    HW2 7344   0.060   2.985   6.507
 2149SOL     OW 7345   1.230   0.805   0.833
 2149SOL    HW1 7346   1.131   0.798   0.836
 2149SOL    HW2 7347   1.256   0.870   0.761
 2150SOL     OW 7348   2.762   2.711   1.657
 2150SOL    HW1 7349   2.671   2.704   1.697
 2150SOL    HW2 7350   2.787   2.808   1.647
 2151SOL     OW 7351   0.584   6.533   7.021
 2151SOL    HW1 7352   0.558   6.629   7.018
 2151SOL    HW2 7353   0.674   6.521   6.978
 2152SOL     OW 7354   3.742   5.956   1.990
 2152SOL    HW1 7355   3.806   5.985   2.061
 2152SOL    HW2 7356   3.649   5.958   2.027
 2153SOL     OW 7357   4.457   1.088   2.593
 2153SOL    HW1 7358   4.420   1.001   2.627
 2153SOL    HW2 7359   4.398   1.163   2.622
 2154SOL     OW 7360   2.738   6.848   3.226
 2154SOL    HW1 7361   2.796   6.768   3.210
 2154SOL    HW2 7362   2.662   6.824   3.287
 2155SOL     OW 7363   4.230   0.200   1.013
 2155SOL    HW1 7364   4.143   0.245   1.036
 2155SOL    HW2 7365   4.218   0.144   0.931
 2156SOL     OW 7366   6.650   1.111   3.413
 2156SOL    HW1 7367   6.594   1.031   3.436
 2156SOL    HW2 7368   6.603   1.165   3.343
 2157SOL     OW 7369   4.446   5.821   3.851
 2157SOL    HW1 7370   4.469   5.910   3.812
 2157SOL    HW2 7371   4.350   5.799   3.829
 2158SOL     OW 7372   4.159   0.050   0.780
 2158SOL    HW1 7373   4.195   6.998   0.831
 2158SOL    HW2 7374   4.073   0.023   0.736
 2159SOL     OW 7375   1.676   0.719   5.201
 2159SOL    HW1 7376   1.634   0.759   5.283
 2159SOL    HW2 7377   1.620   0.643   5.168
 2160SOL     OW 7378   4.987   5.244   0.214
 2160SOL    HW1 7379   5.049   5.166   0.224
 2160SOL    HW2 7380   5.018   5.301   0.137
 2161SOL     OW 7381   0.746   3.757   2.553
 2161SOL    HW1 7382   0.689   3.696   2.608
 2161SOL    HW2 7383   0.728   3.741   2.456
 2162SOL     OW 7384   2.692   0.061   3.353
 2162SOL    HW1 7385   2.725   6.994   3.338
 2162SOL    HW2 7386   2.640   0.091   3.273
 2163SOL     OW 7387   1.737   3.307   0.360
 2163SOL    HW1 7388   1.701   3.227   0.312
 2163SOL    HW2 7389   1.802   3.354   0.301
 2164SOL     OW 7390   2.523   2.554   0.020
 2164SOL    HW1 7391   2.565   2.487   0.081
 2164SOL    HW2 7392   2.490   2.632   0.074
 2165SOL     OW 7393   0.698   1.705   4.284
 2165SOL    HW1 7394   0.692   1.727   4.381
 2165SOL    HW2 7395   0.662   1.613   4.268
 2166SOL     OW 7396   0.561   4.514   3.992
 2166SOL    HW1 7397   0.614   4.491   4.073
 2166SOL    HW2 7398   0.623   4.532   3.916
 2167SOL     OW 7399   1.453   2.832   3.828
 2167SOL    HW1 7400   1.437   2.778   3.746
 2167SOL    HW2 7401   1.454   2.929   3.806
 2168SOL     OW 7402   1.269   2.179   3.126
 2168SOL    HW1 7403   1.269   2.110   3.053
 2168SOL    HW2 7404   1.255   2.270   3.086
 2169SOL     OW 7405   0.731   0.810   0.948
 2169SOL    HW1 7406   0.644   0.804   0.899
 2169SOL    HW2 7407   0.719   0.776   1.041
 2170SOL     OW 7408   0.451   4.379   5.023
 2170SOL    HW1 7409   0.532   4.436   5.029
 2170SOL    HW2 7410   0.478   4.283   5.010
 2171SOL     OW 7411   0.254   5.672   1.456
 2171SOL    HW1 7412   0.180   5.606   1.442
 2171SOL    HW2 7413   0.342   5.629   1.439
 2172SOL     OW 7414   0.606   1.996   5.118
 2172SOL    HW1 7415   0.594   2.051   5.200
 2172SOL    HW2 7416   0.541   1.920   5.119
 2173SOL     OW 7417   5.680   0.091   5.599
 2173SOL    HW1 7418   5.653   0.182   5.632
 2173SOL    HW2 7419   5.752   0.101   5.530
 2174SOL     OW 7420   0.578   6.491   5.216
 2174SOL    HW1 7421   0.495   6.441   5.239
 2174SOL    HW2 7422   0.621   6.526   5.300
 2175SOL     OW 7423   1.968   2.958   5.351
 2175SOL    HW1 7424   1.948   2.860   5.351
 2175SOL    HW2 7425   2.066   2.972   5.340
 2176SOL     OW 7426   5.002   2.661   1.432
 2176SOL    HW1 7427   5.037   2.724   1.502
 2176SOL    HW2 7428   4.912   2.628   1.460
 2177SOL     OW 7429   6.567   0.852   3.047
 2177SOL    HW1 7430   6.572   0.819   3.141
 2177SOL    HW2 7431   6.498   0.924   3.041
 2178SOL     OW 7432   1.191   1.412   1.590
 2178SOL    HW1 7433   1.262   1.353   1.627
 2178SOL    HW2 7434   1.149   1.368   1.510
 2179SOL     OW 7435   2.105   4.187   6.563
 2179SOL    HW1 7436   2.104   4.280   6.525
 2179SOL    HW2 7437   2.110   4.192   6.662
 2180SOL     OW 7438   1.854   3.649   2.209
 2180SOL    HW1 7439   1.788   3.694   2.148
 2180SOL    HW2 7440   1.947   3.671   2.179
 2181SOL     OW 7441   4.820   4.751   4.663
 2181SOL    HW1 7442   4.813   4.850   4.652
 2181SOL    HW2 7443   4.738   4.717   4.708
 2182SOL     OW 7444   0.969   4.797   3.444
 2182SOL    HW1 7445   1.034   4.752   3.382
 2182SOL    HW2 7446   0.967   4.895   3.424
 2183SOL     OW 7447   2.736   3.375   7.018
 2183SOL    HW1 7448   2.673   3.428   0.049
 2183SOL    HW2 7449   2.774   3.300   0.046
 2184SOL     OW 7450   5.590   0.365   0.304
 2184SOL    HW1 7451   5.610   0.322   0.216
 2184SOL    HW2 7452   5.522   0.310   0.353
 2185SOL     OW 7453   0.907   1.395   6.467
 2185SOL    HW1 7454   0.978   1.324   6.465
 2185SOL    HW2 7455   0.834   1.371   6.403
 2186SOL     OW 7456   6.230   5.283   4.850
 2186SOL    HW1 7457   6.187   5.289   4.760
 2186SOL    HW2 7458   6.302   5.351   4.858
 2187SOL     OW 7459   0.149   5.379   2.559
 2187SOL    HW1 7460   0.159   5.425   2.647
 2187SOL    HW2 7461   0.238   5.344   2.530
 2188SOL     OW 7462   2.641   5.276   6.388
 2188SOL    HW1 7463   2.610   5.348   6.451
 2188SOL    HW2 7464   2.591   5.192   6.408
 2189SOL     OW 7465   2.517   1.374   2.309
 2189SOL    HW1 7466   2.546   1.419   2.225
 2189SOL    HW2 7467   2.480   1.283   2.287
 2190SOL     OW 7468   6.940   3.327   2.185
 2190SOL    HW1 7469   6.928   3.321   2.086
 2190SOL    HW2 7470   6.853   3.311   2.231
 2191SOL     OW 7471   2.365   1.573   4.988
 2191SOL    HW1 7472   2.423   1.654   4.986
 2191SOL    HW2 7473   2.384   1.518   4.906
 2192SOL     OW 7474   5.614   0.120   2.634
 2192SOL    HW1 7475   5.710   0.116   2.662
 2192SOL    HW2 7476   5.583   0.215   2.632
 2193SOL     OW 7477   6.249   6.909   6.208
 2193SOL    HW1 7478   6.249   6.935   6.305
 2193SOL    HW2 7479   6.283   6.816   6.199
 2194SOL     OW 7480   0.499   4.054   5.305
 2194SOL    HW1 7481   0.555   4.124   5.349
 2194SOL    HW2 7482   0.541   3.964   5.318
 2195SOL     OW 7483   6.962   5.617   5.537
 2195SOL    HW1 7484   0.031   5.646   5.545
 2195SOL    HW2 7485   6.949   5.567   5.451
 2196SOL     OW 7486   3.015   6.565   5.143
 2196SOL    HW1 7487   3.012   6.653   5.190
 2196SOL    HW2 7488   2.922   6.530   5.133
 2197SOL     OW 7489   2.804   3.232   5.887
 2197SOL    HW1 7490   2.852   3.303   5.938
 2197SOL    HW2 7491   2.811   3.250   5.789
 2198SOL     OW 7492   6.660   0.172   0.530
 2198SOL    HW1 7493   6.645   0.135   0.621
 2198SOL    HW2 7494   6.576   0.163   0.476
 2199SOL     OW 7495   4.935   0.079   4.856
 2199SOL    HW1 7496   4.880   0.022   4.795
 2199SOL    HW2 7497   4.876   0.141   4.906
 2200SOL     OW 7498   3.387   1.246   3.876
 2200SOL    HW1 7499   3.463   1.186   3.903
 2200SOL    HW2 7500   3.320   1.193   3.824
 2201SOL     OW 7501   6.344   2.918   3.325
 2201SOL    HW1 7502   6.318   2.837   3.273
 2201SOL    HW2 7503   6.337   2.898   3.423
 2202SOL     OW 7504   3.080   5.330   2.574
 2202SOL    HW1 7505   3.176   5.338   2.601
 2202SOL    HW2 7506   3.054   5.411   2.521
 2203SOL     OW 7507   2.709   4.027   1.245
 2203SOL    HW1 7508   2.618   4.000   1.216
 2203SOL    HW2 7509   2.724   4.124   1.225
 2204SOL     OW 7510   4.491   2.703   1.208
 2204SOL    HW1 7511   4.484   2.665   1.300
 2204SOL    HW2 7512   4.497   2.802   1.213
 2205SOL     OW 7513   1.548   6.794   0.512
 2205SOL    HW1 7514   1.559   6.744   0.425
 2205SOL    HW2 7515   1.551   6.729   0.588
 2206SOL     OW 7516   2.259   4.474   6.358
 2206SOL    HW1 7517   2.315   4.488   6.440
 2206SOL    HW2 7518   2.166   4.505   6.376
 2207SOL     OW 7519   3.211   5.643   0.684
 2207SOL    HW1 7520   3.203   5.640   0.784
 2207SOL    HW2 7521   3.127   5.681   0.645
 2208SOL     OW 7522   0.874   5.782   3.343
 2208SOL    HW1 7523   0.907   5.808   3.252
 2208SOL    HW2 7524   0.872   5.682   3.351
 2209SOL     OW 7525   2.281   5.699   4.881
 2209SOL    HW1 7526   2.202   5.686   4.941
 2209SOL    HW2 7527   2.286   5.795   4.853
 2210SOL     OW 7528   6.448   5.841   2.727
 2210SOL    HW1 7529   6.423   5.847   2.824
 2210SOL    HW2 7530   6.437   5.747   2.695
 2211SOL     OW 7531   6.088   0.627   0.731
 2211SOL    HW1 7532   6.059   0.552   0.791
 2211SOL    HW2 7533   6.066   0.714   0.773
 2212SOL     OW 7534   2.228   5.674   6.720
 2212SOL    HW1 7535   2.147   5.725   6.749
 2212SOL    HW2 7536   2.257   5.706   6.630
 2213SOL     OW 7537   4.615   2.689   5.022
 2213SOL    HW1 7538   4.697   2.742   5.002
 2213SOL    HW2 7539   4.563   2.675   4.938
 2214SOL     OW 7540   3.558   2.881   5.413
 2214SOL    HW1 7541   3.491   2.825   5.365
 2214SOL    HW2 7542   3.581   2.961   5.358
 2215SOL     OW 7543   5.625   1.729   6.465
 2215SOL    HW1 7544   5.693   1.711   6.394
 2215SOL    HW2 7545   5.663   1.705   6.554
 2216SOL     OW 7546   0.753   6.488   5.977
 2216SOL    HW1 7547   0.747   6.585   5.950
 2216SOL    HW2 7548   0.819   6.442   5.917
 2217SOL     OW 7549   4.471   0.808   3.681
 2217SOL    HW1 7550   4.536   0.852   3.743
 2217SOL    HW2 7551   4.502   0.820   3.586
 2218SOL     OW 7552   0.109   5.219   6.752
 2218SOL    HW1 7553   0.086   5.137   6.805
 2218SOL    HW2 7554   0.034   5.241   6.690
 2219SOL     OW 7555   6.071   2.025   0.897
 2219SOL    HW1 7556   6.074   2.034   0.997
 2219SOL    HW2 7557   5.977   2.040   0.866
 2220SOL     OW 7558   2.311   6.121   5.715
 2220SOL    HW1 7559   2.238   6.166   5.766
 2220SOL    HW2 7560   2.292   6.129   5.617
 2221SOL     OW 7561   6.846   1.526   4.650
 2221SOL    HW1 7562   6.800   1.494   4.733
 2221SOL    HW2 7563   6.826   1.623   4.636
 2222SOL     OW 7564   6.070   6.628   0.647
 2222SOL    HW1 7565   6.033   6.581   0.727
 2222SOL    HW2 7566   6.135   6.568   0.601
 2223SOL     OW 7567   6.705   1.185   5.618
 2223SOL    HW1 7568   6.724   1.267   5.672
 2223SOL    HW2 7569   6.696   1.210   5.521
 2224SOL     OW 7570   5.934   3.606   2.029
 2224SOL    HW1 7571   5.892   3.651   1.950
 2224SOL    HW2 7572   6.016   3.656   2.057
 2225SOL     OW 7573   0.347   6.881   3.075
 2225SOL    HW1 7574   0.408   6.885   2.995
 2225SOL    HW2 7575   0.296   6.967   3.082
 2226SOL     OW 7576   4.081   5.639   0.629
 2226SOL    HW1 7577   4.042   5.617   0.539
 2226SOL    HW2 7578   4.111   5.735   0.629
 2227SOL     OW 7579   4.731   2.626   1.580
 2227SOL    HW1 7580   4.773   2.567   1.649
 2227SOL    HW2 7581   4.656   2.577   1.536
 2228SOL     OW 7582   4.722   5.246   0.276
 2228SOL    HW1 7583   4.682   5.281   0.191
 2228SOL    HW2 7584   4.822   5.241   0.267
 2229SOL     OW 7585   3.600   3.520   4.810
 2229SOL    HW1 7586   3.530   3.590   4.797
 2229SOL    HW2 7587   3.556   3.430   4.809
 2230SOL     OW 7588   5.360   5.833   1.610
 2230SOL    HW1 7589   5.422   5.774   1.662
 2230SOL    HW2 7590   5.272   5.787   1.597
 2231SOL     OW 7591   0.619   0.508   6.449
 2231SOL    HW1 7592   0.707   0.470   6.474
 2231SOL    HW2 7593   0.616   0.606   6.473
 2232SOL     OW 7594   0.544   1.255   5.010
 2232SOL    HW1 7595   0.498   1.326   4.957
 2232SOL    HW2 7596   0.534   1.167   4.965
 2233SOL     OW 7597   2.855   3.377   0.933
 2233SOL    HW1 7598   2.864   3.283   0.898
 2233SOL    HW2 7599   2.778   3.422   0.887
 2234SOL     OW 7600   3.957   1.419   0.784
 2234SOL    HW1 7601   4.050   1.418   0.819
 2234SOL    HW2 7602   3.948   1.353   0.710
 2235SOL     OW 7603   2.525   0.268   2.507
 2235SOL    HW1 7604   2.444   0.300   2.557
 2235SOL    HW2 7605   2.561   0.344   2.451
 2236SOL     OW 7606   1.794   3.594   6.251
 2236SOL    HW1 7607   1.843   3.527   6.195
 2236SOL    HW2 7608   1.698   3.569   6.257
 2237SOL     OW 7609   5.979   4.591   4.718
 2237SOL    HW1 7610   6.060   4.636   4.757
 2237SOL    HW2 7611   5.996   4.492   4.712
 2238SOL     OW 7612   4.594   4.717   2.661
 2238SOL    HW1 7613   4.670   4.780   2.674
 2238SOL    HW2 7614   4.628   4.623   2.662
 2239SOL     OW 7615   4.573   5.282   4.177
 2239SOL    HW1 7616   4.486   5.301   4.131
 2239SOL    HW2 7617   4.606   5.365   4.221
 2240SOL     OW 7618   3.801   5.603   2.097
 2240SOL    HW1 7619   3.883   5.578   2.149
 2240SOL    HW2 7620   3.737   5.651   2.157
 2241SOL     OW 7621   6.644   6.948   2.136
 2241SOL    HW1 7622   6.683   0.011   2.112
 2241SOL    HW2 7623   6.587   6.957   2.217
 2242SOL     OW 7624   5.586   3.278   2.656
 2242SOL    HW1 7625   5.610   3.265   2.560
 2242SOL    HW2 7626   5.495   3.317   2.662
 2243SOL     OW 7627   1.641   6.659   0.291
 2243SOL    HW1 7628   1.722   6.604   0.309
 2243SOL    HW2 7629   1.647   6.697   0.198
 2244SOL     OW 7630   2.547   0.472   1.053
 2244SOL    HW1 7631   2.599   0.536   1.111
 2244SOL    HW2 7632   2.457   0.456   1.094
 2245SOL     OW 7633   6.982   1.467   0.826
 2245SOL    HW1 7634   6.967   1.509   0.737
 2245SOL    HW2 7635   0.023   1.520   0.878
 2246SOL     OW 7636   1.821   0.643   3.851
 2246SOL    HW1 7637   1.781   0.618   3.939
 2246SOL    HW2 7638   1.811   0.741   3.837
 2247SOL     OW 7639   3.117   3.586   2.529
 2247SOL    HW1 7640   3.192   3.633   2.484
 2247SOL    HW2 7641   3.077   3.646   2.598
 2248SOL     OW 7642   6.579   4.081   4.462
 2248SOL    HW1 7643   6.550   4.165   4.508
 2248SOL    HW2 7644   6.644   4.032   4.520
 2249SOL     OW 7645   4.329   6.836   3.950
 2249SOL    HW1 7646   4.309   6.839   3.852
 2249SOL    HW2 7647   4.284   6.757   3.991
 2250SOL     OW 7648   3.345   3.786   5.449
 2250SOL    HW1 7649   3.422   3.848   5.436
 2250SOL    HW2 7650   3.295   3.777   5.363
 2251SOL     OW 7651   5.627   0.230   5.997
 2251SOL    HW1 7652   5.561   0.273   6.058
 2251SOL    HW2 7653   5.600   0.244   5.902
 2252SOL     OW 7654   5.014   2.038   2.760
 2252SOL    HW1 7655   5.053   2.116   2.810
 2252SOL    HW2 7656   4.916   2.032   2.779
 2253SOL     OW 7657   0.151   3.763   6.948
 2253SOL    HW1 7658   0.076   3.809   6.996
 2253SOL    HW2 7659   0.158   3.668   6.979
 2254SOL     OW 7660   3.671   3.291   3.364
 2254SOL    HW1 7661   3.744   3.331   3.419
 2254SOL    HW2 7662   3.626   3.218   3.416
 2255SOL     OW 7663   3.047   3.541   5.740
 2255SOL    HW1 7664   3.031   3.508   5.834
 2255SOL    HW2 7665   3.021   3.470   5.675
 2256SOL     OW 7666   4.952   6.563   1.958
 2256SOL    HW1 7667   5.024   6.584   1.891
 2256SOL    HW2 7668   4.960   6.627   2.035
 2257SOL     OW 7669   0.955   1.190   4.480
 2257SOL    HW1 7670   0.907   1.107   4.454
 2257SOL    HW2 7671   1.004   1.175   4.566
 2258SOL     OW 7672   2.102   5.704   4.260
 2258SOL    HW1 7673   2.182   5.690   4.318
 2258SOL    HW2 7674   2.121   5.779   4.195
 2259SOL     OW 7675   5.396   2.853   5.326
 2259SOL    HW1 7676   5.451   2.934   5.345
 2259SOL    HW2 7677   5.422   2.814   5.238
 2260SOL     OW 7678   0.278   3.796   1.264
 2260SOL    HW1 7679   0.182   3.822   1.254
 2260SOL    HW2 7680   0.291   3.753   1.354
 2261SOL     OW 7681   6.922   4.782   0.803
 2261SOL    HW1 7682   6.933   4.753   0.708
 2261SOL    HW2 7683   7.012   4.800   0.843
 2262SOL     OW 7684   6.108   6.968   3.190
 2262SOL    HW1 7685   6.076   6.980   3.096
 2262SOL    HW2 7686   6.062   6.889   3.231
 2263SOL     OW 7687   2.100   5.978   0.717
 2263SOL    HW1 7688   2.026   5.973   0.650
 2263SOL    HW2 7689   2.131   5.886   0.741
 2264SOL     OW 7690   2.505   6.982   6.503
 2264SOL    HW1 7691   2.419   7.015   6.465
 2264SOL    HW2 7692   2.486   6.921   6.580
 2265SOL     OW 7693   1.978   0.752   4.397
 2265SOL    HW1 7694   2.074   0.778   4.393
 2265SOL    HW2 7695   1.945   0.761   4.492
 2266SOL     OW 7696   4.764   1.948   6.390
 2266SOL    HW1 7697   4.815   1.876   6.342
 2266SOL    HW2 7698   4.693   1.906   6.446
 2267SOL     OW 7699   5.008   2.856   5.048
 2267SOL    HW1 7700   5.035   2.764   5.075
 2267SOL    HW2 7701   5.086   2.918   5.056
 2268SOL     OW 7702   6.265   3.994   6.634
 2268SOL    HW1 7703   6.335   4.028   6.697
 2268SOL    HW2 7704   6.263   4.052   6.553
 2269SOL     OW 7705   1.311   3.569   4.957
 2269SOL    HW1 7706   1.226   3.578   5.010
 2269SOL    HW2 7707   1.385   3.538   5.016
 2270SOL     OW 7708   3.863   2.975   6.578
 2270SOL    HW1 7709   3.865   3.039   6.655
 2270SOL    HW2 7710   3.956   2.960   6.545
 2271SOL     OW 7711   5.623   4.614   6.963
 2271SOL    HW1 7712   5.648   4.564   0.019
 2271SOL    HW2 7713   5.676   4.581   6.885
 2272SOL     OW 7714   6.370   0.798   6.583
 2272SOL    HW1 7715   6.360   0.747   6.668
 2272SOL    HW2 7716   6.285   0.794   6.531
 2273SOL     OW 7717   1.535   2.336   1.885
 2273SOL    HW1 7718   1.565   2.425   1.919
 2273SOL    HW2 7719   1.594   2.306   1.810
 2274SOL     OW 7720   0.534   1.858   6.360
 2274SOL    HW1 7721   0.460   1.918   6.329
 2274SOL    HW2 7722   0.578   1.898   6.441
 2275SOL     OW 7723   5.908   6.261   2.873
 2275SOL    HW1 7724   5.926   6.359   2.875
 2275SOL    HW2 7725   5.891   6.232   2.778
 2276SOL     OW 7726   1.384   5.729   1.375
 2276SOL    HW1 7727   1.383   5.790   1.454
 2276SOL    HW2 7728   1.333   5.771   1.300
 2277SOL     OW 7729   3.366   3.671   4.889
 2277SOL    HW1 7730   3.269   3.651   4.875
 2277SOL    HW2 7731   3.378   3.716   4.977
 2278SOL     OW 7732   6.039   2.267   3.895
 2278SOL    HW1 7733   6.051   2.308   3.985
 2278SOL    HW2 7734   6.119   2.288   3.838
 2279SOL     OW 7735   6.605   6.818   5.335
 2279SOL    HW1 7736   6.533   6.762   5.375
 2279SOL    HW2 7737   6.663   6.761   5.276
 2280SOL     OW 7738   6.504   0.348   4.741
 2280SOL    HW1 7739   6.547   0.261   4.713
 2280SOL    HW2 7740   6.548   0.423   4.692
 2281SOL     OW 7741   2.771   0.709   1.757
 2281SOL    HW1 7742   2.763   0.767   1.838
 2281SOL    HW2 7743   2.867   0.700   1.732
 2282SOL     OW 7744   5.402   5.973   5.506
 2282SOL    HW1 7745   5.322   5.945   5.560
 2282SOL    HW2 7746   5.406   6.073   5.501
 2283SOL     OW 7747   1.755   0.648   2.144
 2283SOL    HW1 7748   1.786   0.723   2.202
 2283SOL    HW2 7749   1.706   0.580   2.199
 2284SOL     OW 7750   1.256   3.609   6.297
 2284SOL    HW1 7751   1.291   3.548   6.226
 2284SOL    HW2 7752   1.317   3.606   6.376
 2285SOL     OW 7753   1.105   3.128   0.039
 2285SOL    HW1 7754   1.125   3.033   0.061
 2285SOL    HW2 7755   1.178   3.186   0.074
 2286SOL     OW 7756   5.623   0.182   3.575
 2286SOL    HW1 7757   5.605   0.117   3.501
 2286SOL    HW2 7758   5.705   0.235   3.555
 2287SOL     OW 7759   2.319   1.028   3.780
 2287SOL    HW1 7760   2.408   1.074   3.783
 2287SOL    HW2 7761   2.332   0.929   3.785
 2288SOL     OW 7762   0.043   5.179   3.902
 2288SOL    HW1 7763   0.105   5.193   3.825
 2288SOL    HW2 7764   0.089   5.124   3.972
 2289SOL     OW 7765   0.066   5.279   0.641
 2289SOL    HW1 7766   6.995   5.270   0.659
 2289SOL    HW2 7767   0.084   5.367   0.597
 2290SOL     OW 7768   0.305   3.886   1.597
 2290SOL    HW1 7769   0.300   3.789   1.575
 2290SOL    HW2 7770   0.391   3.905   1.644
 2291SOL     OW 7771   2.568   2.683   5.838
 2291SOL    HW1 7772   2.505   2.756   5.810
 2291SOL    HW2 7773   2.549   2.600   5.785
 2292SOL     OW 7774   1.463   1.439   4.233
 2292SOL    HW1 7775   1.502   1.458   4.323
 2292SOL    HW2 7776   1.504   1.355   4.196
 2293SOL     OW 7777   5.313   5.857   1.983
 2293SOL    HW1 7778   5.218   5.888   1.984
 2293SOL    HW2 7779   5.365   5.911   1.916
 2294SOL     OW 7780   3.237   0.217   6.998
 2294SOL    HW1 7781   3.337   0.214   7.001
 2294SOL    HW2 7782   3.201   0.230   0.064
 2295SOL     OW 7783   0.400   1.569   2.269
 2295SOL    HW1 7784   0.468   1.629   2.311
 2295SOL    HW2 7785   0.427   1.550   2.174
 2296SOL     OW 7786   2.950   6.457   0.756
 2296SOL    HW1 7787   2.997   6.383   0.805
 2296SOL    HW2 7788   2.982   6.459   0.661
 2297SOL     OW 7789   3.588   4.269   5.085
 2297SOL    HW1 7790   3.614   4.213   5.164
 2297SOL    HW2 7791   3.667   4.277   5.024
 2298SOL     OW 7792   3.669   2.868   1.469
 2298SOL    HW1 7793   3.687   2.780   1.423
 2298SOL    HW2 7794   3.635   2.850   1.561
 2299SOL     OW 7795   5.701   0.695   6.680
 2299SOL    HW1 7796   5.645   0.618   6.649
 2299SOL    HW2 7797   5.652   0.780   6.661
 2300SOL     OW 7798   2.188   5.261   1.653
 2300SOL    HW1 7799   2.157   5.204   1.730
 2300SOL    HW2 7800   2.127   5.339   1.643
 2301SOL     OW 7801   2.911   3.364   2.923
 2301SOL    HW1 7802   2.951   3.372   2.832
 2301SOL    HW2 7803   2.814   3.386   2.920
 2302SOL     OW 7804   3.312   0.311   2.242
 2302SOL    HW1 7805   3.247   0.305   2.318
 2302SOL    HW2 7806   3.384   0.376   2.266
 2303SOL     OW 7807   1.620   3.404   5.752
 2303SOL    HW1 7808   1.671   3.318   5.743
 2303SOL    HW2 7809   1.533   3.385   5.799
 2304SOL     OW 7810   2.608   0.503   3.173
 2304SOL    HW1 7811   2.688   0.478   3.227
 2304SOL    HW2 7812   2.611   0.455   3.085
 2305SOL     OW 7813   3.675   5.875   3.132
 2305SOL    HW1 7814   3.607   5.938   3.171
 2305SOL    HW2 7815   3.696   5.904   3.038
 2306SOL     OW 7816   1.894   5.675   1.520
 2306SOL    HW1 7817   1.881   5.593   1.576
 2306SOL    HW2 7818   1.810   5.694   1.468
 2307SOL     OW 7819   2.298   4.762   2.427
 2307SOL    HW1 7820   2.367   4.771   2.498
 2307SOL    HW2 7821   2.312   4.676   2.378
 2308SOL     OW 7822   1.106   6.913   6.706
 2308SOL    HW1 7823   1.142   6.821   6.692
 2308SOL    HW2 7824   1.136   6.973   6.631
 2309SOL     OW 7825   2.501   6.519   0.323
 2309SOL    HW1 7826   2.474   6.432   0.365
 2309SOL    HW2 7827   2.599   6.519   0.303
 2310SOL     OW 7828   6.195   6.086   1.526
 2310SOL    HW1 7829   6.280   6.092   1.578
 2310SOL    HW2 7830   6.124   6.044   1.583
 2311SOL     OW 7831   2.954   6.593   2.552
 2311SOL    HW1 7832   2.880   6.629   2.495
 2311SOL    HW2 7833   3.005   6.669   2.591
 2312SOL     OW 7834   3.349   6.567   3.345
 2312SOL    HW1 7835   3.261   6.590   3.387
 2312SOL    HW2 7836   3.404   6.649   3.335
 2313SOL     OW 7837   4.646   5.468   2.193
 2313SOL    HW1 7838   4.735   5.465   2.146
 2313SOL    HW2 7839   4.623   5.563   2.213
 2314SOL     OW 7840   5.833   0.862   3.654
 2314SOL    HW1 7841   5.922   0.824   3.680
 2314SOL    HW2 7842   5.763   0.791   3.664
 2315SOL     OW 7843   5.151   3.488   5.043
 2315SOL    HW1 7844   5.056   3.464   5.064
 2315SOL    HW2 7845   5.181   3.439   4.961
 2316SOL     OW 7846   2.805   1.666   5.226
 2316SOL    HW1 7847   2.807   1.633   5.131
 2316SOL    HW2 7848   2.715   1.705   5.246
 2317SOL     OW 7849   6.740   6.444   3.511
 2317SOL    HW1 7850   6.814   6.507   3.532
 2317SOL    HW2 7851   6.686   6.426   3.594
 2318SOL     OW 7852   2.145   3.453   4.456
 2318SOL    HW1 7853   2.174   3.358   4.464
 2318SOL    HW2 7854   2.125   3.490   4.547
 2319SOL     OW 7855   3.189   5.561   5.138
 2319SOL    HW1 7856   3.217   5.484   5.081
 2319SOL    HW2 7857   3.133   5.528   5.214
 2320SOL     OW 7858   1.271   2.542   4.914
 2320SOL    HW1 7859   1.325   2.494   4.844
 2320SOL    HW2 7860   1.206   2.477   4.955
 2321SOL     OW 7861   2.360   5.580   6.953
 2321SOL    HW1 7862   2.323   5.607   6.864
 2321SOL    HW2 7863   2.365   5.660   7.013
 2322SOL     OW 7864   2.031   4.750   2.281
 2322SOL    HW1 7865   1.992   4.842   2.290
 2322SOL    HW2 7866   2.129   4.754   2.301
 2323SOL     OW 7867   3.440   4.850   1.678
 2323SOL    HW1 7868   3.480   4.787   1.744
 2323SOL    HW2 7869   3.363   4.898   1.721
 2324SOL     OW 7870   6.575   6.277   0.967
 2324SOL    HW1 7871   6.520   6.361   0.975
 2324SOL    HW2 7872   6.669   6.301   0.942
 2325SOL     OW 7873   0.267   4.392   1.211
 2325SOL    HW1 7874   0.224   4.483   1.208
 2325SOL    HW2 7875   0.196   4.322   1.210
 2326SOL     OW 7876   1.270   6.466   6.364
 2326SOL    HW1 7877   1.329   6.453   6.444
 2326SOL    HW2 7878   1.191   6.405   6.370
 2327SOL     OW 7879   0.713   1.461   3.018
 2327SOL    HW1 7880   0.685   1.395   3.088
 2327SOL    HW2 7881   0.702   1.420   2.927
 2328SOL     OW 7882   1.583   1.863   3.045
 2328SOL    HW1 7883   1.649   1.854   3.120
 2328SOL    HW2 7884   1.623   1.828   2.961
 2329SOL     OW 7885   0.777   4.400   5.258
 2329SOL    HW1 7886   0.704   4.392   5.189
 2329SOL    HW2 7887   0.857   4.443   5.217
 2330SOL     OW 7888   0.207   2.807   0.954
 2330SOL    HW1 7889   0.249   2.720   0.929
 2330SOL    HW2 7890   0.215   2.821   1.053
 2331SOL     OW 7891   3.878   5.139   0.167
 2331SOL    HW1 7892   3.951   5.173   0.225
 2331SOL    HW2 7893   3.852   5.209   0.101
 2332SOL     OW 7894   0.088   6.884   5.644
 2332SOL    HW1 7895   0.016   6.953   5.650
 2332SOL    HW2 7896   0.070   6.811   5.709
 2333SOL     OW 7897   0.016   4.407   3.458
 2333SOL    HW1 7898   6.946   4.417   3.484
 2333SOL    HW2 7899   0.072   4.397   3.540
 2334SOL     OW 7900   1.985   1.191   6.403
 2334SOL    HW1 7901   2.042   1.111   6.423
 2334SOL    HW2 7902   1.991   1.212   6.305
 2335SOL     OW 7903   5.973   0.684   4.107
 2335SOL    HW1 7904   5.994   0.664   4.011
 2335SOL    HW2 7905   5.884   0.645   4.131
 2336SOL     OW 7906   4.211   1.323   5.228
 2336SOL    HW1 7907   4.177   1.404   5.180
 2336SOL    HW2 7908   4.307   1.335   5.252
 2337SOL     OW 7909   4.144   0.377   1.272
 2337SOL    HW1 7910   4.231   0.332   1.291
 2337SOL    HW2 7911   4.157   0.451   1.207
 2338SOL     OW 7912   0.384   3.112   4.451
 2338SOL    HW1 7913   0.333   3.030   4.425
 2338SOL    HW2 7914   0.321   3.188   4.466
 2339SOL     OW 7915   3.642   4.104   3.216
 2339SOL    HW1 7916   3.731   4.061   3.227
 2339SOL    HW2 7917   3.605   4.082   3.126
 2340SOL     OW 7918   6.699   4.130   6.600
 2340SOL    HW1 7919   6.717   4.083   6.513
 2340SOL    HW2 7920   6.766   4.204   6.612
 2341SOL     OW 7921   3.141   4.825   2.353
 2341SOL    HW1 7922   3.139   4.922   2.376
 2341SOL    HW2 7923   3.232   4.788   2.373
 2342SOL     OW 7924   1.425   6.750   5.082
 2342SOL    HW1 7925   1.389   6.661   5.054
 2342SOL    HW2 7926   1.372   6.784   5.160
 2343SOL     OW 7927   1.553   5.476   2.327
 2343SOL    HW1 7928   1.488   5.407   2.360
 2343SOL    HW2 7929   1.597   5.442   2.243
 2344SOL     OW 7930   0.589   5.767   6.780
 2344SOL    HW1 7931   0.495   5.758   6.812
 2344SOL    HW2 7932   0.615   5.685   6.729
 2345SOL     OW 7933   2.712   5.383   5.000
 2345SOL    HW1 7934   2.809   5.362   5.001
 2345SOL    HW2 7935   2.664   5.323   5.064
 2346SOL     OW 7936   3.178   3.194   5.578
 2346SOL    HW1 7937   3.251   3.177   5.645
 2346SOL    HW2 7938   3.208   3.164   5.488
 2347SOL     OW 7939   2.652   2.530   1.467
 2347SOL    HW1 7940   2.667   2.519   1.566
 2347SOL    HW2 7941   2.574   2.474   1.439
 2348SOL     OW 7942   2.106   6.030   3.546
 2348SOL    HW1 7943   2.134   6.125   3.556
 2348SOL    HW2 7944   2.054   6.019   3.462
 2349SOL     OW 7945   1.164   4.811   5.924
 2349SOL    HW1 7946   1.155   4.735   5.860
 2349SOL    HW2 7947   1.203   4.778   6.010
 2350SOL     OW 7948   6.274   5.846   5.915
 2350SOL    HW1 7949   6.242   5.928   5.961
 2350SOL    HW2 7950   6.344   5.801   5.970
 2351SOL     OW 7951   2.930   5.371   4.344
 2351SOL    HW1 7952   2.907   5.294   4.404
 2351SOL    HW2 7953   2.849   5.396   4.290
 2352SOL     OW 7954   0.446   4.013   2.361
 2352SOL    HW1 7955   0.377   3.987   2.429
 2352SOL    HW2 7956   0.536   3.980   2.390
 2353SOL     OW 7957   3.251   5.553   4.585
 2353SOL    HW1 7958   3.321   5.618   4.612
 2353SOL    HW2 7959   3.285   5.460   4.596
 2354SOL     OW 7960   2.486   1.833   5.002
 2354SOL    HW1 7961   2.425   1.899   4.957
 2354SOL    HW2 7962   2.489   1.852   5.100
 2355SOL     OW 7963   2.125   6.883   6.132
 2355SOL    HW1 7964   2.168   6.874   6.222
 2355SOL    HW2 7965   2.050   6.948   6.138
 2356SOL     OW 7966   1.520   3.281   6.558
 2356SOL    HW1 7967   1.620   3.280   6.563
 2356SOL    HW2 7968   1.483   3.327   6.640
 2357SOL     OW 7969   3.932   0.053   2.919
 2357SOL    HW1 7970   3.990   0.114   2.864
 2357SOL    HW2 7971   3.978   6.991   2.930
 2358SOL     OW 7972   3.262   5.213   5.237
 2358SOL    HW1 7973   3.275   5.277   5.313
 2358SOL    HW2 7974   3.192   5.146   5.262
 2359SOL     OW 7975   6.832   0.898   5.080
 2359SOL    HW1 7976   6.900   0.944   5.137
 2359SOL    HW2 7977   6.849   0.920   4.984
 2360SOL     OW 7978   5.575   3.292   6.929
 2360SOL    HW1 7979   5.561   3.201   6.891
 2360SOL    HW2 7980   5.534   3.360   6.869
 2361SOL     OW 7981   2.109   0.724   5.951
 2361SOL    HW1 7982   2.147   0.792   6.015
 2361SOL    HW2 7983   2.161   0.726   5.866
 2362SOL     OW 7984   2.369   5.648   3.799
 2362SOL    HW1 7985   2.287   5.693   3.763
 2362SOL    HW2 7986   2.398   5.694   3.883
 2363SOL     OW 7987   4.969   1.896   4.723
 2363SOL    HW1 7988   4.946   1.801   4.746
 2363SOL    HW2 7989   4.886   1.951   4.720
 2364SOL     OW 7990   1.044   2.390   2.401
 2364SOL    HW1 7991   1.010   2.479   2.430
 2364SOL    HW2 7992   1.048   2.328   2.479
 2365SOL     OW 7993   6.452   2.536   6.715
 2365SOL    HW1 7994   6.527   2.514   6.778
 2365SOL    HW2 7995   6.431   2.455   6.660
 2366SOL     OW 7996   2.676   5.651   6.249
 2366SOL    HW1 7997   2.714   5.568   6.207
 2366SOL    HW2 7998   2.638   5.628   6.339
 2367SOL     OW 7999   2.875   4.074   0.909
 2367SOL    HW1 8000   2.936   4.009   0.954
 2367SOL    HW2 8001   2.786   4.030   0.893
 2368SOL     OW 8002   4.490   7.004   4.805
 2368SOL    HW1 8003   4.525   6.952   4.883
 2368SOL    HW2 8004   4.434   6.945   4.747
 2369SOL     OW 8005   2.315   0.754   5.176
 2369SOL    HW1 8006   2.364   0.740   5.262
 2369SOL    HW2 8007   2.220   0.725   5.187
 2370SOL     OW 8008   4.581   3.249   6.974
 2370SOL    HW1 8009   4.597   3.339   6.932
 2370SOL    HW2 8010   4.522   3.195   6.914
 2371SOL     OW 8011   0.739   6.717   1.315
 2371SOL    HW1 8012   0.743   6.659   1.396
 2371SOL    HW2 8013   0.802   6.793   1.324
 2372SOL     OW 8014   0.173   3.048   1.629
 2372SOL    HW1 8015   0.260   3.062   1.677
 2372SOL    HW2 8016   0.104   3.016   1.694
 2373SOL     OW 8017   1.228   2.566   6.070
 2373SOL    HW1 8018   1.266   2.512   5.995
 2373SOL    HW2 8019   1.246   2.519   6.157
 2374SOL     OW 8020   6.132   1.492   3.629
 2374SOL    HW1 8021   6.111   1.585   3.600
 2374SOL    HW2 8022   6.047   1.443   3.648
 2375SOL     OW 8023   3.214   6.688   4.904
 2375SOL    HW1 8024   3.127   6.647   4.876
 2375SOL    HW2 8025   3.201   6.738   4.989
 2376SOL     OW 8026   6.756   2.269   4.463
 2376SOL    HW1 8027   6.674   2.248   4.409
 2376SOL    HW2 8028   6.731   2.282   4.559
 2377SOL     OW 8029   4.009   3.808   3.684
 2377SOL    HW1 8030   3.996   3.810   3.783
 2377SOL    HW2 8031   4.097   3.766   3.662
 2378SOL     OW 8032   5.120   1.625   0.926
 2378SOL    HW1 8033   5.130   1.703   0.989
 2378SOL    HW2 8034   5.027   1.625   0.889
 2379SOL     OW 8035   6.774   1.314   0.021
 2379SOL    HW1 8036   6.755   1.405   7.010
 2379SOL    HW2 8037   6.871   1.307   0.043
 2380SOL     OW 8038   0.366   1.613   6.949
 2380SOL    HW1 8039   0.410   1.684   6.893
 2380SOL    HW2 8040   0.420   1.529   6.944
 2381SOL     OW 8041   2.074   4.909   4.608
 2381SOL    HW1 8042   2.142   4.854   4.559
 2381SOL    HW2 8043   2.118   4.990   4.647
 2382SOL     OW 8044   2.113   3.797   4.526
 2382SOL    HW1 8045   2.204   3.775   4.562
 2382SOL    HW2 8046   2.104   3.896   4.517
 2383SOL     OW 8047   4.718   6.106   0.860
 2383SOL    HW1 8048   4.626   6.076   0.885
 2383SOL    HW2 8049   4.774   6.113   0.943
 2384SOL     OW 8050   6.005   1.091   3.119
 2384SOL    HW1 8051   5.987   1.168   3.058
 2384SOL    HW2 8052   5.991   1.005   3.069
 2385SOL     OW 8053   0.978   6.720   0.492
 2385SOL    HW1 8054   0.887   6.719   0.533
 2385SOL    HW2 8055   0.971   6.713   0.393
 2386SOL     OW 8056   6.344   5.770   4.360
 2386SOL    HW1 8057   6.292   5.709   4.299
 2386SOL    HW2 8058   6.380   5.717   4.436
 2387SOL     OW 8059   1.443   2.098   4.049
 2387SOL    HW1 8060   1.355   2.139   4.072
 2387SOL    HW2 8061   1.429   2.007   4.011
 2388SOL     OW 8062   0.716   2.153   4.378
 2388SOL    HW1 8063   0.629   2.123   4.338
 2388SOL    HW2 8064   0.785   2.082   4.367
 2389SOL     OW 8065   4.860   4.059   2.882
 2389SOL    HW1 8066   4.855   4.066   2.982
 2389SOL    HW2 8067   4.837   3.966   2.854
 2390SOL     OW 8068   3.913   2.981   3.574
 2390SOL    HW1 8069   3.987   2.914   3.584
 2390SOL    HW2 8070   3.829   2.945   3.615
 2391SOL     OW 8071   4.883   3.929   5.761
 2391SOL    HW1 8072   4.815   3.871   5.717
 2391SOL    HW2 8073   4.843   3.975   5.840
 2392SOL     OW 8074   4.160   6.059   5.442
 2392SOL    HW1 8075   4.155   6.094   5.348
 2392SOL    HW2 8076   4.094   5.985   5.454
 2393SOL     OW 8077   4.840   3.568   6.151
 2393SOL    HW1 8078   4.882   3.630   6.085
 2393SOL    HW2 8079   4.878   3.476   6.140
 2394SOL     OW 8080   1.174   3.808   4.623
 2394SOL    HW1 8081   1.088   3.797   4.674
 2394SOL    HW2 8082   1.192   3.905   4.610
 2395SOL     OW 8083   5.363   1.736   6.055
 2395SOL    HW1 8084   5.416   1.742   5.970
 2395SOL    HW2 8085   5.412   1.784   6.128
 2396SOL     OW 8086   3.648   5.446   1.419
 2396SOL    HW1 8087   3.633   5.474   1.514
 2396SOL    HW2 8088   3.599   5.509   1.358
 2397SOL     OW 8089   6.649   3.806   5.785
 2397SOL    HW1 8090   6.739   3.769   5.805
 2397SOL    HW2 8091   6.606   3.753   5.712
 2398SOL     OW 8092   3.570   4.075   6.485
 2398SOL    HW1 8093   3.493   4.095   6.545
 2398SOL    HW2 8094   3.562   3.981   6.452
 2399SOL     OW 8095   4.555   1.195   1.772
 2399SOL    HW1 8096   4.529   1.169   1.865
 2399SOL    HW2 8097   4.620   1.128   1.735
 2400SOL     OW 8098   2.972   4.238   0.728
 2400SOL    HW1 8099   3.069   4.232   0.704
 2400SOL    HW2 8100   2.948   4.164   0.791
 2401SOL     OW 8101   5.341   6.181   6.699
 2401SOL    HW1 8102   5.362   6.204   6.794
 2401SOL    HW2 8103   5.249   6.143   6.693
 2402SOL     OW 8104   0.256   0.394   3.443
 2402SOL    HW1 8105   0.246   0.353   3.352
 2402SOL    HW2 8106   0.226   0.489   3.440
 2403SOL     OW 8107   2.368   2.234   6.528
 2403SOL    HW1 8108   2.361   2.213   6.625
 2403SOL    HW2 8109   2.419   2.319   6.515
 2404SOL     OW 8110   2.853   1.052   1.120
 2404SOL    HW1 8111   2.938   1.056   1.171
 2404SOL    HW2 8112   2.861   1.106   1.037
 2405SOL     OW 8113   3.601   3.527   2.425
 2405SOL    HW1 8114   3.642   3.451   2.375
 2405SOL    HW2 8115   3.673   3.582   2.467
 2406SOL     OW 8116   2.380   6.974   2.054
 2406SOL    HW1 8117   2.359   6.882   2.021
 2406SOL    HW2 8118   2.314   7.000   2.125
 2407SOL     OW 8119   5.604   1.700   2.582
 2407SOL    HW1 8120   5.504   1.698   2.576
 2407SOL    HW2 8121   5.633   1.652   2.665
 2408SOL     OW 8122   4.483   4.733   2.927
 2408SOL    HW1 8123   4.496   4.782   2.841
 2408SOL    HW2 8124   4.488   4.634   2.911
 2409SOL     OW 8125   2.135   4.755   1.878
 2409SOL    HW1 8126   2.056   4.720   1.928
 2409SOL    HW2 8127   2.206   4.782   1.942
 2410SOL     OW 8128   4.069   3.488   5.458
 2410SOL    HW1 8129   4.140   3.542   5.413
 2410SOL    HW2 8130   4.039   3.414   5.398
 2411SOL     OW 8131   4.926   6.028   4.983
 2411SOL    HW1 8132   5.019   6.034   5.019
 2411SOL    HW2 8133   4.928   6.027   4.884
 2412SOL     OW 8134   5.495   4.676   0.997
 2412SOL    HW1 8135   5.459   4.718   0.914
 2412SOL    HW2 8136   5.511   4.578   0.981
 2413SOL     OW 8137   6.305   1.418   0.529
 2413SOL    HW1 8138   6.332   1.328   0.566
 2413SOL    HW2 8139   6.384   1.480   0.534
 2414SOL     OW 8140   4.760   4.449   2.610
 2414SOL    HW1 8141   4.666   4.419   2.595
 2414SOL    HW2 8142   4.809   4.450   2.523
 2415SOL     OW 8143   6.361   1.030   3.036
 2415SOL    HW1 8144   6.289   1.050   2.969
 2415SOL    HW2 8145   6.338   1.072   3.124
 2416SOL     OW 8146   5.048   2.306   5.156
 2416SOL    HW1 8147   5.122   2.239   5.152
 2416SOL    HW2 8148   4.973   2.270   5.211
 2417SOL     OW 8149   3.849   3.603   4.992
 2417SOL    HW1 8150   3.835   3.702   4.994
 2417SOL    HW2 8151   3.774   3.560   4.941
 2418SOL     OW 8152   3.431   2.854   4.838
 2418SOL    HW1 8153   3.431   2.918   4.762
 2418SOL    HW2 8154   3.358   2.787   4.825
 2419SOL     OW 8155   6.968   0.142   4.818
 2419SOL    HW1 8156   6.939   0.213   4.754
 2419SOL    HW2 8157   0.032   0.166   4.856
 2420SOL     OW 8158   3.280   0.467   2.565
 2420SOL    HW1 8159   3.242   0.551   2.603
 2420SOL    HW2 8160   3.336   0.489   2.484
 2421SOL     OW 8161   2.088   2.713   5.193
 2421SOL    HW1 8162   2.044   2.695   5.281
 2421SOL    HW2 8163   2.106   2.627   5.146
 2422SOL     OW 8164   5.442   1.264   1.161
 2422SOL    HW1 8165   5.417   1.342   1.104
 2422SOL    HW2 8166   5.414   1.281   1.256
 2423SOL     OW 8167   1.660   5.934   2.700
 2423SOL    HW1 8168   1.634   6.012   2.643
 2423SOL    HW2 8169   1.742   5.891   2.662
 2424SOL     OW 8170   5.951   6.741   6.373
 2424SOL    HW1 8171   5.951   6.642   6.358
 2424SOL    HW2 8172   5.927   6.788   6.288
 2425SOL     OW 8173   5.675   0.601   4.057
 2425SOL    HW1 8174   5.707   0.543   3.982
 2425SOL    HW2 8175   5.713   0.568   4.144
 2426SOL     OW 8176   1.143   5.840   5.004
 2426SOL    HW1 8177   1.102   5.910   4.946
 2426SOL    HW2 8178   1.091   5.755   4.994
 2427SOL     OW 8179   5.138   5.916   5.324
 2427SOL    HW1 8180   5.145   5.924   5.424
 2427SOL    HW2 8181   5.216   5.865   5.289
 2428SOL     OW 8182   0.310   0.282   1.856
 2428SOL    HW1 8183   0.292   0.187   1.881
 2428SOL    HW2 8184   0.224   0.333   1.860
 2429SOL     OW 8185   5.902   5.514   2.854
 2429SOL    HW1 8186   5.855   5.449   2.795
 2429SOL    HW2 8187   5.835   5.569   2.904
 2430SOL     OW 8188   6.043   0.933   1.696
 2430SOL    HW1 8189   5.971   0.895   1.638
 2430SOL    HW2 8190   6.131   0.893   1.669
 2431SOL     OW 8191   3.864   0.888   1.753
 2431SOL    HW1 8192   3.804   0.883   1.672
 2431SOL    HW2 8193   3.848   0.807   1.810
 2432SOL     OW 8194   3.474   6.109   2.659
 2432SOL    HW1 8195   3.560   6.096   2.708
 2432SOL    HW2 8196   3.410   6.037   2.685
 2433SOL     OW 8197   3.962   1.738   0.414
 2433SOL    HW1 8198   3.881   1.738   0.473
 2433SOL    HW2 8199   3.943   1.791   0.332
 2434SOL     OW 8200   4.352   1.542   5.995
 2434SOL    HW1 8201   4.337   1.487   5.913
 2434SOL    HW2 8202   4.435   1.509   6.042
 2435SOL     OW 8203   4.549   5.054   5.859
 2435SOL    HW1 8204   4.521   4.995   5.935
 2435SOL    HW2 8205   4.482   5.048   5.785
 2436SOL     OW 8206   1.536   5.317   0.109
 2436SOL    HW1 8207   1.565   5.234   0.156
 2436SOL    HW2 8208   1.604   5.342   0.041
 2437SOL     OW 8209   5.572   6.795   6.771
 2437SOL    HW1 8210   5.500   6.750   6.824
 2437SOL    HW2 8211   5.650   6.734   6.761
 2438SOL     OW 8212   3.075   1.390   6.676
 2438SOL    HW1 8213   3.042   1.469   6.623
 2438SOL    HW2 8214   3.111   1.421   6.763
 2439SOL     OW 8215   0.638   4.763   6.409
 2439SOL    HW1 8216   0.690   4.692   6.456
 2439SOL    HW2 8217   0.567   4.721   6.353
 2440SOL     OW 8218   4.559   6.064   6.224
 2440SOL    HW1 8219   4.477   6.085   6.277
 2440SOL    HW2 8220   4.640   6.090   6.277
 2441SOL     OW 8221   6.963   2.500   6.825
 2441SOL    HW1 8222   0.002   2.464   6.892
 2441SOL    HW2 8223   6.939   2.428   6.760
 2442SOL     OW 8224   1.180   4.067   5.908
 2442SOL    HW1 8225   1.131   3.984   5.880
 2442SOL    HW2 8226   1.225   4.050   5.996
 2443SOL     OW 8227   3.673   5.061   6.593
 2443SOL    HW1 8228   3.666   5.142   6.535
 2443SOL    HW2 8229   3.715   4.986   6.542
 2444SOL     OW 8230   2.875   5.119   6.304
 2444SOL    HW1 8231   2.836   5.210   6.316
 2444SOL    HW2 8232   2.937   5.120   6.225
 2445SOL     OW 8233   7.018   1.455   1.222
 2445SOL    HW1 8234   0.069   1.472   1.161
 2445SOL    HW2 8235   6.938   1.504   1.190
 2446SOL     OW 8236   5.885   4.251   3.963
 2446SOL    HW1 8237   5.936   4.330   3.998
 2446SOL    HW2 8238   5.949   4.180   3.933
 2447SOL     OW 8239   2.093   2.870   6.858
 2447SOL    HW1 8240   2.086   2.968   6.839
 2447SOL    HW2 8241   2.031   2.846   6.932
 2448SOL     OW 8242   0.525   0.987   4.923
 2448SOL    HW1 8243   0.475   0.968   4.838
 2448SOL    HW2 8244   0.494   0.925   4.994
 2449SOL     OW 8245   6.749   3.917   0.325
 2449SOL    HW1 8246   6.733   3.988   0.257
 2449SOL    HW2 8247   6.836   3.934   0.372
 2450SOL     OW 8248   2.500   4.513   2.996
 2450SOL    HW1 8249   2.459   4.539   3.083
 2450SOL    HW2 8250   2.430   4.518   2.924
 2451SOL     OW 8251   1.709   6.567   4.134
 2451SOL    HW1 8252   1.787   6.602   4.187
 2451SOL    HW2 8253   1.743   6.514   4.056
 2452SOL     OW 8254   1.662   3.512   3.074
 2452SOL    HW1 8255   1.749   3.557   3.096
 2452SOL    HW2 8256   1.679   3.414   3.058
 2453SOL     OW 8257   6.448   4.800   1.403
 2453SOL    HW1 8258   6.388   4.880   1.409
 2453SOL    HW2 8259   6.477   4.773   1.494
 2454SOL     OW 8260   3.272   0.605   2.034
 2454SOL    HW1 8261   3.252   0.581   1.939
 2454SOL    HW2 8262   3.371   0.600   2.050
 2455SOL     OW 8263   5.652   5.267   0.660
 2455SOL    HW1 8264   5.619   5.347   0.712
 2455SOL    HW2 8265   5.737   5.233   0.702
 2456SOL     OW 8266   4.924   6.321   1.819
 2456SOL    HW1 8267   4.933   6.411   1.860
 2456SOL    HW2 8268   4.829   6.305   1.792
 2457SOL     OW 8269   5.908   6.928   0.232
 2457SOL    HW1 8270   5.967   6.994   0.279
 2457SOL    HW2 8271   5.848   6.977   0.169
 2458SOL     OW 8272   2.341   5.985   3.359
 2458SOL    HW1 8273   2.247   6.014   3.339
 2458SOL    HW2 8274   2.383   5.949   3.276
 2459SOL     OW 8275   1.733   0.216   0.446
 2459SOL    HW1 8276   1.688   0.144   0.499
 2459SOL    HW2 8277   1.711   0.206   0.349
 2460SOL     OW 8278   2.500   6.410   2.757
 2460SOL    HW1 8279   2.561   6.357   2.814
 2460SOL    HW2 8280   2.512   6.385   2.661
 2461SOL     OW 8281   5.748   0.261   2.140
 2461SOL    HW1 8282   5.740   0.179   2.083
 2461SOL    HW2 8283   5.688   0.332   2.105
 2462SOL     OW 8284   2.019   5.088   0.057
 2462SOL    HW1 8285   2.080   5.114   7.008
 2462SOL    HW2 8286   1.993   4.992   0.048
 2463SOL     OW 8287   6.840   2.025   3.446
 2463SOL    HW1 8288   6.868   1.950   3.388
 2463SOL    HW2 8289   6.867   2.112   3.404
 2464SOL     OW 8290   0.861   3.970   1.084
 2464SOL    HW1 8291   0.821   4.034   1.019
 2464SOL    HW2 8292   0.811   3.973   1.170
 2465SOL     OW 8293   0.032   5.887   2.159
 2465SOL    HW1 8294   7.010   5.840   2.233
 2465SOL    HW2 8295   6.997   5.901   2.082
 2466SOL     OW 8296   4.288   1.621   3.026
 2466SOL    HW1 8297   4.235   1.706   3.024
 2466SOL    HW2 8298   4.289   1.580   2.935
 2467SOL     OW 8299   0.124   0.716   6.159
 2467SOL    HW1 8300   0.069   0.794   6.188
 2467SOL    HW2 8301   0.165   0.734   6.070
 2468SOL     OW 8302   6.774   6.432   2.078
 2468SOL    HW1 8303   6.741   6.406   2.168
 2468SOL    HW2 8304   6.754   6.529   2.061
 2469SOL     OW 8305   2.907   3.704   5.254
 2469SOL    HW1 8306   2.890   3.790   5.207
 2469SOL    HW2 8307   2.896   3.717   5.353
 2470SOL     OW 8308   3.213   3.727   6.523
 2470SOL    HW1 8309   3.197   3.793   6.596
 2470SOL    HW2 8310   3.280   3.763   6.459
 2471SOL     OW 8311   0.264   6.538   2.486
 2471SOL    HW1 8312   0.185   6.595   2.508
 2471SOL    HW2 8313   0.269   6.527   2.386
 2472SOL     OW 8314   5.551   2.311   4.345
 2472SOL    HW1 8315   5.575   2.292   4.440
 2472SOL    HW2 8316   5.460   2.352   4.341
 2473SOL     OW 8317   0.483   5.378   4.327
 2473SOL    HW1 8318   0.475   5.475   4.349
 2473SOL    HW2 8319   0.518   5.367   4.234
 2474SOL     OW 8320   0.367   5.429   5.439
 2474SOL    HW1 8321   0.361   5.331   5.455
 2474SOL    HW2 8322   0.289   5.475   5.481
 2475SOL     OW 8323   4.347   2.471   0.474
 2475SOL    HW1 8324   4.295   2.450   0.557
 2475SOL    HW2 8325   4.295   2.536   0.418
 2476SOL     OW 8326   1.142   1.839   3.680
 2476SOL    HW1 8327   1.095   1.866   3.596
 2476SOL    HW2 8328   1.089   1.867   3.760
 2477SOL     OW 8329   5.622   5.622   1.508
 2477SOL    HW1 8330   5.544   5.623   1.446
 2477SOL    HW2 8331   5.608   5.549   1.576
 2478SOL     OW 8332   6.361   6.525   2.651
 2478SOL    HW1 8333   6.423   6.566   2.718
 2478SOL    HW2 8334   6.340   6.591   2.580
 2479SOL     OW 8335   0.060   2.517   0.820
 2479SOL    HW1 8336   0.062   2.461   0.903
 2479SOL    HW2 8337   7.022   2.477   0.754
 2480SOL     OW 8338   6.339   3.537   1.500
 2480SOL    HW1 8339   6.314   3.582   1.414
 2480SOL    HW2 8340   6.367   3.606   1.567
 2481SOL     OW 8341   4.402   5.651   1.885
 2481SOL    HW1 8342   4.364   5.641   1.793
 2481SOL    HW2 8343   4.450   5.567   1.911
 2482SOL     OW 8344   5.347   3.505   5.250
 2482SOL    HW1 8345   5.411   3.433   5.224
 2482SOL    HW2 8346   5.283   3.522   5.175
 2483SOL     OW 8347   1.179   1.276   6.893
 2483SOL    HW1 8348   1.165   1.316   6.983
 2483SOL    HW2 8349   1.159   1.343   6.822
 2484SOL     OW 8350   3.220   1.148   0.615
 2484SOL    HW1 8351   3.288   1.075   0.612
 2484SOL    HW2 8352   3.136   1.117   0.572
 2485SOL     OW 8353   0.364   5.183   2.511
 2485SOL    HW1 8354   0.303   5.123   2.562
 2485SOL    HW2 8355   0.335   5.186   2.415
 2486SOL     OW 8356   1.851   5.654   2.824
 2486SOL    HW1 8357   1.760   5.626   2.795
 2486SOL    HW2 8358   1.903   5.687   2.745
 2487SOL     OW 8359   4.241   0.517   1.025
 2487SOL    HW1 8360   4.192   0.510   0.938
 2487SOL    HW2 8361   4.333   0.479   1.015
 2488SOL     OW 8362   2.540   4.999   1.784
 2488SOL    HW1 8363   2.620   4.942   1.761
 2488SOL    HW2 8364   2.513   4.981   1.879
 2489SOL     OW 8365   1.229   5.512   5.120
 2489SOL    HW1 8366   1.254   5.440   5.185
 2489SOL    HW2 8367   1.307   5.574   5.108
 2490SOL     OW 8368   6.467   3.977   0.753
 2490SOL    HW1 8369   6.546   4.010   0.804
 2490SOL    HW2 8370   6.486   3.982   0.655
 2491SOL     OW 8371   2.983   5.067   3.229
 2491SOL    HW1 8372   2.901   5.044   3.280
 2491SOL    HW2 8373   3.032   5.141   3.275
 2492SOL     OW 8374   4.738   3.068   6.396
 2492SOL    HW1 8375   4.661   3.006   6.410
 2492SOL    HW2 8376   4.794   3.070   6.479
 2493SOL     OW 8377   6.018   1.711   2.968
 2493SOL    HW1 8378   6.034   1.749   2.877
 2493SOL    HW2 8379   6.051   1.616   2.971
 2494SOL     OW 8380   4.665   2.728   2.398
 2494SOL    HW1 8381   4.575   2.715   2.440
 2494SOL    HW2 8382   4.673   2.668   2.318
 2495SOL     OW 8383   5.367   1.032   4.917
 2495SOL    HW1 8384   5.411   1.093   4.851
 2495SOL    HW2 8385   5.369   0.938   4.883
 2496SOL     OW 8386   1.050   5.775   0.130
 2496SOL    HW1 8387   1.021   5.864   0.166
 2496SOL    HW2 8388   0.991   5.750   0.053
 2497SOL     OW 8389   6.745   2.066   6.728
 2497SOL    HW1 8390   6.707   2.057   6.819
 2497SOL    HW2 8391   6.698   2.004   6.665
 2498SOL     OW 8392   1.936   3.032   4.365
 2498SOL    HW1 8393   1.924   3.130   4.352
 2498SOL    HW2 8394   1.865   2.997   4.426
 2499SOL     OW 8395   4.961   0.645   4.279
 2499SOL    HW1 8396   4.959   0.709   4.203
 2499SOL    HW2 8397   5.037   0.668   4.340
 2500SOL     OW 8398   4.629   3.252   6.166
 2500SOL    HW1 8399   4.542   3.297   6.184
 2500SOL    HW2 8400   4.633   3.165   6.215
 2501SOL     OW 8401   6.135   4.560   6.853
 2501SOL    HW1 8402   6.173   4.510   6.774
 2501SOL    HW2 8403   6.050   4.517   6.882
 2502SOL     OW 8404   2.054   6.926   2.604
 2502SOL    HW1 8405   2.103   6.872   2.535
 2502SOL    HW2 8406   2.088   7.021   2.602
 2503SOL     OW 8407   3.961   4.914   5.824
 2503SOL    HW1 8408   4.016   4.941   5.903
 2503SOL    HW2 8409   3.961   4.988   5.756
 2504SOL     OW 8410   1.649   4.967   4.548
 2504SOL    HW1 8411   1.639   4.890   4.612
 2504SOL    HW2 8412   1.590   5.042   4.577
 2505SOL     OW 8413   4.697   5.521   4.349
 2505SOL    HW1 8414   4.608   5.547   4.386
 2505SOL    HW2 8415   4.730   5.593   4.287
 2506SOL     OW 8416   6.244   2.552   5.900
 2506SOL    HW1 8417   6.337   2.557   5.864
 2506SOL    HW2 8418   6.226   2.633   5.956
 2507SOL     OW 8419   6.462   5.668   0.574
 2507SOL    HW1 8420   6.430   5.742   0.633
 2507SOL    HW2 8421   6.562   5.660   0.581
 2508SOL     OW 8422   2.509   2.471   2.199
 2508SOL    HW1 8423   2.565   2.414   2.139
 2508SOL    HW2 8424   2.487   2.557   2.153
 2509SOL     OW 8425   5.600   2.772   3.285
 2509SOL    HW1 8426   5.571   2.816   3.200
 2509SOL    HW2 8427   5.525   2.717   3.321
 2510SOL     OW 8428   3.792   4.999   0.758
 2510SOL    HW1 8429   3.725   5.023   0.827
 2510SOL    HW2 8430   3.798   5.072   0.690
 2511SOL     OW 8431   1.216   0.684   5.366
 2511SOL    HW1 8432   1.138   0.685   5.302
 2511SOL    HW2 8433   1.183   0.662   5.458
 2512SOL     OW 8434   4.946   3.578   4.771
 2512SOL    HW1 8435   4.889   3.576   4.853
 2512SOL    HW2 8436   5.018   3.509   4.779
 2513SOL     OW 8437   0.482   2.650   6.895
 2513SOL    HW1 8438   0.522   2.741   6.905
 2513SOL    HW2 8439   0.388   2.651   6.929
 2514SOL     OW 8440   1.240   1.145   4.075
 2514SOL    HW1 8441   1.212   1.208   4.003
 2514SOL    HW2 8442   1.211   1.180   4.164
 2515SOL     OW 8443   0.667   5.577   0.864
 2515SOL    HW1 8444   0.635   5.496   0.913
 2515SOL    HW2 8445   0.596   5.647   0.865
 2516SOL     OW 8446   5.586   6.816   3.605
 2516SOL    HW1 8447   5.573   6.861   3.694
 2516SOL    HW2 8448   5.681   6.786   3.596
 2517SOL     OW 8449   2.483   4.823   0.183
 2517SOL    HW1 8450   2.454   4.742   0.234
 2517SOL    HW2 8451   2.425   4.834   0.102
 2518SOL     OW 8452   2.365   3.031   6.382
 2518SOL    HW1 8453   2.310   3.095   6.328
 2518SOL    HW2 8454   2.432   2.987   6.324
 2519SOL     OW 8455   4.654   4.861   4.968
 2519SOL    HW1 8456   4.648   4.776   5.021
 2519SOL    HW2 8457   4.565   4.906   4.968
 2520SOL     OW 8458   2.366   4.081   1.557
 2520SOL    HW1 8459   2.438   4.037   1.612
 2520SOL    HW2 8460   2.336   4.018   1.485
 2521SOL     OW 8461   5.989   6.908   5.684
 2521SOL    HW1 8462   5.933   6.861   5.752
 2521SOL    HW2 8463   6.038   6.984   5.728
 2522SOL     OW 8464   0.763   3.341   4.386
 2522SOL    HW1 8465   0.757   3.359   4.484
 2522SOL    HW2 8466   0.814   3.256   4.371
 2523SOL     OW 8467   0.664   3.708   0.024
 2523SOL    HW1 8468   0.653   3.620   0.070
 2523SOL    HW2 8469   0.617   3.779   0.077
 2524SOL     OW 8470   1.697   6.582   3.819
 2524SOL    HW1 8471   1.615   6.565   3.764
 2524SOL    HW2 8472   1.745   6.496   3.835
 2525SOL     OW 8473   0.873   3.643   3.532
 2525SOL    HW1 8474   0.862   3.566   3.595
 2525SOL    HW2 8475   0.867   3.610   3.438
 2526SOL     OW 8476   7.014   1.500   3.842
 2526SOL    HW1 8477   7.012   1.600   3.854
 2526SOL    HW2 8478   0.050   1.460   3.908
 2527SOL     OW 8479   5.527   6.634   4.214
 2527SOL    HW1 8480   5.448   6.690   4.191
 2527SOL    HW2 8481   5.521   6.546   4.168
 2528SOL     OW 8482   6.203   5.549   0.504
 2528SOL    HW1 8483   6.291   5.592   0.525
 2528SOL    HW2 8484   6.199   5.529   0.406
 2529SOL     OW 8485   5.229   4.579   4.580
 2529SOL    HW1 8486   5.304   4.611   4.522
 2529SOL    HW2 8487   5.218   4.642   4.657
 2530SOL     OW 8488   1.361   0.374   3.607
 2530SOL    HW1 8489   1.349   0.277   3.630
 2530SOL    HW2 8490   1.435   0.412   3.662
 2531SOL     OW 8491   4.002   1.337   6.112
 2531SOL    HW1 8492   4.042   1.416   6.066
 2531SOL    HW2 8493   3.920   1.365   6.163
 2532SOL     OW 8494   1.429   4.723   0.045
 2532SOL    HW1 8495   1.515   4.771   0.060
 2532SOL    HW2 8496   1.360   4.787   0.012
 2533SOL     OW 8497   5.594   6.529   6.143
 2533SOL    HW1 8498   5.609   6.613   6.090
 2533SOL    HW2 8499   5.632   6.541   6.235
 2534SOL     OW 8500   1.081   0.968   3.325
 2534SOL    HW1 8501   1.002   0.941   3.379
 2534SOL    HW2 8502   1.075   0.927   3.234
 2535SOL     OW 8503   2.334   1.414   3.581
 2535SOL    HW1 8504   2.413   1.460   3.540
 2535SOL    HW2 8505   2.335   1.428   3.680
 2536SOL     OW 8506   5.914   1.106   3.799
 2536SOL    HW1 8507   5.894   1.047   3.721
 2536SOL    HW2 8508   5.829   1.132   3.845
 2537SOL     OW 8509   5.275   5.268   1.465
 2537SOL    HW1 8510   5.200   5.231   1.520
 2537SOL    HW2 8511   5.249   5.359   1.431
 2538SOL     OW 8512   2.021   4.960   4.302
 2538SOL    HW1 8513   1.985   4.867   4.301
 2538SOL    HW2 8514   1.980   5.011   4.377
 2539SOL     OW 8515   3.791   6.853   5.600
 2539SOL    HW1 8516   3.783   6.756   5.623
 2539SOL    HW2 8517   3.843   6.863   5.516
 2540SOL     OW 8518   5.706   1.380   2.112
 2540SOL    HW1 8519   5.802   1.391   2.086
 2540SOL    HW2 8520   5.688   1.434   2.195
 2541SOL     OW 8521   1.036   6.258   6.328
 2541SOL    HW1 8522   0.952   6.252   6.274
 2541SOL    HW2 8523   1.093   6.178   6.310
 2542SOL     OW 8524   3.434   1.687   4.526
 2542SOL    HW1 8525   3.404   1.764   4.470
 2542SOL    HW2 8526   3.528   1.702   4.556
 2543SOL     OW 8527   1.198   1.725   3.034
 2543SOL    HW1 8528   1.118   1.671   3.059
 2543SOL    HW2 8529   1.253   1.744   3.115
 2544SOL     OW 8530   6.604   5.332   1.568
 2544SOL    HW1 8531   6.593   5.241   1.607
 2544SOL    HW2 8532   6.649   5.392   1.634
 2545SOL     OW 8533   0.944   1.887   1.160
 2545SOL    HW1 8534   0.882   1.955   1.199
 2545SOL    HW2 8535   0.978   1.827   1.233
 2546SOL     OW 8536   0.013   3.849   1.797
 2546SOL    HW1 8537   0.017   3.850   1.697
 2546SOL    HW2 8538   0.044   3.937   1.832
 2547SOL     OW 8539   5.529   3.751   0.563
 2547SOL    HW1 8540   5.481   3.836   0.542
 2547SOL    HW2 8541   5.510   3.725   0.657
 2548SOL     OW 8542   6.953   6.919   5.153
 2548SOL    HW1 8543   7.017   6.920   5.076
 2548SOL    HW2 8544   7.001   6.891   5.236
 2549SOL     OW 8545   2.519   2.043   0.467
 2549SOL    HW1 8546   2.431   2.016   0.507
 2549SOL    HW2 8547   2.510   2.049   0.368
 2550SOL     OW 8548   4.637   6.880   6.621
 2550SOL    HW1 8549   4.669   6.963   6.665
 2550SOL    HW2 8550   4.540   6.867   6.640
 2551SOL     OW 8551   3.033   5.799   6.944
 2551SOL    HW1 8552   3.033   5.832   6.850
 2551SOL    HW2 8553   3.024   5.700   6.944
 2552SOL     OW 8554   1.809   6.308   0.870
 2552SOL    HW1 8555   1.842   6.365   0.795
 2552SOL    HW2 8556   1.886   6.283   0.929
 2553SOL     OW 8557   4.179   1.455   6.845
 2553SOL    HW1 8558   4.215   1.470   6.938
 2553SOL    HW2 8559   4.094   1.506   6.834
 2554SOL     OW 8560   1.677   5.707   1.361
 2554SOL    HW1 8561   1.578   5.716   1.365
 2554SOL    HW2 8562   1.704   5.674   1.271
 2555SOL     OW 8563   6.140   5.916   5.053
 2555SOL    HW1 8564   6.081   5.935   4.975
 2555SOL    HW2 8565   6.150   5.999   5.108
 2556SOL     OW 8566   3.764   6.564   1.404
 2556SOL    HW1 8567   3.832   6.562   1.331
 2556SOL    HW2 8568   3.759   6.656   1.442
 2557SOL     OW 8569   4.322   0.256   0.028
 2557SOL    HW1 8570   4.292   0.344   7.018
 2557SOL    HW2 8571   4.245   0.211   0.073
 2558SOL     OW 8572   5.658   4.196   6.509
 2558SOL    HW1 8573   5.738   4.255   6.516
 2558SOL    HW2 8574   5.644   4.147   6.595
 2559SOL     OW 8575   0.882   4.212   4.077
 2559SOL    HW1 8576   0.861   4.309   4.072
 2559SOL    HW2 8577   0.829   4.170   4.151
 2560SOL     OW 8578   4.892   2.236   3.379
 2560SOL    HW1 8579   4.921   2.201   3.290
 2560SOL    HW2 8580   4.794   2.255   3.376
 2561SOL     OW 8581   3.541   0.955   4.625
 2561SOL    HW1 8582   3.620   0.957   4.564
 2561SOL    HW2 8583   3.498   0.864   4.620
 2562SOL     OW 8584   3.240   6.930   3.454
 2562SOL    HW1 8585   3.206   7.017   3.490
 2562SOL    HW2 8586   3.335   6.940   3.427
 2563SOL     OW 8587   3.365   1.090   0.338
 2563SOL    HW1 8588   3.439   1.156   0.342
 2563SOL    HW2 8589   3.281   1.135   0.307
 2564SOL     OW 8590   1.589   1.365   0.451
 2564SOL    HW1 8591   1.625   1.446   0.405
 2564SOL    HW2 8592   1.658   1.329   0.514
 2565SOL     OW 8593   0.931   2.346   6.794
 2565SOL    HW1 8594   0.920   2.353   6.695
 2565SOL    HW2 8595   0.887   2.262   6.826
 2566SOL     OW 8596   2.780   0.927   0.704
 2566SOL    HW1 8597   2.866   0.893   0.742
 2566SOL    HW2 8598   2.706   0.865   0.731
 2567SOL     OW 8599   1.227   0.051   6.912
 2567SOL    HW1 8600   1.194   0.144   6.895
 2567SOL    HW2 8601   1.167   7.011   6.865
 2568SOL     OW 8602   2.870   6.222   1.198
 2568SOL    HW1 8603   2.888   6.198   1.294
 2568SOL    HW2 8604   2.781   6.267   1.192
 2569SOL     OW 8605   0.907   1.146   1.235
 2569SOL    HW1 8606   0.855   1.114   1.156
 2569SOL    HW2 8607   0.939   1.066   1.287
 2570SOL     OW 8608   5.240   6.619   0.068
 2570SOL    HW1 8609   5.274   6.603   0.161
 2570SOL    HW2 8610   5.143   6.639   0.071
 2571SOL     OW 8611   3.730   3.491   4.535
 2571SOL    HW1 8612   3.751   3.570   4.477
 2571SOL    HW2 8613   3.720   3.521   4.630
 2572SOL     OW 8614   2.059   6.076   1.470
 2572SOL    HW1 8615   2.129   6.094   1.540
 2572SOL    HW2 8616   2.078   5.989   1.425
 2573SOL     OW 8617   6.512   2.166   3.853
 2573SOL    HW1 8618   6.539   2.203   3.764
 2573SOL    HW2 8619   6.557   2.079   3.869
 2574SOL     OW 8620   6.862   3.990   1.430
 2574SOL    HW1 8621   6.855   4.088   1.450
 2574SOL    HW2 8622   6.791   3.965   1.364
 2575SOL     OW 8623   5.707   4.079   0.560
 2575SOL    HW1 8624   5.801   4.057   0.585
 2575SOL    HW2 8625   5.675   4.014   0.491
 2576SOL     OW 8626   2.263   6.897   3.375
 2576SOL    HW1 8627   2.172   6.883   3.413
 2576SOL    HW2 8628   2.255   6.942   3.286
 2577SOL     OW 8629   2.754   6.726   2.919
 2577SOL    HW1 8630   2.786   6.820   2.905
 2577SOL    HW2 8631   2.656   6.721   2.899
 2578SOL     OW 8632   5.376   2.639   4.599
 2578SOL    HW1 8633   5.283   2.612   4.623
 2578SOL    HW2 8634   5.375   2.695   4.516
 2579SOL     OW 8635   0.286   2.368   6.926
 2579SOL    HW1 8636   0.305   2.386   7.022
 2579SOL    HW2 8637   0.371   2.348   6.878
 2580SOL     OW 8638   1.479   2.567   6.427
 2580SOL    HW1 8639   1.445   2.648   6.474
 2580SOL    HW2 8640   1.503   2.497   6.495
 2581SOL     OW 8641   5.482   5.764   2.367
 2581SOL    HW1 8642   5.397   5.746   2.416
 2581SOL    HW2 8643   5.560   5.741   2.426
 2582SOL     OW 8644   0.905   5.635   2.508
 2582SOL    HW1 8645   0.892   5.716   2.451
 2582SOL    HW2 8646   0.816   5.607   2.545
 2583SOL     OW 8647   0.914   0.175   0.969
 2583SOL    HW1 8648   0.962   0.103   1.018
 2583SOL    HW2 8649   0.883   0.141   0.881
 2584SOL     OW 8650   3.626   6.242   1.120
 2584SOL    HW1 8651   3.624   6.228   1.021
 2584SOL    HW2 8652   3.567   6.175   1.164
 2585SOL     OW 8653   3.116   0.175   1.237
 2585SOL    HW1 8654   3.095   0.225   1.153
 2585SOL    HW2 8655   3.169   0.093   1.215
 2586SOL     OW 8656   6.134   2.017   4.023
 2586SOL    HW1 8657   6.144   1.949   3.950
 2586SOL    HW2 8658   6.063   2.082   3.999
 2587SOL     OW 8659   5.778   6.718   4.139
 2587SOL    HW1 8660   5.833   6.640   4.109
 2587SOL    HW2 8661   5.699   6.685   4.191
 2588SOL     OW 8662   5.610   0.135   1.877
 2588SOL    HW1 8663   5.522   0.099   1.908
 2588SOL    HW2 8664   5.594   0.214   1.817
 2589SOL     OW 8665   6.409   6.682   5.473
 2589SOL    HW1 8666   6.450   6.685   5.565
 2589SOL    HW2 8667   6.317   6.721   5.476
 2590SOL     OW 8668   4.266   6.759   3.330
 2590SOL    HW1 8669   4.340   6.777   3.264
 2590SOL    HW2 8670   4.243   6.844   3.377
 2591SOL     OW 8671   5.076   5.966   1.913
 2591SOL    HW1 8672   4.998   5.985   1.852
 2591SOL    HW2 8673   5.090   6.043   1.974
 2592SOL     OW 8674   3.161   5.851   1.845
 2592SOL    HW1 8675   3.225   5.827   1.919
 2592SOL    HW2 8676   3.069   5.822   1.871
 2593SOL     OW 8677   3.766   6.527   2.850
 2593SOL    HW1 8678   3.734   6.489   2.763
 2593SOL    HW2 8679   3.849   6.480   2.879
 2594SOL     OW 8680   6.984   0.059   6.667
 2594SOL    HW1 8681   6.973   0.151   6.703
 2594SOL    HW2 8682   7.012   7.024   6.742
 2595SOL     OW 8683   6.663   3.164   4.946
 2595SOL    HW1 8684   6.745   3.220   4.934
 2595SOL    HW2 8685   6.582   3.216   4.920
 2596SOL     OW 8686   3.975   2.143   2.143
 2596SOL    HW1 8687   3.966   2.044   2.151
 2596SOL    HW2 8688   3.889   2.183   2.112
 2597SOL     OW 8689   2.538   3.248   0.952
 2597SOL    HW1 8690   2.584   3.317   0.896
 2597SOL    HW2 8691   2.561   3.262   1.048
 2598SOL     OW 8692   6.681   2.904   3.564
 2598SOL    HW1 8693   6.614   2.974   3.590
 2598SOL    HW2 8694   6.670   2.881   3.467
 2599SOL     OW 8695   4.159   5.815   0.166
 2599SOL    HW1 8696   4.211   5.738   0.203
 2599SOL    HW2 8697   4.106   5.784   0.087
 2600SOL     OW 8698   5.906   3.823   3.561
 2600SOL    HW1 8699   5.972   3.771   3.505
 2600SOL    HW2 8700   5.871   3.899   3.508
 2601SOL     OW 8701   3.722   3.563   5.987
 2601SOL    HW1 8702   3.754   3.647   5.942
 2601SOL    HW2 8703   3.800   3.501   5.998
 2602SOL     OW 8704   6.927   4.862   4.074
 2602SOL    HW1 8705   0.001   4.863   4.073
 2602SOL    HW2 8706   6.895   4.792   4.137
 2603SOL     OW 8707   2.534   2.386   1.072
 2603SOL    HW1 8708   2.493   2.475   1.094
 2603SOL    HW2 8709   2.586   2.394   0.988
 2604SOL     OW 8710   5.304   0.580   1.367
 2604SOL    HW1 8711   5.286   0.626   1.454
 2604SOL    HW2 8712   5.361   0.499   1.383
 2605SOL     OW 8713   4.168   4.733   4.285
 2605SOL    HW1 8714   4.159   4.825   4.322
 2605SOL    HW2 8715   4.246   4.687   4.329
 2606SOL     OW 8716   6.300   4.075   0.934
 2606SOL    HW1 8717   6.230   4.117   0.876
 2606SOL    HW2 8718   6.370   4.032   0.876
 2607SOL     OW 8719   1.017   0.452   3.044
 2607SOL    HW1 8720   1.088   0.389   3.075
 2607SOL    HW2 8721   1.038   0.545   3.075
 2608SOL     OW 8722   5.206   0.698   1.606
 2608SOL    HW1 8723   5.244   0.781   1.648
 2608SOL    HW2 8724   5.108   0.694   1.624
 2609SOL     OW 8725   0.848   2.080   2.958
 2609SOL    HW1 8726   0.863   1.998   2.902
 2609SOL    HW2 8727   0.750   2.091   2.973
 2610SOL     OW 8728   6.379   5.499   4.932
 2610SOL    HW1 8729   6.326   5.545   5.004
 2610SOL    HW2 8730   6.454   5.448   4.974
 2611SOL     OW 8731   5.470   6.444   1.347
 2611SOL    HW1 8732   5.469   6.472   1.443
 2611SOL    HW2 8733   5.393   6.486   1.299
 2612SOL     OW 8734   4.780   6.680   3.824
 2612SOL    HW1 8735   4.719   6.757   3.843
 2612SOL    HW2 8736   4.829   6.655   3.907
 2613SOL     OW 8737   3.726   0.449   2.414
 2613SOL    HW1 8738   3.730   0.354   2.446
 2613SOL    HW2 8739   3.771   0.508   2.481
 2614SOL     OW 8740   6.285   6.625   5.929
 2614SOL    HW1 8741   6.311   6.633   6.026
 2614SOL    HW2 8742   6.275   6.716   5.890
 2615SOL     OW 8743   5.077   5.035   3.038
 2615SOL    HW1 8744   5.150   5.017   2.972
 2615SOL    HW2 8745   5.006   4.965   3.029
 2616SOL     OW 8746   3.903   2.995   2.463
 2616SOL    HW1 8747   3.993   2.973   2.500
 2616SOL    HW2 8748   3.899   3.092   2.441
 2617SOL     OW 8749   3.613   5.914   0.814
 2617SOL    HW1 8750   3.571   5.835   0.770
 2617SOL    HW2 8751   3.712   5.902   0.817
 2618SOL     OW 8752   7.026   0.582   1.234
 2618SOL    HW1 8753   0.011   0.662   1.175
 2618SOL    HW2 8754   0.086   0.563   1.281
 2619SOL     OW 8755   4.186   1.615   2.220
 2619SOL    HW1 8756   4.279   1.586   2.200
 2619SOL    HW2 8757   4.176   1.712   2.202
 2620SOL     OW 8758   1.626   4.771   3.841
 2620SOL    HW1 8759   1.530   4.798   3.845
 2620SOL    HW2 8760   1.641   4.713   3.761
 2621SOL     OW 8761   0.509   5.906   3.614
 2621SOL    HW1 8762   0.456   5.974   3.665
 2621SOL    HW2 8763   0.607   5.920   3.630
 2622SOL     OW 8764   2.194   3.324   6.379
 2622SOL    HW1 8765   2.121   3.391   6.368
 2622SOL    HW2 8766   2.270   3.346   6.318
 2623SOL     OW 8767   3.504   1.247   5.233
 2623SOL    HW1 8768   3.557   1.314   5.183
 2623SOL    HW2 8769   3.566   1.188   5.286
 2624SOL     OW 8770   5.995   2.625   3.246
 2624SOL    HW1 8771   5.923   2.679   3.203
 2624SOL    HW2 8772   5.989   2.530   3.214
 2625SOL     OW 8773   2.438   2.914   5.796
 2625SOL    HW1 8774   2.476   3.006   5.789
 2625SOL    HW2 8775   2.376   2.910   5.874
 2626SOL     OW 8776   1.853   6.533   3.475
 2626SOL    HW1 8777   1.899   6.565   3.558
 2626SOL    HW2 8778   1.921   6.496   3.411
 2627SOL     OW 8779   0.220   0.473   4.617
 2627SOL    HW1 8780   0.260   0.486   4.526
 2627SOL    HW2 8781   0.251   0.545   4.678
 2628SOL     OW 8782   3.867   6.850   6.987
 2628SOL    HW1 8783   3.919   6.765   6.984
 2628SOL    HW2 8784   3.817   6.862   6.901
 2629SOL     OW 8785   3.940   4.258   1.649
 2629SOL    HW1 8786   3.866   4.279   1.712
 2629SOL    HW2 8787   3.919   4.174   1.599
 2630SOL     OW 8788   3.726   1.639   2.413
 2630SOL    HW1 8789   3.805   1.602   2.365
 2630SOL    HW2 8790   3.673   1.697   2.350
 2631SOL     OW 8791   4.725   6.501   4.480
 2631SOL    HW1 8792   4.780   6.544   4.552
 2631SOL    HW2 8793   4.685   6.416   4.516
 2632SOL     OW 8794   3.469   1.741   7.005
 2632SOL    HW1 8795   3.529   1.814   0.012
 2632SOL    HW2 8796   3.518   1.686   6.936
 2633SOL     OW 8797   6.128   2.283   6.814
 2633SOL    HW1 8798   6.091   2.375   6.822
 2633SOL    HW2 8799   6.222   2.287   6.779
 2634SOL     OW 8800   2.112   4.402   1.762
 2634SOL    HW1 8801   2.138   4.310   1.791
 2634SOL    HW2 8802   2.113   4.407   1.663
 2635SOL     OW 8803   5.609   5.701   4.476
 2635SOL    HW1 8804   5.696   5.671   4.435
 2635SOL    HW2 8805   5.533   5.661   4.426
 2636SOL     OW 8806   5.424   7.004   5.617
 2636SOL    HW1 8807   5.516   0.017   5.623
 2636SOL    HW2 8808   5.357   0.045   5.648
 2637SOL     OW 8809   5.322   6.671   3.617
 2637SOL    HW1 8810   5.367   6.673   3.528
 2637SOL    HW2 8811   5.386   6.701   3.688
 2638SOL     OW 8812   5.638   6.227   1.283
 2638SOL    HW1 8813   5.708   6.297   1.299
 2638SOL    HW2 8814   5.548   6.265   1.304
 2639SOL     OW 8815   5.816   6.337   1.522
 2639SOL    HW1 8816   5.857   6.294   1.442
 2639SOL    HW2 8817   5.880   6.403   1.561
 2640SOL     OW 8818   0.247   6.589   5.282
 2640SOL    HW1 8819   0.152   6.577   5.253
 2640SOL    HW2 8820   0.293   6.500   5.283
 2641SOL     OW 8821   5.032   3.769   6.843
 2641SOL    HW1 8822   5.019   3.769   6.942
 2641SOL    HW2 8823   5.130   3.777   6.822
 2642SOL     OW 8824   4.704   0.272   4.199
 2642SOL    HW1 8825   4.721   0.334   4.275
 2642SOL    HW2 8826   4.788   0.224   4.174
 2643SOL     OW 8827   0.296   6.674   3.457
 2643SOL    HW1 8828   0.258   6.670   3.365
 2643SOL    HW2 8829   0.230   6.717   3.519
 2644SOL     OW 8830   1.128   5.066   5.735
 2644SOL    HW1 8831   1.115   5.075   5.833
 2644SOL    HW2 8832   1.220   5.032   5.716
 2645SOL     OW 8833   5.394   6.479   5.641
 2645SOL    HW1 8834   5.309   6.485   5.693
 2645SOL    HW2 8835   5.445   6.564   5.650
 2646SOL     OW 8836   0.072   0.417   6.429
 2646SOL    HW1 8837   0.110   0.325   6.422
 2646SOL    HW2 8838   7.001   0.414   6.406
 2647SOL     OW 8839   4.727   1.863   1.040
 2647SOL    HW1 8840   4.736   1.795   1.112
 2647SOL    HW2 8841   4.707   1.817   0.953
 2648SOL     OW 8842   6.478   6.978   2.633
 2648SOL    HW1 8843   6.497   0.050   2.634
 2648SOL    HW2 8844   6.513   6.936   2.717
 2649SOL     OW 8845   3.490   1.389   5.953
 2649SOL    HW1 8846   3.469   1.483   5.979
 2649SOL    HW2 8847   3.421   1.357   5.888
 2650SOL     OW 8848   0.235   5.309   3.406
 2650SOL    HW1 8849   0.234   5.376   3.332
 2650SOL    HW2 8850   0.319   5.256   3.402
 2651SOL     OW 8851   0.090   1.087   1.841
 2651SOL    HW1 8852   0.148   1.013   1.874
 2651SOL    HW2 8853   0.085   1.159   1.910
 2652SOL     OW 8854   3.103   3.142   2.987
 2652SOL    HW1 8855   3.119   3.120   2.890
 2652SOL    HW2 8856   3.016   3.190   2.997
 2653SOL     OW 8857   5.335   6.696   6.327
 2653SOL    HW1 8858   5.298   6.767   6.386
 2653SOL    HW2 8859   5.269   6.675   6.254
 2654SOL     OW 8860   5.162   1.713   6.237
 2654SOL    HW1 8861   5.191   1.798   6.282
 2654SOL    HW2 8862   5.213   1.702   6.152
 2655SOL     OW 8863   4.007   5.947   4.753
 2655SOL    HW1 8864   4.027   5.849   4.742
 2655SOL    HW2 8865   4.092   5.999   4.744
 2656SOL     OW 8866   5.401   4.025   3.573
 2656SOL    HW1 8867   5.346   3.948   3.606
 2656SOL    HW2 8868   5.498   4.008   3.594
 2657SOL     OW 8869   1.858   4.435   6.881
 2657SOL    HW1 8870   1.775   4.454   6.828
 2657SOL    HW2 8871   1.899   4.349   6.849
 2658SOL     OW 8872   5.970   4.280   6.030
 2658SOL    HW1 8873   6.023   4.344   5.975
 2658SOL    HW2 8874   5.945   4.201   5.974
 2659SOL     OW 8875   6.669   2.299   4.713
 2659SOL    HW1 8876   6.576   2.307   4.676
 2659SOL    HW2 8877   6.667   2.319   4.811
 2660SOL     OW 8878   6.397   2.557   2.303
 2660SOL    HW1 8879   6.469   2.504   2.348
 2660SOL    HW2 8880   6.332   2.494   2.260
 2661SOL     OW 8881   3.444   5.850   1.072
 2661SOL    HW1 8882   3.536   5.843   1.034
 2661SOL    HW2 8883   3.435   5.934   1.125
 2662SOL     OW 8884   4.256   6.056   4.995
 2662SOL    HW1 8885   4.344   6.103   5.000
 2662SOL    HW2 8886   4.218   6.066   4.903
 2663SOL     OW 8887   1.901   5.172   2.011
 2663SOL    HW1 8888   1.854   5.106   1.953
 2663SOL    HW2 8889   1.998   5.176   1.986
 2664SOL     OW 8890   3.962   3.965   2.755
 2664SOL    HW1 8891   3.938   3.999   2.846
 2664SOL    HW2 8892   3.905   4.011   2.686
 2665SOL     OW 8893   3.727   1.670   5.051
 2665SOL    HW1 8894   3.794   1.737   5.019
 2665SOL    HW2 8895   3.636   1.697   5.020
 2666SOL     OW 8896   5.015   4.499   0.968
 2666SOL    HW1 8897   4.930   4.539   0.932
 2666SOL    HW2 8898   5.092   4.556   0.940
 2667SOL     OW 8899   1.975   6.011   5.335
 2667SOL    HW1 8900   2.000   6.014   5.432
 2667SOL    HW2 8901   2.032   5.944   5.288
 2668SOL     OW 8902   6.753   3.326   4.680
 2668SOL    HW1 8903   6.804   3.239   4.682
 2668SOL    HW2 8904   6.815   3.401   4.705
 2669SOL     OW 8905   4.403   5.012   5.646
 2669SOL    HW1 8906   4.480   4.979   5.592
 2669SOL    HW2 8907   4.317   4.984   5.602
 2670SOL     OW 8908   0.211   1.027   6.689
 2670SOL    HW1 8909   0.175   0.952   6.634
 2670SOL    HW2 8910   0.140   1.059   6.753
 2671SOL     OW 8911   2.553   3.760   6.564
 2671SOL    HW1 8912   2.541   3.720   6.655
 2671SOL    HW2 8913   2.472   3.814   6.541
 2672SOL     OW 8914   2.112   5.231   0.475
 2672SOL    HW1 8915   2.038   5.212   0.411
 2672SOL    HW2 8916   2.191   5.267   0.426
 2673SOL     OW 8917   4.272   2.325   3.159
 2673SOL    HW1 8918   4.324   2.313   3.244
 2673SOL    HW2 8919   4.174   2.316   3.178
 2674SOL     OW 8920   0.845   5.049   4.531
 2674SOL    HW1 8921   0.800   5.133   4.502
 2674SOL    HW2 8922   0.776   4.980   4.552
 2675SOL     OW 8923   0.255   4.174   5.368
 2675SOL    HW1 8924   0.332   4.118   5.336
 2675SOL    HW2 8925   0.169   4.132   5.338
 2676SOL     OW 8926   4.827   1.402   2.433
 2676SOL    HW1 8927   4.926   1.417   2.429
 2676SOL    HW2 8928   4.804   1.350   2.515
 2677SOL     OW 8929   1.379   4.588   1.733
 2677SOL    HW1 8930   1.431   4.532   1.798
 2677SOL    HW2 8931   1.373   4.540   1.646
 2678SOL     OW 8932   1.586   4.943   6.796
 2678SOL    HW1 8933   1.497   4.959   6.754
 2678SOL    HW2 8934   1.631   4.866   6.749
 2679SOL     OW 8935   3.215   5.175   1.096
 2679SOL    HW1 8936   3.232   5.134   1.186
 2679SOL    HW2 8937   3.288   5.238   1.073
 2680SOL     OW 8938   1.876   1.688   0.574
 2680SOL    HW1 8939   1.941   1.752   0.615
 2680SOL    HW2 8940   1.815   1.653   0.645
 2681SOL     OW 8941   1.129   3.296   4.016
 2681SOL    HW1 8942   1.201   3.358   3.987
 2681SOL    HW2 8943   1.089   3.329   4.102
 2682SOL     OW 8944   5.222   2.671   2.261
 2682SOL    HW1 8945   5.166   2.720   2.194
 2682SOL    HW2 8946   5.192   2.575   2.265
 2683SOL     OW 8947   0.522   4.919   1.117
 2683SOL    HW1 8948   0.551   4.826   1.096
 2683SOL    HW2 8949   0.541   4.939   1.213
 2684SOL     OW 8950   4.097   6.363   2.623
 2684SOL    HW1 8951   4.092   6.406   2.714
 2684SOL    HW2 8952   4.094   6.264   2.633
 2685SOL     OW 8953   5.260   6.563   4.526
 2685SOL    HW1 8954   5.320   6.499   4.478
 2685SOL    HW2 8955   5.188   6.594   4.464
 2686SOL     OW 8956   2.596   2.504   4.323
 2686SOL    HW1 8957   2.663   2.578   4.331
 2686SOL    HW2 8958   2.512   2.539   4.282
 2687SOL     OW 8959   3.912   4.847   2.423
 2687SOL    HW1 8960   3.829   4.856   2.478
 2687SOL    HW2 8961   3.991   4.879   2.476
 2688SOL     OW 8962   4.666   4.822   6.451
 2688SOL    HW1 8963   4.606   4.896   6.479
 2688SOL    HW2 8964   4.704   4.843   6.360
 2689SOL     OW 8965   1.353   2.396   3.538
 2689SOL    HW1 8966   1.406   2.349   3.608
 2689SOL    HW2 8967   1.412   2.458   3.487
 2690SOL     OW 8968   3.689   2.884   3.664
 2690SOL    HW1 8969   3.668   2.911   3.758
 2690SOL    HW2 8970   3.604   2.860   3.616
 2691SOL     OW 8971   1.667   5.364   2.100
 2691SOL    HW1 8972   1.620   5.344   2.015
 2691SOL    HW2 8973   1.682   5.279   2.151
 2692SOL     OW 8974   6.893   5.415   4.027
 2692SOL    HW1 8975   6.933   5.330   3.993
 2692SOL    HW2 8976   6.819   5.394   4.090
 2693SOL     OW 8977   2.113   3.847   3.596
 2693SOL    HW1 8978   2.119   3.794   3.681
 2693SOL    HW2 8979   2.116   3.944   3.618
 2694SOL     OW 8980   3.134   0.310   3.123
 2694SOL    HW1 8981   3.043   0.313   3.080
 2694SOL    HW2 8982   3.182   0.228   3.093
 2695SOL     OW 8983   4.572   1.876   2.586
 2695SOL    HW1 8984   4.584   1.974   2.572
 2695SOL    HW2 8985   4.474   1.855   2.589
 2696SOL     OW 8986   3.634   3.632   5.578
 2696SOL    HW1 8987   3.651   3.594   5.487
 2696SOL    HW2 8988   3.535   3.641   5.592
 2697SOL     OW 8989   4.268   2.345   3.545
 2697SOL    HW1 8990   4.302   2.315   3.634
 2697SOL    HW2 8991   4.260   2.444   3.544
 2698SOL     OW 8992   0.762   4.546   1.185
 2698SOL    HW1 8993   0.742   4.537   1.087
 2698SOL    HW2 8994   0.851   4.507   1.205
 2699SOL     OW 8995   3.750   5.572   0.758
 2699SOL    HW1 8996   3.778   5.617   0.842
 2699SOL    HW2 8997   3.829   5.525   0.717
 2700SOL     OW 8998   2.073   3.731   2.557
 2700SOL    HW1 8999   2.088   3.650   2.501
 2700SOL    HW2 9000   2.050   3.704   2.650
 2701SOL     OW 9001   3.346   0.131   6.645
 2701SOL    HW1 9002   3.318   0.087   6.730
 2701SOL    HW2 9003   3.386   0.221   6.664
 2702SOL     OW 9004   7.001   1.555   2.784
 2702SOL    HW1 9005   6.955   1.467   2.789
 2702SOL    HW2 9006   0.028   1.560   2.700
 2703SOL     OW 9007   2.798   1.974   2.165
 2703SOL    HW1 9008   2.847   2.025   2.236
 2703SOL    HW2 9009   2.828   1.879   2.165
 2704SOL     OW 9010   2.633   5.152   2.112
 2704SOL    HW1 9011   2.655   5.196   2.199
 2704SOL    HW2 9012   2.694   5.074   2.098
 2705SOL     OW 9013   6.652   6.373   3.757
 2705SOL    HW1 9014   6.575   6.380   3.821
 2705SOL    HW2 9015   6.696   6.284   3.769
 2706SOL     OW 9016   6.557   1.635   2.127
 2706SOL    HW1 9017   6.470   1.587   2.140
 2706SOL    HW2 9018   6.554   1.722   2.177
 2707SOL     OW 9019   2.069   1.914   6.596
 2707SOL    HW1 9020   2.113   1.954   6.516
 2707SOL    HW2 9021   2.057   1.984   6.666
 2708SOL     OW 9022   2.453   2.791   1.714
 2708SOL    HW1 9023   2.452   2.831   1.622
 2708SOL    HW2 9024   2.374   2.824   1.766
 2709SOL     OW 9025   5.250   5.904   1.299
 2709SOL    HW1 9026   5.309   5.980   1.325
 2709SOL    HW2 9027   5.181   5.889   1.371
 2710SOL     OW 9028   0.090   3.652   2.738
 2710SOL    HW1 9029   0.168   3.695   2.783
 2710SOL    HW2 9030   0.116   3.624   2.645
 2711SOL     OW 9031   1.547   0.249   1.998
 2711SOL    HW1 9032   1.567   0.344   1.975
 2711SOL    HW2 9033   1.486   0.210   1.929
 2712SOL     OW 9034   2.483   4.611   0.440
 2712SOL    HW1 9035   2.555   4.605   0.509
 2712SOL    HW2 9036   2.465   4.520   0.402
 2713SOL     OW 9037   2.182   3.075   5.004
 2713SOL    HW1 9038   2.266   3.035   5.040
 2713SOL    HW2 9039   2.110   3.006   5.004
 2714SOL     OW 9040   5.213   1.249   6.080
 2714SOL    HW1 9041   5.186   1.328   6.135
 2714SOL    HW2 9042   5.156   1.245   5.997
 2715SOL     OW 9043   5.356   1.328   0.421
 2715SOL    HW1 9044   5.442   1.285   0.393
 2715SOL    HW2 9045   5.279   1.268   0.397
 2716SOL     OW 9046   6.665   5.234   1.934
 2716SOL    HW1 9047   6.724   5.231   2.015
 2716SOL    HW2 9048   6.588   5.295   1.951
 2717SOL     OW 9049   0.771   6.593   2.407
 2717SOL    HW1 9050   0.771   6.595   2.507
 2717SOL    HW2 9051   0.860   6.561   2.375
 2718SOL     OW 9052   1.341   3.436   4.293
 2718SOL    HW1 9053   1.370   3.530   4.307
 2718SOL    HW2 9054   1.243   3.427   4.314
 2719SOL     OW 9055   4.200   5.021   2.526
 2719SOL    HW1 9056   4.122   4.996   2.584
 2719SOL    HW2 9057   4.275   4.958   2.542
 2720SOL     OW 9058   1.784   6.334   3.969
 2720SOL    HW1 9059   1.764   6.246   4.012
 2720SOL    HW2 9060   1.832   6.318   3.882
 2721SOL     OW 9061   2.505   0.174   4.644
 2721SOL    HW1 9062   2.567   0.166   4.566
 2721SOL    HW2 9063   2.528   0.255   4.697
 2722SOL     OW 9064   0.698   5.092   3.022
 2722SOL    HW1 9065   0.644   5.020   2.979
 2722SOL    HW2 9066   0.651   5.122   3.106
 2723SOL     OW 9067   2.225   1.313   5.451
 2723SOL    HW1 9068   2.295   1.384   5.464
 2723SOL    HW2 9069   2.262   1.241   5.392
 2724SOL     OW 9070   3.249   5.587   6.866
 2724SOL    HW1 9071   3.294   5.676   6.862
 2724SOL    HW2 9072   3.283   5.529   6.792
 2725SOL     OW 9073   4.908   4.792   2.813
 2725SOL    HW1 9074   4.857   4.865   2.769
 2725SOL    HW2 9075   4.886   4.789   2.911
 2726SOL     OW 9076   4.812   4.622   1.729
 2726SOL    HW1 9077   4.895   4.596   1.680
 2726SOL    HW2 9078   4.825   4.606   1.827
 2727SOL     OW 9079   0.793   4.568   2.634
 2727SOL    HW1 9080   0.801   4.566   2.534
 2727SOL    HW2 9081   0.697   4.564   2.659
 2728SOL     OW 9082   2.923   6.985   5.165
 2728SOL    HW1 9083   2.873   6.957   5.083
 2728SOL    HW2 9084   3.009   6.934   5.171
 2729SOL     OW 9085   6.532   5.106   3.166
 2729SOL    HW1 9086   6.561   5.027   3.112
 2729SOL    HW2 9087   6.603   5.128   3.233
 2730SOL     OW 9088   2.470   6.773   0.400
 2730SOL    HW1 9089   2.498   6.772   0.495
 2730SOL    HW2 9090   2.485   6.683   0.360
 2731SOL     OW 9091   2.884   4.031   1.764
 2731SOL    HW1 9092   2.902   4.129   1.771
 2731SOL    HW2 9093   2.953   3.980   1.815
 2732SOL     OW 9094   6.061   2.940   2.162
 2732SOL    HW1 9095   5.974   2.891   2.176
 2732SOL    HW2 9096   6.137   2.881   2.189
 2733SOL     OW 9097   0.755   6.667   5.581
 2733SOL    HW1 9098   0.782   6.704   5.670
 2733SOL    HW2 9099   0.705   6.736   5.530
 2734SOL     OW 9100   1.856   0.011   3.813
 2734SOL    HW1 9101   1.925   0.084   3.814
 2734SOL    HW2 9102   1.840   7.005   3.906
 2735SOL     OW 9103   1.158   4.169   2.519
 2735SOL    HW1 9104   1.141   4.180   2.421
 2735SOL    HW2 9105   1.106   4.091   2.553
 2736SOL     OW 9106   4.239   0.266   5.161
 2736SOL    HW1 9107   4.166   0.203   5.135
 2736SOL    HW2 9108   4.288   0.297   5.080
 2737SOL     OW 9109   3.749   3.342   6.201
 2737SOL    HW1 9110   3.790   3.308   6.117
 2737SOL    HW2 9111   3.779   3.284   6.278
 2738SOL     OW 9112   5.130   5.211   3.793
 2738SOL    HW1 9113   5.086   5.180   3.878
 2738SOL    HW2 9114   5.222   5.244   3.814
 2739SOL     OW 9115   5.497   4.028   0.729
 2739SOL    HW1 9116   5.590   4.018   0.693
 2739SOL    HW2 9117   5.501   4.041   0.828
 2740SOL     OW 9118   6.172   2.344   2.614
 2740SOL    HW1 9119   6.255   2.396   2.633
 2740SOL    HW2 9120   6.194   2.267   2.554
 2741SOL     OW 9121   7.008   2.151   5.700
 2741SOL    HW1 9122   6.934   2.213   5.725
 2741SOL    HW2 9123   0.026   2.116   5.783
 2742SOL     OW 9124   1.620   5.858   6.578
 2742SOL    HW1 9125   1.608   5.865   6.479
 2742SOL    HW2 9126   1.711   5.822   6.598
 2743SOL     OW 9127   5.475   5.049   1.582
 2743SOL    HW1 9128   5.420   4.979   1.626
 2743SOL    HW2 9129   5.415   5.120   1.544
 2744SOL     OW 9130   4.161   2.281   6.756
 2744SOL    HW1 9131   4.225   2.350   6.724
 2744SOL    HW2 9132   4.211   2.205   6.797
 2745SOL     OW 9133   1.994   6.244   1.110
 2745SOL    HW1 9134   1.941   6.160   1.110
 2745SOL    HW2 9135   2.010   6.274   1.205
 2746SOL     OW 9136   1.803   2.090   5.248
 2746SOL    HW1 9137   1.797   2.144   5.332
 2746SOL    HW2 9138   1.785   2.149   5.169
 2747SOL     OW 9139   6.001   5.632   4.562
 2747SOL    HW1 9140   6.091   5.626   4.519
 2747SOL    HW2 9141   5.955   5.543   4.555
 2748SOL     OW 9142   4.453   1.497   3.668
 2748SOL    HW1 9143   4.384   1.560   3.632
 2748SOL    HW2 9144   4.543   1.525   3.635
 2749SOL     OW 9145   4.754   4.111   4.287
 2749SOL    HW1 9146   4.787   4.102   4.381
 2749SOL    HW2 9147   4.809   4.053   4.227
 2750SOL     OW 9148   0.504   6.049   2.349
 2750SOL    HW1 9149   0.468   6.028   2.258
 2750SOL    HW2 9150   0.497   5.968   2.407
 2751SOL     OW 9151   2.213   0.130   6.987
 2751SOL    HW1 9152   2.185   0.035   6.983
 2751SOL    HW2 9153   2.156   0.180   0.026
 2752SOL     OW 9154   5.798   6.069   5.348
 2752SOL    HW1 9155   5.888   6.077   5.304
 2752SOL    HW2 9156   5.764   6.160   5.370
 2753SOL     OW 9157   3.781   6.252   6.624
 2753SOL    HW1 9158   3.865   6.198   6.620
 2753SOL    HW2 9159   3.703   6.191   6.643
 2754SOL     OW 9160   0.415   0.151   4.448
 2754SOL    HW1 9161   0.438   0.058   4.420
 2754SOL    HW2 9162   0.488   0.187   4.507
 2755SOL     OW 9163   3.196   6.437   2.578
 2755SOL    HW1 9164   3.134   6.509   2.547
 2755SOL    HW2 9165   3.245   6.468   2.659
 2756SOL     OW 9166   5.757   3.702   5.199
 2756SOL    HW1 9167   5.770   3.607   5.227
 2756SOL    HW2 9168   5.826   3.726   5.131
 2757SOL     OW 9169   4.729   1.984   7.019
 2757SOL    HW1 9170   4.733   2.041   0.074
 2757SOL    HW2 9171   4.673   1.903   0.011
 2758SOL     OW 9172   5.249   4.668   3.222
 2758SOL    HW1 9173   5.156   4.646   3.251
 2758SOL    HW2 9174   5.293   4.726   3.291
 2759SOL     OW 9175   3.180   4.605   6.193
 2759SOL    HW1 9176   3.192   4.587   6.095
 2759SOL    HW2 9177   3.216   4.528   6.246
 2760SOL     OW 9178   5.495   5.525   3.612
 2760SOL    HW1 9179   5.532   5.435   3.636
 2760SOL    HW2 9180   5.423   5.515   3.543
 2761SOL     OW 9181   1.757   3.795   2.889
 2761SOL    HW1 9182   1.838   3.741   2.868
 2761SOL    HW2 9183   1.710   3.756   2.968
 2762SOL     OW 9184   1.750   2.314   6.988
 2762SOL    HW1 9185   1.809   2.331   0.042
 2762SOL    HW2 9186   1.729   2.216   6.984
 2763SOL     OW 9187   4.718   1.159   5.976
 2763SOL    HW1 9188   4.801   1.110   6.003
 2763SOL    HW2 9189   4.742   1.235   5.915
 2764SOL     OW 9190   0.518   3.754   1.895
 2764SOL    HW1 9191   0.474   3.770   1.983
 2764SOL    HW2 9192   0.551   3.841   1.857
 2765SOL     OW 9193   6.160   6.705   6.993
 2765SOL    HW1 9194   6.145   6.612   6.961
 2765SOL    HW2 9195   6.132   6.712   0.063
 2766SOL     OW 9196   5.358   0.851   6.902
 2766SOL    HW1 9197   5.269   0.877   6.863
 2766SOL    HW2 9198   5.345   0.774   6.965
 2767SOL     OW 9199   6.214   4.956   6.170
 2767SOL    HW1 9200   6.129   4.933   6.123
 2767SOL    HW2 9201   6.254   5.038   6.128
 2768SOL     OW 9202   4.713   0.587   1.003
 2768SOL    HW1 9203   4.627   0.637   1.017
 2768SOL    HW2 9204   4.756   0.569   1.092
 2769SOL     OW 9205   1.519   4.342   5.598
 2769SOL    HW1 9206   1.571   4.415   5.552
 2769SOL    HW2 9207   1.469   4.380   5.676
 2770SOL     OW 9208   2.586   6.933   6.926
 2770SOL    HW1 9209   2.628   6.845   6.901
 2770SOL    HW2 9210   2.642   7.008   6.891
 2771SOL     OW 9211   4.758   0.219   5.032
 2771SOL    HW1 9212   4.684   0.174   5.083
 2771SOL    HW2 9213   4.721   0.263   4.951
 2772SOL     OW 9214   4.371   0.879   2.761
 2772SOL    HW1 9215   4.447   0.860   2.824
 2772SOL    HW2 9216   4.318   0.795   2.747
 2773SOL     OW 9217   6.427   3.103   4.335
 2773SOL    HW1 9218   6.355   3.098   4.405
 2773SOL    HW2 9219   6.387   3.081   4.245
 2774SOL     OW 9220   5.286   1.800   3.175
 2774SOL    HW1 9221   5.292   1.892   3.214
 2774SOL    HW2 9222   5.328   1.800   3.084
 2775SOL     OW 9223   0.223   4.261   4.929
 2775SOL    HW1 9224   0.280   4.338   4.956
 2775SOL    HW2 9225   0.246   4.232   4.836
 2776SOL     OW 9226   4.693   4.571   6.047
 2776SOL    HW1 9227   4.720   4.476   6.040
 2776SOL    HW2 9228   4.771   4.630   6.028
 2777SOL     OW 9229   3.231   2.330   5.989
 2777SOL    HW1 9230   3.314   2.315   5.935
 2777SOL    HW2 9231   3.254   2.329   6.086
 2778SOL     OW 9232   2.283   6.168   6.400
 2778SOL    HW1 9233   2.234   6.157   6.487
 2778SOL    HW2 9234   2.348   6.093   6.389
 2779SOL     OW 9235   6.106   5.966   2.318
 2779SOL    HW1 9236   6.086   5.939   2.224
 2779SOL    HW2 9237   6.205   5.977   2.329
 2780SOL     OW 9238   0.260   1.409   6.131
 2780SOL    HW1 9239   0.302   1.476   6.070
 2780SOL    HW2 9240   0.307   1.409   6.219
 2781SOL     OW 9241   6.492   0.466   2.592
 2781SOL    HW1 9242   6.571   0.453   2.533
 2781SOL    HW2 9243   6.519   0.452   2.688
 2782SOL     OW 9244   4.616   1.179   6.840
 2782SOL    HW1 9245   4.561   1.257   6.813
 2782SOL    HW2 9246   4.558   1.110   6.882
 2783SOL     OW 9247   5.236   3.113   1.634
 2783SOL    HW1 9248   5.191   3.202   1.626
 2783SOL    HW2 9249   5.323   3.123   1.682
 2784SOL     OW 9250   1.719   1.582   0.385
 2784SOL    HW1 9251   1.712   1.623   0.294
 2784SOL    HW2 9252   1.768   1.645   0.445
 2785SOL     OW 9253   5.187   3.013   1.400
 2785SOL    HW1 9254   5.194   3.033   1.497
 2785SOL    HW2 9255   5.158   2.918   1.387
 2786SOL     OW 9256   6.872   6.029   0.193
 2786SOL    HW1 9257   6.883   5.938   0.153
 2786SOL    HW2 9258   6.956   6.082   0.180
 2787SOL     OW 9259   6.183   5.325   5.658
 2787SOL    HW1 9260   6.090   5.360   5.653
 2787SOL    HW2 9261   6.181   5.225   5.648
 2788SOL     OW 9262   3.462   6.163   5.821
 2788SOL    HW1 9263   3.474   6.074   5.864
 2788SOL    HW2 9264   3.535   6.225   5.851
 2789SOL     OW 9265   0.436   2.697   4.741
 2789SOL    HW1 9266   0.527   2.675   4.708
 2789SOL    HW2 9267   0.372   2.698   4.664
 2790SOL     OW 9268   2.455   5.516   0.750
 2790SOL    HW1 9269   2.476   5.532   0.846
 2790SOL    HW2 9270   2.536   5.538   0.695
 2791SOL     OW 9271   6.698   3.814   3.368
 2791SOL    HW1 9272   6.599   3.813   3.387
 2791SOL    HW2 9273   6.745   3.867   3.438
 2792SOL     OW 9274   3.496   1.612   5.345
 2792SOL    HW1 9275   3.585   1.566   5.343
 2792SOL    HW2 9276   3.424   1.546   5.324
 2793SOL     OW 9277   3.782   4.506   1.394
 2793SOL    HW1 9278   3.783   4.548   1.485
 2793SOL    HW2 9279   3.876   4.496   1.360
 2794SOL     OW 9280   0.302   1.760   5.972
 2794SOL    HW1 9281   0.208   1.736   5.998
 2794SOL    HW2 9282   0.305   1.782   5.874
 2795SOL     OW 9283   0.933   4.270   1.708
 2795SOL    HW1 9284   0.953   4.223   1.622
 2795SOL    HW2 9285   0.893   4.360   1.688
 2796SOL     OW 9286   1.041   6.048   5.460
 2796SOL    HW1 9287   1.010   5.994   5.381
 2796SOL    HW2 9288   1.018   5.999   5.544
 2797SOL     OW 9289   5.253   6.999   4.215
 2797SOL    HW1 9290   5.198   0.049   4.248
 2797SOL    HW2 9291   5.349   0.001   4.211
 2798SOL     OW 9292   5.900   6.505   2.009
 2798SOL    HW1 9293   5.981   6.558   1.985
 2798SOL    HW2 9294   5.883   6.436   1.938
 2799SOL     OW 9295   3.805   6.243   4.800
 2799SOL    HW1 9296   3.735   6.285   4.858
 2799SOL    HW2 9297   3.812   6.146   4.823
 2800SOL     OW 9298   6.125   0.991   6.629
 2800SOL    HW1 9299   6.133   0.910   6.687
 2800SOL    HW2 9300   6.030   1.021   6.628
 2801SOL     OW 9301   0.756   4.631   5.734
 2801SOL    HW1 9302   0.719   4.635   5.641
 2801SOL    HW2 9303   0.709   4.698   5.792
 2802SOL     OW 9304   6.719   5.912   5.061
 2802SOL    HW1 9305   6.678   5.956   4.982
 2802SOL    HW2 9306   6.662   5.835   5.090
 2803SOL     OW 9307   3.602   3.523   6.336
 2803SOL    HW1 9308   3.507   3.493   6.331
 2803SOL    HW2 9309   3.660   3.456   6.289
 2804SOL     OW 9310   0.575   2.936   3.841
 2804SOL    HW1 9311   0.541   2.850   3.802
 2804SOL    HW2 9312   0.576   3.007   3.770
 2805SOL     OW 9313   4.109   3.403   1.445
 2805SOL    HW1 9314   4.191   3.422   1.500
 2805SOL    HW2 9315   4.037   3.368   1.505
 2806SOL     OW 9316   0.686   4.594   6.077
 2806SOL    HW1 9317   0.771   4.642   6.059
 2806SOL    HW2 9318   0.657   4.545   5.995
 2807SOL     OW 9319   2.967   0.155   3.486
 2807SOL    HW1 9320   2.940   0.083   3.423
 2807SOL    HW2 9321   3.014   0.228   3.436
 2808SOL     OW 9322   6.096   5.299   0.036
 2808SOL    HW1 9323   6.109   5.238   6.983
 2808SOL    HW2 9324   6.178   5.296   0.093
 2809SOL     OW 9325   6.683   4.735   2.161
 2809SOL    HW1 9326   6.689   4.822   2.212
 2809SOL    HW2 9327   6.588   4.719   2.136
 2810SOL     OW 9328   2.398   5.392   3.827
 2810SOL    HW1 9329   2.458   5.331   3.774
 2810SOL    HW2 9330   2.422   5.487   3.809
 2811SOL     OW 9331   1.017   0.917   2.205
 2811SOL    HW1 9332   0.963   0.947   2.283
 2811SOL    HW2 9333   1.058   0.828   2.225
 2812SOL     OW 9334   0.403   3.471   0.889
 2812SOL    HW1 9335   0.305   3.479   0.872
 2812SOL    HW2 9336   0.453   3.498   0.807
 2813SOL     OW 9337   0.791   2.061   1.290
 2813SOL    HW1 9338   0.802   2.089   1.386
 2813SOL    HW2 9339   0.696   2.074   1.263
 2814SOL     OW 9340   2.103   3.935   0.500
 2814SOL    HW1 9341   2.047   4.009   0.538
 2814SOL    HW2 9342   2.156   3.893   0.574
 2815SOL     OW 9343   0.438   5.779   5.489
 2815SOL    HW1 9344   0.523   5.789   5.542
 2815SOL    HW2 9345   0.461   5.751   5.396
 2816SOL     OW 9346   0.330   5.911   5.858
 2816SOL    HW1 9347   0.238   5.872   5.863
 2816SOL    HW2 9348   0.328   5.993   5.800
 2817SOL     OW 9349   4.072   0.563   2.239
 2817SOL    HW1 9350   4.098   0.499   2.312
 2817SOL    HW2 9351   3.988   0.530   2.195
 2818SOL     OW 9352   1.101   0.711   1.449
 2818SOL    HW1 9353   1.131   0.665   1.365
 2818SOL    HW2 9354   1.022   0.664   1.487
 2819SOL     OW 9355   0.542   0.537   0.890
 2819SOL    HW1 9356   0.512   0.460   0.834
 2819SOL    HW2 9357   0.618   0.508   0.948
 2820SOL     OW 9358   1.195   2.594   1.315
 2820SOL    HW1 9359   1.238   2.676   1.352
 2820SOL    HW2 9360   1.209   2.518   1.378
 2821SOL     OW 9361   2.949   4.631   6.476
 2821SOL    HW1 9362   2.972   4.703   6.410
 2821SOL    HW2 9363   2.880   4.666   6.540
 2822SOL     OW 9364   4.533   2.457   0.783
 2822SOL    HW1 9365   4.484   2.413   0.707
 2822SOL    HW2 9366   4.468   2.490   0.851
 2823SOL     OW 9367   4.885   2.063   0.808
 2823SOL    HW1 9368   4.795   2.032   0.778
 2823SOL    HW2 9369   4.936   2.099   0.730
 2824SOL     OW 9370   1.089   3.452   5.431
 2824SOL    HW1 9371   0.993   3.426   5.427
 2824SOL    HW2 9372   1.103   3.537   5.381
 2825SOL     OW 9373   5.351   1.329   6.439
 2825SOL    HW1 9374   5.266   1.356   6.394
 2825SOL    HW2 9375   5.396   1.410   6.477
 2826SOL     OW 9376   1.668   4.251   6.754
 2826SOL    HW1 9377   1.716   4.197   6.823
 2826SOL    HW2 9378   1.585   4.203   6.727
 2827SOL     OW 9379   0.382   0.764   6.299
 2827SOL    HW1 9380   0.297   0.712   6.288
 2827SOL    HW2 9381   0.375   0.850   6.249
 2828SOL     OW 9382   2.055   4.317   0.971
 2828SOL    HW1 9383   2.099   4.313   0.881
 2828SOL    HW2 9384   1.959   4.342   0.960
 2829SOL     OW 9385   3.884   4.023   3.243
 2829SOL    HW1 9386   3.896   4.069   3.330
 2829SOL    HW2 9387   3.925   3.932   3.248
 2830SOL     OW 9388   3.779   5.190   5.883
 2830SOL    HW1 9389   3.733   5.122   5.826
 2830SOL    HW2 9390   3.722   5.272   5.889
 2831SOL     OW 9391   6.493   1.912   1.867
 2831SOL    HW1 9392   6.545   1.829   1.846
 2831SOL    HW2 9393   6.548   1.970   1.927
 2832SOL     OW 9394   0.517   3.210   0.865
 2832SOL    HW1 9395   0.471   3.295   0.889
 2832SOL    HW2 9396   0.452   3.134   0.871
 2833SOL     OW 9397   1.690   2.098   1.442
 2833SOL    HW1 9398   1.601   2.125   1.477
 2833SOL    HW2 9399   1.688   2.099   1.342
 2834SOL     OW 9400   4.073   5.850   5.024
 2834SOL    HW1 9401   4.094   5.799   4.941
 2834SOL    HW2 9402   4.126   5.935   5.026
 2835SOL     OW 9403   0.845   6.577   0.733
 2835SOL    HW1 9404   0.919   6.639   0.758
 2835SOL    HW2 9405   0.858   6.490   0.781
 2836SOL     OW 9406   3.946   6.005   3.521
 2836SOL    HW1 9407   3.867   5.950   3.549
 2836SOL    HW2 9408   4.028   5.947   3.519
 2837SOL     OW 9409   5.368   3.990   2.073
 2837SOL    HW1 9410   5.378   3.904   2.024
 2837SOL    HW2 9411   5.426   4.060   2.031
 2838SOL     OW 9412   4.995   3.712   5.992
 2838SOL    HW1 9413   4.914   3.767   5.971
 2838SOL    HW2 9414   5.022   3.659   5.911
 2839SOL     OW 9415   6.288   3.080   5.324
 2839SOL    HW1 9416   6.231   3.026   5.386
 2839SOL    HW2 9417   6.380   3.043   5.322
 2840SOL     OW 9418   0.491   6.065   3.150
 2840SOL    HW1 9419   0.517   6.118   3.230
 2840SOL    HW2 9420   0.546   5.981   3.146
 2841SOL     OW 9421   5.655   2.515   1.592
 2841SOL    HW1 9422   5.571   2.568   1.606
 2841SOL    HW2 9423   5.728   2.552   1.650
 2842SOL     OW 9424   1.650   6.590   3.279
 2842SOL    HW1 9425   1.721   6.586   3.349
 2842SOL    HW2 9426   1.681   6.541   3.197
 2843SOL     OW 9427   2.188   2.936   3.100
 2843SOL    HW1 9428   2.269   2.884   3.125
 2843SOL    HW2 9429   2.202   3.032   3.122
 2844SOL     OW 9430   4.771   4.455   1.304
 2844SOL    HW1 9431   4.736   4.501   1.222
 2844SOL    HW2 9432   4.870   4.443   1.296
 2845SOL     OW 9433   4.088   2.070   2.955
 2845SOL    HW1 9434   4.149   2.126   2.899
 2845SOL    HW2 9435   4.050   2.126   3.029
 2846SOL     OW 9436   5.002   0.729   0.757
 2846SOL    HW1 9437   4.932   0.794   0.788
 2846SOL    HW2 9438   5.084   0.779   0.729
 2847SOL     OW 9439   5.295   4.017   2.329
 2847SOL    HW1 9440   5.350   3.972   2.258
 2847SOL    HW2 9441   5.275   4.111   2.301
 2848SOL     OW 9442   0.783   3.944   5.111
 2848SOL    HW1 9443   0.848   4.014   5.139
 2848SOL    HW2 9444   0.775   3.942   5.012
 2849SOL     OW 9445   4.459   0.485   2.996
 2849SOL    HW1 9446   4.497   0.399   3.029
 2849SOL    HW2 9447   4.406   0.528   3.069
 2850SOL     OW 9448   2.429   0.155   2.882
 2850SOL    HW1 9449   2.370   0.135   2.960
 2850SOL    HW2 9450   2.511   0.203   2.914
 2851SOL     OW 9451   3.766   3.175   0.852
 2851SOL    HW1 9452   3.746   3.140   0.943
 2851SOL    HW2 9453   3.779   3.274   0.856
 2852SOL     OW 9454   6.390   4.322   5.843
 2852SOL    HW1 9455   6.411   4.226   5.823
 2852SOL    HW2 9456   6.360   4.330   5.938
 2853SOL     OW 9457   0.742   4.179   6.996
 2853SOL    HW1 9458   0.717   4.111   6.927
 2853SOL    HW2 9459   0.837   4.165   7.023
 2854SOL     OW 9460   3.537   1.685   5.965
 2854SOL    HW1 9461   3.488   1.772   5.971
 2854SOL    HW2 9462   3.614   1.695   5.901
 2855SOL     OW 9463   2.026   1.402   4.238
 2855SOL    HW1 9464   2.048   1.426   4.144
 2855SOL    HW2 9465   1.989   1.483   4.285
 2856SOL     OW 9466   1.155   4.430   3.333
 2856SOL    HW1 9467   1.154   4.419   3.433
 2856SOL    HW2 9468   1.104   4.355   3.291
 2857SOL     OW 9469   6.587   3.415   0.554
 2857SOL    HW1 9470   6.630   3.366   0.630
 2857SOL    HW2 9471   6.651   3.484   0.520
 2858SOL     OW 9472   4.907   4.527   3.009
 2858SOL    HW1 9473   4.978   4.483   2.954
 2858SOL    HW2 9474   4.849   4.584   2.951
 2859SOL     OW 9475   5.618   4.703   1.718
 2859SOL    HW1 9476   5.607   4.753   1.633
 2859SOL    HW2 9477   5.711   4.669   1.726
 2860SOL     OW 9478   1.254   6.092   1.215
 2860SOL    HW1 9479   1.344   6.103   1.256
 2860SOL    HW2 9480   1.184   6.091   1.287
 2861SOL     OW 9481   4.588   4.831   7.020
 2861SOL    HW1 9482   4.607   4.929   7.005
 2861SOL    HW2 9483   4.559   4.789   6.934
 2862SOL     OW 9484   4.360   3.053   0.892
 2862SOL    HW1 9485   4.322   2.990   0.823
 2862SOL    HW2 9486   4.408   3.000   0.961
 2863SOL     OW 9487   5.990   0.161   5.353
 2863SOL    HW1 9488   5.892   0.182   5.356
 2863SOL    HW2 9489   6.021   0.160   5.258
 2864SOL     OW 9490   3.736   3.628   0.102
 2864SOL    HW1 9491   3.672   3.571   0.153
 2864SOL    HW2 9492   3.695   3.655   0.015
 2865SOL     OW 9493   5.099   5.928   4.348
 2865SOL    HW1 9494   5.116   5.867   4.271
 2865SOL    HW2 9495   5.185   5.945   4.397
 2866SOL     OW 9496   4.214   4.285   6.873
 2866SOL    HW1 9497   4.273   4.321   6.801
 2866SOL    HW2 9498   4.189   4.191   6.851
 2867SOL     OW 9499   5.840   6.341   1.797
 2867SOL    HW1 9500   5.916   6.376   1.743
 2867SOL    HW2 9501   5.754   6.366   1.753
 2868SOL     OW 9502   1.584   1.425   6.157
 2868SOL    HW1 9503   1.531   1.429   6.072
 2868SOL    HW2 9504   1.608   1.330   6.177
 2869SOL     OW 9505   5.057   5.499   3.783
 2869SOL    HW1 9506   5.061   5.400   3.798
 2869SOL    HW2 9507   5.027   5.517   3.690
 2870SOL     OW 9508   0.110   1.930   1.452
 2870SOL    HW1 9509   0.107   1.830   1.457
 2870SOL    HW2 9510   0.042   1.969   1.514
 2871SOL     OW 9511   5.746   1.774   1.473
 2871SOL    HW1 9512   5.690   1.701   1.434
 2871SOL    HW2 9513   5.820   1.734   1.527
 2872SOL     OW 9514   2.110   2.081   2.181
 2872SOL    HW1 9515   2.195   2.114   2.222
 2872SOL    HW2 9516   2.060   2.027   2.249
 2873SOL     OW 9517   0.804   6.643   1.060
 2873SOL    HW1 9518   0.765   6.675   1.146
 2873SOL    HW2 9519   0.752   6.564   1.027
 2874SOL     OW 9520   1.851   0.974   2.923
 2874SOL    HW1 9521   1.784   0.971   2.997
 2874SOL    HW2 9522   1.839   1.058   2.870
 2875SOL     OW 9523   2.917   6.635   3.274
 2875SOL    HW1 9524   2.977   6.630   3.194
 2875SOL    HW2 9525   2.972   6.642   3.357
 2876SOL     OW 9526   1.295   6.221   1.916
 2876SOL    HW1 9527   1.301   6.314   1.953
 2876SOL    HW2 9528   1.223   6.170   1.963
 2877SOL     OW 9529   1.560   1.128   5.881
 2877SOL    HW1 9530   1.471   1.151   5.921
 2877SOL    HW2 9531   1.548   1.063   5.806
 2878SOL     OW 9532   4.077   3.551   4.557
 2878SOL    HW1 9533   4.035   3.642   4.552
 2878SOL    HW2 9534   4.126   3.533   4.472
 2879SOL     OW 9535   4.492   5.026   6.472
 2879SOL    HW1 9536   4.490   5.041   6.373
 2879SOL    HW2 9537   4.511   5.113   6.518
 2880SOL     OW 9538   1.683   1.465   4.823
 2880SOL    HW1 9539   1.751   1.435   4.756
 2880SOL    HW2 9540   1.684   1.565   4.828
 2881SOL     OW 9541   3.889   6.450   6.792
 2881SOL    HW1 9542   3.881   6.437   6.891
 2881SOL    HW2 9543   3.812   6.405   6.747
 2882SOL     OW 9544   4.614   5.979   0.641
 2882SOL    HW1 9545   4.516   5.962   0.656
 2882SOL    HW2 9546   4.653   6.025   0.720
 2883SOL     OW 9547   6.024   6.243   3.487
 2883SOL    HW1 9548   5.977   6.212   3.570
 2883SOL    HW2 9549   5.975   6.210   3.407
 2884SOL     OW 9550   0.233   5.509   3.208
 2884SOL    HW1 9551   0.232   5.459   3.122
 2884SOL    HW2 9552   0.299   5.583   3.203
 2885SOL     OW 9553   1.082   2.922   2.890
 2885SOL    HW1 9554   1.074   3.020   2.908
 2885SOL    HW2 9555   0.991   2.880   2.897
 2886SOL     OW 9556   2.537   4.383   6.029
 2886SOL    HW1 9557   2.581   4.377   6.118
 2886SOL    HW2 9558   2.459   4.445   6.033
 2887SOL     OW 9559   1.286   6.035   3.593
 2887SOL    HW1 9560   1.330   5.989   3.516
 2887SOL    HW2 9561   1.189   6.050   3.572
 2888SOL     OW 9562   6.427   6.448   0.775
 2888SOL    HW1 9563   6.398   6.462   0.870
 2888SOL    HW2 9564   6.379   6.370   0.736
 2889SOL     OW 9565   3.510   6.212   3.567
 2889SOL    HW1 9566   3.419   6.252   3.577
 2889SOL    HW2 9567   3.571   6.279   3.524
 2890SOL     OW 9568   2.206   0.429   0.817
 2890SOL    HW1 9569   2.125   0.475   0.780
 2890SOL    HW2 9570   2.177   0.367   0.891
 2891SOL     OW 9571   0.537   3.143   3.688
 2891SOL    HW1 9572   0.470   3.193   3.632
 2891SOL    HW2 9573   0.564   3.200   3.765
 2892SOL     OW 9574   6.632   3.566   1.472
 2892SOL    HW1 9575   6.587   3.633   1.531
 2892SOL    HW2 9576   6.669   3.613   1.391
 2893SOL     OW 9577   0.120   4.940   4.334
 2893SOL    HW1 9578   0.147   5.011   4.399
 2893SOL    HW2 9579   0.022   4.920   4.345
 2894SOL     OW 9580   1.311   5.212   2.087
 2894SOL    HW1 9581   1.316   5.119   2.050
 2894SOL    HW2 9582   1.356   5.275   2.024
 2895SOL     OW 9583   4.344   6.735   5.935
 2895SOL    HW1 9584   4.266   6.683   5.900
 2895SOL    HW2 9585   4.420   6.672   5.955
 2896SOL     OW 9586   5.852   6.230   4.923
 2896SOL    HW1 9587   5.843   6.280   5.009
 2896SOL    HW2 9588   5.913   6.279   4.861
 2897SOL     OW 9589   3.975   4.981   2.679
 2897SOL    HW1 9590   3.987   5.078   2.700
 2897SOL    HW2 9591   3.991   4.926   2.761
 2898SOL     OW 9592   5.794   4.216   2.409
 2898SOL    HW1 9593   5.869   4.168   2.453
 2898SOL    HW2 9594   5.747   4.154   2.345
 2899SOL     OW 9595   6.641   3.212   0.761
 2899SOL    HW1 9596   6.723   3.189   0.813
 2899SOL    HW2 9597   6.631   3.148   0.685
 2900SOL     OW 9598   3.036   3.930   0.300
 2900SOL    HW1 9599   3.029   3.835   0.330
 2900SOL    HW2 9600   2.947   3.963   0.271
 2901SOL     OW 9601   1.614   3.674   3.346
 2901SOL    HW1 9602   1.655   3.689   3.256
 2901SOL    HW2 9603   1.589   3.578   3.357
 2902SOL     OW 9604   1.129   5.787   4.165
 2902SOL    HW1 9605   1.126   5.835   4.078
 2902SOL    HW2 9606   1.224   5.784   4.198
 2903SOL     OW 9607   4.161   5.977   1.112
 2903SOL    HW1 9608   4.155   6.062   1.061
 2903SOL    HW2 9609   4.218   5.990   1.193
 2904SOL     OW 9610   2.604   4.418   5.231
 2904SOL    HW1 9611   2.702   4.410   5.213
 2904SOL    HW2 9612   2.576   4.513   5.218
 2905SOL     OW 9613   0.619   4.838   1.824
 2905SOL    HW1 9614   0.579   4.797   1.741
 2905SOL    HW2 9615   0.556   4.905   1.861
 2906SOL     OW 9616   5.955   5.851   3.677
 2906SOL    HW1 9617   5.981   5.755   3.689
 2906SOL    HW2 9618   6.029   5.909   3.711
 2907SOL     OW 9619   0.941   0.526   3.485
 2907SOL    HW1 9620   0.918   0.579   3.566
 2907SOL    HW2 9621   0.874   0.452   3.474
 2908SOL     OW 9622   4.437   6.931   3.173
 2908SOL    HW1 9623   4.348   6.975   3.176
 2908SOL    HW2 9624   4.474   6.936   3.081
 2909SOL     OW 9625   1.194   5.829   2.609
 2909SOL    HW1 9626   1.283   5.843   2.566
 2909SOL    HW2 9627   1.144   5.758   2.561
 2910SOL     OW 9628   0.132   0.321   3.201
 2910SOL    HW1 9629   0.041   0.314   3.159
 2910SOL    HW2 9630   0.179   0.401   3.165
 2911SOL     OW 9631   6.683   3.688   4.542
 2911SOL    HW1 9632   6.690   3.782   4.575
 2911SOL    HW2 9633   6.775   3.653   4.521
 2912SOL     OW 9634   6.986   6.913   0.578
 2912SOL    HW1 9635   7.018   7.006   0.594
 2912SOL    HW2 9636   0.007   6.874   0.500
 2913SOL     OW 9637   2.530   5.945   1.037
 2913SOL    HW1 9638   2.545   6.032   0.990
 2913SOL    HW2 9639   2.495   5.962   1.129
 2914SOL     OW 9640   5.105   5.006   0.290
 2914SOL    HW1 9641   5.197   5.046   0.288
 2914SOL    HW2 9642   5.109   4.916   0.333
 2915SOL     OW 9643   3.058   1.356   3.273
 2915SOL    HW1 9644   2.975   1.340   3.327
 2915SOL    HW2 9645   3.034   1.368   3.177
 2916SOL     OW 9646   1.410   6.044   0.776
 2916SOL    HW1 9647   1.355   6.117   0.735
 2916SOL    HW2 9648   1.485   6.084   0.828
 2917SOL     OW 9649   2.550   6.649   3.686
 2917SOL    HW1 9650   2.601   6.564   3.698
 2917SOL    HW2 9651   2.597   6.724   3.733
 2918SOL     OW 9652   6.430   3.442   1.063
 2918SOL    HW1 9653   6.356   3.504   1.036
 2918SOL    HW2 9654   6.419   3.417   1.159
 2919SOL     OW 9655   0.846   5.814   4.033
 2919SOL    HW1 9656   0.884   5.859   3.952
 2919SOL    HW2 9657   0.918   5.762   4.079
 2920SOL     OW 9658   1.403   2.119   1.486
 2920SOL    HW1 9659   1.357   2.031   1.499
 2920SOL    HW2 9660   1.379   2.155   1.396
 2921SOL     OW 9661   0.348   6.962   5.684
 2921SOL    HW1 9662   0.253   6.974   5.655
 2921SOL    HW2 9663   0.398   6.909   5.615
 2922SOL     OW 9664   3.767   0.803   3.354
 2922SOL    HW1 9665   3.836   0.835   3.289
 2922SOL    HW2 9666   3.789   0.836   3.445
 2923SOL     OW 9667   6.165   4.911   4.445
 2923SOL    HW1 9668   6.123   4.955   4.524
 2923SOL    HW2 9669   6.104   4.839   4.411
 2924SOL     OW 9670   6.518   2.896   5.405
 2924SOL    HW1 9671   6.500   2.834   5.329
 2924SOL    HW2 9672   6.472   2.863   5.487
 2925SOL     OW 9673   5.244   7.025   5.937
 2925SOL    HW1 9674   5.163   7.000   5.884
 2925SOL    HW2 9675   5.263   0.097   5.924
 2926SOL     OW 9676   0.120   1.576   4.953
 2926SOL    HW1 9677   0.110   1.673   4.934
 2926SOL    HW2 9678   0.099   1.557   5.049
 2927SOL     OW 9679   1.308   2.820   1.383
 2927SOL    HW1 9680   1.345   2.859   1.467
 2927SOL    HW2 9681   1.226   2.871   1.357
 2928SOL     OW 9682   6.762   2.364   0.393
 2928SOL    HW1 9683   6.848   2.313   0.400
 2928SOL    HW2 9684   6.781   2.462   0.399
 2929SOL     OW 9685   1.631   2.558   4.604
 2929SOL    HW1 9686   1.701   2.628   4.619
 2929SOL    HW2 9687   1.540   2.600   4.611
 2930SOL     OW 9688   0.627   5.452   5.378
 2930SOL    HW1 9689   0.677   5.402   5.450
 2930SOL    HW2 9690   0.533   5.468   5.408
 2931SOL     OW 9691   4.609   4.266   6.001
 2931SOL    HW1 9692   4.699   4.275   5.958
 2931SOL    HW2 9693   4.605   4.179   6.051
 2932SOL     OW 9694   6.541   5.522   0.375
 2932SOL    HW1 9695   6.494   5.578   0.444
 2932SOL    HW2 9696   6.562   5.432   0.414
 2933SOL     OW 9697   1.373   0.114   0.649
 2933SOL    HW1 9698   1.365   0.190   0.713
 2933SOL    HW2 9699   1.463   0.071   0.659
 2934SOL     OW 9700   3.959   4.393   0.181
 2934SOL    HW1 9701   3.953   4.301   0.141
 2934SOL    HW2 9702   4.044   4.401   0.234
 2935SOL     OW 9703   6.830   2.555   6.485
 2935SOL    HW1 9704   6.873   2.557   6.395
 2935SOL    HW2 9705   6.854   2.471   6.532
 2936SOL     OW 9706   4.515   6.951   1.351
 2936SOL    HW1 9707   4.561   7.018   1.292
 2936SOL    HW2 9708   4.416   6.957   1.337
 2937SOL     OW 9709   4.264   5.647   2.382
 2937SOL    HW1 9710   4.171   5.631   2.350
 2937SOL    HW2 9711   4.318   5.563   2.371
 2938SOL     OW 9712   6.591   5.803   6.688
 2938SOL    HW1 9713   6.578   5.881   6.750
 2938SOL    HW2 9714   6.555   5.720   6.730
 2939SOL     OW 9715   0.248   5.937   1.555
 2939SOL    HW1 9716   0.230   5.849   1.510
 2939SOL    HW2 9717   0.163   5.974   1.591
 2940SOL     OW 9718   4.762   5.660   4.105
 2940SOL    HW1 9719   4.853   5.643   4.141
 2940SOL    HW2 9720   4.766   5.733   4.037
 2941SOL     OW 9721   2.139   3.723   3.842
 2941SOL    HW1 9722   2.124   3.780   3.922
 2941SOL    HW2 9723   2.158   3.629   3.871
 2942SOL     OW 9724   3.623   1.555   0.826
 2942SOL    HW1 9725   3.616   1.634   0.887
 2942SOL    HW2 9726   3.714   1.554   0.784
 2943SOL     OW 9727   5.818   4.310   3.308
 2943SOL    HW1 9728   5.885   4.378   3.338
 2943SOL    HW2 9729   5.847   4.271   3.221
 2944SOL     OW 9730   2.155   5.786   3.691
 2944SOL    HW1 9731   2.130   5.876   3.656
 2944SOL    HW2 9732   2.077   5.724   3.683
 2945SOL     OW 9733   5.033   4.456   1.285
 2945SOL    HW1 9734   5.040   4.506   1.199
 2945SOL    HW2 9735   5.070   4.363   1.273
 2946SOL     OW 9736   3.045   4.229   6.141
 2946SOL    HW1 9737   2.990   4.146   6.139
 2946SOL    HW2 9738   3.141   4.206   6.124
 2947SOL     OW 9739   5.795   6.456   0.626
 2947SOL    HW1 9740   5.870   6.406   0.584
 2947SOL    HW2 9741   5.797   6.443   0.725
 2948SOL     OW 9742   5.922   3.788   2.462
 2948SOL    HW1 9743   5.915   3.689   2.473
 2948SOL    HW2 9744   5.832   3.826   2.441
 2949SOL     OW 9745   1.150   6.976   0.640
 2949SOL    HW1 9746   1.223   0.008   0.675
 2949SOL    HW2 9747   1.160   6.966   0.541
 2950SOL     OW 9748   5.232   4.345   2.617
 2950SOL    HW1 9749   5.291   4.267   2.639
 2950SOL    HW2 9750   5.155   4.313   2.561
 2951SOL     OW 9751   5.864   1.571   1.673
 2951SOL    HW1 9752   5.952   1.605   1.639
 2951SOL    HW2 9753   5.854   1.596   1.769
 2952SOL     OW 9754   5.844   1.401   4.300
 2952SOL    HW1 9755   5.779   1.432   4.231
 2952SOL    HW2 9756   5.917   1.469   4.309
 2953SOL     OW 9757   0.897   5.501   3.319
 2953SOL    HW1 9758   0.914   5.485   3.417
 2953SOL    HW2 9759   0.954   5.439   3.265
 2954SOL     OW 9760   0.038   4.677   6.206
 2954SOL    HW1 9761   0.030   4.614   6.129
 2954SOL    HW2 9762   0.048   4.625   6.291
 2955SOL     OW 9763   2.230   4.127   0.301
 2955SOL    HW1 9764   2.199   4.069   0.376
 2955SOL    HW2 9765   2.276   4.072   0.232
 2956SOL     OW 9766   6.359   4.392   3.438
 2956SOL    HW1 9767   6.352   4.294   3.418
 2956SOL    HW2 9768   6.397   4.405   3.529
 2957SOL     OW 9769   2.660   5.547   2.217
 2957SOL    HW1 9770   2.695   5.639   2.233
 2957SOL    HW2 9771   2.736   5.482   2.215
 2958SOL     OW 9772   2.376   5.032   3.299
 2958SOL    HW1 9773   2.313   5.078   3.235
 2958SOL    HW2 9774   2.451   4.991   3.248
 2959SOL     OW 9775   6.613   2.485   2.926
 2959SOL    HW1 9776   6.625   2.457   3.021
 2959SOL    HW2 9777   6.570   2.575   2.924
 2960SOL     OW 9778   4.752   0.892   0.484
 2960SOL    HW1 9779   4.676   0.946   0.448
 2960SOL    HW2 9780   4.837   0.943   0.473
 2961SOL     OW 9781   5.669   3.910   2.482
 2961SOL    HW1 9782   5.639   3.983   2.420
 2961SOL    HW2 9783   5.589   3.856   2.509
 2962SOL     OW 9784   6.996   6.697   2.338
 2962SOL    HW1 9785   0.010   6.783   2.306
 2962SOL    HW2 9786   6.903   6.688   2.302
 2963SOL     OW 9787   1.847   1.077   4.911
 2963SOL    HW1 9788   1.920   1.100   4.975
 2963SOL    HW2 9789   1.876   1.101   4.818
 2964SOL     OW 9790   1.002   2.693   0.050
 2964SOL    HW1 9791   1.045   2.605   0.071
 2964SOL    HW2 9792   0.923   2.707   0.111
 2965SOL     OW 9793   0.617   0.242   4.601
 2965SOL    HW1 9794   0.636   0.217   4.697
 2965SOL    HW2 9795   0.703   0.269   4.557
 2966SOL     OW 9796   4.357   5.723   3.511
 2966SOL    HW1 9797   4.271   5.748   3.466
 2966SOL    HW2 9798   4.395   5.804   3.556
 2967SOL     OW 9799   6.490   0.467   5.404
 2967SOL    HW1 9800   6.568   0.503   5.456
 2967SOL    HW2 9801   6.499   0.494   5.308
 2968SOL     OW 9802   1.664   2.220   0.682
 2968SOL    HW1 9803   1.702   2.304   0.644
 2968SOL    HW2 9804   1.614   2.171   0.611
 2969SOL     OW 9805   5.420   3.212   4.557
 2969SOL    HW1 9806   5.323   3.237   4.557
 2969SOL    HW2 9807   5.429   3.113   4.561
 2970SOL     OW 9808   2.534   2.602   4.585
 2970SOL    HW1 9809   2.435   2.592   4.578
 2970SOL    HW2 9810   2.578   2.543   4.518
 2971SOL     OW 9811   5.259   3.449   6.633
 2971SOL    HW1 9812   5.331   3.380   6.630
 2971SOL    HW2 9813   5.187   3.420   6.696
 2972SOL     OW 9814   5.377   5.014   6.766
 2972SOL    HW1 9815   5.424   4.929   6.789
 2972SOL    HW2 9816   5.431   5.064   6.699
 2973SOL     OW 9817   5.437   6.945   2.340
 2973SOL    HW1 9818   5.442   6.849   2.313
 2973SOL    HW2 9819   5.369   6.993   2.283
 2974SOL     OW 9820   4.813   5.380   3.543
 2974SOL    HW1 9821   4.870   5.302   3.518
 2974SOL    HW2 9822   4.768   5.416   3.461
 2975SOL     OW 9823   4.719   4.672   4.262
 2975SOL    HW1 9824   4.760   4.587   4.296
 2975SOL    HW2 9825   4.652   4.651   4.191
 2976SOL     OW 9826   4.302   2.407   1.816
 2976SOL    HW1 9827   4.264   2.435   1.727
 2976SOL    HW2 9828   4.236   2.349   1.863
 2977SOL     OW 9829   1.142   0.803   1.778
 2977SOL    HW1 9830   1.138   0.704   1.763
 2977SOL    HW2 9831   1.056   0.834   1.819
 2978SOL     OW 9832   4.508   4.575   6.654
 2978SOL    HW1 9833   4.575   4.629   6.705
 2978SOL    HW2 9834   4.432   4.634   6.626
 2979SOL     OW 9835   3.460   1.106   4.201
 2979SOL    HW1 9836   3.420   1.187   4.160
 2979SOL    HW2 9837   3.530   1.068   4.141
 2980SOL     OW 9838   3.793   4.120   5.687
 2980SOL    HW1 9839   3.822   4.045   5.628
 2980SOL    HW2 9840   3.873   4.168   5.722
 2981SOL     OW 9841   1.483   1.105   0.728
 2981SOL    HW1 9842   1.412   1.092   0.658
 2981SOL    HW2 9843   1.542   1.181   0.701
 2982SOL     OW 9844   0.794   0.688   1.610
 2982SOL    HW1 9845   0.877   0.634   1.621
 2982SOL    HW2 9846   0.731   0.669   1.685
 2983SOL     OW 9847   6.019   2.982   6.694
 2983SOL    HW1 9848   6.089   3.049   6.668
 2983SOL    HW2 9849   6.030   2.900   6.639
 2984SOL     OW 9850   0.014   4.783   0.549
 2984SOL    HW1 9851   0.030   4.873   0.590
 2984SOL    HW2 9852   0.074   4.715   0.591
 2985SOL     OW 9853   0.573   0.566   4.584
 2985SOL    HW1 9854   0.596   0.473   4.613
 2985SOL    HW2 9855   0.511   0.562   4.506
 2986SOL     OW 9856   3.704   4.121   2.750
 2986SOL    HW1 9857   3.704   4.186   2.826
 2986SOL    HW2 9858   3.610   4.109   2.716
 2987SOL     OW 9859   1.415   1.203   4.452
 2987SOL    HW1 9860   1.399   1.225   4.548
 2987SOL    HW2 9861   1.334   1.226   4.399
 2988SOL     OW 9862   0.584   1.647   0.177
 2988SOL    HW1 9863   0.647   1.578   0.142
 2988SOL    HW2 9864   0.582   1.725   0.116
 2989SOL     OW 9865   4.931   3.604   4.487
 2989SOL    HW1 9866   4.906   3.595   4.583
 2989SOL    HW2 9867   4.889   3.686   4.449
 2990SOL     OW 9868   5.142   2.158   4.372
 2990SOL    HW1 9869   5.217   2.114   4.323
 2990SOL    HW2 9870   5.157   2.148   4.471
 2991SOL     OW 9871   5.622   3.181   0.822
 2991SOL    HW1 9872   5.599   3.271   0.784
 2991SOL    HW2 9873   5.590   3.110   0.759
 2992SOL     OW 9874   0.387   3.310   5.615
 2992SOL    HW1 9875   0.405   3.226   5.666
 2992SOL    HW2 9876   0.440   3.385   5.656
 2993SOL     OW 9877   1.351   4.586   0.301
 2993SOL    HW1 9878   1.306   4.670   0.331
 2993SOL    HW2 9879   1.296   4.541   0.231
 2994SOL     OW 9880   4.885   0.119   0.040
 2994SOL    HW1 9881   4.872   0.218   0.038
 2994SOL    HW2 9882   4.973   0.095   7.024
 2995SOL     OW 9883   4.940   6.966   0.842
 2995SOL    HW1 9884   4.880   0.016   0.813
 2995SOL    HW2 9885   5.032   7.001   0.856
 2996SOL     OW 9886   0.537   1.581   4.809
 2996SOL    HW1 9887   0.472   1.505   4.812
 2996SOL    HW2 9888   0.492   1.662   4.772
 2997SOL     OW 9889   5.114   0.686   3.944
 2997SOL    HW1 9890   5.043   0.746   3.983
 2997SOL    HW2 9891   5.071   0.607   3.901
 2998SOL     OW 9892   2.567   1.566   2.700
 2998SOL    HW1 9893   2.524   1.561   2.610
 2998SOL    HW2 9894   2.506   1.615   2.763
 2999SOL     OW 9895   3.090   4.458   0.386
 2999SOL    HW1 9896   3.105   4.389   0.316
 2999SOL    HW2 9897   3.131   4.545   0.357
 3000SOL     OW 9898   3.171   3.759   5.214
 3000SOL    HW1 9899   3.077   3.764   5.247
 3000SOL    HW2 9900   3.177   3.693   5.139
 3001SOL     OW 9901   6.394   1.219   5.919
 3001SOL    HW1 9902   6.390   1.243   5.823
 3001SOL    HW2 9903   6.301   1.204   5.954
 3002SOL     OW 9904   2.254   1.213   1.537
 3002SOL    HW1 9905   2.316   1.291   1.551
 3002SOL    HW2 9906   2.233   1.204   1.440
 3003SOL     OW 9907   1.519   6.121   0.291
 3003SOL    HW1 9908   1.506   6.022   0.285
 3003SOL    HW2 9909   1.431   6.167   0.279
 3004SOL     OW 9910   2.831   5.653   4.064
 3004SOL    HW1 9911   2.831   5.583   3.992
 3004SOL    HW2 9912   2.771   5.728   4.038
 3005SOL     OW 9913   0.856   2.320   5.263
 3005SOL    HW1 9914   0.810   2.368   5.187
 3005SOL    HW2 9915   0.908   2.386   5.317
 3006SOL     OW 9916   5.697   1.422   5.105
 3006SOL    HW1 9917   5.793   1.425   5.080
 3006SOL    HW2 9918   5.658   1.514   5.099
 3007SOL     OW 9919   5.030   4.209   6.788
 3007SOL    HW1 9920   4.976   4.145   6.842
 3007SOL    HW2 9921   4.971   4.284   6.756
 3008SOL     OW 9922   4.801   2.393   5.442
 3008SOL    HW1 9923   4.859   2.469   5.470
 3008SOL    HW2 9924   4.845   2.306   5.466
 3009SOL     OW 9925   0.798   3.061   2.580
 3009SOL    HW1 9926   0.762   3.118   2.654
 3009SOL    HW2 9927   0.722   3.026   2.525
 3010SOL     OW 9928   4.087   6.048   6.208
 3010SOL    HW1 9929   4.139   6.034   6.124
 3010SOL    HW2 9930   4.100   5.969   6.269
 3011SOL     OW 9931   6.211   0.180   0.871
 3011SOL    HW1 9932   6.157   0.099   0.849
 3011SOL    HW2 9933   6.258   0.166   0.958
 3012SOL     OW 9934   2.771   2.988   6.024
 3012SOL    HW1 9935   2.804   2.905   5.980
 3012SOL    HW2 9936   2.805   3.068   5.974
 3013SOL     OW 9937   0.620   6.130   4.564
 3013SOL    HW1 9938   0.574   6.194   4.625
 3013SOL    HW2 9939   0.713   6.162   4.546
 3014SOL     OW 9940   4.865   0.434   5.656
 3014SOL    HW1 9941   4.920   0.361   5.697
 3014SOL    HW2 9942   4.904   0.459   5.567
 3015SOL     OW 9943   1.388   1.453   0.036
 3015SOL    HW1 9944   1.381   1.356   0.058
 3015SOL    HW2 9945   1.365   1.508   0.116
 3016SOL     OW 9946   2.662   6.262   4.990
 3016SOL    HW1 9947   2.580   6.211   5.015
 3016SOL    HW2 9948   2.691   6.235   4.898
 3017SOL     OW 9949   6.800   5.835   1.598
 3017SOL    HW1 9950   6.784   5.795   1.507
 3017SOL    HW2 9951   6.724   5.812   1.658
 3018SOL     OW 9952   3.761   0.072   0.085
 3018SOL    HW1 9953   3.807   7.022   0.041
 3018SOL    HW2 9954   3.712   0.039   0.166
 3019SOL     OW 9955   1.533   0.436   5.276
 3019SOL    HW1 9956   1.566   0.396   5.191
 3019SOL    HW2 9957   1.440   0.403   5.295
 3020SOL     OW 9958   4.927   3.702   0.077
 3020SOL    HW1 9959   4.828   3.689   0.066
 3020SOL    HW2 9960   4.956   3.669   0.166
 3021SOL     OW 9961   3.861   6.537   4.915
 3021SOL    HW1 9962   3.793   6.576   4.853
 3021SOL    HW2 9963   3.880   6.443   4.889
 3022SOL     OW 9964   4.513   5.558   3.874
 3022SOL    HW1 9965   4.486   5.654   3.881
 3022SOL    HW2 9966   4.604   5.552   3.833
 3023SOL     OW 9967   4.051   6.678   3.161
 3023SOL    HW1 9968   4.126   6.681   3.227
 3023SOL    HW2 9969   3.964   6.688   3.210
 3024SOL     OW 9970   0.255   6.370   6.561
 3024SOL    HW1 9971   0.294   6.383   6.653
 3024SOL    HW2 9972   0.284   6.282   6.524
 3025SOL     OW 9973   3.467   6.288   0.401
 3025SOL    HW1 9974   3.442   6.378   0.366
 3025SOL    HW2 9975   3.412   6.267   0.482
 3026SOL     OW 9976   6.151   1.299   0.341
 3026SOL    HW1 9977   6.194   1.365   0.402
 3026SOL    HW2 9978   6.169   1.324   0.246
 3027SOL     OW 9979   4.990   1.681   1.400
 3027SOL    HW1 9980   5.056   1.755   1.411
 3027SOL    HW2 9981   4.904   1.705   1.445
 3028SOL     OW 9982   2.649   4.563   5.826
 3028SOL    HW1 9983   2.685   4.485   5.878
 3028SOL    HW2 9984   2.551   4.551   5.812
 3029SOL     OW 9985   0.915   2.270   4.148
 3029SOL    HW1 9986   0.815   2.268   4.156
 3029SOL    HW2 9987   0.956   2.211   4.217
 3030SOL     OW 9988   1.979   3.262   0.670
 3030SOL    HW1 9989   1.904   3.303   0.618
 3030SOL    HW2 9990   2.066   3.301   0.642
 3031SOL     OW 9991   1.070   6.192   1.420
 3031SOL    HW1 9992   1.120   6.169   1.503
 3031SOL    HW2 9993   0.996   6.125   1.406
 3032SOL     OW 9994   1.801   0.242   2.733
 3032SOL    HW1 9995   1.790   0.235   2.832
 3032SOL    HW2 9996   1.738   0.311   2.697
 3033SOL     OW 9997   6.660   2.035   4.084
 3033SOL    HW1 9998   6.640   2.132   4.100
 3033SOL    HW2 9999   6.583   1.994   4.035
 3034SOL     OW10000   0.177   5.535   3.737
 3034SOL    HW110001   0.221   5.619   3.768
 3034SOL    HW210002   0.247   5.469   3.709
 3035SOL     OW10003   0.961   2.689   6.205
 3035SOL    HW110004   0.864   2.672   6.219
 3035SOL    HW210005   1.012   2.604   6.218
 3036SOL     OW10006   3.127   2.280   6.431
 3036SOL    HW110007   3.110   2.347   6.359
 3036SOL    HW210008   3.205   2.223   6.405
 3037SOL     OW10009   0.250   5.480   6.716
 3037SOL    HW110010   0.211   5.538   6.645
 3037SOL    HW210011   0.211   5.388   6.708
 3038SOL     OW10012   5.208   4.173   6.533
 3038SOL    HW110013   5.138   4.192   6.603
 3038SOL    HW210014   5.284   4.236   6.544
 3039SOL     OW10015   6.515   3.972   0.123
 3039SOL    HW110016   6.466   3.913   0.188
 3039SOL    HW210017   6.541   4.057   0.169
 3040SOL     OW10018   4.201   4.170   6.010
 3040SOL    HW110019   4.162   4.239   6.071
 3040SOL    HW210020   4.232   4.092   6.064
 3041SOL     OW10021   2.325   4.329   4.951
 3041SOL    HW110022   2.390   4.254   4.967
 3041SOL    HW210023   2.243   4.313   5.007
 3042SOL     OW10024   0.128   5.218   3.137
 3042SOL    HW110025   0.066   5.179   3.069
 3042SOL    HW210026   0.219   5.177   3.127
 3043SOL     OW10027   3.248   4.865   1.035
 3043SOL    HW110028   3.183   4.853   0.960
 3043SOL    HW210029   3.230   4.952   1.080
 3044SOL     OW10030   3.271   3.164   5.314
 3044SOL    HW110031   3.194   3.225   5.296
 3044SOL    HW210032   3.290   3.110   5.231
 3045SOL     OW10033   4.700   1.359   1.966
 3045SOL    HW110034   4.643   1.286   2.003
 3045SOL    HW210035   4.660   1.447   1.989
 3046SOL     OW10036   5.411   5.487   0.877
 3046SOL    HW110037   5.492   5.472   0.933
 3046SOL    HW210038   5.429   5.558   0.809
 3047SOL     OW10039   6.403   0.430   6.108
 3047SOL    HW110040   6.380   0.385   6.194
 3047SOL    HW210041   6.408   0.529   6.123
 3048SOL     OW10042   3.712   3.427   0.999
 3048SOL    HW110043   3.673   3.501   1.055
 3048SOL    HW210044   3.637   3.375   0.957
 3049SOL     OW10045   1.103   0.778   4.361
 3049SOL    HW110046   1.030   0.842   4.388
 3049SOL    HW210047   1.167   0.825   4.301
 3050SOL     OW10048   2.869   2.593   1.286
 3050SOL    HW110049   2.938   2.648   1.333
 3050SOL    HW210050   2.786   2.588   1.342
 3051SOL     OW10051   2.321   6.481   5.015
 3051SOL    HW110052   2.407   6.531   5.028
 3051SOL    HW210053   2.258   6.503   5.090
 3052SOL     OW10054   6.410   6.043   2.366
 3052SOL    HW110055   6.396   6.106   2.442
 3052SOL    HW210056   6.457   6.089   2.291
 3053SOL     OW10057   1.502   4.543   0.579
 3053SOL    HW110058   1.501   4.561   0.481
 3053SOL    HW210059   1.441   4.608   0.625
 3054SOL     OW10060   5.333   1.687   2.558
 3054SOL    HW110061   5.334   1.591   2.531
 3054SOL    HW210062   5.242   1.713   2.589
 3055SOL     OW10063   6.138   5.630   6.337
 3055SOL    HW110064   6.158   5.646   6.434
 3055SOL    HW210065   6.208   5.673   6.281
 3056SOL     OW10066   4.883   1.421   6.326
 3056SOL    HW110067   4.796   1.468   6.313
 3056SOL    HW210068   4.871   1.347   6.392
 3057SOL     OW10069   6.288   5.576   3.191
 3057SOL    HW110070   6.291   5.652   3.256
 3057SOL    HW210071   6.374   5.526   3.193
 3058SOL     OW10072   6.748   4.563   6.869
 3058SOL    HW110073   6.837   4.605   6.889
 3058SOL    HW210074   6.752   4.465   6.890
 3059SOL     OW10075   2.259   2.586   4.583
 3059SOL    HW110076   2.250   2.544   4.673
 3059SOL    HW210077   2.192   2.546   4.521
 3060SOL     OW10078   4.715   5.321   5.532
 3060SOL    HW110079   4.678   5.405   5.492
 3060SOL    HW210080   4.699   5.244   5.470
 3061SOL     OW10081   5.652   5.107   4.976
 3061SOL    HW110082   5.728   5.087   5.039
 3061SOL    HW210083   5.640   5.030   4.913
 3062SOL     OW10084   5.200   4.004   1.675
 3062SOL    HW110085   5.230   3.909   1.673
 3062SOL    HW210086   5.155   4.023   1.762
 3063SOL     OW10087   0.362   4.312   1.460
 3063SOL    HW110088   0.328   4.350   1.374
 3063SOL    HW210089   0.312   4.229   1.483
 3064SOL     OW10090   4.255   1.755   6.871
 3064SOL    HW110091   4.272   1.846   6.834
 3064SOL    HW210092   4.198   1.703   6.807
 3065SOL     OW10093   0.636   1.070   6.601
 3065SOL    HW110094   0.654   1.090   6.505
 3065SOL    HW210095   0.628   0.971   6.614
 3066SOL     OW10096   5.540   5.957   6.094
 3066SOL    HW110097   5.557   6.053   6.115
 3066SOL    HW210098   5.623   5.916   6.058
 3067SOL     OW10099   2.158   2.470   6.360
 3067SOL    HW110100   2.204   2.556   6.378
 3067SOL    HW210101   2.168   2.409   6.438
 3068SOL     OW10102   0.760   1.056   1.026
 3068SOL    HW110103   0.684   1.096   1.076
 3068SOL    HW210104   0.734   0.966   0.991
 3069SOL     OW10105   4.911   0.197   2.818
 3069SOL    HW110106   4.947   0.109   2.849
 3069SOL    HW210107   4.852   0.182   2.738
 3070SOL     OW10108   2.853   1.414   1.215
 3070SOL    HW110109   2.773   1.472   1.213
 3070SOL    HW210110   2.894   1.409   1.123
 3071SOL     OW10111   6.956   3.053   3.531
 3071SOL    HW110112   6.866   3.017   3.558
 3071SOL    HW210113   6.991   3.000   3.454
 3072SOL     OW10114   1.819   6.847   6.640
 3072SOL    HW110115   1.894   6.875   6.581
 3072SOL    HW210116   1.854   6.785   6.711
 3073SOL     OW10117   6.224   4.891   0.318
 3073SOL    HW110118   6.208   4.814   0.379
 3073SOL    HW210119   6.171   4.879   0.234
 3074SOL     OW10120   2.185   3.489   0.917
 3074SOL    HW110121   2.148   3.456   0.830
 3074SOL    HW210122   2.215   3.411   0.972
 3075SOL     OW10123   2.079   5.390   3.162
 3075SOL    HW110124   1.981   5.405   3.175
 3075SOL    HW210125   2.098   5.292   3.160
 3076SOL     OW10126   6.967   0.467   4.619
 3076SOL    HW110127   6.898   0.442   4.688
 3076SOL    HW210128   0.032   0.450   4.655
 3077SOL     OW10129   6.423   4.033   1.902
 3077SOL    HW110130   6.498   4.009   1.841
 3077SOL    HW210131   6.359   3.956   1.909
 3078SOL     OW10132   6.465   3.132   1.729
 3078SOL    HW110133   6.469   3.101   1.634
 3078SOL    HW210134   6.406   3.213   1.736
 3079SOL     OW10135   2.503   3.301   5.354
 3079SOL    HW110136   2.569   3.368   5.322
 3079SOL    HW210137   2.510   3.218   5.298
 3080SOL     OW10138   4.156   5.323   1.032
 3080SOL    HW110139   4.069   5.349   0.991
 3080SOL    HW210140   4.155   5.342   1.130
 3081SOL     OW10141   2.227   4.327   0.737
 3081SOL    HW110142   2.262   4.262   0.670
 3081SOL    HW210143   2.241   4.420   0.704
 3082SOL     OW10144   4.030   4.835   4.590
 3082SOL    HW110145   4.127   4.834   4.565
 3082SOL    HW210146   4.021   4.862   4.686
 3083SOL     OW10147   2.325   5.673   2.625
 3083SOL    HW110148   2.245   5.730   2.604
 3083SOL    HW210149   2.334   5.663   2.724
 3084SOL     OW10150   0.543   3.333   3.872
 3084SOL    HW110151   0.631   3.292   3.896
 3084SOL    HW210152   0.549   3.373   3.781
 3085SOL     OW10153   4.497   4.782   0.804
 3085SOL    HW110154   4.554   4.826   0.736
 3085SOL    HW210155   4.522   4.814   0.895
 3086SOL     OW10156   6.302   1.153   6.512
 3086SOL    HW110157   6.223   1.104   6.549
 3086SOL    HW210158   6.384   1.096   6.521
 3087SOL     OW10159   2.859   6.751   2.307
 3087SOL    HW110160   2.779   6.694   2.288
 3087SOL    HW210161   2.833   6.848   2.301
 3088SOL     OW10162   1.102   2.731   5.296
 3088SOL    HW110163   1.129   2.718   5.391
 3088SOL    HW210164   1.167   2.792   5.251
 3089SOL     OW10165   4.943   6.934   5.328
 3089SOL    HW110166   4.932   6.915   5.230
 3089SOL    HW210167   4.907   6.856   5.381
 3090SOL     OW10168   1.373   2.502   1.568
 3090SOL    HW110169   1.361   2.403   1.565
 3090SOL    HW210170   1.438   2.526   1.640
 3091SOL     OW10171   1.007   2.154   0.320
 3091SOL    HW110172   0.908   2.169   0.326
 3091SOL    HW210173   1.028   2.062   0.353
 3092SOL     OW10174   6.996   6.832   2.591
 3092SOL    HW110175   6.982   6.781   2.506
 3092SOL    HW210176   0.031   6.781   2.651
 3093SOL     OW10177   5.137   4.911   6.813
 3093SOL    HW110178   5.221   4.963   6.830
 3093SOL    HW210179   5.089   4.897   6.900
 3094SOL     OW10180   2.755   1.703   6.155
 3094SOL    HW110181   2.828   1.664   6.100
 3094SOL    HW210182   2.717   1.783   6.108
 3095SOL     OW10183   2.018   3.341   5.476
 3095SOL    HW110184   2.114   3.315   5.463
 3095SOL    HW210185   1.975   3.354   5.387
 3096SOL     OW10186   0.737   3.942   4.846
 3096SOL    HW110187   0.698   3.861   4.802
 3096SOL    HW210188   0.719   4.022   4.788
 3097SOL     OW10189   5.521   2.347   6.604
 3097SOL    HW110190   5.521   2.324   6.701
 3097SOL    HW210191   5.613   2.334   6.567
 3098SOL     OW10192   2.006   2.285   2.012
 3098SOL    HW110193   2.029   2.199   2.058
 3098SOL    HW210194   1.965   2.264   1.923
 3099SOL     OW10195   0.229   6.197   3.730
 3099SOL    HW110196   0.258   6.196   3.635
 3099SOL    HW210197   0.154   6.262   3.741
 3100SOL     OW10198   6.756   5.503   2.163
 3100SOL    HW110199   6.748   5.533   2.258
 3100SOL    HW210200   6.791   5.410   2.160
 3101SOL     OW10201   4.078   5.946   5.732
 3101SOL    HW110202   4.061   5.894   5.648
 3101SOL    HW210203   4.014   6.023   5.736
 3102SOL     OW10204   0.392   4.796   0.722
 3102SOL    HW110205   0.309   4.809   0.776
 3102SOL    HW210206   0.375   4.824   0.628
 3103SOL     OW10207   3.540   0.404   1.279
 3103SOL    HW110208   3.559   0.490   1.327
 3103SOL    HW210209   3.463   0.417   1.217
 3104SOL     OW10210   4.610   0.511   6.105
 3104SOL    HW110211   4.676   0.575   6.065
 3104SOL    HW210212   4.655   0.457   6.177
 3105SOL     OW10213   5.187   3.429   0.326
 3105SOL    HW110214   5.218   3.513   0.281
 3105SOL    HW210215   5.088   3.432   0.340
 3106SOL     OW10216   5.771   0.567   4.693
 3106SOL    HW110217   5.682   0.600   4.663
 3106SOL    HW210218   5.776   0.467   4.681
 3107SOL     OW10219   3.904   1.105   5.979
 3107SOL    HW110220   3.971   1.067   5.916
 3107SOL    HW210221   3.938   1.191   6.016
 3108SOL     OW10222   1.930   4.387   4.282
 3108SOL    HW110223   1.933   4.486   4.265
 3108SOL    HW210224   1.918   4.370   4.379
 3109SOL     OW10225   6.884   6.482   3.845
 3109SOL    HW110226   6.795   6.442   3.822
 3109SOL    HW210227   6.953   6.450   3.781
 3110SOL     OW10228   2.111   4.550   3.707
 3110SOL    HW110229   2.099   4.615   3.632
 3110SOL    HW210230   2.154   4.596   3.784
 3111SOL     OW10231   6.473   4.667   4.851
 3111SOL    HW110232   6.558   4.710   4.881
 3111SOL    HW210233   6.462   4.579   4.897
 3112SOL     OW10234   3.253   1.961   6.942
 3112SOL    HW110235   3.158   1.929   6.942
 3112SOL    HW210236   3.307   1.907   7.006
 3113SOL     OW10237   1.794   4.977   3.206
 3113SOL    HW110238   1.886   4.939   3.196
 3113SOL    HW210239   1.791   5.068   3.164
 3114SOL     OW10240   4.427   0.993   6.922
 3114SOL    HW110241   4.343   1.011   6.872
 3114SOL    HW210242   4.471   0.911   6.885
 3115SOL     OW10243   4.181   4.964   5.505
 3115SOL    HW110244   4.119   4.895   5.544
 3115SOL    HW210245   4.127   5.041   5.472
 3116SOL     OW10246   0.248   2.275   0.824
 3116SOL    HW110247   0.255   2.177   0.806
 3116SOL    HW210248   0.220   2.323   0.740
 3117SOL     OW10249   5.302   1.636   5.181
 3117SOL    HW110250   5.312   1.536   5.186
 3117SOL    HW210251   5.251   1.669   5.260
 3118SOL     OW10252   2.072   1.294   2.817
 3118SOL    HW110253   2.156   1.281   2.869
 3118SOL    HW210254   2.088   1.275   2.721
 3119SOL     OW10255   3.932   3.754   5.837
 3119SOL    HW110256   3.976   3.816   5.773
 3119SOL    HW210257   3.911   3.667   5.791
 3120SOL     OW10258   2.195   6.688   4.864
 3120SOL    HW110259   2.265   6.633   4.909
 3120SOL    HW210260   2.235   6.733   4.784
 3121SOL     OW10261   5.060   1.065   4.150
 3121SOL    HW110262   5.077   1.146   4.206
 3121SOL    HW210263   5.140   1.005   4.153
 3122SOL     OW10264   4.498   4.994   4.598
 3122SOL    HW110265   4.584   5.008   4.649
 3122SOL    HW210266   4.443   5.077   4.602
 3123SOL     OW10267   2.472   2.133   3.405
 3123SOL    HW110268   2.432   2.143   3.496
 3123SOL    HW210269   2.569   2.112   3.414
 3124SOL     OW10270   4.633   6.937   4.200
 3124SOL    HW110271   4.541   6.958   4.231
 3124SOL    HW210272   4.692   6.918   4.279
 3125SOL     OW10273   1.731   2.288   5.090
 3125SOL    HW110274   1.777   2.354   5.031
 3125SOL    HW210275   1.634   2.284   5.067
 3126SOL     OW10276   5.669   5.130   4.163
 3126SOL    HW110277   5.585   5.127   4.217
 3126SOL    HW210278   5.691   5.038   4.130
 3127SOL     OW10279   6.994   1.460   4.362
 3127SOL    HW110280   6.960   1.471   4.455
 3127SOL    HW210281   6.995   1.549   4.316
 3128SOL     OW10282   4.550   0.594   0.323
 3128SOL    HW110283   4.579   0.617   0.416
 3128SOL    HW210284   4.452   0.578   0.322
 3129SOL     OW10285   4.664   3.629   1.009
 3129SOL    HW110286   4.759   3.601   0.999
 3129SOL    HW210287   4.654   3.680   1.094
 3130SOL     OW10288   0.994   4.535   1.453
 3130SOL    HW110289   0.921   4.556   1.519
 3130SOL    HW210290   1.016   4.617   1.400
 3131SOL     OW10291   6.733   3.958   2.228
 3131SOL    HW110292   6.780   4.045   2.246
 3131SOL    HW210293   6.708   3.915   2.314
 3132SOL     OW10294   4.155   4.662   0.122
 3132SOL    HW110295   4.086   4.590   0.110
 3132SOL    HW210296   4.239   4.636   0.076
 3133SOL     OW10297   4.194   0.870   3.704
 3133SOL    HW110298   4.283   0.825   3.697
 3133SOL    HW210299   4.174   0.890   3.800
 3134SOL     OW10300   3.835   5.329   2.361
 3134SOL    HW110301   3.880   5.240   2.357
 3134SOL    HW210302   3.736   5.316   2.353
 3135SOL     OW10303   5.571   6.724   5.981
 3135SOL    HW110304   5.566   6.822   5.965
 3135SOL    HW210305   5.595   6.678   5.895
 3136SOL     OW10306   5.953   1.137   2.541
 3136SOL    HW110307   5.934   1.101   2.450
 3136SOL    HW210308   5.882   1.105   2.605
 3137SOL     OW10309   6.353   6.898   6.936
 3137SOL    HW110310   6.296   6.821   6.965
 3137SOL    HW210311   6.402   6.873   6.853
 3138SOL     OW10312   5.697   4.860   4.103
 3138SOL    HW110313   5.788   4.818   4.112
 3138SOL    HW210314   5.628   4.798   4.140
 3139SOL     OW10315   2.482   5.161   1.088
 3139SOL    HW110316   2.568   5.159   1.038
 3139SOL    HW210317   2.417   5.222   1.042
 3140SOL     OW10318   6.690   6.622   5.663
 3140SOL    HW110319   6.734   6.545   5.616
 3140SOL    HW210320   6.679   6.599   5.760
 3141SOL     OW10321   6.649   2.485   6.902
 3141SOL    HW110322   6.719   2.527   6.959
 3141SOL    HW210323   6.601   2.415   6.954
 3142SOL     OW10324   5.672   0.838   2.346
 3142SOL    HW110325   5.592   0.849   2.404
 3142SOL    HW210326   5.652   0.773   2.273
 3143SOL     OW10327   6.331   1.467   0.151
 3143SOL    HW110328   6.341   1.439   0.056
 3143SOL    HW210329   6.411   1.437   0.203
 3144SOL     OW10330   4.231   3.975   6.196
 3144SOL    HW110331   4.311   3.976   6.255
 3144SOL    HW210332   4.196   3.881   6.188
 3145SOL     OW10333   1.040   5.680   1.273
 3145SOL    HW110334   0.941   5.690   1.280
 3145SOL    HW210335   1.077   5.754   1.217
 3146SOL     OW10336   0.502   0.750   5.046
 3146SOL    HW110337   0.553   0.734   4.962
 3146SOL    HW210338   0.561   0.732   5.125
 3147SOL     OW10339   4.089   4.839   6.584
 3147SOL    HW110340   4.014   4.800   6.638
 3147SOL    HW210341   4.106   4.933   6.615
 3148SOL     OW10342   0.760   5.575   3.085
 3148SOL    HW110343   0.846   5.586   3.135
 3148SOL    HW210344   0.779   5.571   2.987
 3149SOL     OW10345   2.934   1.429   0.956
 3149SOL    HW110346   2.936   1.340   0.911
 3149SOL    HW210347   3.028   1.461   0.971
 3150SOL     OW10348   0.105   6.256   5.151
 3150SOL    HW110349   0.092   6.211   5.062
 3150SOL    HW210350   0.095   6.188   5.224
 3151SOL     OW10351   5.831   1.673   6.301
 3151SOL    HW110352   5.918   1.676   6.350
 3151SOL    HW210353   5.832   1.741   6.228
 3152SOL     OW10354   1.413   3.237   6.323
 3152SOL    HW110355   1.442   3.253   6.417
 3152SOL    HW210356   1.370   3.147   6.315
 3153SOL     OW10357   6.354   5.181   0.828
 3153SOL    HW110358   6.308   5.099   0.794
 3153SOL    HW210359   6.406   5.158   0.911
 3154SOL     OW10360   5.390   1.308   1.427
 3154SOL    HW110361   5.309   1.365   1.442
 3154SOL    HW210362   5.453   1.319   1.503
 3155SOL     OW10363   0.475   4.514   0.686
 3155SOL    HW110364   0.399   4.458   0.720
 3155SOL    HW210365   0.465   4.607   0.722
 3156SOL     OW10366   3.588   4.104   1.949
 3156SOL    HW110367   3.634   4.020   1.976
 3156SOL    HW210368   3.613   4.177   2.013
 3157SOL     OW10369   0.620   1.794   5.355
 3157SOL    HW110370   0.656   1.752   5.271
 3157SOL    HW210371   0.686   1.861   5.389
 3158SOL     OW10372   2.968   1.513   5.403
 3158SOL    HW110373   2.944   1.541   5.310
 3158SOL    HW210374   2.922   1.427   5.424
 3159SOL     OW10375   5.564   0.012   0.522
 3159SOL    HW110376   5.521   0.026   0.612
 3159SOL    HW210377   5.578   6.941   0.506
 3160SOL     OW10378   2.378   7.015   6.071
 3160SOL    HW110379   2.300   6.951   6.070
 3160SOL    HW210380   2.463   6.962   6.070
 3161SOL     OW10381   2.021   2.566   3.340
 3161SOL    HW110382   1.932   2.520   3.346
 3161SOL    HW210383   2.030   2.607   3.249
 3162SOL     OW10384   1.987   5.476   0.635
 3162SOL    HW110385   2.004   5.400   0.572
 3162SOL    HW210386   2.004   5.446   0.729
 3163SOL     OW10387   4.105   3.899   0.354
 3163SOL    HW110388   4.142   3.972   0.410
 3163SOL    HW210389   4.159   3.892   0.269
 3164SOL     OW10390   2.902   5.928   3.466
 3164SOL    HW110391   2.890   5.998   3.536
 3164SOL    HW210392   2.956   5.853   3.503
 3165SOL     OW10393   1.044   5.854   0.578
 3165SOL    HW110394   1.075   5.932   0.524
 3165SOL    HW210395   1.071   5.769   0.532
 3166SOL     OW10396   3.827   1.043   5.294
 3166SOL    HW110397   3.845   1.037   5.392
 3166SOL    HW210398   3.731   1.019   5.276
 3167SOL     OW10399   4.632   4.181   1.044
 3167SOL    HW110400   4.682   4.264   1.065
 3167SOL    HW210401   4.543   4.204   1.003
 3168SOL     OW10402   4.161   1.967   0.709
 3168SOL    HW110403   4.212   1.909   0.644
 3168SOL    HW210404   4.082   2.006   0.662
 3169SOL     OW10405   1.342   4.836   2.242
 3169SOL    HW110406   1.340   4.877   2.151
 3169SOL    HW210407   1.420   4.874   2.293
 3170SOL     OW10408   3.348   5.171   3.231
 3170SOL    HW110409   3.386   5.191   3.141
 3170SOL    HW210410   3.411   5.112   3.282
 3171SOL     OW10411   5.731   2.496   3.044
 3171SOL    HW110412   5.778   2.447   3.118
 3171SOL    HW210413   5.754   2.593   3.050
 3172SOL     OW10414   0.323   4.875   0.474
 3172SOL    HW110415   0.363   4.897   0.384
 3172SOL    HW210416   0.289   4.959   0.516
 3173SOL     OW10417   3.259   1.180   0.013
 3173SOL    HW110418   3.223   1.239   0.085
 3173SOL    HW210419   3.337   1.224   6.995
 3174SOL     OW10420   2.923   3.671   6.134
 3174SOL    HW110421   3.021   3.672   6.153
 3174SOL    HW210422   2.876   3.618   6.204
 3175SOL     OW10423   0.053   0.603   3.688
 3175SOL    HW110424   0.049   0.701   3.669
 3175SOL    HW210425   0.118   0.586   3.761
 3176SOL     OW10426   0.861   4.320   4.957
 3176SOL    HW110427   0.878   4.225   4.983
 3176SOL    HW210428   0.936   4.353   4.900
 3177SOL     OW10429   5.943   3.706   3.139
 3177SOL    HW110430   5.881   3.767   3.091
 3177SOL    HW210431   5.893   3.625   3.171
 3178SOL     OW10432   6.614   0.934   0.911
 3178SOL    HW110433   6.577   1.014   0.959
 3178SOL    HW210434   6.561   0.917   0.828
 3179SOL     OW10435   1.036   1.835   1.879
 3179SOL    HW110436   1.028   1.921   1.828
 3179SOL    HW210437   0.957   1.823   1.939
 3180SOL     OW10438   6.421   5.797   6.356
 3180SOL    HW110439   6.514   5.776   6.385
 3180SOL    HW210440   6.381   5.865   6.418
 3181SOL     OW10441   0.841   1.220   4.887
 3181SOL    HW110442   0.846   1.177   4.977
 3181SOL    HW210443   0.805   1.313   4.896
 3182SOL     OW10444   2.884   0.578   0.299
 3182SOL    HW110445   2.868   0.592   0.397
 3182SOL    HW210446   2.879   0.665   0.251
 3183SOL     OW10447   4.493   4.503   2.280
 3183SOL    HW110448   4.472   4.592   2.240
 3183SOL    HW210449   4.509   4.437   2.206
 3184SOL     OW10450   0.507   2.406   4.295
 3184SOL    HW110451   0.561   2.458   4.362
 3184SOL    HW210452   0.563   2.385   4.216
 3185SOL     OW10453   0.090   6.201   6.231
 3185SOL    HW110454   0.025   6.192   6.156
 3185SOL    HW210455   0.152   6.277   6.212
 3186SOL     OW10456   0.944   1.418   6.098
 3186SOL    HW110457   0.862   1.432   6.153
 3186SOL    HW210458   0.992   1.336   6.129
 3187SOL     OW10459   4.296   5.882   2.886
 3187SOL    HW110460   4.326   5.839   2.971
 3187SOL    HW210461   4.337   5.972   2.877
 3188SOL     OW10462   2.525   4.726   6.020
 3188SOL    HW110463   2.438   4.696   6.061
 3188SOL    HW210464   2.574   4.647   5.984
 3189SOL     OW10465   2.934   1.642   0.450
 3189SOL    HW110466   2.948   1.585   0.531
 3189SOL    HW210467   2.879   1.592   0.384
 3190SOL     OW10468   0.322   6.110   4.746
 3190SOL    HW110469   0.337   6.011   4.745
 3190SOL    HW210470   0.372   6.150   4.822
 3191SOL     OW10471   4.747   5.733   1.840
 3191SOL    HW110472   4.673   5.762   1.900
 3191SOL    HW210473   4.783   5.812   1.790
 3192SOL     OW10474   6.292   2.108   1.765
 3192SOL    HW110475   6.348   2.025   1.772
 3192SOL    HW210476   6.261   2.119   1.671
 3193SOL     OW10477   3.846   0.684   5.493
 3193SOL    HW110478   3.875   0.768   5.539
 3193SOL    HW210479   3.926   0.630   5.468
 3194SOL     OW10480   1.398   1.041   5.654
 3194SOL    HW110481   1.432   1.015   5.563
 3194SOL    HW210482   1.322   0.982   5.679
 3195SOL     OW10483   0.228   1.447   1.449
 3195SOL    HW110484   0.230   1.358   1.493
 3195SOL    HW210485   0.156   1.448   1.379
 3196SOL     OW10486   6.614   0.477   5.162
 3196SOL    HW110487   6.710   0.451   5.148
 3196SOL    HW210488   6.555   0.420   5.106
 3197SOL     OW10489   2.177   0.646   6.439
 3197SOL    HW110490   2.172   0.548   6.420
 3197SOL    HW210491   2.248   0.663   6.507
 3198SOL     OW10492   6.568   2.231   3.609
 3198SOL    HW110493   6.541   2.144   3.567
 3198SOL    HW210494   6.513   2.305   3.570
 3199SOL     OW10495   5.891   4.343   2.751
 3199SOL    HW110496   5.797   4.341   2.718
 3199SOL    HW210497   5.936   4.426   2.719
 3200SOL     OW10498   5.723   3.352   3.994
 3200SOL    HW110499   5.675   3.267   4.016
 3200SOL    HW210500   5.807   3.332   3.945
 3201SOL     OW10501   6.455   4.290   2.623
 3201SOL    HW110502   6.514   4.368   2.644
 3201SOL    HW210503   6.362   4.308   2.657
 3202SOL     OW10504   1.230   4.849   0.353
 3202SOL    HW110505   1.287   4.920   0.312
 3202SOL    HW210506   1.170   4.890   0.421
 3203SOL     OW10507   4.197   6.558   1.353
 3203SOL    HW110508   4.198   6.462   1.324
 3203SOL    HW210509   4.260   6.571   1.429
 3204SOL     OW10510   2.753   1.318   4.000
 3204SOL    HW110511   2.709   1.280   4.081
 3204SOL    HW210512   2.807   1.398   4.026
 3205SOL     OW10513   5.496   3.164   5.748
 3205SOL    HW110514   5.408   3.154   5.796
 3205SOL    HW210515   5.531   3.073   5.724
 3206SOL     OW10516   2.560   2.994   1.499
 3206SOL    HW110517   2.480   3.045   1.532
 3206SOL    HW210518   2.642   3.050   1.512
 3207SOL     OW10519   0.822   0.491   5.455
 3207SOL    HW110520   0.841   0.406   5.504
 3207SOL    HW210521   0.854   0.569   5.509
 3208SOL     OW10522   6.288   5.854   4.831
 3208SOL    HW110523   6.230   5.845   4.912
 3208SOL    HW210524   6.280   5.772   4.775
 3209SOL     OW10525   4.832   5.810   6.323
 3209SOL    HW110526   4.762   5.830   6.391
 3209SOL    HW210527   4.792   5.811   6.232
 3210SOL     OW10528   0.195   5.351   1.239
 3210SOL    HW110529   0.126   5.356   1.311
 3210SOL    HW210530   0.285   5.339   1.282
 3211SOL     OW10531   1.425   5.849   0.308
 3211SOL    HW110532   1.483   5.804   0.240
 3211SOL    HW210533   1.330   5.849   0.277
 3212SOL     OW10534   2.992   0.081   2.754
 3212SOL    HW110535   3.030   0.168   2.788
 3212SOL    HW210536   2.910   0.099   2.700
 3213SOL     OW10537   1.885   1.021   6.131
 3213SOL    HW110538   1.845   1.055   6.045
 3213SOL    HW210539   1.821   1.036   6.206
 3214SOL     OW10540   3.842   0.872   2.913
 3214SOL    HW110541   3.810   0.949   2.858
 3214SOL    HW210542   3.797   0.788   2.884
 3215SOL     OW10543   1.302   3.244   0.403
 3215SOL    HW110544   1.353   3.299   0.336
 3215SOL    HW210545   1.350   3.246   0.491
 3216SOL     OW10546   5.650   4.184   0.950
 3216SOL    HW110547   5.746   4.186   0.978
 3216SOL    HW210548   5.603   4.108   0.995
 3217SOL     OW10549   0.118   4.930   2.926
 3217SOL    HW110550   0.031   4.978   2.941
 3217SOL    HW210551   0.100   4.841   2.885
 3218SOL     OW10552   0.036   1.969   2.784
 3218SOL    HW110553   0.071   2.062   2.778
 3218SOL    HW210554   0.037   1.927   2.694
 3219SOL     OW10555   0.038   0.577   4.915
 3219SOL    HW110556   0.020   0.578   5.013
 3219SOL    HW210557   6.986   0.536   4.867
 3220SOL     OW10558   6.605   5.659   6.973
 3220SOL    HW110559   6.537   5.733   6.975
 3220SOL    HW210560   6.559   5.573   6.951
 3221SOL     OW10561   4.241   0.738   2.393
 3221SOL    HW110562   4.192   0.766   2.476
 3221SOL    HW210563   4.179   0.688   2.332
 3222SOL     OW10564   2.886   1.214   2.745
 3222SOL    HW110565   2.986   1.209   2.748
 3222SOL    HW210566   2.855   1.286   2.808
 3223SOL     OW10567   1.631   6.587   0.706
 3223SOL    HW110568   1.629   6.609   0.804
 3223SOL    HW210569   1.723   6.556   0.682
 3224SOL     OW10570   4.827   2.571   4.709
 3224SOL    HW110571   4.856   2.542   4.800
 3224SOL    HW210572   4.796   2.666   4.712
 3225SOL     OW10573   3.861   0.973   4.016
 3225SOL    HW110574   3.809   0.911   4.075
 3225SOL    HW210575   3.834   1.067   4.034
 3226SOL     OW10576   1.025   0.151   2.037
 3226SOL    HW110577   1.075   0.076   1.995
 3226SOL    HW210578   1.025   0.141   2.137
 3227SOL     OW10579   4.169   2.522   6.263
 3227SOL    HW110580   4.200   2.493   6.173
 3227SOL    HW210581   4.240   2.577   6.307
 3228SOL     OW10582   1.398   4.318   0.720
 3228SOL    HW110583   1.332   4.249   0.688
 3228SOL    HW210584   1.394   4.398   0.660
 3229SOL     OW10585   2.631   1.460   6.220
 3229SOL    HW110586   2.672   1.551   6.217
 3229SOL    HW210587   2.623   1.430   6.315
 3230SOL     OW10588   2.661   5.908   5.704
 3230SOL    HW110589   2.685   5.866   5.791
 3230SOL    HW210590   2.601   5.986   5.720
 3231SOL     OW10591   3.447   1.043   2.537
 3231SOL    HW110592   3.496   0.980   2.477
 3231SOL    HW210593   3.448   1.007   2.631
 3232SOL     OW10594   4.363   5.756   4.241
 3232SOL    HW110595   4.307   5.825   4.287
 3232SOL    HW210596   4.432   5.802   4.185
 3233SOL     OW10597   0.204   2.744   0.059
 3233SOL    HW110598   0.280   2.806   0.077
 3233SOL    HW210599   0.179   2.696   0.144
 3234SOL     OW10600   2.027   2.988   0.605
 3234SOL    HW110601   2.001   3.084   0.611
 3234SOL    HW210602   2.050   2.953   0.696
 3235SOL     OW10603   6.795   5.871   2.000
 3235SOL    HW110604   6.768   5.837   1.911
 3235SOL    HW210605   6.753   5.815   2.072
 3236SOL     OW10606   2.657   4.255   0.437
 3236SOL    HW110607   2.703   4.340   0.462
 3236SOL    HW210608   2.726   4.183   0.425
 3237SOL     OW10609   6.145   1.366   4.728
 3237SOL    HW110610   6.081   1.432   4.690
 3237SOL    HW210611   6.153   1.288   4.666
 3238SOL     OW10612   6.103   5.056   0.658
 3238SOL    HW110613   6.182   5.068   0.598
 3238SOL    HW210614   6.128   4.998   0.735
 3239SOL     OW10615   0.197   0.266   3.680
 3239SOL    HW110616   0.222   0.309   3.594
 3239SOL    HW210617   0.247   0.309   3.755
 3240SOL     OW10618   0.336   0.233   6.235
 3240SOL    HW110619   0.266   0.228   6.164
 3240SOL    HW210620   0.303   0.187   6.318
 3241SOL     OW10621   5.142   1.422   6.303
 3241SOL    HW110622   5.044   1.407   6.310
 3241SOL    HW210623   5.162   1.520   6.307
 3242SOL     OW10624   4.660   4.257   5.594
 3242SOL    HW110625   4.575   4.223   5.633
 3242SOL    HW210626   4.672   4.353   5.619
 3243SOL     OW10627   3.971   5.511   6.423
 3243SOL    HW110628   3.875   5.484   6.414
 3243SOL    HW210629   4.027   5.455   6.362
 3244SOL     OW10630   5.703   6.248   6.539
 3244SOL    HW110631   5.764   6.224   6.464
 3244SOL    HW210632   5.726   6.340   6.572
 3245SOL     OW10633   4.251   2.336   4.133
 3245SOL    HW110634   4.305   2.412   4.098
 3245SOL    HW210635   4.266   2.327   4.232
 3246SOL     OW10636   0.702   0.027   2.168
 3246SOL    HW110637   0.678   6.982   2.234
 3246SOL    HW210638   0.743   0.104   2.216
 3247SOL     OW10639   0.131   4.262   2.279
 3247SOL    HW110640   0.105   4.189   2.342
 3247SOL    HW210641   0.229   4.255   2.259
 3248SOL     OW10642   5.440   2.132   2.891
 3248SOL    HW110643   5.485   2.143   2.802
 3248SOL    HW210644   5.458   2.211   2.948
 3249SOL     OW10645   3.703   3.721   3.922
 3249SOL    HW110646   3.730   3.710   3.826
 3249SOL    HW210647   3.603   3.723   3.928
 3250SOL     OW10648   5.251   5.616   2.905
 3250SOL    HW110649   5.179   5.651   2.845
 3250SOL    HW210650   5.340   5.636   2.865
 3251SOL     OW10651   2.362   0.549   5.009
 3251SOL    HW110652   2.451   0.579   4.977
 3251SOL    HW210653   2.321   0.619   5.068
 3252SOL     OW10654   2.815   1.293   3.737
 3252SOL    HW110655   2.877   1.366   3.709
 3252SOL    HW210656   2.780   1.312   3.829
 3253SOL     OW10657   6.033   3.136   1.233
 3253SOL    HW110658   5.984   3.167   1.151
 3253SOL    HW210659   6.122   3.098   1.207
 3254SOL     OW10660   5.580   0.623   0.220
 3254SOL    HW110661   5.551   0.528   0.224
 3254SOL    HW210662   5.605   0.646   0.125
 3255SOL     OW10663   5.863   5.160   1.037
 3255SOL    HW110664   5.856   5.228   1.110
 3255SOL    HW210665   5.830   5.072   1.071
 3256SOL     OW10666   4.832   2.068   1.350
 3256SOL    HW110667   4.859   2.160   1.379
 3256SOL    HW210668   4.748   2.073   1.296
 3257SOL     OW10669   2.883   2.218   2.312
 3257SOL    HW110670   2.807   2.258   2.363
 3257SOL    HW210671   2.910   2.282   2.239
 3258SOL     OW10672   3.516   5.423   3.448
 3258SOL    HW110673   3.510   5.472   3.361
 3258SOL    HW210674   3.424   5.404   3.482
 3259SOL     OW10675   5.414   4.341   4.227
 3259SOL    HW110676   5.417   4.244   4.250
 3259SOL    HW210677   5.338   4.358   4.163
 3260SOL     OW10678   1.549   4.427   1.901
 3260SOL    HW110679   1.581   4.357   1.838
 3260SOL    HW210680   1.500   4.384   1.977
 3261SOL     OW10681   5.458   0.737   3.012
 3261SOL    HW110682   5.428   0.775   2.924
 3261SOL    HW210683   5.504   0.808   3.065
 3262SOL     OW10684   3.906   2.170   2.661
 3262SOL    HW110685   4.001   2.199   2.678
 3262SOL    HW210686   3.864   2.140   2.746
 3263SOL     OW10687   2.721   1.282   3.141
 3263SOL    HW110688   2.708   1.354   3.072
 3263SOL    HW210689   2.721   1.193   3.096
 3264SOL     OW10690   2.480   5.103   0.183
 3264SOL    HW110691   2.498   5.007   0.162
 3264SOL    HW210692   2.563   5.157   0.166
 3265SOL     OW10693   6.332   5.713   5.182
 3265SOL    HW110694   6.276   5.782   5.137
 3265SOL    HW210695   6.272   5.649   5.231
 3266SOL     OW10696   3.215   4.544   0.677
 3266SOL    HW110697   3.268   4.626   0.654
 3266SOL    HW210698   3.215   4.482   0.599
 3267SOL     OW10699   3.999   0.747   0.789
 3267SOL    HW110700   4.072   0.816   0.794
 3267SOL    HW210701   4.039   0.659   0.763
 3268SOL     OW10702   0.253   5.025   1.451
 3268SOL    HW110703   0.157   5.033   1.425
 3268SOL    HW210704   0.305   5.099   1.409
 3269SOL     OW10705   1.047   5.421   2.418
 3269SOL    HW110706   1.054   5.341   2.478
 3269SOL    HW210707   0.990   5.490   2.463
 3270SOL     OW10708   0.731   2.649   5.364
 3270SOL    HW110709   0.633   2.640   5.349
 3270SOL    HW210710   0.771   2.700   5.288
 3271SOL     OW10711   6.900   3.371   1.915
 3271SOL    HW110712   6.990   3.363   1.872
 3271SOL    HW210713   6.829   3.339   1.852
 3272SOL     OW10714   4.436   5.842   0.333
 3272SOL    HW110715   4.489   5.926   0.344
 3272SOL    HW210716   4.339   5.864   0.321
 3273SOL     OW10717   4.433   3.436   5.923
 3273SOL    HW110718   4.372   3.433   5.844
 3273SOL    HW210719   4.520   3.392   5.899
 3274SOL     OW10720   6.062   0.869   0.293
 3274SOL    HW110721   5.985   0.814   0.325
 3274SOL    HW210722   6.086   0.938   0.362
 3275SOL     OW10723   4.805   0.546   1.255
 3275SOL    HW110724   4.720   0.542   1.308
 3275SOL    HW210725   4.862   0.621   1.291
 3276SOL     OW10726   4.796   0.202   0.337
 3276SOL    HW110727   4.712   0.224   0.286
 3276SOL    HW210728   4.813   0.104   0.331
 3277SOL     OW10729   3.006   1.608   1.980
 3277SOL    HW110730   3.059   1.529   1.947
 3277SOL    HW210731   2.933   1.628   1.915
 3278SOL     OW10732   7.013   0.581   6.606
 3278SOL    HW110733   0.029   0.567   6.695
 3278SOL    HW210734   0.031   0.521   6.539
 3279SOL     OW10735   4.271   6.762   1.592
 3279SOL    HW110736   4.211   6.818   1.649
 3279SOL    HW210737   4.304   6.817   1.515
 3280SOL     OW10738   5.600   3.570   4.120
 3280SOL    HW110739   5.514   3.519   4.120
 3280SOL    HW210740   5.671   3.514   4.078
 3281SOL     OW10741   7.021   4.675   1.748
 3281SOL    HW110742   0.080   4.665   1.800
 3281SOL    HW210743   6.955   4.725   1.804
 3282SOL     OW10744   0.257   4.015   5.040
 3282SOL    HW110745   0.241   4.101   4.992
 3282SOL    HW210746   0.201   4.013   5.124
 3283SOL     OW10747   3.107   1.058   1.227
 3283SOL    HW110748   3.189   1.100   1.186
 3283SOL    HW210749   3.077   1.113   1.305
 3284SOL     OW10750   1.820   5.747   4.856
 3284SOL    HW110751   1.893   5.735   4.788
 3284SOL    HW210752   1.809   5.844   4.877
 3285SOL     OW10753   5.230   1.055   4.596
 3285SOL    HW110754   5.280   0.969   4.608
 3285SOL    HW210755   5.248   1.091   4.504
 3286SOL     OW10756   3.409   1.882   1.727
 3286SOL    HW110757   3.493   1.845   1.686
 3286SOL    HW210758   3.408   1.981   1.716
 3287SOL     OW10759   1.082   7.014   6.004
 3287SOL    HW110760   1.027   7.005   5.920
 3287SOL    HW210761   1.098   6.924   6.043
 3288SOL     OW10762   1.399   6.477   0.389
 3288SOL    HW110763   1.424   6.564   0.347
 3288SOL    HW210764   1.474   6.445   0.446
 3289SOL     OW10765   3.134   1.542   6.908
 3289SOL    HW110766   3.223   1.514   6.942
 3289SOL    HW210767   3.080   1.579   6.983
 3290SOL     OW10768   6.561   5.285   0.530
 3290SOL    HW110769   6.483   5.230   0.561
 3290SOL    HW210770   6.640   5.264   0.587
 3291SOL     OW10771   4.289   0.182   5.989
 3291SOL    HW110772   4.293   0.282   5.988
 3291SOL    HW210773   4.344   0.147   6.065
 3292SOL     OW10774   0.766   1.837   0.578
 3292SOL    HW110775   0.699   1.802   0.512
 3292SOL    HW210776   0.795   1.763   0.638
 3293SOL     OW10777   6.676   4.835   2.551
 3293SOL    HW110778   6.756   4.874   2.595
 3293SOL    HW210779   6.646   4.754   2.601
 3294SOL     OW10780   5.398   2.441   5.535
 3294SOL    HW110781   5.473   2.391   5.578
 3294SOL    HW210782   5.378   2.523   5.588
 3295SOL     OW10783   1.773   2.829   0.620
 3295SOL    HW110784   1.853   2.889   0.614
 3295SOL    HW210785   1.718   2.855   0.700
 3296SOL     OW10786   6.803   6.639   5.234
 3296SOL    HW110787   6.887   6.678   5.197
 3296SOL    HW210788   6.825   6.573   5.306
 3297SOL     OW10789   2.829   2.156   5.382
 3297SOL    HW110790   2.818   2.061   5.352
 3297SOL    HW210791   2.926   2.174   5.398
 3298SOL     OW10792   6.054   3.809   4.901
 3298SOL    HW110793   5.964   3.767   4.913
 3298SOL    HW210794   6.107   3.755   4.836
 3299SOL     OW10795   3.823   4.996   3.593
 3299SOL    HW110796   3.756   4.932   3.630
 3299SOL    HW210797   3.785   5.088   3.589
 3300SOL     OW10798   2.363   6.920   5.450
 3300SOL    HW110799   2.413   7.003   5.426
 3300SOL    HW210800   2.282   6.944   5.504
 3301SOL     OW10801   1.480   3.245   2.425
 3301SOL    HW110802   1.550   3.224   2.494
 3301SOL    HW210803   1.508   3.208   2.336
 3302SOL     OW10804   1.800   4.767   6.566
 3302SOL    HW110805   1.858   4.750   6.486
 3302SOL    HW210806   1.704   4.758   6.538
 3303SOL     OW10807   3.609   2.678   0.459
 3303SOL    HW110808   3.575   2.592   0.496
 3303SOL    HW210809   3.609   2.748   0.531
 3304SOL     OW10810   2.416   4.472   6.601
 3304SOL    HW110811   2.483   4.541   6.574
 3304SOL    HW210812   2.460   4.383   6.609
 3305SOL     OW10813   3.331   0.423   1.080
 3305SOL    HW110814   3.261   0.354   1.059
 3305SOL    HW210815   3.294   0.514   1.062
 3306SOL     OW10816   1.418   6.381   6.872
 3306SOL    HW110817   1.326   6.405   6.904
 3306SOL    HW210818   1.486   6.435   6.922
 3307SOL     OW10819   1.338   6.796   5.355
 3307SOL    HW110820   1.412   6.802   5.421
 3307SOL    HW210821   1.290   6.884   5.350
 3308SOL     OW10822   4.173   4.341   1.293
 3308SOL    HW110823   4.193   4.439   1.292
 3308SOL    HW210824   4.242   4.293   1.346
 3309SOL     OW10825   5.084   4.390   4.099
 3309SOL    HW110826   5.161   4.379   4.036
 3309SOL    HW210827   5.089   4.480   4.143
 3310SOL     OW10828   0.650   4.866   4.578
 3310SOL    HW110829   0.646   4.777   4.623
 3310SOL    HW210830   0.559   4.907   4.579
 3311SOL     OW10831   3.572   3.591   1.144
 3311SOL    HW110832   3.624   3.671   1.174
 3311SOL    HW210833   3.537   3.542   1.225
 3312SOL     OW10834   5.368   2.841   6.433
 3312SOL    HW110835   5.460   2.867   6.461
 3312SOL    HW210836   5.301   2.891   6.488
 3313SOL     OW10837   0.854   0.838   3.091
 3313SOL    HW110838   0.889   0.808   3.002
 3313SOL    HW210839   0.825   0.934   3.085
 3314SOL     OW10840   2.221   0.430   3.188
 3314SOL    HW110841   2.121   0.438   3.183
 3314SOL    HW210842   2.261   0.521   3.199
 3315SOL     OW10843   0.666   4.728   5.475
 3315SOL    HW110844   0.677   4.751   5.378
 3315SOL    HW210845   0.650   4.812   5.527
 3316SOL     OW10846   3.278   1.192   6.210
 3316SOL    HW110847   3.263   1.263   6.279
 3316SOL    HW210848   3.301   1.235   6.123
 3317SOL     OW10849   5.352   2.043   1.829
 3317SOL    HW110850   5.386   1.974   1.766
 3317SOL    HW210851   5.402   2.129   1.814
 3318SOL     OW10852   2.928   2.202   6.595
 3318SOL    HW110853   2.947   2.103   6.593
 3318SOL    HW210854   2.983   2.248   6.525
 3319SOL     OW10855   6.915   0.074   2.571
 3319SOL    HW110856   6.993   0.135   2.584
 3319SOL    HW210857   6.947   7.007   2.558
 3320SOL     OW10858   6.414   0.878   0.683
 3320SOL    HW110859   6.395   0.976   0.677
 3320SOL    HW210860   6.369   0.830   0.608
 3321SOL     OW10861   6.152   1.563   1.073
 3321SOL    HW110862   6.168   1.601   1.164
 3321SOL    HW210863   6.212   1.485   1.058
 3322SOL     OW10864   6.231   3.239   0.781
 3322SOL    HW110865   6.183   3.302   0.842
 3322SOL    HW210866   6.315   3.208   0.826
 3323SOL     OW10867   2.565   2.134   1.825
 3323SOL    HW110868   2.620   2.213   1.851
 3323SOL    HW210869   2.498   2.161   1.755
 3324SOL     OW10870   4.670   5.582   5.798
 3324SOL    HW110871   4.590   5.641   5.798
 3324SOL    HW210872   4.641   5.487   5.808
 3325SOL     OW10873   0.803   3.443   6.465
 3325SOL    HW110874   0.895   3.431   6.502
 3325SOL    HW210875   0.747   3.362   6.485
 3326SOL     OW10876   5.268   0.977   3.128
 3326SOL    HW110877   5.275   0.912   3.203
 3326SOL    HW210878   5.184   0.959   3.076
 3327SOL     OW10879   1.399   5.888   1.595
 3327SOL    HW110880   1.365   5.815   1.654
 3327SOL    HW210881   1.355   5.974   1.620
 3328SOL     OW10882   3.606   2.001   1.214
 3328SOL    HW110883   3.514   1.962   1.212
 3328SOL    HW210884   3.665   1.944   1.272
 3329SOL     OW10885   6.248   6.176   5.725
 3329SOL    HW110886   6.336   6.172   5.773
 3329SOL    HW210887   6.213   6.270   5.728
 3330SOL     OW10888   6.896   3.194   2.549
 3330SOL    HW110889   6.875   3.112   2.496
 3330SOL    HW210890   6.811   3.238   2.577
 3331SOL     OW10891   1.759   2.558   0.905
 3331SOL    HW110892   1.670   2.526   0.937
 3331SOL    HW210893   1.773   2.528   0.811
 3332SOL     OW10894   5.216   4.654   0.788
 3332SOL    HW110895   5.144   4.684   0.726
 3332SOL    HW210896   5.304   4.694   0.759
 3333SOL     OW10897   3.846   5.215   6.754
 3333SOL    HW110898   3.930   5.245   6.709
 3333SOL    HW210899   3.785   5.175   6.686
 3334SOL     OW10900   3.304   3.291   1.439
 3334SOL    HW110901   3.354   3.377   1.434
 3334SOL    HW210902   3.347   3.224   1.379
 3335SOL     OW10903   4.958   4.691   5.901
 3335SOL    HW110904   5.048   4.728   5.925
 3335SOL    HW210905   4.952   4.682   5.801
 3336SOL     OW10906   3.022   5.566   5.930
 3336SOL    HW110907   3.118   5.586   5.910
 3336SOL    HW210908   2.964   5.612   5.864
 3337SOL     OW10909   3.523   2.245   1.260
 3337SOL    HW110910   3.562   2.157   1.234
 3337SOL    HW210911   3.585   2.292   1.324
 3338SOL     OW10912   6.569   3.972   1.597
 3338SOL    HW110913   6.514   4.054   1.578
 3338SOL    HW210914   6.647   3.997   1.656
 3339SOL     OW10915   6.556   6.052   6.796
 3339SOL    HW110916   6.535   6.073   6.700
 3339SOL    HW210917   6.596   6.133   6.839
 3340SOL     OW10918   3.716   6.682   1.883
 3340SOL    HW110919   3.680   6.656   1.793
 3340SOL    HW210920   3.651   6.656   1.954
 3341SOL     OW10921   0.456   6.905   2.833
 3341SOL    HW110922   0.436   6.811   2.804
 3341SOL    HW210923   0.446   6.967   2.755
 3342SOL     OW10924   2.225   0.412   3.792
 3342SOL    HW110925   2.137   0.369   3.810
 3342SOL    HW210926   2.273   0.362   3.719
 3343SOL     OW10927   4.998   2.717   0.724
 3343SOL    HW110928   4.901   2.735   0.745
 3343SOL    HW210929   5.051   2.801   0.737
 3344SOL     OW10930   5.256   3.845   5.209
 3344SOL    HW110931   5.157   3.835   5.207
 3344SOL    HW210932   5.289   3.829   5.302
 3345SOL     OW10933   2.927   3.937   5.979
 3345SOL    HW110934   2.904   3.975   5.889
 3345SOL    HW210935   2.901   3.840   5.982
 3346SOL     OW10936   0.518   1.531   1.985
 3346SOL    HW110937   0.532   1.620   1.943
 3346SOL    HW210938   0.593   1.511   2.047
 3347SOL     OW10939   6.495   3.932   4.245
 3347SOL    HW110940   6.526   3.964   4.335
 3347SOL    HW210941   6.413   3.983   4.218
 3348SOL     OW10942   3.252   3.300   3.600
 3348SOL    HW110943   3.319   3.228   3.581
 3348SOL    HW210944   3.240   3.357   3.519
 3349SOL     OW10945   6.632   4.247   4.261
 3349SOL    HW110946   6.554   4.306   4.240
 3349SOL    HW210947   6.602   4.172   4.319
 3350SOL     OW10948   2.068   1.295   6.672
 3350SOL    HW110949   2.022   1.366   6.726
 3350SOL    HW210950   2.021   1.285   6.584
 3351SOL     OW10951   5.676   0.449   1.117
 3351SOL    HW110952   5.699   0.518   1.048
 3351SOL    HW210953   5.760   0.410   1.154
 3352SOL     OW10954   0.958   4.351   0.706
 3352SOL    HW110955   0.880   4.306   0.662
 3352SOL    HW210956   1.026   4.375   0.637
 3353SOL     OW10957   1.451   6.910   6.858
 3353SOL    HW110958   1.461   6.840   6.929
 3353SOL    HW210959   1.390   6.982   6.891
 3354SOL     OW10960   6.952   2.015   3.071
 3354SOL    HW110961   7.008   1.997   2.991
 3354SOL    HW210962   6.933   1.929   3.119
 3355SOL     OW10963   0.104   2.334   1.027
 3355SOL    HW110964   0.136   2.324   0.933
 3355SOL    HW210965   0.178   2.310   1.090
 3356SOL     OW10966   2.636   3.443   0.533
 3356SOL    HW110967   2.686   3.358   0.518
 3356SOL    HW210968   2.635   3.496   0.449
 3357SOL     OW10969   1.999   5.409   1.131
 3357SOL    HW110970   2.087   5.453   1.112
 3357SOL    HW210971   1.999   5.373   1.225
 3358SOL     OW10972   4.958   6.428   2.339
 3358SOL    HW110973   4.875   6.419   2.283
 3358SOL    HW210974   5.023   6.357   2.314
 3359SOL     OW10975   0.461   0.397   2.798
 3359SOL    HW110976   0.477   0.318   2.857
 3359SOL    HW210977   0.372   0.437   2.819
 3360SOL     OW10978   0.580   0.970   0.397
 3360SOL    HW110979   0.670   0.937   0.368
 3360SOL    HW210980   0.534   1.015   0.321
 3361SOL     OW10981   6.604   5.875   3.229
 3361SOL    HW110982   6.654   5.789   3.226
 3361SOL    HW210983   6.649   5.937   3.294
 3362SOL     OW10984   2.964   1.504   4.816
 3362SOL    HW110985   3.050   1.527   4.772
 3362SOL    HW210986   2.888   1.540   4.761
 3363SOL     OW10987   0.541   1.578   6.510
 3363SOL    HW110988   0.561   1.600   6.605
 3363SOL    HW210989   0.587   1.644   6.450
 3364SOL     OW10990   0.961   5.793   6.319
 3364SOL    HW110991   0.900   5.840   6.256
 3364SOL    HW210992   1.000   5.859   6.384
 3365SOL     OW10993   0.074   1.869   4.886
 3365SOL    HW110994   0.078   1.916   4.974
 3365SOL    HW210995   0.027   1.927   4.819
 3366SOL     OW10996   5.472   0.747   4.834
 3366SOL    HW110997   5.413   0.673   4.864
 3366SOL    HW210998   5.550   0.755   4.896
 3367SOL     OW10999   1.710   2.305   1.663
 3367SOL    HW111000   1.783   2.371   1.677
 3367SOL    HW211001   1.699   2.288   1.565
 3368SOL     OW11002   6.376   5.425   6.235
 3368SOL    HW111003   6.372   5.522   6.211
 3368SOL    HW211004   6.302   5.376   6.191
 3369SOL     OW11005   3.648   0.735   0.458
 3369SOL    HW111006   3.705   0.657   0.434
 3369SOL    HW211007   3.656   0.753   0.556
 3370SOL     OW11008   6.507   6.980   4.865
 3370SOL    HW111009   6.517   6.925   4.782
 3370SOL    HW211010   6.595   6.985   4.913
 3371SOL     OW11011   1.115   4.258   2.246
 3371SOL    HW111012   1.099   4.338   2.188
 3371SOL    HW211013   1.082   4.176   2.199
 3372SOL     OW11014   0.117   1.021   2.164
 3372SOL    HW111015   0.111   0.924   2.142
 3372SOL    HW211016   0.191   1.063   2.111
 3373SOL     OW11017   5.986   1.162   4.232
 3373SOL    HW111018   5.938   1.078   4.209
 3373SOL    HW211019   5.919   1.233   4.254
 3374SOL     OW11020   3.422   6.004   5.607
 3374SOL    HW111021   3.460   5.913   5.588
 3374SOL    HW211022   3.458   6.037   5.695
 3375SOL     OW11023   4.591   4.611   5.085
 3375SOL    HW111024   4.633   4.527   5.049
 3375SOL    HW211025   4.493   4.608   5.068
 3376SOL     OW11026   3.503   2.998   2.539
 3376SOL    HW111027   3.493   2.921   2.602
 3376SOL    HW211028   3.523   2.964   2.447
 3377SOL     OW11029   1.359   6.497   5.017
 3377SOL    HW111030   1.375   6.505   4.919
 3377SOL    HW211031   1.427   6.435   5.057
 3378SOL     OW11032   6.703   1.479   1.470
 3378SOL    HW111033   6.763   1.413   1.514
 3378SOL    HW211034   6.756   1.538   1.410
 3379SOL     OW11035   0.521   4.400   5.899
 3379SOL    HW111036   0.547   4.377   5.993
 3379SOL    HW211037   0.546   4.325   5.838
 3380SOL     OW11038   6.424   4.638   6.328
 3380SOL    HW111039   6.519   4.644   6.296
 3380SOL    HW211040   6.363   4.669   6.256
 3381SOL     OW11041   2.520   2.470   0.553
 3381SOL    HW111042   2.462   2.425   0.621
 3381SOL    HW211043   2.616   2.458   0.578
 3382SOL     OW11044   0.049   1.567   6.732
 3382SOL    HW111045   0.111   1.490   6.718
 3382SOL    HW211046   0.070   1.612   6.819
 3383SOL     OW11047   5.867   5.022   2.725
 3383SOL    HW111048   5.883   4.961   2.648
 3383SOL    HW211049   5.772   5.012   2.756
 3384SOL     OW11050   3.429   3.308   4.866
 3384SOL    HW111051   3.381   3.270   4.786
 3384SOL    HW211052   3.372   3.378   4.909
 3385SOL     OW11053   6.339   4.138   3.358
 3385SOL    HW111054   6.345   4.044   3.327
 3385SOL    HW211055   6.282   4.143   3.440
 3386SOL     OW11056   5.972   4.268   4.740
 3386SOL    HW111057   5.987   4.235   4.834
 3386SOL    HW211058   5.877   4.251   4.714
 3387SOL     OW11059   2.475   2.557   2.503
 3387SOL    HW111060   2.468   2.535   2.600
 3387SOL    HW211061   2.558   2.610   2.486
 3388SOL     OW11062   5.663   2.743   1.094
 3388SOL    HW111063   5.747   2.783   1.132
 3388SOL    HW211064   5.621   2.683   1.162
 3389SOL     OW11065   4.809   4.050   3.917
 3389SOL    HW111066   4.866   4.132   3.913
 3389SOL    HW211067   4.735   4.063   3.983
 3390SOL     OW11068   5.192   2.655   6.137
 3390SOL    HW111069   5.177   2.712   6.056
 3390SOL    HW211070   5.183   2.559   6.112
 3391SOL     OW11071   3.967   1.836   5.040
 3391SOL    HW111072   4.055   1.788   5.049
 3391SOL    HW211073   3.920   1.836   5.128
 3392SOL     OW11074   2.242   0.801   4.338
 3392SOL    HW111075   2.311   0.764   4.276
 3392SOL    HW211076   2.238   0.901   4.328
 3393SOL     OW11077   6.464   6.763   0.520
 3393SOL    HW111078   6.561   6.786   0.525
 3393SOL    HW211079   6.426   6.794   0.433
 3394SOL     OW11080   5.938   2.828   1.075
 3394SOL    HW111081   5.952   2.881   1.159
 3394SOL    HW211082   5.907   2.888   1.002
 3395SOL     OW11083   6.607   3.530   3.725
 3395SOL    HW111084   6.555   3.512   3.642
 3395SOL    HW211085   6.557   3.494   3.804
 3396SOL     OW11086   0.343   3.274   3.515
 3396SOL    HW111087   0.304   3.356   3.557
 3396SOL    HW211088   0.287   3.195   3.538
 3397SOL     OW11089   4.175   0.711   5.717
 3397SOL    HW111090   4.235   0.758   5.653
 3397SOL    HW211091   4.163   0.616   5.688
 3398SOL     OW11092   1.158   0.129   4.036
 3398SOL    HW111093   1.117   0.188   4.105
 3398SOL    HW211094   1.258   0.135   4.043
 3399SOL     OW11095   4.411   4.577   4.473
 3399SOL    HW111096   4.456   4.516   4.408
 3399SOL    HW211097   4.439   4.552   4.566
 3400SOL     OW11098   4.917   2.610   5.794
 3400SOL    HW111099   4.818   2.611   5.807
 3400SOL    HW211100   4.952   2.518   5.810
 3401SOL     OW11101   7.000   3.980   0.707
 3401SOL    HW111102   0.049   4.042   0.730
 3401SOL    HW211103   0.003   3.886   0.720
 3402SOL     OW11104   5.652   5.760   1.175
 3402SOL    HW111105   5.611   5.778   1.086
 3402SOL    HW211106   5.748   5.735   1.163
 3403SOL     OW11107   3.886   0.332   5.003
 3403SOL    HW111108   3.895   0.425   5.040
 3403SOL    HW211109   3.963   0.313   4.943
 3404SOL     OW11110   4.355   1.355   0.392
 3404SOL    HW111111   4.376   1.452   0.406
 3404SOL    HW211112   4.432   1.312   0.344
 3405SOL     OW11113   6.443   3.702   5.974
 3405SOL    HW111114   6.499   3.783   5.957
 3405SOL    HW211115   6.438   3.685   6.072
 3406SOL     OW11116   2.294   4.692   1.635
 3406SOL    HW111117   2.252   4.722   1.720
 3406SOL    HW211118   2.390   4.670   1.651
 3407SOL     OW11119   1.426   5.757   1.855
 3407SOL    HW111120   1.348   5.812   1.884
 3407SOL    HW211121   1.446   5.687   1.924
 3408SOL     OW11122   4.871   4.073   3.492
 3408SOL    HW111123   4.867   3.992   3.550
 3408SOL    HW211124   4.811   4.060   3.413
 3409SOL     OW11125   3.989   6.933   5.753
 3409SOL    HW111126   3.919   6.918   5.683
 3409SOL    HW211127   3.981   0.001   5.787
 3410SOL     OW11128   6.034   5.395   6.663
 3410SOL    HW111129   5.970   5.322   6.637
 3410SOL    HW211130   5.989   5.483   6.655
 3411SOL     OW11131   5.419   2.335   2.180
 3411SOL    HW111132   5.420   2.239   2.208
 3411SOL    HW211133   5.359   2.387   2.241
 3412SOL     OW11134   3.913   3.034   0.049
 3412SOL    HW111135   3.941   2.976   0.126
 3412SOL    HW211136   3.899   3.127   0.082
 3413SOL     OW11137   4.320   1.537   2.768
 3413SOL    HW111138   4.281   1.591   2.694
 3413SOL    HW211139   4.405   1.495   2.737
 3414SOL     OW11140   3.496   1.770   4.966
 3414SOL    HW111141   3.450   1.848   4.924
 3414SOL    HW211142   3.478   1.688   4.913
 3415SOL     OW11143   1.002   4.676   4.212
 3415SOL    HW111144   0.975   4.772   4.219
 3415SOL    HW211145   1.098   4.666   4.235
 3416SOL     OW11146   6.926   4.214   5.823
 3416SOL    HW111147   7.001   4.274   5.794
 3416SOL    HW211148   6.842   4.268   5.832
 3417SOL     OW11149   6.623   5.949   2.542
 3417SOL    HW111150   6.560   5.972   2.468
 3417SOL    HW211151   6.571   5.921   2.623
 3418SOL     OW11152   3.900   1.437   4.431
 3418SOL    HW111153   3.820   1.378   4.426
 3418SOL    HW211154   3.877   1.528   4.395
 3419SOL     OW11155   4.347   4.763   6.541
 3419SOL    HW111156   4.253   4.797   6.539
 3419SOL    HW211157   4.409   4.836   6.512
 3420SOL     OW11158   5.467   1.958   3.503
 3420SOL    HW111159   5.401   1.994   3.436
 3420SOL    HW211160   5.417   1.926   3.584
 3421SOL     OW11161   6.703   0.714   5.950
 3421SOL    HW111162   6.701   0.624   5.992
 3421SOL    HW211163   6.610   0.742   5.928
 3422SOL     OW11164   3.317   7.019   1.102
 3422SOL    HW111165   3.258   6.944   1.073
 3422SOL    HW211166   3.387   0.009   1.032
 3423SOL     OW11167   2.349   1.054   0.013
 3423SOL    HW111168   2.354   1.028   6.943
 3423SOL    HW211169   2.262   1.022   0.052
 3424SOL     OW11170   3.738   1.090   2.773
 3424SOL    HW111171   3.742   1.181   2.813
 3424SOL    HW211172   3.735   1.098   2.673
 3425SOL     OW11173   5.178   4.297   2.300
 3425SOL    HW111174   5.090   4.298   2.346
 3425SOL    HW211175   5.202   4.390   2.271
 3426SOL     OW11176   3.509   3.425   0.369
 3426SOL    HW111177   3.498   3.516   0.328
 3426SOL    HW211178   3.419   3.383   0.379
 3427SOL     OW11179   6.492   6.932   0.152
 3427SOL    HW111180   6.561   7.002   0.172
 3427SOL    HW211181   6.445   6.954   0.066
 3428SOL     OW11182   4.048   5.245   1.906
 3428SOL    HW111183   4.005   5.318   1.959
 3428SOL    HW211184   4.085   5.283   1.821
 3429SOL     OW11185   0.613   2.421   6.954
 3429SOL    HW111186   0.589   2.508   6.910
 3429SOL    HW211187   0.709   2.423   6.982
 3430SOL     OW11188   1.195   6.568   6.922
 3430SOL    HW111189   1.228   6.645   6.977
 3430SOL    HW211190   1.185   6.597   6.827
 3431SOL     OW11191   2.351   6.444   1.262
 3431SOL    HW111192   2.324   6.502   1.339
 3431SOL    HW211193   2.293   6.363   1.260
 3432SOL     OW11194   2.810   2.455   5.306
 3432SOL    HW111195   2.739   2.520   5.331
 3432SOL    HW211196   2.795   2.368   5.354
 3433SOL     OW11197   2.573   1.196   6.687
 3433SOL    HW111198   2.619   1.277   6.650
 3433SOL    HW211199   2.492   1.175   6.631
 3434SOL     OW11200   3.191   2.622   0.528
 3434SOL    HW111201   3.207   2.673   0.612
 3434SOL    HW211202   3.257   2.547   0.522
 3435SOL     OW11203   0.339   2.578   1.326
 3435SOL    HW111204   0.411   2.646   1.314
 3435SOL    HW211205   0.252   2.624   1.345
 3436SOL     OW11206   4.580   6.853   5.016
 3436SOL    HW111207   4.501   6.792   5.015
 3436SOL    HW211208   4.659   6.804   5.054
 3437SOL     OW11209   4.350   0.440   6.107
 3437SOL    HW111210   4.446   0.468   6.114
 3437SOL    HW211211   4.294   0.495   6.169
 3438SOL     OW11212   1.399   3.061   6.778
 3438SOL    HW111213   1.423   2.992   6.846
 3438SOL    HW211214   1.472   3.129   6.771
 3439SOL     OW11215   2.725   0.186   4.973
 3439SOL    HW111216   2.815   0.219   5.002
 3439SOL    HW211217   2.697   0.109   5.030
 3440SOL     OW11218   4.375   3.679   1.104
 3440SOL    HW111219   4.365   3.777   1.118
 3440SOL    HW211220   4.451   3.662   1.041
 3441SOL     OW11221   4.802   0.624   3.391
 3441SOL    HW111222   4.852   0.710   3.399
 3441SOL    HW211223   4.738   0.616   3.468
 3442SOL     OW11224   2.264   4.900   3.509
 3442SOL    HW111225   2.289   4.942   3.422
 3442SOL    HW211226   2.220   4.812   3.493
 3443SOL     OW11227   5.663   1.009   3.232
 3443SOL    HW111228   5.741   1.037   3.288
 3443SOL    HW211229   5.643   0.912   3.249
 3444SOL     OW11230   4.936   5.481   6.716
 3444SOL    HW111231   4.851   5.481   6.664
 3444SOL    HW211232   4.982   5.393   6.705
 3445SOL     OW11233   6.468   3.631   4.394
 3445SOL    HW111234   6.536   3.646   4.465
 3445SOL    HW211235   6.462   3.712   4.335
 3446SOL     OW11236   4.883   1.126   2.859
 3446SOL    HW111237   4.873   1.153   2.763
 3446SOL    HW211238   4.799   1.150   2.909
 3447SOL     OW11239   5.677   4.907   7.008
 3447SOL    HW111240   5.696   4.928   6.912
 3447SOL    HW211241   5.635   4.817   7.015
 3448SOL     OW11242   3.673   6.794   0.879
 3448SOL    HW111243   3.641   6.700   0.864
 3448SOL    HW211244   3.730   6.798   0.961
 3449SOL     OW11245   6.398   6.242   2.572
 3449SOL    HW111246   6.455   6.319   2.601
 3449SOL    HW211247   6.303   6.261   2.596
 3450SOL     OW11248   0.879   2.156   0.751
 3450SOL    HW111249   0.787   2.118   0.750
 3450SOL    HW211250   0.879   2.246   0.709
 3451SOL     OW11251   0.871   5.694   3.763
 3451SOL    HW111252   0.955   5.645   3.737
 3451SOL    HW211253   0.801   5.629   3.792
 3452SOL     OW11254   6.346   0.714   6.841
 3452SOL    HW111255   6.425   0.762   6.880
 3452SOL    HW211256   6.351   0.617   6.865
 3453SOL     OW11257   5.846   5.692   5.140
 3453SOL    HW111258   5.860   5.612   5.082
 3453SOL    HW211259   5.849   5.775   5.084
 3454SOL     OW11260   1.710   0.966   6.337
 3454SOL    HW111261   1.626   0.930   6.297
 3454SOL    HW211262   1.693   0.989   6.433
 3455SOL     OW11263   1.135   2.861   4.598
 3455SOL    HW111264   1.183   2.776   4.579
 3455SOL    HW211265   1.149   2.926   4.523
 3456SOL     OW11266   5.797   5.913   2.251
 3456SOL    HW111267   5.859   5.937   2.177
 3456SOL    HW211268   5.844   5.855   2.317
 3457SOL     OW11269   2.608   5.204   4.165
 3457SOL    HW111270   2.612   5.294   4.207
 3457SOL    HW211271   2.619   5.134   4.236
 3458SOL     OW11272   5.405   6.993   6.946
 3458SOL    HW111273   5.370   6.952   6.862
 3458SOL    HW211274   5.430   0.063   6.929
 3459SOL     OW11275   0.401   3.480   3.091
 3459SOL    HW111276   0.452   3.408   3.043
 3459SOL    HW211277   0.464   3.554   3.117
 3460SOL     OW11278   3.439   3.384   0.810
 3460SOL    HW111279   3.340   3.382   0.826
 3460SOL    HW211280   3.460   3.450   0.737
 3461SOL     OW11281   3.958   5.051   4.386
 3461SOL    HW111282   3.887   5.020   4.322
 3461SOL    HW211283   3.958   4.992   4.467
 3462SOL     OW11284   5.955   3.178   2.265
 3462SOL    HW111285   5.978   3.105   2.201
 3462SOL    HW211286   6.005   3.163   2.351
 3463SOL     OW11287   0.708   3.239   2.762
 3463SOL    HW111288   0.650   3.207   2.838
 3463SOL    HW211289   0.747   3.328   2.785
 3464SOL     OW11290   5.687   2.171   0.210
 3464SOL    HW111291   5.590   2.151   0.203
 3464SOL    HW211292   5.701   2.256   0.261
 3465SOL     OW11293   1.711   3.579   1.447
 3465SOL    HW111294   1.675   3.672   1.446
 3465SOL    HW211295   1.811   3.582   1.443
 3466SOL     OW11296   5.455   5.088   5.714
 3466SOL    HW111297   5.408   5.034   5.643
 3466SOL    HW211298   5.393   5.159   5.747
 3467SOL     OW11299   3.218   1.441   0.749
 3467SOL    HW111300   3.220   1.363   0.687
 3467SOL    HW211301   3.275   1.515   0.712
 3468SOL     OW11302   4.989   1.702   2.351
 3468SOL    HW111303   5.011   1.638   2.424
 3468SOL    HW211304   4.892   1.725   2.354
 3469SOL     OW11305   5.387   0.387   6.166
 3469SOL    HW111306   5.320   0.334   6.219
 3469SOL    HW211307   5.464   0.412   6.225
 3470SOL     OW11308   0.662   3.045   1.942
 3470SOL    HW111309   0.728   3.111   1.906
 3470SOL    HW211310   0.695   2.952   1.926
 3471SOL     OW11311   4.809   4.331   3.644
 3471SOL    HW111312   4.726   4.319   3.698
 3471SOL    HW211313   4.824   4.250   3.588
 3472SOL     OW11314   3.517   1.312   2.617
 3472SOL    HW111315   3.566   1.362   2.546
 3472SOL    HW211316   3.506   1.217   2.590
 3473SOL     OW11317   6.838   3.552   3.378
 3473SOL    HW111318   6.799   3.644   3.379
 3473SOL    HW211319   6.927   3.553   3.424
 3474SOL     OW11320   0.170   4.079   3.901
 3474SOL    HW111321   0.107   4.147   3.938
 3474SOL    HW211322   0.228   4.120   3.831
 3475SOL     OW11323   0.712   4.858   3.779
 3475SOL    HW111324   0.791   4.814   3.736
 3475SOL    HW211325   0.695   4.817   3.868
 3476SOL     OW11326   1.394   1.608   3.531
 3476SOL    HW111327   1.391   1.528   3.471
 3476SOL    HW211328   1.387   1.691   3.475
 3477SOL     OW11329   1.026   3.768   0.317
 3477SOL    HW111330   0.926   3.766   0.315
 3477SOL    HW211331   1.060   3.680   0.348
 3478SOL     OW11332   2.265   0.296   6.713
 3478SOL    HW111333   2.346   0.268   6.661
 3478SOL    HW211334   2.252   0.234   6.790
 3479SOL     OW11335   0.876   1.535   3.680
 3479SOL    HW111336   0.867   1.482   3.764
 3479SOL    HW211337   0.967   1.520   3.640
 3480SOL     OW11338   0.380   5.821   6.504
 3480SOL    HW111339   0.311   5.874   6.456
 3480SOL    HW211340   0.409   5.745   6.446
 3481SOL     OW11341   5.485   1.056   0.785
 3481SOL    HW111342   5.440   1.001   0.714
 3481SOL    HW211343   5.581   1.067   0.763
 3482SOL     OW11344   6.170   1.839   2.772
 3482SOL    HW111345   6.184   1.935   2.745
 3482SOL    HW211346   6.257   1.799   2.801
 3483SOL     OW11347   5.542   2.304   3.068
 3483SOL    HW111348   5.574   2.251   3.147
 3483SOL    HW211349   5.605   2.380   3.051
 3484SOL     OW11350   1.423   3.400   6.813
 3484SOL    HW111351   1.497   3.407   6.881
 3484SOL    HW211352   1.354   3.469   6.832
 3485SOL     OW11353   0.497   2.232   5.021
 3485SOL    HW111354   0.554   2.311   5.044
 3485SOL    HW211355   0.542   2.148   5.053
 3486SOL     OW11356   2.157   0.281   4.148
 3486SOL    HW111357   2.223   0.323   4.210
 3486SOL    HW211358   2.088   0.348   4.122
 3487SOL     OW11359   6.408   2.644   0.207
 3487SOL    HW111360   6.367   2.591   0.282
 3487SOL    HW211361   6.507   2.635   0.210
 3488SOL     OW11362   5.618   0.982   4.599
 3488SOL    HW111363   5.652   1.018   4.686
 3488SOL    HW211364   5.621   1.054   4.530
 3489SOL     OW11365   3.467   6.895   1.522
 3489SOL    HW111366   3.434   6.893   1.617
 3489SOL    HW211367   3.446   6.984   1.481
 3490SOL     OW11368   3.715   5.258   1.718
 3490SOL    HW111369   3.701   5.329   1.786
 3490SOL    HW211370   3.750   5.175   1.762
 3491SOL     OW11371   4.114   3.257   5.907
 3491SOL    HW111372   4.143   3.312   5.985
 3491SOL    HW211373   4.182   3.265   5.834
 3492SOL     OW11374   6.789   4.527   1.578
 3492SOL    HW111375   6.809   4.625   1.579
 3492SOL    HW211376   6.756   4.501   1.487
 3493SOL     OW11377   6.668   3.788   3.744
 3493SOL    HW111378   6.651   3.690   3.753
 3493SOL    HW211379   6.629   3.836   3.822
 3494SOL     OW11380   2.480   1.215   1.867
 3494SOL    HW111381   2.430   1.301   1.878
 3494SOL    HW211382   2.578   1.234   1.860
 3495SOL     OW11383   0.460   4.054   2.830
 3495SOL    HW111384   0.494   4.030   2.739
 3495SOL    HW211385   0.487   4.147   2.852
 3496SOL     OW11386   5.680   4.955   1.102
 3496SOL    HW111387   5.619   4.978   1.026
 3496SOL    HW211388   5.631   4.963   1.188
 3497SOL     OW11389   2.702   1.035   3.982
 3497SOL    HW111390   2.682   1.017   4.078
 3497SOL    HW211391   2.768   1.109   3.975
 3498SOL     OW11392   2.888   1.706   2.200
 3498SOL    HW111393   2.952   1.707   2.277
 3498SOL    HW211394   2.926   1.651   2.126
 3499SOL     OW11395   6.757   5.177   4.496
 3499SOL    HW111396   6.734   5.112   4.569
 3499SOL    HW211397   6.689   5.249   4.493
 3500SOL     OW11398   2.167   3.047   3.937
 3500SOL    HW111399   2.106   2.974   3.907
 3500SOL    HW211400   2.248   3.008   3.980
 3501SOL     OW11401   2.780   0.117   6.211
 3501SOL    HW111402   2.762   0.122   6.309
 3501SOL    HW211403   2.701   0.151   6.160
 3502SOL     OW11404   6.377   3.103   1.460
 3502SOL    HW111405   6.298   3.130   1.515
 3502SOL    HW211406   6.421   3.184   1.423
 3503SOL     OW11407   0.069   6.550   5.578
 3503SOL    HW111408   0.045   6.603   5.660
 3503SOL    HW211409   0.168   6.536   5.575
 3504SOL     OW11410   1.936   1.176   2.200
 3504SOL    HW111411   1.912   1.154   2.106
 3504SOL    HW211412   2.011   1.242   2.201
 3505SOL     OW11413   5.610   5.282   5.444
 3505SOL    HW111414   5.658   5.325   5.367
 3505SOL    HW211415   5.550   5.350   5.488
 3506SOL     OW11416   5.588   4.480   4.948
 3506SOL    HW111417   5.624   4.418   4.877
 3506SOL    HW211418   5.540   4.556   4.904
 3507SOL     OW11419   2.445   0.059   0.123
 3507SOL    HW111420   2.359   0.097   0.087
 3507SOL    HW211421   2.491   0.007   0.051
 3508SOL     OW11422   2.920   2.579   6.074
 3508SOL    HW111423   2.866   2.644   6.129
 3508SOL    HW211424   2.988   2.536   6.133
 3509SOL     OW11425   5.797   6.439   0.099
 3509SOL    HW111426   5.770   6.526   0.141
 3509SOL    HW211427   5.798   6.449   7.025
 3510SOL     OW11428   1.605   0.667   1.367
 3510SOL    HW111429   1.519   0.685   1.414
 3510SOL    HW211430   1.627   0.569   1.373
 3511SOL     OW11431   1.800   4.343   1.749
 3511SOL    HW111432   1.895   4.345   1.780
 3511SOL    HW211433   1.760   4.254   1.771
 3512SOL     OW11434   1.023   3.880   0.829
 3512SOL    HW111435   0.975   3.966   0.815
 3512SOL    HW211436   1.018   3.854   0.925
 3513SOL     OW11437   6.199   1.762   1.341
 3513SOL    HW111438   6.286   1.777   1.294
 3513SOL    HW211439   6.135   1.836   1.317
 3514SOL     OW11440   6.034   0.448   2.026
 3514SOL    HW111441   5.978   0.506   1.966
 3514SOL    HW211442   5.995   0.446   2.117
 3515SOL     OW11443   5.365   6.196   3.529
 3515SOL    HW111444   5.463   6.190   3.549
 3515SOL    HW211445   5.322   6.262   3.590
 3516SOL     OW11446   5.204   6.213   1.412
 3516SOL    HW111447   5.291   6.164   1.415
 3516SOL    HW211448   5.190   6.251   1.320
 3517SOL     OW11449   0.208   1.899   1.217
 3517SOL    HW111450   0.205   1.937   1.309
 3517SOL    HW211451   0.210   1.799   1.221
 3518SOL     OW11452   5.337   2.041   5.290
 3518SOL    HW111453   5.398   2.097   5.346
 3518SOL    HW211454   5.350   2.063   5.194
 3519SOL     OW11455   2.135   1.123   5.843
 3519SOL    HW111456   2.099   1.125   5.749
 3519SOL    HW211457   2.078   1.182   5.901
 3520SOL     OW11458   2.866   6.961   0.251
 3520SOL    HW111459   2.910   6.996   0.334
 3520SOL    HW211460   2.811   6.881   0.273
 3521SOL     OW11461   3.890   2.804   6.837
 3521SOL    HW111462   3.794   2.776   6.847
 3521SOL    HW211463   3.912   2.872   6.907
 3522SOL     OW11464   6.251   5.259   6.784
 3522SOL    HW111465   6.250   5.160   6.797
 3522SOL    HW211466   6.170   5.287   6.732
 3523SOL     OW11467   1.838   4.335   5.267
 3523SOL    HW111468   1.815   4.409   5.204
 3523SOL    HW211469   1.860   4.253   5.215
 3524SOL     OW11470   4.751   1.821   2.007
 3524SOL    HW111471   4.834   1.849   2.056
 3524SOL    HW211472   4.671   1.843   2.063
 3525SOL     OW11473   6.483   3.447   4.677
 3525SOL    HW111474   6.508   3.368   4.621
 3525SOL    HW211475   6.561   3.476   4.732
 3526SOL     OW11476   2.020   0.139   3.445
 3526SOL    HW111477   2.013   0.237   3.465
 3526SOL    HW211478   2.115   0.116   3.424
 3527SOL     OW11479   5.685   3.563   6.216
 3527SOL    HW111480   5.681   3.577   6.315
 3527SOL    HW211481   5.593   3.549   6.180
 3528SOL     OW11482   2.457   6.055   5.045
 3528SOL    HW111483   2.363   6.060   5.010
 3528SOL    HW211484   2.455   6.047   5.145
 3529SOL     OW11485   4.108   6.691   0.652
 3529SOL    HW111486   4.059   6.770   0.690
 3529SOL    HW211487   4.207   6.707   0.661
 3530SOL     OW11488   0.094   5.347   1.726
 3530SOL    HW111489   0.108   5.410   1.803
 3530SOL    HW211490   0.010   5.295   1.741
 3531SOL     OW11491   5.579   2.545   0.623
 3531SOL    HW111492   5.533   2.571   0.708
 3531SOL    HW211493   5.671   2.586   0.621
 3532SOL     OW11494   2.481   1.014   1.573
 3532SOL    HW111495   2.514   1.049   1.485
 3532SOL    HW211496   2.402   1.068   1.602
 3533SOL     OW11497   0.449   1.219   2.657
 3533SOL    HW111498   0.352   1.212   2.681
 3533SOL    HW211499   0.458   1.215   2.557
 3534SOL     OW11500   0.890   2.240   1.122
 3534SOL    HW111501   0.821   2.245   1.050
 3534SOL    HW211502   0.868   2.166   1.185
 3535SOL     OW11503   2.021   5.354   6.192
 3535SOL    HW111504   1.992   5.342   6.286
 3535SOL    HW211505   1.951   5.405   6.141
 3536SOL     OW11506   3.194   2.100   3.342
 3536SOL    HW111507   3.164   2.037   3.271
 3536SOL    HW211508   3.289   2.081   3.366
 3537SOL     OW11509   1.947   5.711   2.009
 3537SOL    HW111510   2.016   5.651   1.969
 3537SOL    HW211511   1.923   5.678   2.100
 3538SOL     OW11512   2.750   6.026   5.456
 3538SOL    HW111513   2.728   6.006   5.552
 3538SOL    HW211514   2.778   5.942   5.410
 3539SOL     OW11515   3.293   3.224   4.638
 3539SOL    HW111516   3.333   3.260   4.554
 3539SOL    HW211517   3.203   3.185   4.618
 3540SOL     OW11518   1.936   2.459   4.722
 3540SOL    HW111519   1.905   2.444   4.628
 3540SOL    HW211520   1.931   2.372   4.772
 3541SOL     OW11521   2.948   2.413   5.684
 3541SOL    HW111522   3.010   2.480   5.726
 3541SOL    HW211523   2.998   2.328   5.667
 3542SOL     OW11524   1.358   4.833   2.861
 3542SOL    HW111525   1.437   4.865   2.913
 3542SOL    HW211526   1.382   4.824   2.765
 3543SOL     OW11527   6.255   2.582   3.873
 3543SOL    HW111528   6.286   2.512   3.809
 3543SOL    HW211529   6.170   2.623   3.839
 3544SOL     OW11530   1.990   4.443   6.475
 3544SOL    HW111531   1.969   4.385   6.396
 3544SOL    HW211532   1.905   4.475   6.517
 3545SOL     OW11533   3.565   6.269   6.910
 3545SOL    HW111534   3.608   6.350   6.949
 3545SOL    HW211535   3.472   6.260   6.947
 3546SOL     OW11536   0.188   4.370   3.247
 3546SOL    HW111537   0.158   4.398   3.338
 3546SOL    HW211538   0.274   4.319   3.253
 3547SOL     OW11539   4.583   4.323   3.881
 3547SOL    HW111540   4.575   4.421   3.863
 3547SOL    HW211541   4.564   4.305   3.978
 3548SOL     OW11542   5.562   1.383   6.033
 3548SOL    HW111543   5.555   1.283   6.026
 3548SOL    HW211544   5.633   1.407   6.099
 3549SOL     OW11545   6.907   4.787   4.420
 3549SOL    HW111546   6.984   4.726   4.405
 3549SOL    HW211547   6.908   4.819   4.515
 3550SOL     OW11548   5.084   2.955   2.370
 3550SOL    HW111549   4.999   2.920   2.331
 3550SOL    HW211550   5.161   2.907   2.330
 3551SOL     OW11551   4.040   6.092   2.647
 3551SOL    HW111552   3.959   6.126   2.696
 3551SOL    HW211553   4.102   6.049   2.713
 3552SOL     OW11554   5.096   6.199   2.314
 3552SOL    HW111555   5.186   6.180   2.275
 3552SOL    HW211556   5.050   6.113   2.336
 3553SOL     OW11557   5.834   2.959   1.295
 3553SOL    HW111558   5.894   3.038   1.281
 3553SOL    HW211559   5.761   2.983   1.359
 3554SOL     OW11560   3.250   3.319   1.150
 3554SOL    HW111561   3.327   3.255   1.143
 3554SOL    HW211562   3.167   3.268   1.171
 3555SOL     OW11563   1.021   3.159   3.018
 3555SOL    HW111564   1.106   3.207   2.998
 3555SOL    HW211565   0.984   3.190   3.106
 3556SOL     OW11566   3.885   0.992   5.028
 3556SOL    HW111567   3.870   1.012   5.124
 3556SOL    HW211568   3.809   0.938   4.992
 3557SOL     OW11569   0.599   0.632   3.756
 3557SOL    HW111570   0.536   0.683   3.697
 3557SOL    HW211571   0.552   0.551   3.791
 3558SOL     OW11572   0.216   6.190   1.412
 3558SOL    HW111573   0.238   6.104   1.457
 3558SOL    HW211574   0.207   6.262   1.481
 3559SOL     OW11575   0.204   0.199   4.609
 3559SOL    HW111576   0.207   0.298   4.601
 3559SOL    HW211577   0.263   0.158   4.540
 3560SOL     OW11578   1.691   5.532   0.853
 3560SOL    HW111579   1.686   5.623   0.811
 3560SOL    HW211580   1.610   5.479   0.827
 3561SOL     OW11581   4.610   5.304   5.800
 3561SOL    HW111582   4.653   5.322   5.712
 3561SOL    HW211583   4.604   5.205   5.815
 3562SOL     OW11584   4.508   1.110   4.134
 3562SOL    HW111585   4.540   1.195   4.177
 3562SOL    HW211586   4.469   1.050   4.204
 3563SOL     OW11587   5.236   0.963   1.784
 3563SOL    HW111588   5.220   1.048   1.835
 3563SOL    HW211589   5.276   0.985   1.695
 3564SOL     OW11590   1.461   4.577   4.030
 3564SOL    HW111591   1.533   4.616   3.973
 3564SOL    HW211592   1.454   4.479   4.013
 3565SOL     OW11593   3.702   6.670   4.753
 3565SOL    HW111594   3.739   6.748   4.702
 3565SOL    HW211595   3.614   6.696   4.794
 3566SOL     OW11596   0.069   3.088   5.996
 3566SOL    HW111597   0.081   3.116   6.091
 3566SOL    HW211598   0.123   3.148   5.937
 3567SOL     OW11599   1.446   2.425   0.158
 3567SOL    HW111600   1.535   2.420   0.203
 3567SOL    HW211601   1.454   2.392   0.064
 3568SOL     OW11602   5.584   5.012   2.787
 3568SOL    HW111603   5.604   4.927   2.739
 3568SOL    HW211604   5.511   4.997   2.854
 3569SOL     OW11605   2.975   3.048   5.308
 3569SOL    HW111606   3.016   3.026   5.219
 3569SOL    HW211607   2.987   2.971   5.370
 3570SOL     OW11608   5.303   0.534   5.361
 3570SOL    HW111609   5.388   0.568   5.320
 3570SOL    HW211610   5.281   0.589   5.441
 3571SOL     OW11611   1.363   0.901   5.053
 3571SOL    HW111612   1.458   0.921   5.073
 3571SOL    HW211613   1.352   0.803   5.036
 3572SOL     OW11614   5.213   3.678   2.497
 3572SOL    HW111615   5.246   3.748   2.561
 3572SOL    HW211616   5.280   3.666   2.424
 3573SOL     OW11617   6.390   4.202   2.379
 3573SOL    HW111618   6.463   4.202   2.310
 3573SOL    HW211619   6.423   4.245   2.463
 3574SOL     OW11620   1.976   3.588   0.010
 3574SOL    HW111621   1.965   3.535   6.952
 3574SOL    HW211622   1.905   3.658   0.015
 3575SOL     OW11623   5.242   5.504   1.337
 3575SOL    HW111624   5.162   5.548   1.295
 3575SOL    HW211625   5.320   5.567   1.333
 3576SOL     OW11626   0.072   2.600   0.247
 3576SOL    HW111627   7.005   2.563   0.239
 3576SOL    HW211628   0.068   2.694   0.280
 3577SOL     OW11629   2.277   3.202   5.472
 3577SOL    HW111630   2.368   3.241   5.462
 3577SOL    HW211631   2.261   3.133   5.401
 3578SOL     OW11632   4.154   2.973   1.094
 3578SOL    HW111633   4.222   3.033   1.052
 3578SOL    HW211634   4.062   3.007   1.072
 3579SOL     OW11635   7.023   3.288   3.107
 3579SOL    HW111636   6.937   3.309   3.154
 3579SOL    HW211637   7.021   3.195   3.073
 3580SOL     OW11638   6.654   3.919   1.241
 3580SOL    HW111639   6.579   3.980   1.215
 3580SOL    HW211640   6.709   3.897   1.160
 3581SOL     OW11641   1.122   6.500   3.252
 3581SOL    HW111642   1.215   6.466   3.267
 3581SOL    HW211643   1.116   6.595   3.280
 3582SOL     OW11644   3.487   5.078   5.451
 3582SOL    HW111645   3.511   5.123   5.365
 3582SOL    HW211646   3.570   5.042   5.494
 3583SOL     OW11647   1.116   4.421   0.488
 3583SOL    HW111648   1.062   4.444   0.408
 3583SOL    HW211649   1.174   4.499   0.513
 3584SOL     OW11650   5.844   4.994   5.526
 3584SOL    HW111651   5.836   5.075   5.585
 3584SOL    HW211652   5.772   4.929   5.550
 3585SOL     OW11653   3.354   1.988   4.874
 3585SOL    HW111654   3.270   2.000   4.820
 3585SOL    HW211655   3.364   2.065   4.937
 3586SOL     OW11656   6.452   2.778   4.227
 3586SOL    HW111657   6.459   2.680   4.244
 3586SOL    HW211658   6.415   2.824   4.308
 3587SOL     OW11659   3.320   5.860   6.799
 3587SOL    HW111660   3.322   5.875   6.898
 3587SOL    HW211661   3.330   5.948   6.752
 3588SOL     OW11662   6.436   4.409   4.114
 3588SOL    HW111663   6.498   4.483   4.090
 3588SOL    HW211664   6.362   4.444   4.172
 3589SOL     OW11665   6.838   0.145   6.164
 3589SOL    HW111666   6.762   0.090   6.128
 3589SOL    HW211667   6.920   0.089   6.168
 3590SOL     OW11668   6.973   4.062   0.402
 3590SOL    HW111669   6.934   4.150   0.375
 3590SOL    HW211670   0.038   4.077   0.441
 3591SOL     OW11671   5.587   2.836   0.270
 3591SOL    HW111672   5.628   2.884   0.193
 3591SOL    HW211673   5.603   2.738   0.261
 3592SOL     OW11674   0.551   0.490   2.376
 3592SOL    HW111675   0.612   0.497   2.454
 3592SOL    HW211676   0.601   0.512   2.292
 3593SOL     OW11677   0.051   4.473   5.731
 3593SOL    HW111678   0.148   4.462   5.710
 3593SOL    HW211679   0.011   4.543   5.672
 3594SOL     OW11680   4.590   6.354   5.063
 3594SOL    HW111681   4.538   6.411   5.127
 3594SOL    HW211682   4.565   6.258   5.077
 3595SOL     OW11683   6.223   6.217   0.183
 3595SOL    HW111684   6.139   6.260   0.215
 3595SOL    HW211685   6.213   6.190   0.088
 3596SOL     OW11686   4.582   2.008   3.205
 3596SOL    HW111687   4.617   1.922   3.243
 3596SOL    HW211688   4.517   2.049   3.268
 3597SOL     OW11689   1.757   3.144   5.775
 3597SOL    HW111690   1.825   3.122   5.704
 3597SOL    HW211691   1.718   3.058   5.810
 3598SOL     OW11692   1.877   6.506   5.552
 3598SOL    HW111693   1.934   6.444   5.496
 3598SOL    HW211694   1.909   6.600   5.540
 3599SOL     OW11695   4.858   1.695   6.130
 3599SOL    HW111696   4.931   1.759   6.107
 3599SOL    HW211697   4.843   1.633   6.054
 3600SOL     OW11698   1.805   3.484   1.135
 3600SOL    HW111699   1.764   3.533   1.212
 3600SOL    HW211700   1.794   3.538   1.052
 3601SOL     OW11701   5.280   1.822   5.409
 3601SOL    HW111702   5.296   1.903   5.353
 3601SOL    HW211703   5.293   1.846   5.505
 3602SOL     OW11704   2.244   2.730   1.495
 3602SOL    HW111705   2.267   2.637   1.524
 3602SOL    HW211706   2.246   2.736   1.396
 3603SOL     OW11707   3.425   1.062   6.424
 3603SOL    HW111708   3.502   1.126   6.414
 3603SOL    HW211709   3.345   1.111   6.457
 3604SOL     OW11710   6.698   0.556   3.437
 3604SOL    HW111711   6.735   0.573   3.528
 3604SOL    HW211712   6.700   0.458   3.418
 3605SOL     OW11713   1.523   5.325   4.056
 3605SOL    HW111714   1.564   5.362   4.140
 3605SOL    HW211715   1.596   5.286   3.999
 3606SOL     OW11716   1.763   6.192   1.665
 3606SOL    HW111717   1.813   6.106   1.655
 3606SOL    HW211718   1.665   6.173   1.660
 3607SOL     OW11719   5.315   2.840   2.632
 3607SOL    HW111720   5.344   2.783   2.709
 3607SOL    HW211721   5.249   2.909   2.665
 3608SOL     OW11722   4.962   2.035   4.105
 3608SOL    HW111723   4.939   2.120   4.153
 3608SOL    HW211724   4.991   1.967   4.172
 3609SOL     OW11725   2.358   6.536   4.548
 3609SOL    HW111726   2.414   6.505   4.625
 3609SOL    HW211727   2.332   6.631   4.563
 3610SOL     OW11728   1.978   0.226   5.712
 3610SOL    HW111729   1.892   0.272   5.691
 3610SOL    HW211730   2.053   0.292   5.703
 3611SOL     OW11731   4.642   4.346   4.353
 3611SOL    HW111732   4.574   4.371   4.283
 3611SOL    HW211733   4.683   4.259   4.328
 3612SOL     OW11734   6.558   1.607   6.536
 3612SOL    HW111735   6.464   1.575   6.531
 3612SOL    HW211736   6.617   1.546   6.485
 3613SOL     OW11737   4.668   5.014   1.776
 3613SOL    HW111738   4.660   4.949   1.701
 3613SOL    HW211739   4.742   4.985   1.837
 3614SOL     OW11740   3.069   3.748   6.975
 3614SOL    HW111741   3.027   3.658   6.976
 3614SOL    HW211742   3.040   3.798   6.894
 3615SOL     OW11743   5.659   3.385   5.768
 3615SOL    HW111744   5.584   3.321   5.754
 3615SOL    HW211745   5.724   3.378   5.693
 3616SOL     OW11746   1.825   2.360   6.192
 3616SOL    HW111747   1.814   2.374   6.093
 3616SOL    HW211748   1.917   2.328   6.211
 3617SOL     OW11749   4.365   6.352   5.851
 3617SOL    HW111750   4.288   6.372   5.790
 3617SOL    HW211751   4.338   6.372   5.945
 3618SOL     OW11752   2.112   3.517   5.100
 3618SOL    HW111753   2.199   3.528   5.148
 3618SOL    HW211754   2.077   3.424   5.115
 3619SOL     OW11755   5.653   3.504   0.461
 3619SOL    HW111756   5.642   3.431   0.528
 3619SOL    HW211757   5.588   3.577   0.479
 3620SOL     OW11758   6.170   6.016   4.423
 3620SOL    HW111759   6.089   5.972   4.462
 3620SOL    HW211760   6.220   5.951   4.366
 3621SOL     OW11761   3.773   3.284   4.049
 3621SOL    HW111762   3.680   3.280   4.014
 3621SOL    HW211763   3.798   3.379   4.066
 3622SOL     OW11764   0.812   0.837   1.256
 3622SOL    HW111765   0.783   0.742   1.268
 3622SOL    HW211766   0.771   0.894   1.327
 3623SOL     OW11767   0.506   5.542   5.857
 3623SOL    HW111768   0.549   5.617   5.806
 3623SOL    HW211769   0.566   5.462   5.856
 3624SOL     OW11770   1.932   0.323   1.488
 3624SOL    HW111771   2.028   0.302   1.473
 3624SOL    HW211772   1.924   0.412   1.534
 3625SOL     OW11773   6.976   2.997   6.806
 3625SOL    HW111774   0.019   2.925   6.803
 3625SOL    HW211775   6.912   2.985   6.730
 3626SOL     OW11776   0.183   3.837   4.251
 3626SOL    HW111777   0.142   3.782   4.323
 3626SOL    HW211778   0.237   3.778   4.191
 3627SOL     OW11779   4.693   3.137   1.095
 3627SOL    HW111780   4.785   3.147   1.135
 3627SOL    HW211781   4.650   3.227   1.089
 3628SOL     OW11782   1.215   1.924   2.080
 3628SOL    HW111783   1.173   1.870   2.007
 3628SOL    HW211784   1.144   1.970   2.132
 3629SOL     OW11785   1.277   0.734   3.677
 3629SOL    HW111786   1.292   0.806   3.610
 3629SOL    HW211787   1.232   0.656   3.632
 3630SOL     OW11788   6.844   2.485   2.794
 3630SOL    HW111789   6.804   2.530   2.713
 3630SOL    HW211790   6.771   2.464   2.859
 3631SOL     OW11791   2.094   0.028   3.200
 3631SOL    HW111792   2.165   0.082   3.154
 3631SOL    HW211793   2.038   0.087   3.258
 3632SOL     OW11794   4.356   3.617   0.671
 3632SOL    HW111795   4.409   3.698   0.695
 3632SOL    HW211796   4.314   3.580   0.754
 3633SOL     OW11797   3.461   2.534   5.671
 3633SOL    HW111798   3.371   2.508   5.634
 3633SOL    HW211799   3.512   2.451   5.694
 3634SOL     OW11800   2.680   6.437   5.793
 3634SOL    HW111801   2.620   6.515   5.775
 3634SOL    HW211802   2.628   6.353   5.786
 3635SOL     OW11803   2.769   1.370   1.625
 3635SOL    HW111804   2.828   1.356   1.705
 3635SOL    HW211805   2.809   1.323   1.546
 3636SOL     OW11806   6.794   5.248   0.680
 3636SOL    HW111807   6.836   5.219   0.766
 3636SOL    HW211808   6.776   5.347   0.683
 3637SOL     OW11809   0.665   3.227   6.995
 3637SOL    HW111810   0.570   3.239   6.967
 3637SOL    HW211811   0.726   3.253   6.921
 3638SOL     OW11812   6.540   3.705   2.791
 3638SOL    HW111813   6.478   3.780   2.814
 3638SOL    HW211814   6.626   3.742   2.756
 3639SOL     OW11815   3.911   3.986   4.965
 3639SOL    HW111816   3.994   3.957   4.918
 3639SOL    HW211817   3.835   3.926   4.938
 3640SOL     OW11818   5.413   3.122   0.156
 3640SOL    HW111819   5.348   3.143   0.228
 3640SOL    HW211820   5.500   3.093   0.196
 3641SOL     OW11821   6.245   3.646   0.986
 3641SOL    HW111822   6.167   3.664   0.925
 3641SOL    HW211823   6.329   3.677   0.942
 3642SOL     OW11824   5.812   2.344   6.558
 3642SOL    HW111825   5.789   2.256   6.516
 3642SOL    HW211826   5.867   2.398   6.495
 3643SOL     OW11827   4.353   6.150   6.373
 3643SOL    HW111828   4.335   6.140   6.471
 3643SOL    HW211829   4.278   6.110   6.321
 3644SOL     OW11830   2.148   0.856   1.833
 3644SOL    HW111831   2.171   0.953   1.837
 3644SOL    HW211832   2.059   0.841   1.877
 3645SOL     OW11833   1.548   3.952   4.083
 3645SOL    HW111834   1.613   3.940   4.008
 3645SOL    HW211835   1.590   4.008   4.155
 3646SOL     OW11836   2.779   4.825   4.911
 3646SOL    HW111837   2.795   4.750   4.976
 3646SOL    HW211838   2.707   4.885   4.946
 3647SOL     OW11839   2.050   6.842   0.283
 3647SOL    HW111840   2.116   6.770   0.262
 3647SOL    HW211841   2.004   6.871   0.199
 3648SOL     OW11842   5.013   5.701   3.279
 3648SOL    HW111843   5.100   5.665   3.245
 3648SOL    HW211844   5.028   5.747   3.367
 3649SOL     OW11845   5.862   3.381   6.829
 3649SOL    HW111846   5.883   3.478   6.816
 3649SOL    HW211847   5.801   3.371   6.908
 3650SOL     OW11848   4.726   4.573   1.001
 3650SOL    HW111849   4.641   4.620   1.022
 3650SOL    HW211850   4.732   4.557   0.902
 3651SOL     OW11851   1.832   2.240   5.554
 3651SOL    HW111852   1.903   2.296   5.512
 3651SOL    HW211853   1.746   2.251   5.504
 3652SOL     OW11854   5.447   0.825   2.472
 3652SOL    HW111855   5.394   0.818   2.387
 3652SOL    HW211856   5.403   0.769   2.543
 3653SOL     OW11857   1.137   1.133   2.100
 3653SOL    HW111858   1.098   1.045   2.127
 3653SOL    HW211859   1.229   1.142   2.139
 3654SOL     OW11860   5.178   6.262   1.113
 3654SOL    HW111861   5.183   6.171   1.073
 3654SOL    HW211862   5.110   6.316   1.065
 3655SOL     OW11863   2.997   1.043   4.429
 3655SOL    HW111864   2.923   0.991   4.386
 3655SOL    HW211865   3.080   1.034   4.374
 3656SOL     OW11866   1.236   5.627   2.322
 3656SOL    HW111867   1.286   5.605   2.406
 3656SOL    HW211868   1.180   5.549   2.295
 3657SOL     OW11869   5.097   6.430   5.505
 3657SOL    HW111870   5.122   6.505   5.566
 3657SOL    HW211871   5.149   6.438   5.420
 3658SOL     OW11872   1.453   5.866   6.791
 3658SOL    HW111873   1.429   5.954   6.831
 3658SOL    HW211874   1.539   5.875   6.740
 3659SOL     OW11875   0.070   1.658   6.211
 3659SOL    HW111876   0.130   1.622   6.283
 3659SOL    HW211877   7.001   1.653   6.242
 3660SOL     OW11878   5.171   5.837   5.577
 3660SOL    HW111879   5.076   5.857   5.604
 3660SOL    HW211880   5.196   5.745   5.607
 3661SOL     OW11881   6.995   1.275   4.777
 3661SOL    HW111882   6.899   1.249   4.777
 3661SOL    HW211883   7.004   1.371   4.749
 3662SOL     OW11884   3.768   0.876   5.900
 3662SOL    HW111885   3.794   0.961   5.947
 3662SOL    HW211886   3.668   0.874   5.891
 3663SOL     OW11887   2.424   3.107   0.293
 3663SOL    HW111888   2.392   3.202   0.289
 3663SOL    HW211889   2.345   3.046   0.298
 3664SOL     OW11890   4.502   1.515   2.058
 3664SOL    HW111891   4.500   1.609   2.024
 3664SOL    HW211892   4.412   1.473   2.047
 3665SOL     OW11893   0.451   6.708   5.463
 3665SOL    HW111894   0.542   6.716   5.423
 3665SOL    HW211895   0.384   6.690   5.390
 3666SOL     OW11896   1.814   2.604   3.725
 3666SOL    HW111897   1.725   2.560   3.713
 3666SOL    HW211898   1.803   2.690   3.774
 3667SOL     OW11899   1.266   1.641   2.518
 3667SOL    HW111900   1.240   1.600   2.606
 3667SOL    HW211901   1.304   1.732   2.534
 3668SOL     OW11902   1.417   0.177   1.770
 3668SOL    HW111903   1.500   0.149   1.722
 3668SOL    HW211904   1.340   0.125   1.736
 3669SOL     OW11905   6.135   2.378   4.125
 3669SOL    HW111906   6.226   2.403   4.092
 3669SOL    HW211907   6.117   2.425   4.211
 3670SOL     OW11908   3.728   5.206   1.343
 3670SOL    HW111909   3.650   5.145   1.355
 3670SOL    HW211910   3.702   5.299   1.366
 3671SOL     OW11911   6.671   0.258   3.368
 3671SOL    HW111912   6.768   0.278   3.356
 3671SOL    HW211913   6.659   0.185   3.435
 3672SOL     OW11914   5.139   0.880   2.717
 3672SOL    HW111915   5.124   0.890   2.816
 3672SOL    HW211916   5.141   0.970   2.674
 3673SOL     OW11917   4.954   5.933   0.465
 3673SOL    HW111918   4.860   5.901   0.461
 3673SOL    HW211919   4.968   6.008   0.401
 3674SOL     OW11920   1.828   5.843   5.755
 3674SOL    HW111921   1.813   5.752   5.717
 3674SOL    HW211922   1.917   5.846   5.800
 3675SOL     OW11923   0.195   1.868   3.925
 3675SOL    HW111924   0.260   1.824   3.987
 3675SOL    HW211925   0.107   1.821   3.931
 3676SOL     OW11926   5.027   2.836   2.964
 3676SOL    HW111927   4.945   2.893   2.963
 3676SOL    HW211928   5.108   2.894   2.965
 3677SOL     OW11929   1.939   0.930   4.204
 3677SOL    HW111930   1.950   0.847   4.258
 3677SOL    HW211931   2.028   0.971   4.186
 3678SOL     OW11932   1.623   0.429   3.703
 3678SOL    HW111933   1.640   0.332   3.684
 3678SOL    HW211934   1.710   0.476   3.715
 3679SOL     OW11935   4.971   0.466   2.824
 3679SOL    HW111936   4.959   0.367   2.823
 3679SOL    HW211937   4.925   0.504   2.905
 3680SOL     OW11938   4.731   1.758   3.312
 3680SOL    HW111939   4.744   1.804   3.400
 3680SOL    HW211940   4.806   1.782   3.251
 3681SOL     OW11941   1.469   0.587   4.984
 3681SOL    HW111942   1.445   0.614   4.891
 3681SOL    HW211943   1.547   0.525   4.982
 3682SOL     OW11944   5.282   2.607   0.756
 3682SOL    HW111945   5.216   2.535   0.774
 3682SOL    HW211946   5.245   2.695   0.787
 3683SOL     OW11947   0.304   0.598   4.838
 3683SOL    HW111948   0.372   0.633   4.902
 3683SOL    HW211949   0.222   0.572   4.889
 3684SOL     OW11950   1.963   6.749   5.504
 3684SOL    HW111951   2.018   6.795   5.435
 3684SOL    HW211952   1.990   6.781   5.595
 3685SOL     OW11953   2.475   6.045   5.340
 3685SOL    HW111954   2.405   6.085   5.399
 3685SOL    HW211955   2.564   6.053   5.384
 3686SOL     OW11956   6.290   3.324   3.367
 3686SOL    HW111957   6.224   3.308   3.293
 3686SOL    HW211958   6.381   3.299   3.335
 3687SOL     OW11959   4.738   5.742   3.528
 3687SOL    HW111960   4.724   5.710   3.434
 3687SOL    HW211961   4.820   5.798   3.532
 3688SOL     OW11962   6.109   3.033   0.077
 3688SOL    HW111963   6.173   2.965   0.041
 3688SOL    HW211964   6.026   3.033   0.021
 3689SOL     OW11965   2.161   1.674   5.119
 3689SOL    HW111966   2.245   1.627   5.091
 3689SOL    HW211967   2.093   1.669   5.045
 3690SOL     OW11968   5.254   5.352   1.068
 3690SOL    HW111969   5.306   5.409   1.004
 3690SOL    HW211970   5.286   5.370   1.161
 3691SOL     OW11971   2.953   1.938   6.616
 3691SOL    HW111972   2.988   1.866   6.676
 3691SOL    HW211973   2.884   1.899   6.555
 3692SOL     OW11974   0.063   3.944   6.174
 3692SOL    HW111975   0.129   3.879   6.212
 3692SOL    HW211976   0.096   4.037   6.189
 3693SOL     OW11977   0.839   1.802   2.827
 3693SOL    HW111978   0.905   1.728   2.813
 3693SOL    HW211979   0.753   1.763   2.860
 3694SOL     OW11980   0.901   0.825   1.901
 3694SOL    HW111981   0.818   0.829   1.847
 3694SOL    HW211982   0.878   0.824   1.998
 3695SOL     OW11983   6.584   2.403   2.463
 3695SOL    HW111984   6.665   2.458   2.485
 3695SOL    HW211985   6.611   2.321   2.413
 3696SOL     OW11986   4.861   0.912   4.829
 3696SOL    HW111987   4.898   0.843   4.768
 3696SOL    HW211988   4.933   0.976   4.855
 3697SOL     OW11989   6.452   6.138   3.554
 3697SOL    HW111990   6.550   6.135   3.532
 3697SOL    HW211991   6.423   6.049   3.588
 3698SOL     OW11992   1.568   0.452   3.375
 3698SOL    HW111993   1.535   0.440   3.282
 3698SOL    HW211994   1.506   0.513   3.425
 3699SOL     OW11995   2.678   1.893   4.186
 3699SOL    HW111996   2.605   1.951   4.149
 3699SOL    HW211997   2.679   1.901   4.286
 3700SOL     OW11998   1.742   5.122   4.844
 3700SOL    HW111999   1.817   5.057   4.831
 3700SOL    HW212000   1.779   5.215   4.850
 3701SOL     OW12001   0.965   6.699   2.828
 3701SOL    HW112002   0.996   6.629   2.894
 3701SOL    HW212003   1.022   6.781   2.838
 3702SOL     OW12004   5.370   5.335   3.886
 3702SOL    HW112005   5.423   5.336   3.801
 3702SOL    HW212006   5.432   5.343   3.964
 3703SOL     OW12007   1.370   1.295   5.746
 3703SOL    HW112008   1.373   1.300   5.846
 3703SOL    HW212009   1.382   1.200   5.717
 3704SOL     OW12010   6.052   2.577   1.091
 3704SOL    HW112011   5.993   2.654   1.067
 3704SOL    HW212012   6.124   2.607   1.154
 3705SOL     OW12013   4.869   4.702   3.862
 3705SOL    HW112014   4.915   4.670   3.945
 3705SOL    HW212015   4.863   4.802   3.863
 3706SOL     OW12016   1.109   3.917   0.566
 3706SOL    HW112017   1.072   3.884   0.653
 3706SOL    HW212018   1.053   3.883   0.491
 3707SOL     OW12019   2.837   4.813   3.876
 3707SOL    HW112020   2.861   4.799   3.972
 3707SOL    HW212021   2.748   4.859   3.870
 3708SOL     OW12022   3.596   6.884   1.210
 3708SOL    HW112023   3.547   6.801   1.185
 3708SOL    HW212024   3.539   6.940   1.270
 3709SOL     OW12025   1.962   0.534   2.372
 3709SOL    HW112026   1.898   0.526   2.448
 3709SOL    HW212027   1.921   0.495   2.290
 3710SOL     OW12028   0.661   5.152   5.758
 3710SOL    HW112029   0.564   5.125   5.755
 3710SOL    HW212030   0.707   5.120   5.675
 3711SOL     OW12031   1.601   6.095   5.032
 3711SOL    HW112032   1.697   6.114   5.047
 3711SOL    HW212033   1.581   6.094   4.934
 3712SOL     OW12034   2.238   5.730   5.500
 3712SOL    HW112035   2.186   5.814   5.515
 3712SOL    HW212036   2.276   5.730   5.407
 3713SOL     OW12037   6.913   6.810   4.725
 3713SOL    HW112038   6.852   6.888   4.721
 3713SOL    HW212039   6.860   6.727   4.741
 3714SOL     OW12040   0.982   4.879   0.197
 3714SOL    HW112041   0.904   4.828   0.233
 3714SOL    HW212042   1.062   4.863   0.255
 3715SOL     OW12043   6.867   6.119   3.610
 3715SOL    HW112044   6.823   6.121   3.700
 3715SOL    HW212045   6.945   6.056   3.612
 3716SOL     OW12046   6.343   5.674   4.088
 3716SOL    HW112047   6.412   5.738   4.055
 3716SOL    HW212048   6.270   5.665   4.019
 3717SOL     OW12049   4.873   1.121   1.152
 3717SOL    HW112050   4.838   1.027   1.161
 3717SOL    HW212051   4.895   1.139   1.056
 3718SOL     OW12052   6.828   6.774   6.408
 3718SOL    HW112053   6.815   6.864   6.450
 3718SOL    HW212054   6.842   6.705   6.480
 3719SOL     OW12055   4.281   3.549   6.405
 3719SOL    HW112056   4.315   3.498   6.484
 3719SOL    HW212057   4.339   3.532   6.326
 3720SOL     OW12058   6.444   3.196   0.936
 3720SOL    HW112059   6.457   3.283   0.984
 3720SOL    HW212060   6.511   3.188   0.862
 3721SOL     OW12061   6.255   4.967   6.768
 3721SOL    HW112062   6.299   4.887   6.809
 3721SOL    HW212063   6.304   4.992   6.685
 3722SOL     OW12064   3.937   0.293   1.989
 3722SOL    HW112065   3.884   0.208   1.982
 3722SOL    HW212066   3.878   0.366   2.025
 3723SOL     OW12067   4.336   5.296   0.402
 3723SOL    HW112068   4.376   5.242   0.476
 3723SOL    HW212069   4.378   5.387   0.401
 3724SOL     OW12070   1.474   4.675   5.371
 3724SOL    HW112071   1.539   4.601   5.387
 3724SOL    HW212072   1.485   4.710   5.278
 3725SOL     OW12073   0.073   6.191   0.175
 3725SOL    HW112074   0.091   6.176   0.272
 3725SOL    HW212075   0.101   6.284   0.150
 3726SOL     OW12076   5.250   4.061   3.881
 3726SOL    HW112077   5.270   4.005   3.961
 3726SOL    HW212078   5.292   4.152   3.892
 3727SOL     OW12079   0.190   2.568   4.212
 3727SOL    HW112080   0.261   2.626   4.252
 3727SOL    HW212081   0.126   2.540   4.284
 3728SOL     OW12082   3.360   3.659   0.586
 3728SOL    HW112083   3.402   3.683   0.498
 3728SOL    HW212084   3.268   3.622   0.570
 3729SOL     OW12085   0.568   0.416   5.408
 3729SOL    HW112086   0.508   0.493   5.431
 3729SOL    HW212087   0.663   0.440   5.426
 3730SOL     OW12088   4.459   6.391   6.269
 3730SOL    HW112089   4.415   6.308   6.303
 3730SOL    HW212090   4.553   6.396   6.303
 3731SOL     OW12091   0.220   1.608   6.403
 3731SOL    HW112092   0.287   1.534   6.400
 3731SOL    HW212093   0.214   1.644   6.497
 3732SOL     OW12094   2.631   1.611   0.487
 3732SOL    HW112095   2.626   1.689   0.549
 3732SOL    HW212096   2.620   1.643   0.392
 3733SOL     OW12097   1.985   2.869   3.880
 3733SOL    HW112098   1.952   2.879   3.786
 3733SOL    HW212099   2.027   2.779   3.891
 3734SOL     OW12100   4.228   0.170   1.657
 3734SOL    HW112101   4.181   0.219   1.730
 3734SOL    HW212102   4.300   0.112   1.696
 3735SOL     OW12103   4.175   6.992   2.379
 3735SOL    HW112104   4.091   6.966   2.331
 3735SOL    HW212105   4.152   0.027   2.454
 3736SOL     OW12106   6.557   1.123   1.278
 3736SOL    HW112107   6.495   1.047   1.259
 3736SOL    HW212108   6.507   1.196   1.326
 3737SOL     OW12109   6.826   2.323   3.389
 3737SOL    HW112110   6.908   2.368   3.426
 3737SOL    HW212111   6.759   2.309   3.463
 3738SOL     OW12112   6.544   6.051   0.589
 3738SOL    HW112113   6.504   6.059   0.498
 3738SOL    HW212114   6.514   5.965   0.631
 3739SOL     OW12115   3.222   4.956   1.816
 3739SOL    HW112116   3.182   5.001   1.896
 3739SOL    HW212117   3.156   4.890   1.778
 3740SOL     OW12118   5.854   5.601   6.311
 3740SOL    HW112119   5.836   5.513   6.268
 3740SOL    HW212120   5.953   5.611   6.327
 3741SOL     OW12121   5.287   2.867   0.192
 3741SOL    HW112122   5.276   2.852   0.291
 3741SOL    HW212123   5.370   2.921   0.177
 3742SOL     OW12124   4.455   5.574   0.384
 3742SOL    HW112125   4.471   5.670   0.362
 3742SOL    HW212126   4.485   5.556   0.478
 3743SOL     OW12127   3.940   3.744   1.159
 3743SOL    HW112128   3.972   3.663   1.110
 3743SOL    HW212129   3.849   3.770   1.126
 3744SOL     OW12130   0.889   6.316   1.845
 3744SOL    HW112131   0.804   6.315   1.897
 3744SOL    HW212132   0.964   6.343   1.905
 3745SOL     OW12133   4.958   3.571   2.466
 3745SOL    HW112134   5.053   3.596   2.444
 3745SOL    HW212135   4.923   3.509   2.395
 3746SOL     OW12136   6.505   0.125   3.753
 3746SOL    HW112137   6.475   0.053   3.690
 3746SOL    HW212138   6.601   0.145   3.737
 3747SOL     OW12139   4.661   6.784   6.371
 3747SOL    HW112140   4.581   6.744   6.328
 3747SOL    HW212141   4.637   6.818   6.462
 3748SOL     OW12142   5.692   1.106   2.674
 3748SOL    HW112143   5.666   1.112   2.770
 3748SOL    HW212144   5.684   1.011   2.643
 3749SOL     OW12145   0.809   4.869   2.717
 3749SOL    HW112146   0.756   4.950   2.742
 3749SOL    HW212147   0.835   4.874   2.621
 3750SOL     OW12148   5.669   4.111   0.241
 3750SOL    HW112149   5.578   4.146   0.262
 3750SOL    HW212150   5.673   4.013   0.261
 3751SOL     OW12151   1.800   3.205   1.138
 3751SOL    HW112152   1.812   3.304   1.139
 3751SOL    HW212153   1.853   3.165   1.064
 3752SOL     OW12154   0.146   6.955   6.881
 3752SOL    HW112155   0.190   6.871   6.851
 3752SOL    HW212156   0.177   6.977   6.974
 3753SOL     OW12157   0.816   6.177   4.125
 3753SOL    HW112158   0.723   6.211   4.109
 3753SOL    HW212159   0.842   6.192   4.220
 3754SOL     OW12160   5.488   6.662   1.088
 3754SOL    HW112161   5.440   6.577   1.111
 3754SOL    HW212162   5.421   6.732   1.064
 3755SOL     OW12163   5.233   4.845   3.744
 3755SOL    HW112164   5.145   4.880   3.711
 3755SOL    HW212165   5.237   4.747   3.729
 3756SOL     OW12166   2.001   2.149   6.080
 3756SOL    HW112167   2.090   2.106   6.097
 3756SOL    HW212168   2.009   2.214   6.005
 3757SOL     OW12169   3.152   5.633   5.544
 3757SOL    HW112170   3.134   5.714   5.488
 3757SOL    HW212171   3.072   5.614   5.601
 3758SOL     OW12172   2.421   0.970   5.064
 3758SOL    HW112173   2.504   1.006   5.106
 3758SOL    HW212174   2.391   0.890   5.115
 3759SOL     OW12175   5.021   5.077   5.782
 3759SOL    HW112176   5.079   5.000   5.753
 3759SOL    HW212177   4.942   5.084   5.721
 3760SOL     OW12178   1.362   3.171   3.841
 3760SOL    HW112179   1.303   3.102   3.882
 3760SOL    HW212180   1.441   3.187   3.900
 3761SOL     OW12181   0.543   6.759   4.897
 3761SOL    HW112182   0.524   6.823   4.823
 3761SOL    HW212183   0.465   6.758   4.961
 3762SOL     OW12184   0.684   4.286   0.619
 3762SOL    HW112185   0.666   4.296   0.521
 3762SOL    HW212186   0.598   4.279   0.669
 3763SOL     OW12187   6.364   3.656   6.324
 3763SOL    HW112188   6.356   3.651   6.423
 3763SOL    HW212189   6.314   3.580   6.283
 3764SOL     OW12190   1.842   0.529   4.314
 3764SOL    HW112191   1.791   0.501   4.396
 3764SOL    HW212192   1.904   0.603   4.337
 3765SOL     OW12193   4.983   0.823   3.452
 3765SOL    HW112194   4.961   0.843   3.547
 3765SOL    HW212195   4.992   0.908   3.401
 3766SOL     OW12196   0.507   1.156   4.015
 3766SOL    HW112197   0.455   1.116   3.939
 3766SOL    HW212198   0.455   1.148   4.100
 3767SOL     OW12199   1.590   5.076   0.187
 3767SOL    HW112200   1.644   5.000   0.151
 3767SOL    HW212201   1.572   5.061   0.284
 3768SOL     OW12202   4.560   6.375   6.703
 3768SOL    HW112203   4.501   6.444   6.662
 3768SOL    HW212204   4.533   6.284   6.670
 3769SOL     OW12205   5.744   5.970   4.792
 3769SOL    HW112206   5.785   6.056   4.821
 3769SOL    HW212207   5.812   5.897   4.795
 3770SOL     OW12208   1.818   1.578   5.901
 3770SOL    HW112209   1.860   1.665   5.928
 3770SOL    HW212210   1.878   1.530   5.837
 3771SOL     OW12211   4.781   2.268   0.557
 3771SOL    HW112212   4.722   2.347   0.540
 3771SOL    HW212213   4.877   2.295   0.552
 3772SOL     OW12214   6.075   1.031   1.241
 3772SOL    HW112215   6.016   0.952   1.227
 3772SOL    HW212216   6.171   1.005   1.227
 3773SOL     OW12217   5.821   3.475   5.568
 3773SOL    HW112218   5.908   3.493   5.614
 3773SOL    HW212219   5.755   3.545   5.595
 3774SOL     OW12220   1.146   0.088   6.524
 3774SOL    HW112221   1.111   0.123   6.438
 3774SOL    HW212222   1.246   0.095   6.525
 3775SOL     OW12223   5.696   3.851   2.942
 3775SOL    HW112224   5.604   3.830   2.908
 3775SOL    HW212225   5.746   3.904   2.874
 3776SOL     OW12226   2.216   2.189   1.287
 3776SOL    HW112227   2.203   2.286   1.267
 3776SOL    HW212228   2.128   2.142   1.288
 3777SOL     OW12229   2.968   5.299   4.683
 3777SOL    HW112230   2.930   5.280   4.593
 3777SOL    HW212231   2.942   5.225   4.746
 3778SOL     OW12232   2.498   5.924   2.697
 3778SOL    HW112233   2.543   5.883   2.618
 3778SOL    HW212234   2.552   5.908   2.779
 3779SOL     OW12235   2.474   4.472   0.157
 3779SOL    HW112236   2.506   4.377   0.166
 3779SOL    HW212237   2.491   4.503   0.063
 3780SOL     OW12238   3.176   5.838   5.012
 3780SOL    HW112239   3.228   5.890   5.079
 3780SOL    HW212240   3.150   5.750   5.051
 3781SOL     OW12241   2.599   6.602   4.030
 3781SOL    HW112242   2.602   6.534   3.956
 3781SOL    HW212243   2.642   6.564   4.112
 3782SOL     OW12244   2.892   1.538   4.446
 3782SOL    HW112245   2.868   1.536   4.349
 3782SOL    HW212246   2.935   1.626   4.467
 3783SOL     OW12247   6.124   6.582   4.734
 3783SOL    HW112248   6.108   6.537   4.646
 3783SOL    HW212249   6.038   6.590   4.784
 3784SOL     OW12250   6.220   1.051   3.528
 3784SOL    HW112251   6.227   1.118   3.602
 3784SOL    HW212252   6.145   1.077   3.468
 3785SOL     OW12253   2.633   1.702   0.228
 3785SOL    HW112254   2.548   1.754   0.217
 3785SOL    HW212255   2.682   1.699   0.142
 3786SOL     OW12256   2.981   4.860   3.640
 3786SOL    HW112257   2.981   4.957   3.665
 3786SOL    HW212258   2.930   4.808   3.709
 3787SOL     OW12259   5.480   1.089   4.256
 3787SOL    HW112260   5.546   1.062   4.186
 3787SOL    HW212261   5.529   1.114   4.340
 3788SOL     OW12262   6.600   2.584   3.815
 3788SOL    HW112263   6.576   2.601   3.719
 3788SOL    HW212264   6.525   2.537   3.861
 3789SOL     OW12265   1.393   4.387   4.242
 3789SOL    HW112266   1.484   4.346   4.250
 3789SOL    HW212267   1.400   4.475   4.194
 3790SOL     OW12268   2.117   3.613   4.853
 3790SOL    HW112269   2.100   3.548   4.779
 3790SOL    HW212270   2.102   3.567   4.941
 3791SOL     OW12271   5.210   6.547   1.176
 3791SOL    HW112272   5.118   6.510   1.186
 3791SOL    HW212273   5.205   6.647   1.169
 3792SOL     OW12274   6.402   0.161   5.206
 3792SOL    HW112275   6.484   0.125   5.250
 3792SOL    HW212276   6.428   0.221   5.130
 3793SOL     OW12277   2.105   1.239   2.499
 3793SOL    HW112278   2.089   1.336   2.520
 3793SOL    HW212279   2.113   1.227   2.400
 3794SOL     OW12280   4.063   5.632   1.856
 3794SOL    HW112281   3.969   5.666   1.850
 3794SOL    HW212282   4.083   5.607   1.951
 3795SOL     OW12283   5.064   0.588   6.905
 3795SOL    HW112284   5.100   0.552   6.819
 3795SOL    HW212285   4.971   0.622   6.890
 3796SOL     OW12286   1.394   2.092   1.203
 3796SOL    HW112287   1.451   2.022   1.245
 3796SOL    HW212288   1.328   2.049   1.141
 3797SOL     OW12289   0.922   5.244   1.916
 3797SOL    HW112290   0.910   5.168   1.980
 3797SOL    HW212291   0.834   5.288   1.901
 3798SOL     OW12292   2.634   4.658   3.294
 3798SOL    HW112293   2.687   4.691   3.216
 3798SOL    HW212294   2.537   4.670   3.275
 3799SOL     OW12295   1.047   1.589   4.832
 3799SOL    HW112296   1.069   1.627   4.742
 3799SOL    HW212297   1.131   1.572   4.883
 3800SOL     OW12298   5.031   2.222   4.811
 3800SOL    HW112299   5.035   2.164   4.730
 3800SOL    HW212300   5.028   2.165   4.893
 3801SOL     OW12301   6.721   6.081   5.268
 3801SOL    HW112302   6.744   6.021   5.191
 3801SOL    HW212303   6.622   6.097   5.269
 3802SOL     OW12304   1.069   2.263   4.745
 3802SOL    HW112305   0.987   2.207   4.738
 3802SOL    HW212306   1.149   2.208   4.721
 3803SOL     OW12307   4.436   0.382   1.954
 3803SOL    HW112308   4.343   0.367   1.922
 3803SOL    HW212309   4.487   0.434   1.885
 3804SOL     OW12310   4.542   1.748   4.825
 3804SOL    HW112311   4.553   1.649   4.815
 3804SOL    HW212312   4.451   1.775   4.795
 3805SOL     OW12313   2.873   4.331   1.695
 3805SOL    HW112314   2.860   4.410   1.755
 3805SOL    HW212315   2.871   4.362   1.599
 3806SOL     OW12316   3.391   3.114   0.183
 3806SOL    HW112317   3.306   3.108   0.236
 3806SOL    HW212318   3.458   3.051   0.221
 3807SOL     OW12319   1.391   6.914   4.122
 3807SOL    HW112320   1.352   6.875   4.039
 3807SOL    HW212321   1.406   7.012   4.109
 3808SOL     OW12322   2.910   0.399   2.249
 3808SOL    HW112323   2.949   0.340   2.320
 3808SOL    HW212324   2.922   0.494   2.276
 3809SOL     OW12325   6.178   1.881   0.021
 3809SOL    HW112326   6.120   1.949   7.003
 3809SOL    HW212327   6.168   1.887   0.120
 3810SOL     OW12328   3.067   2.988   5.717
 3810SOL    HW112329   3.082   3.003   5.815
 3810SOL    HW212330   3.095   3.069   5.666
 3811SOL     OW12331   0.780   4.084   4.335
 3811SOL    HW112332   0.721   4.028   4.276
 3811SOL    HW212333   0.855   4.028   4.370
 3812SOL     OW12334   6.492   2.521   5.829
 3812SOL    HW112335   6.482   2.422   5.819
 3812SOL    HW212336   6.527   2.560   5.743
 3813SOL     OW12337   3.449   5.527   1.007
 3813SOL    HW112338   3.545   5.548   0.984
 3813SOL    HW212339   3.429   5.432   0.983
 3814SOL     OW12340   6.574   6.041   1.421
 3814SOL    HW112341   6.642   6.038   1.494
 3814SOL    HW212342   6.617   6.076   1.338
 3815SOL     OW12343   5.079   2.289   1.124
 3815SOL    HW112344   5.054   2.192   1.127
 3815SOL    HW212345   5.128   2.313   1.208
 3816SOL     OW12346   6.761   6.693   2.198
 3816SOL    HW112347   6.732   6.777   2.153
 3816SOL    HW212348   6.694   6.668   2.268
 3817SOL     OW12349   4.476   2.508   4.015
 3817SOL    HW112350   4.562   2.466   4.045
 3817SOL    HW212351   4.496   2.579   3.946
 3818SOL     OW12352   4.378   6.152   2.837
 3818SOL    HW112353   4.376   6.205   2.753
 3818SOL    HW212354   4.447   6.189   2.899
 3819SOL     OW12355   5.631   5.096   0.457
 3819SOL    HW112356   5.536   5.064   0.452
 3819SOL    HW212357   5.637   5.173   0.520
 3820SOL     OW12358   5.392   5.769   4.252
 3820SOL    HW112359   5.444   5.839   4.202
 3820SOL    HW212360   5.300   5.763   4.214
 3821SOL     OW12361   1.809   3.587   1.928
 3821SOL    HW112362   1.740   3.642   1.879
 3821SOL    HW212363   1.887   3.644   1.951
 3822SOL     OW12364   2.164   4.948   1.523
 3822SOL    HW112365   2.259   4.976   1.532
 3822SOL    HW212366   2.159   4.850   1.507
 3823SOL     OW12367   3.963   2.036   5.650
 3823SOL    HW112368   3.875   2.083   5.647
 3823SOL    HW212369   4.001   2.041   5.742
 3824SOL     OW12370   6.166   2.263   6.312
 3824SOL    HW112371   6.098   2.193   6.290
 3824SOL    HW212372   6.198   2.307   6.227
 3825SOL     OW12373   6.980   0.310   6.752
 3825SOL    HW112374   6.933   0.367   6.684
 3825SOL    HW212375   0.025   0.363   6.797
 3826SOL     OW12376   0.071   3.575   0.496
 3826SOL    HW112377   0.163   3.609   0.479
 3826SOL    HW212378   0.016   3.582   0.413
 3827SOL     OW12379   3.677   3.950   0.188
 3827SOL    HW112380   3.636   3.907   0.108
 3827SOL    HW212381   3.607   3.964   0.258
 3828SOL     OW12382   4.466   2.198   1.573
 3828SOL    HW112383   4.482   2.100   1.582
 3828SOL    HW212384   4.368   2.217   1.583
 3829SOL     OW12385   2.235   5.418   3.398
 3829SOL    HW112386   2.182   5.388   3.477
 3829SOL    HW212387   2.184   5.399   3.314
 3830SOL     OW12388   2.381   0.142   5.842
 3830SOL    HW112389   2.365   0.107   5.935
 3830SOL    HW212390   2.469   0.107   5.809
 3831SOL     OW12391   4.301   2.096   2.420
 3831SOL    HW112392   4.227   2.156   2.389
 3831SOL    HW212393   4.281   2.063   2.512
 3832SOL     OW12394   6.292   0.843   1.637
 3832SOL    HW112395   6.329   0.750   1.626
 3832SOL    HW212396   6.360   0.909   1.605
 3833SOL     OW12397   0.657   4.934   0.690
 3833SOL    HW112398   0.557   4.936   0.696
 3833SOL    HW212399   0.684   4.931   0.594
 3834SOL     OW12400   3.271   1.847   0.527
 3834SOL    HW112401   3.223   1.922   0.481
 3834SOL    HW212402   3.204   1.791   0.576
 3835SOL     OW12403   3.802   5.658   6.214
 3835SOL    HW112404   3.735   5.727   6.185
 3835SOL    HW212405   3.881   5.663   6.153
 3836SOL     OW12406   1.655   4.290   6.105
 3836SOL    HW112407   1.687   4.196   6.113
 3836SOL    HW212408   1.564   4.292   6.065
 3837SOL     OW12409   4.648   3.687   0.100
 3837SOL    HW112410   4.660   3.639   0.187
 3837SOL    HW212411   4.554   3.720   0.093
 3838SOL     OW12412   5.645   2.340   4.609
 3838SOL    HW112413   5.618   2.302   4.698
 3838SOL    HW212414   5.734   2.305   4.583
 3839SOL     OW12415   5.857   6.850   4.979
 3839SOL    HW112416   5.912   6.934   4.979
 3839SOL    HW212417   5.825   6.831   5.072
 3840SOL     OW12418   1.516   1.208   4.070
 3840SOL    HW112419   1.428   1.172   4.039
 3840SOL    HW212420   1.559   1.144   4.133
 3841SOL     OW12421   1.180   3.700   5.280
 3841SOL    HW112422   1.278   3.696   5.299
 3841SOL    HW212423   1.133   3.742   5.358
 3842SOL     OW12424   0.774   5.270   0.118
 3842SOL    HW112425   0.683   5.232   0.101
 3842SOL    HW212426   0.768   5.369   0.126
 3843SOL     OW12427   6.211   3.168   0.505
 3843SOL    HW112428   6.206   3.184   0.604
 3843SOL    HW212429   6.121   3.140   0.471
 3844SOL     OW12430   1.955   5.017   5.613
 3844SOL    HW112431   1.898   4.999   5.533
 3844SOL    HW212432   1.925   5.102   5.657
 3845SOL     OW12433   3.308   3.309   3.148
 3845SOL    HW112434   3.227   3.272   3.103
 3845SOL    HW212435   3.384   3.245   3.139
 3846SOL     OW12436   0.130   4.231   4.520
 3846SOL    HW112437   0.189   4.273   4.451
 3846SOL    HW212438   0.041   4.210   4.479
 3847SOL     OW12439   6.816   0.383   6.436
 3847SOL    HW112440   6.796   0.411   6.342
 3847SOL    HW212441   6.745   0.419   6.496
 3848SOL     OW12442   3.022   5.083   1.972
 3848SOL    HW112443   3.032   5.137   2.055
 3848SOL    HW212444   3.008   4.987   1.997
 3849SOL     OW12445   0.708   2.002   5.753
 3849SOL    HW112446   0.725   2.100   5.763
 3849SOL    HW212447   0.759   1.951   5.822
 3850SOL     OW12448   3.152   3.936   1.851
 3850SOL    HW112449   3.248   3.946   1.825
 3850SOL    HW212450   3.138   3.969   1.944
 3851SOL     OW12451   2.061   3.407   3.303
 3851SOL    HW112452   2.038   3.376   3.396
 3851SOL    HW212453   2.111   3.493   3.308
 3852SOL     OW12454   4.304   0.694   5.310
 3852SOL    HW112455   4.373   0.680   5.238
 3852SOL    HW212456   4.244   0.614   5.314
 3853SOL     OW12457   0.697   3.440   2.088
 3853SOL    HW112458   0.668   3.361   2.143
 3853SOL    HW212459   0.666   3.427   1.994
 3854SOL     OW12460   1.026   3.738   4.318
 3854SOL    HW112461   1.102   3.687   4.358
 3854SOL    HW212462   0.957   3.675   4.284
 3855SOL     OW12463   5.915   4.092   5.817
 3855SOL    HW112464   5.995   4.036   5.794
 3855SOL    HW212465   5.888   4.147   5.737
 3856SOL     OW12466   6.919   0.059   5.667
 3856SOL    HW112467   6.843   7.025   5.640
 3856SOL    HW212468   6.886   0.127   5.732
 3857SOL     OW12469   1.279   6.176   4.924
 3857SOL    HW112470   1.349   6.161   4.854
 3857SOL    HW212471   1.190   6.145   4.889
 3858SOL     OW12472   1.816   5.705   6.337
 3858SOL    HW112473   1.765   5.633   6.385
 3858SOL    HW212474   1.751   5.770   6.297
 3859SOL     OW12475   6.995   3.034   2.968
 3859SOL    HW112476   0.003   3.013   2.876
 3859SOL    HW212477   0.012   2.974   3.034
 3860SOL     OW12478   2.330   5.918   6.116
 3860SOL    HW112479   2.261   5.991   6.117
 3860SOL    HW212480   2.303   5.847   6.052
 3861SOL     OW12481   4.651   4.226   1.401
 3861SOL    HW112482   4.663   4.248   1.498
 3861SOL    HW212483   4.668   4.307   1.346
 3862SOL     OW12484   0.756   5.952   6.154
 3862SOL    HW112485   0.779   6.049   6.151
 3862SOL    HW212486   0.790   5.907   6.072
 3863SOL     OW12487   3.231   3.739   1.354
 3863SOL    HW112488   3.261   3.823   1.310
 3863SOL    HW212489   3.143   3.755   1.399
 3864SOL     OW12490   3.453   1.596   6.708
 3864SOL    HW112491   3.382   1.648   6.662
 3864SOL    HW212492   3.412   1.536   6.777
 3865SOL     OW12493   4.338   0.234   2.186
 3865SOL    HW112494   4.261   0.275   2.235
 3865SOL    HW212495   4.346   0.277   2.096
 3866SOL     OW12496   3.874   0.283   0.971
 3866SOL    HW112497   3.790   0.248   1.013
 3866SOL    HW212498   3.891   0.235   0.885
 3867SOL     OW12499   2.191   3.180   3.227
 3867SOL    HW112500   2.114   3.243   3.234
 3867SOL    HW212501   2.185   3.112   3.300
 3868SOL     OW12502   2.618   6.631   2.238
 3868SOL    HW112503   2.584   6.655   2.329
 3868SOL    HW212504   2.543   6.638   2.172
 3869SOL     OW12505   0.480   2.938   3.213
 3869SOL    HW112506   0.420   3.016   3.195
 3869SOL    HW212507   0.538   2.958   3.292
 3870SOL     OW12508   2.883   5.419   0.284
 3870SOL    HW112509   2.938   5.343   0.318
 3870SOL    HW212510   2.786   5.399   0.298
 3871SOL     OW12511   3.060   0.378   3.375
 3871SOL    HW112512   3.102   0.366   3.286
 3871SOL    HW212513   3.012   0.466   3.378
 3872SOL     OW12514   4.262   3.514   0.935
 3872SOL    HW112515   4.298   3.567   1.012
 3872SOL    HW212516   4.164   3.500   0.947
 3873SOL     OW12517   5.583   4.807   1.454
 3873SOL    HW112518   5.540   4.737   1.397
 3873SOL    HW212519   5.530   4.892   1.448
 3874SOL     OW12520   4.310   0.276   0.381
 3874SOL    HW112521   4.305   0.371   0.351
 3874SOL    HW212522   4.248   0.220   0.326
 3875SOL     OW12523   1.398   4.521   1.467
 3875SOL    HW112524   1.398   4.599   1.405
 3875SOL    HW212525   1.459   4.450   1.432
 3876SOL     OW12526   5.518   3.870   4.242
 3876SOL    HW112527   5.423   3.879   4.214
 3876SOL    HW212528   5.548   3.776   4.227
 3877SOL     OW12529   5.993   1.075   2.016
 3877SOL    HW112530   5.942   1.094   1.933
 3877SOL    HW212531   6.071   1.016   1.995
 3878SOL     OW12532   3.925   6.758   5.958
 3878SOL    HW112533   3.957   6.823   5.889
 3878SOL    HW212534   3.867   6.805   6.024
 3879SOL     OW12535   4.694   5.474   1.745
 3879SOL    HW112536   4.708   5.572   1.764
 3879SOL    HW212537   4.629   5.436   1.810
 3880SOL     OW12538   5.565   3.130   3.266
 3880SOL    HW112539   5.502   3.177   3.327
 3880SOL    HW212540   5.639   3.089   3.320
 3881SOL     OW12541   0.718   4.207   0.988
 3881SOL    HW112542   0.636   4.207   1.046
 3881SOL    HW212543   0.691   4.211   0.892
 3882SOL     OW12544   6.818   0.873   5.495
 3882SOL    HW112545   6.827   0.872   5.595
 3882SOL    HW212546   6.736   0.924   5.470
 3883SOL     OW12547   4.129   0.476   5.288
 3883SOL    HW112548   4.034   0.463   5.317
 3883SOL    HW212549   4.162   0.391   5.247
 3884SOL     OW12550   1.822   6.109   5.796
 3884SOL    HW112551   1.748   6.141   5.855
 3884SOL    HW212552   1.819   6.009   5.789
 3885SOL     OW12553   6.958   0.918   3.961
 3885SOL    HW112554   6.924   0.841   4.016
 3885SOL    HW212555   6.932   1.004   4.005
 3886SOL     OW12556   6.837   6.515   4.987
 3886SOL    HW112557   6.760   6.545   4.930
 3886SOL    HW212558   6.826   6.550   5.080
 3887SOL     OW12559   4.441   2.044   5.632
 3887SOL    HW112560   4.540   2.047   5.647
 3887SOL    HW212561   4.413   1.950   5.614
 3888SOL     OW12562   0.041   2.038   0.827
 3888SOL    HW112563   0.138   2.031   0.803
 3888SOL    HW212564   0.033   2.070   0.922
 3889SOL     OW12565   0.829   6.645   6.536
 3889SOL    HW112566   0.795   6.672   6.626
 3889SOL    HW212567   0.883   6.561   6.545
 3890SOL     OW12568   5.439   4.473   3.078
 3890SOL    HW112569   5.364   4.528   3.115
 3890SOL    HW212570   5.410   4.429   2.993
 3891SOL     OW12571   5.464   5.209   4.772
 3891SOL    HW112572   5.539   5.171   4.826
 3891SOL    HW212573   5.497   5.287   4.719
 3892SOL     OW12574   4.914   6.846   3.225
 3892SOL    HW112575   4.967   6.928   3.206
 3892SOL    HW212576   4.824   6.872   3.260
 3893SOL     OW12577   3.302   5.885   4.142
 3893SOL    HW112578   3.288   5.786   4.144
 3893SOL    HW212579   3.214   5.931   4.125
 3894SOL     OW12580   4.586   3.524   6.887
 3894SOL    HW112581   4.675   3.558   6.856
 3894SOL    HW212582   4.588   3.512   6.986
 3895SOL     OW12583   2.740   1.889   5.666
 3895SOL    HW112584   2.832   1.900   5.628
 3895SOL    HW212585   2.714   1.793   5.662
 3896SOL     OW12586   6.595   3.224   5.311
 3896SOL    HW112587   6.586   3.128   5.281
 3896SOL    HW212588   6.511   3.274   5.287
 3897SOL     OW12589   3.666   6.908   2.220
 3897SOL    HW112590   3.598   6.981   2.210
 3897SOL    HW212591   3.621   6.819   2.216
 3898SOL     OW12592   3.534   4.146   4.242
 3898SOL    HW112593   3.457   4.173   4.300
 3898SOL    HW212594   3.615   4.133   4.300
 3899SOL     OW12595   4.712   1.674   5.407
 3899SOL    HW112596   4.726   1.693   5.504
 3899SOL    HW212597   4.682   1.579   5.395
 3900SOL     OW12598   6.452   2.358   3.194
 3900SOL    HW112599   6.456   2.403   3.284
 3900SOL    HW212600   6.544   2.330   3.167
 3901SOL     OW12601   1.559   6.499   5.436
 3901SOL    HW112602   1.460   6.486   5.435
 3901SOL    HW212603   1.601   6.433   5.498
 3902SOL     OW12604   4.004   5.140   1.408
 3902SOL    HW112605   3.904   5.149   1.409
 3902SOL    HW212606   4.028   5.043   1.404
 3903SOL     OW12607   4.335   2.828   6.685
 3903SOL    HW112608   4.354   2.891   6.760
 3903SOL    HW212609   4.254   2.774   6.707
 3904SOL     OW12610   1.076   6.399   0.781
 3904SOL    HW112611   1.054   6.444   0.868
 3904SOL    HW212612   1.120   6.464   0.720
 3905SOL     OW12613   6.849   0.365   5.110
 3905SOL    HW112614   6.845   0.271   5.144
 3905SOL    HW212615   6.923   0.414   5.157
 3906SOL     OW12616   1.689   5.032   4.151
 3906SOL    HW112617   1.741   4.948   4.134
 3906SOL    HW212618   1.751   5.111   4.150
 3907SOL     OW12619   0.318   1.057   3.827
 3907SOL    HW112620   0.368   1.042   3.742
 3907SOL    HW212621   0.234   1.108   3.809
 3908SOL     OW12622   1.217   0.455   5.011
 3908SOL    HW112623   1.316   0.469   5.013
 3908SOL    HW212624   1.187   0.411   5.096
 3909SOL     OW12625   5.636   2.580   6.333
 3909SOL    HW112626   5.675   2.637   6.406
 3909SOL    HW212627   5.586   2.636   6.268
 3910SOL     OW12628   3.587   1.301   0.303
 3910SOL    HW112629   3.681   1.312   0.334
 3910SOL    HW212630   3.534   1.382   0.330
 3911SOL     OW12631   0.066   1.177   0.767
 3911SOL    HW112632   0.079   1.263   0.817
 3911SOL    HW212633   0.155   1.144   0.735
 3912SOL     OW12634   3.773   1.745   0.643
 3912SOL    HW112635   3.686   1.766   0.599
 3912SOL    HW212636   3.785   1.805   0.722
 3913SOL     OW12637   5.631   5.361   1.031
 3913SOL    HW112638   5.714   5.380   0.980
 3913SOL    HW212639   5.582   5.284   0.990
 3914SOL     OW12640   6.792   1.789   6.802
 3914SOL    HW112641   6.778   1.885   6.780
 3914SOL    HW212642   6.780   1.774   6.900
 3915SOL     OW12643   4.702   5.578   0.121
 3915SOL    HW112644   4.734   5.556   0.213
 3915SOL    HW212645   4.669   5.495   0.076
 3916SOL     OW12646   2.082   1.950   1.929
 3916SOL    HW112647   2.142   1.990   1.998
 3916SOL    HW212648   2.043   2.023   1.872
 3917SOL     OW12649   3.570   5.604   1.635
 3917SOL    HW112650   3.633   5.675   1.666
 3917SOL    HW212651   3.505   5.583   1.708
 3918SOL     OW12652   5.272   1.233   0.669
 3918SOL    HW112653   5.316   1.273   0.589
 3918SOL    HW212654   5.340   1.185   0.724
 3919SOL     OW12655   3.228   0.303   1.983
 3919SOL    HW112656   3.278   0.334   2.064
 3919SOL    HW212657   3.145   0.256   2.012
 3920SOL     OW12658   3.125   1.575   5.807
 3920SOL    HW112659   3.193   1.503   5.794
 3920SOL    HW212660   3.120   1.632   5.725
 3921SOL     OW12661   0.097   2.638   6.077
 3921SOL    HW112662   0.112   2.722   6.026
 3921SOL    HW212663   0.119   2.652   6.173
 3922SOL     OW12664   5.481   4.383   2.788
 3922SOL    HW112665   5.522   4.386   2.697
 3922SOL    HW212666   5.486   4.290   2.824
 3923SOL     OW12667   5.031   1.231   1.770
 3923SOL    HW112668   4.998   1.321   1.742
 3923SOL    HW212669   4.957   1.164   1.762
 3924SOL     OW12670   5.718   4.810   4.476
 3924SOL    HW112671   5.707   4.727   4.422
 3924SOL    HW212672   5.812   4.817   4.509
 3925SOL     OW12673   4.751   3.862   0.670
 3925SOL    HW112674   4.826   3.818   0.719
 3925SOL    HW212675   4.666   3.852   0.722
 3926SOL     OW12676   0.557   6.561   6.389
 3926SOL    HW112677   0.629   6.608   6.440
 3926SOL    HW212678   0.468   6.595   6.418
 3927SOL     OW12679   5.594   2.493   5.141
 3927SOL    HW112680   5.607   2.572   5.201
 3927SOL    HW212681   5.574   2.525   5.048
 3928SOL     OW12682   2.613   6.259   2.513
 3928SOL    HW112683   2.654   6.283   2.425
 3928SOL    HW212684   2.685   6.245   2.581
 3929SOL     OW12685   6.638   1.977   5.101
 3929SOL    HW112686   6.634   2.076   5.085
 3929SOL    HW212687   6.560   1.933   5.057
 3930SOL     OW12688   0.536   4.210   4.125
 3930SOL    HW112689   0.486   4.238   4.042
 3930SOL    HW212690   0.542   4.111   4.129
 3931SOL     OW12691   1.880   2.448   1.414
 3931SOL    HW112692   1.849   2.399   1.332
 3931SOL    HW212693   1.816   2.520   1.436
 3932SOL     OW12694   2.323   5.229   4.130
 3932SOL    HW112695   2.418   5.237   4.158
 3932SOL    HW212696   2.281   5.319   4.125
 3933SOL     OW12697   2.514   5.653   1.005
 3933SOL    HW112698   2.588   5.603   1.050
 3933SOL    HW212699   2.525   5.751   1.023
 3934SOL     OW12700   0.278   1.325   1.170
 3934SOL    HW112701   0.314   1.365   1.254
 3934SOL    HW212702   0.320   1.369   1.091
 3935SOL     OW12703   6.303   3.096   6.326
 3935SOL    HW112704   6.316   3.114   6.229
 3935SOL    HW212705   6.352   3.012   6.351
 3936SOL     OW12706   0.638   4.860   5.825
 3936SOL    HW112707   0.679   4.951   5.812
 3936SOL    HW212708   0.573   4.864   5.900
 3937SOL     OW12709   0.085   0.080   1.826
 3937SOL    HW112710   0.033   0.165   1.827
 3937SOL    HW212711   0.025   0.004   1.801
 3938SOL     OW12712   0.304   4.144   3.100
 3938SOL    HW112713   0.259   4.186   3.021
 3938SOL    HW212714   0.298   4.045   3.093
 3939SOL     OW12715   1.375   1.124   2.223
 3939SOL    HW112716   1.449   1.159   2.165
 3939SOL    HW212717   1.372   1.177   2.308
 3940SOL     OW12718   3.403   5.560   1.308
 3940SOL    HW112719   3.424   5.602   1.220
 3940SOL    HW212720   3.349   5.623   1.363
 3941SOL     OW12721   5.041   6.071   3.356
 3941SOL    HW112722   5.000   6.162   3.365
 3941SOL    HW212723   5.083   6.045   3.442
 3942SOL     OW12724   6.496   5.858   5.464
 3942SOL    HW112725   6.473   5.879   5.559
 3942SOL    HW212726   6.505   5.943   5.412
 3943SOL     OW12727   1.461   2.873   6.969
 3943SOL    HW112728   1.462   2.846   0.039
 3943SOL    HW212729   1.429   2.796   6.913
 3944SOL     OW12730   5.547   2.273   6.873
 3944SOL    HW112731   5.584   2.181   6.877
 3944SOL    HW212732   5.481   2.286   6.948
 3945SOL     OW12733   6.248   0.625   3.374
 3945SOL    HW112734   6.341   0.661   3.368
 3945SOL    HW212735   6.225   0.609   3.470
 3946SOL     OW12736   1.117   3.048   0.381
 3946SOL    HW112737   1.123   3.026   0.283
 3946SOL    HW212738   1.198   3.100   0.408
 3947SOL     OW12739   6.004   4.950   2.402
 3947SOL    HW112740   5.959   4.871   2.360
 3947SOL    HW212741   5.996   5.029   2.342
 3948SOL     OW12742   0.747   2.653   6.373
 3948SOL    HW112743   0.802   2.669   6.455
 3948SOL    HW212744   0.671   2.592   6.395
 3949SOL     OW12745   5.682   6.607   1.846
 3949SOL    HW112746   5.777   6.633   1.866
 3949SOL    HW212747   5.619   6.666   1.896
 3950SOL     OW12748   3.123   4.519   1.712
 3950SOL    HW112749   3.039   4.470   1.737
 3950SOL    HW212750   3.122   4.538   1.614
 3951SOL     OW12751   0.669   2.450   5.109
 3951SOL    HW112752   0.693   2.521   5.043
 3951SOL    HW212753   0.607   2.488   5.177
 3952SOL     OW12754   5.797   3.295   6.254
 3952SOL    HW112755   5.776   3.391   6.271
 3952SOL    HW212756   5.874   3.267   6.312
 3953SOL     OW12757   3.201   4.431   6.435
 3953SOL    HW112758   3.107   4.462   6.421
 3953SOL    HW212759   3.206   4.331   6.426
 3954SOL     OW12760   0.455   3.164   5.192
 3954SOL    HW112761   0.408   3.235   5.243
 3954SOL    HW212762   0.513   3.205   5.121
 3955SOL     OW12763   6.633   4.615   0.387
 3955SOL    HW112764   6.731   4.626   0.375
 3955SOL    HW212765   6.610   4.615   0.484
 3956SOL     OW12766   1.040   2.480   5.374
 3956SOL    HW112767   1.059   2.495   5.471
 3956SOL    HW212768   1.041   2.568   5.326
 3957SOL     OW12769   0.946   1.445   2.795
 3957SOL    HW112770   0.980   1.389   2.870
 3957SOL    HW212771   0.850   1.421   2.776
 3958SOL     OW12772   5.511   6.208   5.865
 3958SOL    HW112773   5.470   6.273   5.801
 3958SOL    HW212774   5.560   6.138   5.814
 3959SOL     OW12775   2.508   4.806   0.717
 3959SOL    HW112776   2.427   4.842   0.764
 3959SOL    HW212777   2.536   4.721   0.760
 3960SOL     OW12778   4.392   3.576   0.416
 3960SOL    HW112779   4.300   3.567   0.379
 3960SOL    HW212780   4.387   3.620   0.506
 3961SOL     OW12781   5.824   0.751   2.561
 3961SOL    HW112782   5.909   0.717   2.521
 3961SOL    HW212783   5.767   0.791   2.489
 3962SOL     OW12784   0.702   6.741   5.894
 3962SOL    HW112785   0.603   6.741   5.885
 3962SOL    HW212786   0.736   6.834   5.883
 3963SOL     OW12787   5.059   5.509   3.441
 3963SOL    HW112788   5.009   5.546   3.362
 3963SOL    HW212789   5.035   5.413   3.454
 3964SOL     OW12790   5.716   6.592   5.784
 3964SOL    HW112791   5.729   6.493   5.776
 3964SOL    HW212792   5.670   6.625   5.702
 3965SOL     OW12793   3.527   3.716   6.934
 3965SOL    HW112794   3.440   3.726   6.981
 3965SOL    HW212795   3.519   3.643   6.865
 3966SOL     OW12796   5.646   4.159   5.253
 3966SOL    HW112797   5.561   4.193   5.294
 3966SOL    HW212798   5.625   4.109   5.169
 3967SOL     OW12799   0.488   5.420   6.333
 3967SOL    HW112800   0.424   5.497   6.327
 3967SOL    HW212801   0.581   5.455   6.341
 3968SOL     OW12802   5.757   0.198   1.514
 3968SOL    HW112803   5.676   0.254   1.534
 3968SOL    HW212804   5.736   0.102   1.532
 3969SOL     OW12805   0.028   5.325   1.459
 3969SOL    HW112806   7.004   5.407   1.434
 3969SOL    HW212807   0.046   5.325   1.557
 3970SOL     OW12808   4.310   4.885   3.111
 3970SOL    HW112809   4.343   4.966   3.161
 3970SOL    HW212810   4.385   4.848   3.056
 3971SOL     OW12811   1.624   5.619   3.709
 3971SOL    HW112812   1.658   5.713   3.714
 3971SOL    HW212813   1.545   5.609   3.770
 3972SOL     OW12814   1.637   0.017   0.631
 3972SOL    HW112815   1.594   6.966   0.585
 3972SOL    HW212816   1.699   7.009   0.702
 3973SOL     OW12817   2.961   3.287   3.378
 3973SOL    HW112818   3.042   3.328   3.418
 3973SOL    HW212819   2.930   3.342   3.300
 3974SOL     OW12820   6.329   1.848   6.281
 3974SOL    HW112821   6.239   1.829   6.321
 3974SOL    HW212822   6.363   1.765   6.237
 3975SOL     OW12823   6.925   1.146   5.890
 3975SOL    HW112824   7.005   1.192   5.850
 3975SOL    HW212825   6.852   1.212   5.906
 3976SOL     OW12826   0.911   3.587   6.955
 3976SOL    HW112827   0.922   3.538   0.015
 3976SOL    HW212828   0.824   3.636   6.956
 3977SOL     OW12829   4.121   6.672   6.820
 3977SOL    HW112830   4.145   6.710   6.731
 3977SOL    HW212831   4.063   6.592   6.808
 3978SOL     OW12832   5.575   3.181   6.374
 3978SOL    HW112833   5.521   3.135   6.303
 3978SOL    HW212834   5.626   3.256   6.332
 3979SOL     OW12835   1.109   6.915   2.934
 3979SOL    HW112836   1.020   6.960   2.935
 3979SOL    HW212837   1.135   6.891   3.028
 3980SOL     OW12838   5.495   2.960   4.529
 3980SOL    HW112839   5.468   2.903   4.452
 3980SOL    HW212840   5.595   2.957   4.538
 3981SOL     OW12841   6.665   1.671   6.109
 3981SOL    HW112842   6.725   1.683   6.189
 3981SOL    HW212843   6.680   1.746   6.045
 3982SOL     OW12844   3.057   1.865   3.760
 3982SOL    HW112845   3.025   1.960   3.765
 3982SOL    HW212846   3.021   1.822   3.677
 3983SOL     OW12847   3.330   6.397   3.881
 3983SOL    HW112848   3.397   6.323   3.873
 3983SOL    HW212849   3.322   6.426   3.976
 3984SOL     OW12850   1.473   6.631   1.544
 3984SOL    HW112851   1.567   6.597   1.550
 3984SOL    HW212852   1.410   6.562   1.581
 3985SOL     OW12853   1.884   3.407   1.703
 3985SOL    HW112854   1.949   3.483   1.697
 3985SOL    HW212855   1.791   3.441   1.693
 3986SOL     OW12856   0.733   2.732   2.279
 3986SOL    HW112857   0.823   2.714   2.318
 3986SOL    HW212858   0.733   2.709   2.182
 3987SOL     OW12859   2.660   4.780   6.918
 3987SOL    HW112860   2.618   4.865   6.886
 3987SOL    HW212861   2.760   4.788   6.914
 3988SOL     OW12862   3.685   2.389   0.541
 3988SOL    HW112863   3.772   2.382   0.492
 3988SOL    HW212864   3.701   2.427   0.632
 3989SOL     OW12865   4.740   0.028   6.385
 3989SOL    HW112866   4.812   0.056   6.321
 3989SOL    HW212867   4.722   6.957   6.374
 3990SOL     OW12868   1.055   2.890   3.747
 3990SOL    HW112869   0.962   2.888   3.784
 3990SOL    HW212870   1.115   2.937   3.811
 3991SOL     OW12871   0.378   1.759   4.104
 3991SOL    HW112872   0.407   1.696   4.032
 3991SOL    HW212873   0.456   1.816   4.132
 3992SOL     OW12874   4.611   3.630   6.250
 3992SOL    HW112875   4.703   3.608   6.215
 3992SOL    HW212876   4.618   3.669   6.341
 3993SOL     OW12877   2.553   2.457   2.764
 3993SOL    HW112878   2.508   2.539   2.798
 3993SOL    HW212879   2.517   2.377   2.812
 3994SOL     OW12880   2.378   2.312   3.199
 3994SOL    HW112881   2.405   2.246   3.269
 3994SOL    HW212882   2.343   2.395   3.244
 3995SOL     OW12883   1.798   3.872   2.449
 3995SOL    HW112884   1.897   3.874   2.464
 3995SOL    HW212885   1.767   3.777   2.445
 3996SOL     OW12886   5.832   0.481   3.273
 3996SOL    HW112887   5.751   0.521   3.228
 3996SOL    HW212888   5.912   0.537   3.253
 3997SOL     OW12889   5.579   3.568   2.451
 3997SOL    HW112890   5.527   3.581   2.536
 3997SOL    HW212891   5.519   3.584   2.373
 3998SOL     OW12892   6.312   2.100   2.804
 3998SOL    HW112893   6.390   2.123   2.746
 3998SOL    HW212894   6.252   2.180   2.813
 3999SOL     OW12895   5.387   3.023   2.216
 3999SOL    HW112896   5.328   2.952   2.176
 3999SOL    HW212897   5.476   3.023   2.170
 4000SOL     OW12898   3.333   5.756   2.030
 4000SOL    HW112899   3.402   5.825   2.049
 4000SOL    HW212900   3.312   5.705   2.113
 4001SOL     OW12901   2.189   4.197   5.165
 4001SOL    HW112902   2.240   4.229   5.246
 4001SOL    HW212903   2.233   4.117   5.127
 4002SOL     OW12904   3.581   3.138   3.822
 4002SOL    HW112905   3.553   3.217   3.878
 4002SOL    HW212906   3.594   3.059   3.881
 4003SOL     OW12907   2.357   0.407   5.289
 4003SOL    HW112908   2.307   0.481   5.334
 4003SOL    HW212909   2.354   0.422   5.190
 4004SOL     OW12910   0.531   3.672   3.440
 4004SOL    HW112911   0.590   3.738   3.487
 4004SOL    HW212912   0.437   3.704   3.443
 4005SOL     OW12913   4.749   3.526   1.367
 4005SOL    HW112914   4.751   3.558   1.462
 4005SOL    HW212915   4.737   3.427   1.366
 4006SOL     OW12916   5.170   4.956   3.271
 4006SOL    HW112917   5.124   4.996   3.192
 4006SOL    HW212918   5.118   4.878   3.305
 4007SOL     OW12919   6.624   1.454   2.564
 4007SOL    HW112920   6.533   1.490   2.544
 4007SOL    HW212921   6.643   1.377   2.503
 4008SOL     OW12922   1.972   0.169   0.844
 4008SOL    HW112923   1.935   0.076   0.847
 4008SOL    HW212924   2.016   0.190   0.931
 4009SOL     OW12925   3.869   2.075   1.109
 4009SOL    HW112926   3.881   2.175   1.105
 4009SOL    HW212927   3.774   2.054   1.132
 4010SOL     OW12928   2.537   5.514   1.785
 4010SOL    HW112929   2.563   5.425   1.823
 4010SOL    HW212930   2.578   5.524   1.694
 4011SOL     OW12931   6.173   5.886   0.095
 4011SOL    HW112932   6.191   5.975   0.053
 4011SOL    HW212933   6.124   5.899   0.181
 4012SOL     OW12934   3.859   0.019   2.046
 4012SOL    HW112935   3.933   6.979   2.032
 4012SOL    HW212936   3.784   7.001   2.097
 4013SOL     OW12937   1.221   1.042   6.772
 4013SOL    HW112938   1.177   1.107   6.834
 4013SOL    HW212939   1.296   0.996   6.819
 4014SOL     OW12940   2.732   5.373   3.547
 4014SOL    HW112941   2.654   5.386   3.486
 4014SOL    HW212942   2.701   5.331   3.633
 4015SOL     OW12943   4.066   5.371   6.660
 4015SOL    HW112944   4.047   5.427   6.580
 4015SOL    HW212945   4.144   5.409   6.710
 4016SOL     OW12946   4.040   5.737   6.082
 4016SOL    HW112947   4.064   5.810   6.018
 4016SOL    HW212948   4.083   5.755   6.170
 4017SOL     OW12949   1.221   4.958   6.264
 4017SOL    HW112950   1.253   5.032   6.205
 4017SOL    HW212951   1.235   4.870   6.217
 4018SOL     OW12952   4.468   6.310   2.002
 4018SOL    HW112953   4.424   6.387   1.956
 4018SOL    HW212954   4.399   6.242   2.026
 4019SOL     OW12955   4.936   3.105   2.943
 4019SOL    HW112956   4.988   3.180   2.985
 4019SOL    HW212957   4.925   3.122   2.846
 4020SOL     OW12958   6.755   4.691   4.839
 4020SOL    HW112959   6.764   4.592   4.850
 4020SOL    HW212960   6.808   4.737   4.911
 4021SOL     OW12961   3.328   3.557   5.592
 4021SOL    HW112962   3.237   3.546   5.631
 4021SOL    HW212963   3.326   3.631   5.524
 4022SOL     OW12964   2.401   0.472   0.390
 4022SOL    HW112965   2.477   0.407   0.398
 4022SOL    HW212966   2.422   0.554   0.443
 4023SOL     OW12967   0.141   2.582   5.314
 4023SOL    HW112968   0.172   2.639   5.390
 4023SOL    HW212969   0.066   2.628   5.266
 4024SOL     OW12970   0.942   4.712   3.707
 4024SOL    HW112971   0.976   4.717   3.613
 4024SOL    HW212972   1.016   4.680   3.767
 4025SOL     OW12973   1.050   6.035   3.463
 4025SOL    HW112974   1.067   6.107   3.396
 4025SOL    HW212975   1.003   5.959   3.419
 4026SOL     OW12976   6.727   6.121   3.858
 4026SOL    HW112977   6.806   6.096   3.915
 4026SOL    HW212978   6.648   6.066   3.885
 4027SOL     OW12979   2.482   3.685   5.904
 4027SOL    HW112980   2.398   3.707   5.854
 4027SOL    HW212981   2.538   3.622   5.851
 4028SOL     OW12982   4.496   1.512   2.546
 4028SOL    HW112983   4.522   1.450   2.471
 4028SOL    HW212984   4.576   1.527   2.604
 4029SOL     OW12985   2.752   4.722   6.635
 4029SOL    HW112986   2.757   4.813   6.676
 4029SOL    HW212987   2.661   4.708   6.595
 4030SOL     OW12988   0.036   0.925   2.392
 4030SOL    HW112989   6.975   0.933   2.346
 4030SOL    HW212990   0.105   0.979   2.344
 4031SOL     OW12991   5.501   0.158   1.386
 4031SOL    HW112992   5.551   0.078   1.418
 4031SOL    HW212993   5.409   0.130   1.357
 4032SOL     OW12994   5.982   6.918   1.435
 4032SOL    HW112995   6.017   7.003   1.395
 4032SOL    HW212996   5.995   6.919   1.534
 4033SOL     OW12997   3.284   2.097   2.694
 4033SOL    HW112998   3.273   2.029   2.622
 4033SOL    HW212999   3.378   2.095   2.729
 4034SOL     OW13000   0.455   3.227   4.822
 4034SOL    HW113001   0.483   3.131   4.815
 4034SOL    HW213002   0.537   3.285   4.829
 4035SOL     OW13003   6.547   2.323   1.256
 4035SOL    HW113004   6.527   2.259   1.182
 4035SOL    HW213005   6.469   2.325   1.320
 4036SOL     OW13006   3.290   5.494   3.698
 4036SOL    HW113007   3.313   5.485   3.795
 4036SOL    HW213008   3.229   5.421   3.671
 4037SOL     OW13009   2.067   1.128   5.573
 4037SOL    HW113010   2.098   1.202   5.514
 4037SOL    HW213011   2.071   1.041   5.523
 4038SOL     OW13012   3.674   4.088   5.979
 4038SOL    HW113013   3.692   4.160   6.046
 4038SOL    HW213014   3.734   4.101   5.900
 4039SOL     OW13015   5.425   4.497   1.658
 4039SOL    HW113016   5.488   4.564   1.696
 4039SOL    HW213017   5.394   4.435   1.730
 4040SOL     OW13018   3.790   5.455   5.604
 4040SOL    HW113019   3.700   5.439   5.564
 4040SOL    HW213020   3.786   5.532   5.667
 4041SOL     OW13021   2.021   6.729   1.425
 4041SOL    HW113022   1.993   6.745   1.330
 4041SOL    HW213023   2.102   6.670   1.426
 4042SOL     OW13024   6.137   0.379   2.736
 4042SOL    HW113025   6.113   0.461   2.683
 4042SOL    HW213026   6.158   0.406   2.830
 4043SOL     OW13027   5.713   3.875   6.388
 4043SOL    HW113028   5.708   3.903   6.292
 4043SOL    HW213029   5.710   3.956   6.446
 4044SOL     OW13030   3.939   4.860   2.927
 4044SOL    HW113031   4.007   4.788   2.906
 4044SOL    HW213032   3.973   4.917   3.002
 4045SOL     OW13033   4.939   6.787   6.197
 4045SOL    HW113034   4.872   6.796   6.271
 4045SOL    HW213035   5.028   6.820   6.229
 4046SOL     OW13036   0.912   1.655   3.086
 4046SOL    HW113037   0.872   1.746   3.088
 4046SOL    HW213038   0.848   1.591   3.042
 4047SOL     OW13039   2.753   2.975   6.474
 4047SOL    HW113040   2.740   2.898   6.536
 4047SOL    HW213041   2.705   3.055   6.510
 4048SOL     OW13042   4.922   0.598   2.255
 4048SOL    HW113043   4.929   0.695   2.278
 4048SOL    HW213044   4.990   0.576   2.185
 4049SOL     OW13045   3.691   5.840   6.736
 4049SOL    HW113046   3.662   5.761   6.682
 4049SOL    HW213047   3.785   5.864   6.712
 4050SOL     OW13048   0.822   6.199   2.528
 4050SOL    HW113049   0.746   6.239   2.579
 4050SOL    HW213050   0.809   6.216   2.430
 4051SOL     OW13051   5.158   0.891   6.132
 4051SOL    HW113052   5.212   0.811   6.157
 4051SOL    HW213053   5.129   0.940   6.215
 4052SOL     OW13054   6.379   1.774   2.900
 4052SOL    HW113055   6.386   1.850   2.965
 4052SOL    HW213056   6.466   1.726   2.896
 4053SOL     OW13057   1.092   5.335   4.708
 4053SOL    HW113058   1.136   5.246   4.701
 4053SOL    HW213059   1.047   5.343   4.796
 4054SOL     OW13060   4.430   3.956   1.208
 4054SOL    HW113061   4.347   4.009   1.193
 4054SOL    HW213062   4.510   4.015   1.199
 4055SOL     OW13063   1.609   3.759   2.099
 4055SOL    HW113064   1.534   3.740   2.163
 4055SOL    HW213065   1.609   3.857   2.077
 4056SOL     OW13066   5.460   3.716   0.831
 4056SOL    HW113067   5.526   3.783   0.864
 4056SOL    HW213068   5.367   3.750   0.846
 4057SOL     OW13069   6.448   3.338   6.454
 4057SOL    HW113070   6.377   3.404   6.429
 4057SOL    HW213071   6.419   3.246   6.427
 4058SOL     OW13072   2.331   5.499   4.706
 4058SOL    HW113073   2.323   5.581   4.762
 4058SOL    HW213074   2.423   5.462   4.713
 4059SOL     OW13075   1.028   2.522   4.054
 4059SOL    HW113076   0.964   2.599   4.063
 4059SOL    HW213077   0.989   2.442   4.099
 4060SOL     OW13078   6.929   5.706   4.855
 4060SOL    HW113079   6.844   5.673   4.896
 4060SOL    HW213080   7.004   5.697   4.921
 4061SOL     OW13081   2.654   5.254   1.867
 4061SOL    HW113082   2.642   5.161   1.831
 4061SOL    HW213083   2.634   5.255   1.965
 4062SOL     OW13084   2.362   1.457   1.836
 4062SOL    HW113085   2.266   1.481   1.817
 4062SOL    HW213086   2.414   1.462   1.751
 4063SOL     OW13087   5.540   0.221   1.014
 4063SOL    HW113088   5.462   0.193   1.070
 4063SOL    HW213089   5.597   0.284   1.066
 4064SOL     OW13090   1.937   2.106   4.485
 4064SOL    HW113091   1.858   2.162   4.464
 4064SOL    HW213092   1.906   2.016   4.516
 4065SOL     OW13093   1.399   6.931   0.335
 4065SOL    HW113094   1.440   6.887   0.414
 4065SOL    HW213095   1.302   6.909   0.331
 4066SOL     OW13096   6.456   4.014   2.693
 4066SOL    HW113097   6.450   4.112   2.675
 4066SOL    HW213098   6.406   3.964   2.623
 4067SOL     OW13099   6.126   3.958   2.420
 4067SOL    HW113100   6.120   4.028   2.492
 4067SOL    HW213101   6.036   3.915   2.408
 4068SOL     OW13102   1.581   2.940   4.630
 4068SOL    HW113103   1.663   2.982   4.670
 4068SOL    HW213104   1.608   2.863   4.572
 4069SOL     OW13105   3.776   6.806   6.747
 4069SOL    HW113106   3.708   6.831   6.678
 4069SOL    HW213107   3.856   6.768   6.702
 4070SOL     OW13108   1.287   2.871   3.084
 4070SOL    HW113109   1.216   2.868   3.014
 4070SOL    HW213110   1.245   2.868   3.175
 4071SOL     OW13111   1.292   0.576   3.956
 4071SOL    HW113112   1.274   0.674   3.944
 4071SOL    HW213113   1.216   0.524   3.918
 4072SOL     OW13114   1.274   5.270   4.381
 4072SOL    HW113115   1.312   5.206   4.314
 4072SOL    HW213116   1.176   5.281   4.364
 4073SOL     OW13117   2.327   5.290   0.285
 4073SOL    HW113118   2.285   5.334   0.206
 4073SOL    HW213119   2.378   5.209   0.256
 4074SOL     OW13120   1.197   4.808   1.691
 4074SOL    HW113121   1.134   4.803   1.768
 4074SOL    HW213122   1.267   4.737   1.700
 4075SOL     OW13123   5.270   1.541   0.734
 4075SOL    HW113124   5.221   1.569   0.816
 4075SOL    HW213125   5.280   1.441   0.733
 4076SOL     OW13126   3.467   3.348   5.422
 4076SOL    HW113127   3.392   3.290   5.390
 4076SOL    HW213128   3.430   3.424   5.475
 4077SOL     OW13129   4.349   1.458   1.439
 4077SOL    HW113130   4.336   1.460   1.538
 4077SOL    HW213131   4.433   1.505   1.415
 4078SOL     OW13132   3.038   4.805   3.061
 4078SOL    HW113133   3.121   4.803   3.117
 4078SOL    HW213134   3.018   4.899   3.034
 4079SOL     OW13135   1.696   1.982   4.177
 4079SOL    HW113136   1.741   2.071   4.169
 4079SOL    HW213137   1.624   1.975   4.108
 4080SOL     OW13138   5.059   2.007   5.025
 4080SOL    HW113139   4.970   1.985   4.985
 4080SOL    HW213140   5.126   1.938   4.996
 4081SOL     OW13141   2.052   2.909   4.158
 4081SOL    HW113142   1.979   2.907   4.090
 4081SOL    HW213143   2.018   2.951   4.242
 4082SOL     OW13144   1.204   3.547   1.233
 4082SOL    HW113145   1.133   3.600   1.187
 4082SOL    HW213146   1.286   3.544   1.175
 4083SOL     OW13147   6.073   2.816   3.431
 4083SOL    HW113148   5.984   2.788   3.468
 4083SOL    HW213149   6.100   2.754   3.358
 4084SOL     OW13150   6.183   1.831   3.814
 4084SOL    HW113151   6.189   1.824   3.714
 4084SOL    HW213152   6.214   1.746   3.856
 4085SOL     OW13153   4.215   6.139   0.631
 4085SOL    HW113154   4.269   6.136   0.547
 4085SOL    HW213155   4.233   6.224   0.679
 4086SOL     OW13156   1.913   5.089   1.470
 4086SOL    HW113157   2.010   5.063   1.471
 4086SOL    HW213158   1.863   5.026   1.411
 4087SOL     OW13159   2.482   2.633   3.018
 4087SOL    HW113160   2.566   2.601   3.062
 4087SOL    HW213161   2.418   2.665   3.088
 4088SOL     OW13162   6.656   1.882   1.437
 4088SOL    HW113163   6.672   1.950   1.365
 4088SOL    HW213164   6.710   1.800   1.418
 4089SOL     OW13165   0.824   6.993   3.383
 4089SOL    HW113166   0.878   0.042   3.421
 4089SOL    HW213167   0.795   7.017   3.290
 4090SOL     OW13168   2.861   4.399   6.314
 4090SOL    HW113169   2.903   4.476   6.361
 4090SOL    HW213170   2.927   4.359   6.251
 4091SOL     OW13171   5.481   6.620   0.383
 4091SOL    HW113172   5.555   6.645   0.320
 4091SOL    HW213173   5.411   6.691   0.381
 4092SOL     OW13174   6.969   2.752   5.181
 4092SOL    HW113175   6.879   2.712   5.195
 4092SOL    HW213176   6.986   2.823   5.250
 4093SOL     OW13177   5.034   0.429   3.826
 4093SOL    HW113178   5.004   0.334   3.823
 4093SOL    HW213179   5.027   0.470   3.735
 4094SOL     OW13180   2.036   4.745   5.072
 4094SOL    HW113181   2.101   4.708   5.007
 4094SOL    HW213182   1.965   4.677   5.091
 4095SOL     OW13183   1.312   3.786   6.007
 4095SOL    HW113184   1.395   3.730   6.004
 4095SOL    HW213185   1.248   3.755   5.938
 4096SOL     OW13186   4.755   5.737   1.021
 4096SOL    HW113187   4.764   5.653   1.075
 4096SOL    HW213188   4.841   5.755   0.973
 4097SOL     OW13189   2.952   4.370   5.896
 4097SOL    HW113190   2.934   4.294   5.834
 4097SOL    HW213191   2.978   4.335   5.985
 4098SOL     OW13192   0.522   2.665   2.671
 4098SOL    HW113193   0.513   2.761   2.642
 4098SOL    HW213194   0.617   2.637   2.661
 4099SOL     OW13195   3.224   5.360   1.998
 4099SOL    HW113196   3.140   5.414   1.988
 4099SOL    HW213197   3.299   5.405   1.949
 4100SOL     OW13198   5.147   5.764   4.143
 4100SOL    HW113199   5.069   5.708   4.170
 4100SOL    HW213200   5.161   5.756   4.044
 4101SOL     OW13201   5.761   1.520   0.207
 4101SOL    HW113202   5.725   1.544   0.297
 4101SOL    HW213203   5.687   1.522   0.140
 4102SOL     OW13204   6.363   0.296   1.301
 4102SOL    HW113205   6.367   0.269   1.397
 4102SOL    HW213206   6.452   0.331   1.272
 4103SOL     OW13207   0.589   1.048   1.842
 4103SOL    HW113208   0.499   1.092   1.836
 4103SOL    HW213209   0.656   1.102   1.792
 4104SOL     OW13210   1.695   4.391   2.461
 4104SOL    HW113211   1.767   4.437   2.411
 4104SOL    HW213212   1.692   4.294   2.435
 4105SOL     OW13213   3.896   5.889   0.873
 4105SOL    HW113214   3.884   5.930   0.963
 4105SOL    HW213215   3.916   5.960   0.806
 4106SOL     OW13216   0.221   3.876   4.679
 4106SOL    HW113217   0.222   3.975   4.691
 4106SOL    HW213218   0.268   3.833   4.756
 4107SOL     OW13219   0.593   6.434   0.678
 4107SOL    HW113220   0.631   6.514   0.723
 4107SOL    HW213221   0.530   6.463   0.606
 4108SOL     OW13222   6.655   4.781   6.312
 4108SOL    HW113223   6.675   4.784   6.410
 4108SOL    HW213224   6.731   4.822   6.261
 4109SOL     OW13225   4.247   6.233   4.305
 4109SOL    HW113226   4.301   6.224   4.221
 4109SOL    HW213227   4.265   6.321   4.347
 4110SOL     OW13228   3.927   3.970   6.531
 4110SOL    HW113229   3.989   3.893   6.516
 4110SOL    HW213230   3.898   4.008   6.443
 4111SOL     OW13231   3.701   3.068   0.463
 4111SOL    HW113232   3.726   3.156   0.423
 4111SOL    HW213233   3.606   3.072   0.494
 4112SOL     OW13234   5.189   1.320   5.513
 4112SOL    HW113235   5.109   1.374   5.486
 4112SOL    HW213236   5.252   1.377   5.565
 4113SOL     OW13237   3.772   5.672   5.141
 4113SOL    HW113238   3.758   5.579   5.175
 4113SOL    HW213239   3.719   5.684   5.057
 4114SOL     OW13240   3.051   2.147   3.757
 4114SOL    HW113241   3.121   2.198   3.808
 4114SOL    HW213242   3.056   2.172   3.660
 4115SOL     OW13243   5.158   6.050   2.627
 4115SOL    HW113244   5.232   6.015   2.685
 4115SOL    HW213245   5.175   6.146   2.605
 4116SOL     OW13246   3.907   1.852   1.572
 4116SOL    HW113247   3.950   1.930   1.528
 4116SOL    HW213248   3.976   1.783   1.592
 4117SOL     OW13249   0.531   5.499   1.499
 4117SOL    HW113250   0.592   5.435   1.452
 4117SOL    HW213251   0.503   5.460   1.587
 4118SOL     OW13252   1.363   6.568   0.883
 4118SOL    HW113253   1.315   6.491   0.924
 4118SOL    HW213254   1.327   6.583   0.791
 4119SOL     OW13255   4.149   1.528   4.505
 4119SOL    HW113256   4.229   1.473   4.481
 4119SOL    HW213257   4.065   1.476   4.487
 4120SOL     OW13258   4.612   6.875   2.111
 4120SOL    HW113259   4.644   6.843   2.021
 4120SOL    HW213260   4.539   6.815   2.143
 4121SOL     OW13261   6.301   1.776   4.662
 4121SOL    HW113262   6.237   1.817   4.727
 4121SOL    HW213263   6.340   1.693   4.702
 4122SOL     OW13264   0.640   6.496   4.926
 4122SOL    HW113265   0.642   6.503   5.026
 4122SOL    HW213266   0.596   6.578   4.888
 4123SOL     OW13267   5.763   4.507   5.859
 4123SOL    HW113268   5.832   4.558   5.912
 4123SOL    HW213269   5.679   4.500   5.913
 4124SOL     OW13270   5.922   5.711   4.833
 4124SOL    HW113271   5.953   5.684   4.742
 4124SOL    HW213272   5.888   5.630   4.882
 4125SOL     OW13273   4.703   0.548   1.540
 4125SOL    HW113274   4.745   0.638   1.556
 4125SOL    HW213275   4.774   0.481   1.519
 4126SOL     OW13276   1.281   4.175   4.377
 4126SOL    HW113277   1.290   4.241   4.302
 4126SOL    HW213278   1.234   4.093   4.344
 4127SOL     OW13279   5.322   3.642   4.004
 4127SOL    HW113280   5.236   3.632   3.953
 4127SOL    HW213281   5.335   3.738   4.026
 4128SOL     OW13282   2.052   4.158   2.544
 4128SOL    HW113283   2.006   4.112   2.620
 4128SOL    HW213284   2.118   4.096   2.502
 4129SOL     OW13285   5.285   1.922   6.349
 4129SOL    HW113286   5.321   1.944   6.440
 4129SOL    HW213287   5.328   1.981   6.281
 4130SOL     OW13288   7.002   3.666   5.638
 4130SOL    HW113289   0.007   3.599   5.571
 4130SOL    HW213290   6.986   3.620   5.726
 4131SOL     OW13291   0.573   5.841   4.046
 4131SOL    HW113292   0.540   5.880   3.961
 4131SOL    HW213293   0.671   5.858   4.055
 4132SOL     OW13294   5.802   3.648   3.743
 4132SOL    HW113295   5.821   3.725   3.682
 4132SOL    HW213296   5.713   3.662   3.787
 4133SOL     OW13297   3.255   6.983   0.739
 4133SOL    HW113298   3.291   6.993   0.646
 4133SOL    HW213299   3.181   0.022   0.753
 4134SOL     OW13300   1.510   2.141   0.456
 4134SOL    HW113301   1.493   2.043   0.458
 4134SOL    HW213302   1.576   2.162   0.384
 4135SOL     OW13303   2.191   1.024   2.076
 4135SOL    HW113304   2.186   1.082   1.994
 4135SOL    HW213305   2.103   1.026   2.124
 4136SOL     OW13306   0.330   2.127   3.991
 4136SOL    HW113307   0.365   2.137   3.898
 4136SOL    HW213308   0.249   2.069   3.990
 4137SOL     OW13309   2.679   3.896   0.848
 4137SOL    HW113310   2.689   3.816   0.907
 4137SOL    HW213311   2.597   3.885   0.791
 4138SOL     OW13312   3.644   4.984   3.895
 4138SOL    HW113313   3.651   5.081   3.918
 4138SOL    HW213314   3.732   4.940   3.910
 4139SOL     OW13315   2.412   2.417   5.909
 4139SOL    HW113316   2.442   2.335   5.861
 4139SOL    HW213317   2.364   2.391   5.993
 4140SOL     OW13318   3.397   0.818   5.327
 4140SOL    HW113319   3.458   0.764   5.385
 4140SOL    HW213320   3.345   0.758   5.267
 4141SOL     OW13321   5.011   4.887   1.500
 4141SOL    HW113322   5.013   4.879   1.599
 4141SOL    HW213323   4.973   4.976   1.474
 4142SOL     OW13324   6.451   5.411   1.085
 4142SOL    HW113325   6.438   5.509   1.066
 4142SOL    HW213326   6.367   5.373   1.123
 4143SOL     OW13327   6.883   3.355   0.322
 4143SOL    HW113328   6.979   3.343   0.349
 4143SOL    HW213329   6.828   3.280   0.359
 4144SOL     OW13330   5.821   2.012   0.832
 4144SOL    HW113331   5.818   1.965   0.744
 4144SOL    HW213332   5.784   2.105   0.822
 4145SOL     OW13333   6.758   6.449   1.798
 4145SOL    HW113334   6.698   6.400   1.734
 4145SOL    HW213335   6.780   6.389   1.875
 4146SOL     OW13336   6.054   0.405   6.046
 4146SOL    HW113337   6.044   0.305   6.053
 4146SOL    HW213338   6.133   0.426   5.988
 4147SOL     OW13339   3.607   2.003   5.776
 4147SOL    HW113340   3.545   1.947   5.722
 4147SOL    HW213341   3.565   2.092   5.793
 4148SOL     OW13342   0.393   0.336   3.860
 4148SOL    HW113343   0.416   0.415   3.917
 4148SOL    HW213344   0.325   0.279   3.907
 4149SOL     OW13345   0.390   3.197   6.865
 4149SOL    HW113346   0.329   3.226   6.939
 4149SOL    HW213347   0.364   3.242   6.780
 4150SOL     OW13348   6.004   0.716   6.058
 4150SOL    HW113349   6.006   0.620   6.029
 4150SOL    HW213350   6.024   0.721   6.156
 4151SOL     OW13351   5.360   5.964   6.972
 4151SOL    HW113352   5.454   5.948   6.943
 4151SOL    HW213353   5.341   6.062   6.974
 4152SOL     OW13354   3.684   5.174   2.035
 4152SOL    HW113355   3.638   5.085   2.028
 4152SOL    HW213356   3.733   5.179   2.122
 4153SOL     OW13357   5.248   5.264   5.751
 4153SOL    HW113358   5.275   5.337   5.814
 4153SOL    HW213359   5.152   5.240   5.768
 4154SOL     OW13360   6.762   3.881   5.246
 4154SOL    HW113361   6.748   3.975   5.278
 4154SOL    HW213362   6.689   3.823   5.283
 4155SOL     OW13363   0.146   3.492   3.189
 4155SOL    HW113364   0.238   3.484   3.152
 4155SOL    HW213365   0.092   3.412   3.162
 4156SOL     OW13366   5.803   0.135   5.047
 4156SOL    HW113367   5.793   0.114   4.950
 4156SOL    HW213368   5.896   0.165   5.066
 4157SOL     OW13369   3.955   0.361   4.051
 4157SOL    HW113370   3.916   0.270   4.035
 4157SOL    HW213371   4.044   0.367   4.005
 4158SOL     OW13372   0.987   5.124   4.043
 4158SOL    HW113373   1.067   5.183   4.053
 4158SOL    HW213374   0.997   5.068   3.960
 4159SOL     OW13375   1.806   3.455   3.543
 4159SOL    HW113376   1.796   3.554   3.542
 4159SOL    HW213377   1.903   3.431   3.547
 4160SOL     OW13378   6.134   0.451   1.272
 4160SOL    HW113379   6.228   0.418   1.261
 4160SOL    HW213380   6.101   0.488   1.185
 4161SOL     OW13381   1.820   0.706   6.452
 4161SOL    HW113382   1.888   0.779   6.444
 4161SOL    HW213383   1.805   0.665   6.362
 4162SOL     OW13384   6.063   0.194   5.094
 4162SOL    HW113385   6.086   0.291   5.091
 4162SOL    HW213386   6.119   0.144   5.028
 4163SOL     OW13387   6.094   1.436   3.032
 4163SOL    HW113388   6.097   1.396   3.124
 4163SOL    HW213389   6.023   1.390   2.978
 4164SOL     OW13390   1.670   0.416   6.869
 4164SOL    HW113391   1.720   0.471   6.802
 4164SOL    HW213392   1.586   0.382   6.828
 4165SOL     OW13393   4.394   6.471   1.155
 4165SOL    HW113394   4.367   6.526   1.234
 4165SOL    HW213395   4.381   6.524   1.072
 4166SOL     OW13396   3.873   2.348   1.087
 4166SOL    HW113397   3.784   2.391   1.073
 4166SOL    HW213398   3.934   2.411   1.134
 4167SOL     OW13399   2.426   2.645   1.023
 4167SOL    HW113400   2.524   2.664   1.032
 4167SOL    HW213401   2.405   2.626   0.927
 4168SOL     OW13402   0.087   5.360   0.997
 4168SOL    HW113403   0.135   5.339   1.082
 4168SOL    HW213404   0.144   5.335   0.919
 4169SOL     OW13405   5.217   3.868   4.402
 4169SOL    HW113406   5.239   3.965   4.402
 4169SOL    HW213407   5.127   3.853   4.445
 4170SOL     OW13408   4.056   2.604   5.604
 4170SOL    HW113409   4.028   2.626   5.511
 4170SOL    HW213410   4.115   2.676   5.639
 4171SOL     OW13411   4.810   3.982   1.127
 4171SOL    HW113412   4.738   4.037   1.085
 4171SOL    HW213413   4.769   3.913   1.187
 4172SOL     OW13414   6.850   2.462   0.099
 4172SOL    HW113415   6.925   2.432   0.041
 4172SOL    HW213416   6.810   2.382   0.146
 4173SOL     OW13417   5.563   3.301   5.194
 4173SOL    HW113418   5.630   3.367   5.226
 4173SOL    HW213419   5.529   3.248   5.271
 4174SOL     OW13420   4.929   0.825   4.090
 4174SOL    HW113421   4.969   0.910   4.125
 4174SOL    HW213422   4.830   0.837   4.079
 4175SOL     OW13423   3.517   0.142   3.981
 4175SOL    HW113424   3.536   0.228   4.029
 4175SOL    HW213425   3.428   0.107   4.009
 4176SOL     OW13426   4.067   0.164   2.558
 4176SOL    HW113427   3.967   0.152   2.558
 4176SOL    HW213428   4.098   0.187   2.650
 4177SOL     OW13429   0.508   4.945   5.079
 4177SOL    HW113430   0.526   4.964   4.982
 4177SOL    HW213431   0.509   5.030   5.130
 4178SOL     OW13432   3.523   0.942   5.851
 4178SOL    HW113433   3.506   0.928   5.949
 4178SOL    HW213434   3.461   0.883   5.799
 4179SOL     OW13435   6.229   3.018   4.168
 4179SOL    HW113436   6.153   3.038   4.230
 4179SOL    HW213437   6.234   2.919   4.152
 4180SOL     OW13438   5.693   4.451   2.034
 4180SOL    HW113439   5.723   4.490   2.121
 4180SOL    HW213440   5.768   4.452   1.968
 4181SOL     OW13441   1.070   2.157   6.244
 4181SOL    HW113442   1.133   2.095   6.196
 4181SOL    HW213443   1.123   2.231   6.285
 4182SOL     OW13444   0.683   0.346   2.599
 4182SOL    HW113445   0.608   0.362   2.663
 4182SOL    HW213446   0.764   0.317   2.648
 4183SOL     OW13447   2.669   1.903   1.709
 4183SOL    HW113448   2.682   1.943   1.618
 4183SOL    HW213449   2.629   1.971   1.770
 4184SOL     OW13450   3.691   5.645   1.110
 4184SOL    HW113451   3.787   5.655   1.083
 4184SOL    HW213452   3.674   5.702   1.191
 4185SOL     OW13453   0.694   6.013   3.370
 4185SOL    HW113454   0.746   6.086   3.326
 4185SOL    HW213455   0.736   5.925   3.346
 4186SOL     OW13456   2.165   3.839   6.746
 4186SOL    HW113457   2.184   3.817   6.842
 4186SOL    HW213458   2.219   3.918   6.719
 4187SOL     OW13459   3.396   3.190   5.741
 4187SOL    HW113460   3.437   3.281   5.754
 4187SOL    HW213461   3.468   3.121   5.741
 4188SOL     OW13462   4.598   0.686   4.695
 4188SOL    HW113463   4.585   0.777   4.735
 4188SOL    HW213464   4.680   0.645   4.735
 4189SOL     OW13465   3.189   1.484   4.424
 4189SOL    HW113466   3.206   1.503   4.521
 4189SOL    HW213467   3.094   1.456   4.412
 4190SOL     OW13468   2.362   0.630   6.629
 4190SOL    HW113469   2.444   0.592   6.585
 4190SOL    HW213470   2.365   0.610   6.727
 4191SOL     OW13471   5.745   3.187   2.913
 4191SOL    HW113472   5.675   3.116   2.908
 4191SOL    HW213473   5.826   3.152   2.960
 4192SOL     OW13474   5.891   1.300   2.929
 4192SOL    HW113475   5.809   1.242   2.927
 4192SOL    HW213476   5.874   1.384   2.877
 4193SOL     OW13477   2.329   6.715   2.011
 4193SOL    HW113478   2.232   6.705   1.988
 4193SOL    HW213479   2.354   6.650   2.082
 4194SOL     OW13480   6.782   1.797   4.595
 4194SOL    HW113481   6.830   1.855   4.529
 4194SOL    HW213482   6.687   1.825   4.602
 4195SOL     OW13483   4.472   0.474   1.288
 4195SOL    HW113484   4.492   0.483   1.386
 4195SOL    HW213485   4.447   0.379   1.268
 4196SOL     OW13486   5.581   2.415   3.942
 4196SOL    HW113487   5.546   2.339   3.997
 4196SOL    HW213488   5.504   2.467   3.905
 4197SOL     OW13489   5.280   4.313   4.617
 4197SOL    HW113490   5.242   4.401   4.591
 4197SOL    HW213491   5.228   4.276   4.694
 4198SOL     OW13492   5.711   3.097   0.069
 4198SOL    HW113493   5.657   3.159   0.012
 4198SOL    HW213494   5.785   3.058   0.014
 4199SOL     OW13495   3.085   3.036   5.038
 4199SOL    HW113496   3.051   3.117   4.990
 4199SOL    HW213497   3.185   3.034   5.035
 4200SOL     OW13498   2.216   6.849   6.401
 4200SOL    HW113499   2.199   6.891   6.490
 4200SOL    HW213500   2.210   6.750   6.408
 4201SOL     OW13501   6.379   6.864   3.197
 4201SOL    HW113502   6.287   6.902   3.207
 4201SOL    HW213503   6.378   6.768   3.225
 4202SOL     OW13504   5.399   4.620   5.742
 4202SOL    HW113505   5.386   4.701   5.685
 4202SOL    HW213506   5.383   4.538   5.687
 4203SOL     OW13507   4.856   6.177   2.984
 4203SOL    HW113508   4.902   6.193   3.072
 4203SOL    HW213509   4.891   6.092   2.943
 4204SOL     OW13510   2.826   3.036   1.728
 4204SOL    HW113511   2.904   2.988   1.767
 4204SOL    HW213512   2.855   3.124   1.691
 4205SOL     OW13513   3.291   5.019   4.425
 4205SOL    HW113514   3.247   5.081   4.360
 4205SOL    HW213515   3.390   5.031   4.421
 4206SOL     OW13516   4.372   0.097   5.337
 4206SOL    HW113517   4.330   0.171   5.284
 4206SOL    HW213518   4.303   0.055   5.395
 4207SOL     OW13519   1.511   1.458   1.619
 4207SOL    HW113520   1.578   1.518   1.576
 4207SOL    HW213521   1.427   1.455   1.564
 4208SOL     OW13522   1.729   2.741   1.208
 4208SOL    HW113523   1.659   2.793   1.158
 4208SOL    HW213524   1.789   2.696   1.142
 4209SOL     OW13525   1.290   0.047   4.760
 4209SOL    HW113526   1.319   6.977   4.759
 4209SOL    HW213527   1.356   0.102   4.709
 4210SOL     OW13528   3.938   3.378   1.228
 4210SOL    HW113529   3.986   3.382   1.316
 4210SOL    HW213530   3.839   3.379   1.245
 4211SOL     OW13531   4.931   4.895   5.009
 4211SOL    HW113532   4.835   4.885   4.983
 4211SOL    HW213533   4.938   4.965   5.080
 4212SOL     OW13534   6.079   1.371   2.559
 4212SOL    HW113535   6.174   1.375   2.589
 4212SOL    HW213536   6.041   1.280   2.580
 4213SOL     OW13537   1.892   1.095   1.941
 4213SOL    HW113538   1.931   1.150   1.867
 4213SOL    HW213539   1.874   1.002   1.909
 4214SOL     OW13540   0.786   3.358   5.914
 4214SOL    HW113541   0.748   3.300   5.986
 4214SOL    HW213542   0.853   3.306   5.861
 4215SOL     OW13543   0.693   5.870   4.800
 4215SOL    HW113544   0.721   5.785   4.755
 4215SOL    HW213545   0.660   5.935   4.731
 4216SOL     OW13546   1.180   2.237   4.053
 4216SOL    HW113547   1.090   2.251   4.093
 4216SOL    HW213548   1.173   2.237   3.953
 4217SOL     OW13549   0.379   0.260   2.484
 4217SOL    HW113550   0.330   0.258   2.397
 4217SOL    HW213551   0.418   0.351   2.499
 4218SOL     OW13552   5.111   0.102   1.913
 4218SOL    HW113553   5.194   0.095   1.859
 4218SOL    HW213554   5.045   0.160   1.866
 4219SOL     OW13555   3.622   4.944   5.099
 4219SOL    HW113556   3.579   4.862   5.137
 4219SOL    HW213557   3.616   4.941   4.999
 4220SOL     OW13558   6.365   3.418   3.619
 4220SOL    HW113559   6.356   3.343   3.685
 4220SOL    HW213560   6.325   3.390   3.532
 4221SOL     OW13561   5.335   5.350   6.242
 4221SOL    HW113562   5.242   5.382   6.224
 4221SOL    HW213563   5.357   5.362   6.339
 4222SOL     OW13564   5.820   2.313   1.903
 4222SOL    HW113565   5.750   2.382   1.923
 4222SOL    HW213566   5.795   2.266   1.818
 4223SOL     OW13567   3.391   3.939   2.489
 4223SOL    HW113568   3.385   3.841   2.470
 4223SOL    HW213569   3.362   3.991   2.409
 4224SOL     OW13570   4.937   2.482   4.942
 4224SOL    HW113571   4.932   2.390   4.981
 4224SOL    HW213572   4.989   2.542   5.003
 4225SOL     OW13573   5.987   0.679   4.559
 4225SOL    HW113574   6.058   0.703   4.625
 4225SOL    HW213575   5.899   0.668   4.607
 4226SOL     OW13576   0.882   0.907   3.507
 4226SOL    HW113577   0.800   0.849   3.516
 4226SOL    HW213578   0.874   0.986   3.568
 4227SOL     OW13579   3.857   4.812   0.421
 4227SOL    HW113580   3.848   4.716   0.445
 4227SOL    HW213581   3.842   4.823   0.322
 4228SOL     OW13582   5.669   5.946   3.710
 4228SOL    HW113583   5.767   5.938   3.694
 4228SOL    HW213584   5.637   6.035   3.676
 4229SOL     OW13585   4.279   5.210   6.418
 4229SOL    HW113586   4.257   5.160   6.502
 4229SOL    HW213587   4.365   5.260   6.430
 4230SOL     OW13588   3.121   0.423   5.318
 4230SOL    HW113589   3.028   0.442   5.351
 4230SOL    HW213590   3.134   0.325   5.310
 4231SOL     OW13591   5.216   6.693   5.219
 4231SOL    HW113592   5.241   6.596   5.224
 4231SOL    HW213593   5.229   6.735   5.309
 4232SOL     OW13594   1.340   5.310   2.354
 4232SOL    HW113595   1.251   5.323   2.397
 4232SOL    HW213596   1.329   5.265   2.266
 4233SOL     OW13597   5.814   0.394   6.961
 4233SOL    HW113598   5.886   0.369   6.897
 4233SOL    HW213599   5.840   0.477   7.010
 4234SOL     OW13600   3.044   5.375   6.261
 4234SOL    HW113601   2.969   5.368   6.194
 4234SOL    HW213602   3.108   5.299   6.247
 4235SOL     OW13603   6.139   4.509   5.784
 4235SOL    HW113604   6.213   4.442   5.783
 4235SOL    HW213605   6.159   4.581   5.717
 4236SOL     OW13606   0.367   2.597   3.759
 4236SOL    HW113607   0.452   2.575   3.710
 4236SOL    HW213608   0.360   2.541   3.841
 4237SOL     OW13609   5.023   4.306   5.046
 4237SOL    HW113610   5.101   4.245   5.062
 4237SOL    HW213611   5.012   4.322   4.948
 4238SOL     OW13612   3.971   5.354   3.697
 4238SOL    HW113613   3.899   5.375   3.630
 4238SOL    HW213614   3.974   5.425   3.767
 4239SOL     OW13615   4.489   6.291   5.349
 4239SOL    HW113616   4.517   6.386   5.363
 4239SOL    HW213617   4.459   6.252   5.436
 4240SOL     OW13618   2.784   5.127   0.200
 4240SOL    HW113619   2.782   5.027   0.200
 4240SOL    HW213620   2.835   5.160   0.279
 4241SOL     OW13621   5.164   0.077   1.353
 4241SOL    HW113622   5.117   0.101   1.439
 4241SOL    HW213623   5.104   0.019   1.298
 4242SOL     OW13624   2.506   6.715   2.463
 4242SOL    HW113625   2.526   6.811   2.485
 4242SOL    HW213626   2.572   6.656   2.510
 4243SOL     OW13627   0.743   3.763   2.287
 4243SOL    HW113628   0.755   3.667   2.261
 4243SOL    HW213629   0.692   3.811   2.215
 4244SOL     OW13630   4.947   6.424   1.091
 4244SOL    HW113631   4.847   6.425   1.099
 4244SOL    HW213632   4.974   6.470   1.007
 4245SOL     OW13633   6.418   2.839   0.455
 4245SOL    HW113634   6.455   2.867   0.367
 4245SOL    HW213635   6.328   2.881   0.469
 4246SOL     OW13636   5.233   2.471   2.989
 4246SOL    HW113637   5.260   2.564   3.014
 4246SOL    HW213638   5.245   2.459   2.890
 4247SOL     OW13639   1.947   4.956   4.891
 4247SOL    HW113640   1.999   4.874   4.912
 4247SOL    HW213641   1.995   5.037   4.926
 4248SOL     OW13642   1.808   0.828   2.592
 4248SOL    HW113643   1.777   0.896   2.525
 4248SOL    HW213644   1.745   0.826   2.669
 4249SOL     OW13645   0.098   0.880   4.522
 4249SOL    HW113646   0.071   0.956   4.464
 4249SOL    HW213647   0.021   0.818   4.534
 4250SOL     OW13648   6.957   6.168   4.198
 4250SOL    HW113649   6.922   6.258   4.224
 4250SOL    HW213650   6.879   6.107   4.177
 4251SOL     OW13651   5.963   2.481   6.385
 4251SOL    HW113652   5.934   2.513   6.295
 4251SOL    HW213653   6.061   2.498   6.397
 4252SOL     OW13654   6.470   6.173   5.390
 4252SOL    HW113655   6.386   6.136   5.429
 4252SOL    HW213656   6.484   6.267   5.422
 4253SOL     OW13657   4.637   6.108   2.677
 4253SOL    HW113658   4.561   6.132   2.737
 4253SOL    HW213659   4.620   6.142   2.585
 4254SOL     OW13660   1.960   3.445   6.794
 4254SOL    HW113661   1.946   3.467   6.697
 4254SOL    HW213662   2.058   3.436   6.813
 4255SOL     OW13663   0.322   3.774   2.803
 4255SOL    HW113664   0.360   3.857   2.844
 4255SOL    HW213665   0.397   3.713   2.777
 4256SOL     OW13666   0.642   5.029   2.314
 4256SOL    HW113667   0.720   5.001   2.257
 4256SOL    HW213668   0.675   5.069   2.399
 4257SOL     OW13669   6.068   0.815   4.984
 4257SOL    HW113670   6.025   0.905   4.999
 4257SOL    HW213671   6.004   0.743   5.008
 4258SOL     OW13672   3.625   6.139   0.563
 4258SOL    HW113673   3.579   6.210   0.510
 4258SOL    HW213674   3.640   6.058   0.505
 4259SOL     OW13675   0.725   6.646   1.606
 4259SOL    HW113676   0.715   6.745   1.613
 4259SOL    HW213677   0.794   6.614   1.671
 4260SOL     OW13678   5.169   0.085   4.978
 4260SOL    HW113679   5.081   0.070   4.935
 4260SOL    HW213680   5.156   0.107   5.075
 4261SOL     OW13681   1.710   0.053   4.095
 4261SOL    HW113682   1.751   0.118   4.158
 4261SOL    HW213683   1.688   6.995   4.144
 4262SOL     OW13684   1.542   4.687   6.636
 4262SOL    HW113685   1.531   4.721   6.543
 4262SOL    HW213686   1.590   4.599   6.634
 4263SOL     OW13687   2.752   2.063   3.468
 4263SOL    HW113688   2.749   1.990   3.400
 4263SOL    HW213689   2.744   2.023   3.560
 4264SOL     OW13690   5.545   1.675   4.018
 4264SOL    HW113691   5.519   1.757   3.967
 4264SOL    HW213692   5.464   1.619   4.035
 4265SOL     OW13693   2.685   0.455   0.803
 4265SOL    HW113694   2.653   0.369   0.763
 4265SOL    HW213695   2.643   0.467   0.893
 4266SOL     OW13696   1.057   6.622   0.218
 4266SOL    HW113697   1.103   6.536   0.196
 4266SOL    HW213698   0.963   6.619   0.186
 4267SOL     OW13699   1.838   4.024   4.410
 4267SOL    HW113700   1.937   4.034   4.417
 4267SOL    HW213701   1.816   3.963   4.334
 4268SOL     OW13702   1.339   4.852   6.761
 4268SOL    HW113703   1.412   4.787   6.741
 4268SOL    HW213704   1.292   4.877   6.676
 4269SOL     OW13705   3.312   1.857   4.293
 4269SOL    HW113706   3.270   1.945   4.315
 4269SOL    HW213707   3.242   1.785   4.293
 4270SOL     OW13708   3.959   2.618   0.525
 4270SOL    HW113709   4.015   2.535   0.521
 4270SOL    HW213710   3.883   2.610   0.460
 4271SOL     OW13711   6.417   0.471   0.963
 4271SOL    HW113712   6.427   0.409   1.041
 4271SOL    HW213713   6.385   0.560   0.995
 4272SOL     OW13714   6.191   3.028   5.684
 4272SOL    HW113715   6.244   3.024   5.769
 4272SOL    HW213716   6.140   3.114   5.680
 4273SOL     OW13717   4.523   5.734   4.926
 4273SOL    HW113718   4.574   5.808   4.881
 4273SOL    HW213719   4.585   5.682   4.985
 4274SOL     OW13720   6.343   6.880   1.911
 4274SOL    HW113721   6.330   6.951   1.981
 4274SOL    HW213722   6.379   6.797   1.954
 4275SOL     OW13723   0.717   2.504   3.695
 4275SOL    HW113724   0.685   2.514   3.789
 4275SOL    HW213725   0.814   2.529   3.689
 4276SOL     OW13726   2.823   6.085   4.034
 4276SOL    HW113727   2.766   6.004   4.028
 4276SOL    HW213728   2.782   6.159   3.980
 4277SOL     OW13729   6.148   5.562   4.312
 4277SOL    HW113730   6.165   5.562   4.213
 4277SOL    HW213731   6.162   5.469   4.348
 4278SOL     OW13732   0.788   0.111   1.936
 4278SOL    HW113733   0.882   0.131   1.964
 4278SOL    HW213734   0.745   0.050   2.002
 4279SOL     OW13735   1.882   2.532   2.752
 4279SOL    HW113736   1.976   2.512   2.721
 4279SOL    HW213737   1.865   2.484   2.838
 4280SOL     OW13738   6.753   6.689   6.162
 4280SOL    HW113739   6.658   6.658   6.167
 4280SOL    HW213740   6.780   6.729   6.250
 4281SOL     OW13741   4.642   5.204   3.912
 4281SOL    HW113742   4.626   5.206   4.010
 4281SOL    HW213743   4.706   5.277   3.887
 4282SOL     OW13744   3.614   4.389   1.103
 4282SOL    HW113745   3.611   4.436   1.015
 4282SOL    HW213746   3.533   4.331   1.113
 4283SOL     OW13747   4.812   1.199   3.567
 4283SOL    HW113748   4.723   1.161   3.589
 4283SOL    HW213749   4.803   1.298   3.550
 4284SOL     OW13750   5.092   6.008   0.068
 4284SOL    HW113751   5.184   5.982   0.039
 4284SOL    HW213752   5.025   5.960   0.012
 4285SOL     OW13753   3.220   0.679   6.104
 4285SOL    HW113754   3.176   0.759   6.147
 4285SOL    HW213755   3.163   0.648   6.028
 4286SOL     OW13756   6.922   0.942   6.357
 4286SOL    HW113757   6.885   0.935   6.450
 4286SOL    HW213758   6.854   0.913   6.291
 4287SOL     OW13759   4.527   0.678   0.078
 4287SOL    HW113760   4.603   0.735   0.047
 4287SOL    HW213761   4.547   0.644   0.170
 4288SOL     OW13762   6.833   6.153   2.222
 4288SOL    HW113763   6.918   6.115   2.260
 4288SOL    HW213764   6.811   6.239   2.269
 4289SOL     OW13765   0.728   2.994   4.770
 4289SOL    HW113766   0.638   2.990   4.814
 4289SOL    HW213767   0.716   2.988   4.670
 4290SOL     OW13768   0.334   0.545   3.186
 4290SOL    HW113769   0.433   0.532   3.196
 4290SOL    HW213770   0.306   0.627   3.237
 4291SOL     OW13771   4.935   3.409   5.860
 4291SOL    HW113772   4.923   3.362   5.947
 4291SOL    HW213773   5.009   3.366   5.808
 4292SOL     OW13774   5.235   1.892   0.655
 4292SOL    HW113775   5.296   1.904   0.578
 4292SOL    HW213776   5.189   1.803   0.648
 4293SOL     OW13777   4.603   3.674   6.564
 4293SOL    HW113778   4.688   3.628   6.539
 4293SOL    HW213779   4.529   3.607   6.570
 4294SOL     OW13780   3.247   1.921   6.325
 4294SOL    HW113781   3.195   1.836   6.327
 4294SOL    HW213782   3.251   1.956   6.231
 4295SOL     OW13783   4.334   6.464   2.877
 4295SOL    HW113784   4.409   6.432   2.935
 4295SOL    HW213785   4.368   6.537   2.817
 4296SOL     OW13786   2.521   6.750   0.968
 4296SOL    HW113787   2.612   6.772   1.005
 4296SOL    HW213788   2.456   6.741   1.044
 4297SOL     OW13789   6.030   5.684   0.682
 4297SOL    HW113790   6.048   5.634   0.598
 4297SOL    HW213791   6.029   5.783   0.663
 4298SOL     OW13792   3.204   6.431   1.401
 4298SOL    HW113793   3.246   6.421   1.311
 4298SOL    HW213794   3.213   6.525   1.433
 4299SOL     OW13795   0.821   2.360   0.135
 4299SOL    HW113796   0.831   2.270   0.092
 4299SOL    HW213797   0.911   2.402   0.147
 4300SOL     OW13798   3.796   0.495   1.173
 4300SOL    HW113799   3.704   0.488   1.134
 4300SOL    HW213800   3.849   0.415   1.145
 4301SOL     OW13801   3.101   6.891   2.441
 4301SOL    HW113802   3.030   6.872   2.509
 4301SOL    HW213803   3.064   6.878   2.349
 4302SOL     OW13804   2.008   5.902   6.328
 4302SOL    HW113805   1.942   5.827   6.321
 4302SOL    HW213806   1.975   5.969   6.394
 4303SOL     OW13807   6.185   4.302   4.531
 4303SOL    HW113808   6.170   4.211   4.493
 4303SOL    HW213809   6.151   4.306   4.625
 4304SOL     OW13810   3.505   3.582   1.675
 4304SOL    HW113811   3.509   3.679   1.653
 4304SOL    HW213812   3.459   3.569   1.763
 4305SOL     OW13813   0.440   0.087   5.422
 4305SOL    HW113814   0.447   0.104   5.520
 4305SOL    HW213815   0.489   0.159   5.372
 4306SOL     OW13816   4.927   3.863   4.408
 4306SOL    HW113817   4.873   3.931   4.457
 4306SOL    HW213818   4.950   3.897   4.317
 4307SOL     OW13819   6.076   1.782   5.281
 4307SOL    HW113820   6.105   1.782   5.376
 4307SOL    HW213821   6.081   1.689   5.244
 4308SOL     OW13822   5.018   4.601   1.534
 4308SOL    HW113823   5.006   4.699   1.513
 4308SOL    HW213824   5.022   4.549   1.449
 4309SOL     OW13825   1.295   3.573   0.591
 4309SOL    HW113826   1.318   3.478   0.609
 4309SOL    HW213827   1.210   3.578   0.539
 4310SOL     OW13828   0.006   1.703   1.949
 4310SOL    HW113829   0.061   1.718   1.866
 4310SOL    HW213830   0.045   1.627   2.001
 4311SOL     OW13831   0.991   6.451   2.319
 4311SOL    HW113832   1.026   6.400   2.397
 4311SOL    HW213833   0.969   6.388   2.245
 4312SOL     OW13834   0.428   4.828   2.077
 4312SOL    HW113835   0.375   4.778   2.009
 4312SOL    HW213836   0.408   4.792   2.168
 4313SOL     OW13837   6.263   1.560   6.563
 4313SOL    HW113838   6.184   1.498   6.566
 4313SOL    HW213839   6.255   1.627   6.636
 4314SOL     OW13840   6.683   2.604   4.734
 4314SOL    HW113841   6.742   2.560   4.803
 4314SOL    HW213842   6.740   2.636   4.658
 4315SOL     OW13843   2.647   1.204   4.249
 4315SOL    HW113844   2.699   1.227   4.332
 4315SOL    HW213845   2.616   1.109   4.255
 4316SOL     OW13846   5.704   7.013   2.223
 4316SOL    HW113847   5.687   0.085   2.217
 4316SOL    HW213848   5.631   6.970   2.277
 4317SOL     OW13849   5.266   1.022   5.896
 4317SOL    HW113850   5.249   0.971   5.980
 4317SOL    HW213851   5.193   1.089   5.881
 4318SOL     OW13852   0.886   1.772   4.022
 4318SOL    HW113853   0.814   1.743   3.958
 4318SOL    HW213854   0.889   1.708   4.099
 4319SOL     OW13855   1.130   4.049   2.032
 4319SOL    HW113856   1.140   4.059   1.933
 4319SOL    HW213857   1.109   3.954   2.055
 4320SOL     OW13858   3.688   6.543   0.193
 4320SOL    HW113859   3.707   6.498   0.280
 4320SOL    HW213860   3.772   6.550   0.140
 4321SOL     OW13861   6.402   6.754   2.506
 4321SOL    HW113862   6.412   6.832   2.568
 4321SOL    HW213863   6.327   6.772   2.441
 4322SOL     OW13864   0.765   3.091   5.337
 4322SOL    HW113865   0.771   3.010   5.279
 4322SOL    HW213866   0.723   3.067   5.425
 4323SOL     OW13867   4.346   5.582   0.145
 4323SOL    HW113868   4.391   5.589   0.234
 4323SOL    HW213869   4.275   5.511   0.149
 4324SOL     OW13870   0.239   3.529   5.896
 4324SOL    HW113871   0.193   3.588   5.828
 4324SOL    HW213872   0.318   3.578   5.934
 4325SOL     OW13873   3.322   0.756   2.503
 4325SOL    HW113874   3.267   0.755   2.419
 4325SOL    HW213875   3.399   0.819   2.492
 4326SOL     OW13876   5.104   2.634   2.556
 4326SOL    HW113877   5.155   2.552   2.533
 4326SOL    HW213878   5.166   2.704   2.590
 4327SOL     OW13879   3.771   5.534   4.366
 4327SOL    HW113880   3.809   5.479   4.292
 4327SOL    HW213881   3.685   5.493   4.397
 4328SOL     OW13882   5.789   5.340   5.233
 4328SOL    HW113883   5.852   5.267   5.205
 4328SOL    HW213884   5.837   5.403   5.294
 4329SOL     OW13885   5.946   2.839   6.150
 4329SOL    HW113886   5.918   2.873   6.240
 4329SOL    HW213887   5.896   2.888   6.079
 4330SOL     OW13888   2.780   5.055   5.288
 4330SOL    HW113889   2.750   4.966   5.253
 4330SOL    HW213890   2.750   5.065   5.383
 4331SOL     OW13891   6.399   0.598   1.574
 4331SOL    HW113892   6.306   0.562   1.563
 4331SOL    HW213893   6.451   0.537   1.634
 4332SOL     OW13894   6.953   4.875   2.630
 4332SOL    HW113895   6.996   4.798   2.677
 4332SOL    HW213896   6.993   4.885   2.539
 4333SOL     OW13897   4.321   2.105   5.060
 4333SOL    HW113898   4.302   2.117   4.962
 4333SOL    HW213899   4.348   2.010   5.077
 4334SOL     OW13900   1.428   3.017   3.611
 4334SOL    HW113901   1.439   3.059   3.521
 4334SOL    HW213902   1.427   3.089   3.681
 4335SOL     OW13903   3.430   3.549   1.399
 4335SOL    HW113904   3.452   3.568   1.494
 4335SOL    HW213905   3.353   3.608   1.371
 4336SOL     OW13906   2.352   5.849   5.814
 4336SOL    HW113907   2.437   5.843   5.866
 4336SOL    HW213908   2.346   5.939   5.770
 4337SOL     OW13909   1.350   5.548   2.552
 4337SOL    HW113910   1.301   5.479   2.604
 4337SOL    HW213911   1.426   5.505   2.502
 4338SOL     OW13912   4.932   0.549   5.966
 4338SOL    HW113913   4.932   0.574   6.063
 4338SOL    HW213914   4.913   0.631   5.911
 4339SOL     OW13915   4.316   2.726   5.661
 4339SOL    HW113916   4.360   2.807   5.700
 4339SOL    HW213917   4.343   2.715   5.566
 4340SOL     OW13918   6.627   4.073   0.937
 4340SOL    HW113919   6.586   4.144   0.995
 4340SOL    HW213920   6.688   4.016   0.992
 4341SOL     OW13921   1.237   6.077   2.693
 4341SOL    HW113922   1.221   5.986   2.654
 4341SOL    HW213923   1.190   6.146   2.638
 4342SOL     OW13924   5.032   4.054   2.660
 4342SOL    HW113925   5.001   4.055   2.756
 4342SOL    HW213926   4.979   3.987   2.609
 4343SOL     OW13927   3.997   0.359   6.258
 4343SOL    HW113928   3.903   0.347   6.291
 4343SOL    HW213929   3.995   0.389   6.163
 4344SOL     OW13930   6.919   2.516   4.063
 4344SOL    HW113931   6.884   2.514   3.970
 4344SOL    HW213932   7.009   2.473   4.066
 4345SOL     OW13933   2.865   3.591   2.334
 4345SOL    HW113934   2.774   3.563   2.364
 4345SOL    HW213935   2.930   3.580   2.409
 4346SOL     OW13936   1.815   3.164   1.794
 4346SOL    HW113937   1.850   3.251   1.762
 4346SOL    HW213938   1.769   3.176   1.882
 4347SOL     OW13939   5.708   5.046   1.999
 4347SOL    HW113940   5.734   4.950   1.996
 4347SOL    HW213941   5.618   5.055   2.040
 4348SOL     OW13942   6.547   5.960   4.325
 4348SOL    HW113943   6.459   5.923   4.295
 4348SOL    HW213944   6.545   5.977   4.423
 4349SOL     OW13945   0.144   3.850   3.739
 4349SOL    HW113946   0.107   3.927   3.791
 4349SOL    HW213947   0.117   3.764   3.782
 4350SOL     OW13948   4.927   1.248   5.040
 4350SOL    HW113949   4.979   1.203   4.968
 4350SOL    HW213950   4.989   1.301   5.098
 4351SOL     OW13951   1.044   6.798   0.813
 4351SOL    HW113952   1.075   6.708   0.844
 4351SOL    HW213953   1.095   6.825   0.731
 4352SOL     OW13954   4.058   3.987   0.706
 4352SOL    HW113955   4.047   3.891   0.679
 4352SOL    HW213956   4.052   4.045   0.625
 4353SOL     OW13957   2.867   3.146   0.145
 4353SOL    HW113958   2.921   3.061   0.143
 4353SOL    HW213959   2.797   3.139   0.216
 4354SOL     OW13960   6.102   0.180   4.410
 4354SOL    HW113961   6.098   0.104   4.476
 4354SOL    HW213962   6.196   0.192   4.379
 4355SOL     OW13963   1.775   6.826   3.660
 4355SOL    HW113964   1.750   6.739   3.701
 4355SOL    HW213965   1.782   6.896   3.732
 4356SOL     OW13966   5.289   2.280   6.481
 4356SOL    HW113967   5.367   2.317   6.532
 4356SOL    HW213968   5.204   2.323   6.513
 4357SOL     OW13969   6.513   0.402   1.738
 4357SOL    HW113970   6.580   0.425   1.808
 4357SOL    HW213971   6.425   0.383   1.781
 4358SOL     OW13972   0.742   0.749   6.952
 4358SOL    HW113973   0.694   0.685   7.012
 4358SOL    HW213974   0.691   0.835   6.949
 4359SOL     OW13975   2.222   0.872   6.706
 4359SOL    HW113976   2.265   0.788   6.673
 4359SOL    HW213977   2.123   0.860   6.709
 4360SOL     OW13978   1.728   3.130   3.718
 4360SOL    HW113979   1.763   3.036   3.711
 4360SOL    HW213980   1.801   3.194   3.694
 4361SOL     OW13981   1.133   1.987   0.652
 4361SOL    HW113982   1.073   1.969   0.574
 4361SOL    HW213983   1.087   2.050   0.715
 4362SOL     OW13984   1.384   5.822   3.888
 4362SOL    HW113985   1.297   5.868   3.906
 4362SOL    HW213986   1.452   5.890   3.860
 4363SOL     OW13987   4.550   0.493   2.638
 4363SOL    HW113988   4.529   0.527   2.547
 4363SOL    HW213989   4.644   0.515   2.662
 4364SOL     OW13990   3.400   3.660   2.850
 4364SOL    HW113991   3.442   3.751   2.843
 4364SOL    HW213992   3.435   3.601   2.778
 4365SOL     OW13993   3.016   2.226   1.754
 4365SOL    HW113994   2.983   2.147   1.807
 4365SOL    HW213995   2.980   2.310   1.793
 4366SOL     OW13996   5.118   6.292   5.108
 4366SOL    HW113997   5.032   6.289   5.158
 4366SOL    HW213998   5.142   6.201   5.075
 4367SOL     OW13999   3.162   5.606   3.970
 4367SOL    HW114000   3.099   5.531   3.989
 4367SOL    HW214001   3.252   5.585   4.008
 4368SOL     OW14002   5.219   4.630   2.253
 4368SOL    HW114003   5.129   4.631   2.297
 4368SOL    HW214004   5.211   4.669   2.161
 4369SOL     OW14005   4.501   5.028   2.682
 4369SOL    HW114006   4.424   5.045   2.744
 4369SOL    HW214007   4.468   4.977   2.602
 4370SOL     OW14008   3.788   4.907   1.750
 4370SOL    HW114009   3.718   4.851   1.796
 4370SOL    HW214010   3.800   4.875   1.656
 4371SOL     OW14011   2.320   0.465   1.210
 4371SOL    HW114012   2.300   0.563   1.214
 4371SOL    HW214013   2.340   0.432   1.302
 4372SOL     OW14014   1.862   3.019   4.662
 4372SOL    HW114015   1.866   2.920   4.649
 4372SOL    HW214016   1.952   3.054   4.687
 4373SOL     OW14017   4.409   0.942   6.086
 4373SOL    HW114018   4.311   0.947   6.070
 4373SOL    HW214019   4.428   0.877   6.159
 4374SOL     OW14020   2.482   1.458   1.326
 4374SOL    HW114021   2.561   1.496   1.277
 4374SOL    HW214022   2.411   1.434   1.261
 4375SOL     OW14023   3.529   0.824   3.657
 4375SOL    HW114024   3.469   0.809   3.577
 4375SOL    HW214025   3.473   0.824   3.740
 4376SOL     OW14026   6.611   6.713   1.156
 4376SOL    HW114027   6.577   6.791   1.104
 4376SOL    HW214028   6.553   6.698   1.236
 4377SOL     OW14029   6.150   6.393   6.554
 4377SOL    HW114030   6.134   6.420   6.459
 4377SOL    HW214031   6.120   6.298   6.567
 4378SOL     OW14032   1.889   6.010   2.417
 4378SOL    HW114033   1.882   6.108   2.434
 4378SOL    HW214034   1.868   5.991   2.321
 4379SOL     OW14035   1.054   1.334   1.351
 4379SOL    HW114036   1.102   1.399   1.291
 4379SOL    HW214037   0.997   1.274   1.295
 4380SOL     OW14038   1.700   5.913   5.361
 4380SOL    HW114039   1.672   5.980   5.429
 4380SOL    HW214040   1.797   5.927   5.337
 4381SOL     OW14041   3.546   0.297   4.719
 4381SOL    HW114042   3.605   0.295   4.638
 4381SOL    HW214043   3.552   0.387   4.762
 4382SOL     OW14044   5.136   3.998   4.802
 4382SOL    HW114045   5.166   3.903   4.791
 4382SOL    HW214046   5.156   4.049   4.718
 4383SOL     OW14047   0.966   2.802   5.925
 4383SOL    HW114048   1.049   2.848   5.892
 4383SOL    HW214049   0.986   2.756   6.012
 4384SOL     OW14050   4.031   6.584   1.117
 4384SOL    HW114051   4.091   6.585   1.197
 4384SOL    HW214052   4.081   6.549   1.038
 4385SOL     OW14053   0.382   1.295   3.075
 4385SOL    HW114054   0.401   1.313   2.979
 4385SOL    HW214055   0.352   1.379   3.120
 4386SOL     OW14056   0.873   3.801   6.632
 4386SOL    HW114057   0.927   3.730   6.585
 4386SOL    HW214058   0.922   3.830   6.714
 4387SOL     OW14059   6.738   3.267   1.101
 4387SOL    HW114060   6.719   3.292   1.196
 4387SOL    HW214061   6.794   3.338   1.058
 4388SOL     OW14062   3.464   0.638   6.004
 4388SOL    HW114063   3.375   0.634   6.050
 4388SOL    HW214064   3.450   0.650   5.906
 4389SOL     OW14065   5.850   2.709   1.690
 4389SOL    HW114066   5.871   2.714   1.593
 4389SOL    HW214067   5.932   2.683   1.741
 4390SOL     OW14068   4.700   2.312   1.900
 4390SOL    HW114069   4.613   2.343   1.938
 4390SOL    HW214070   4.691   2.218   1.867
 4391SOL     OW14071   0.828   5.560   0.237
 4391SOL    HW114072   0.921   5.592   0.253
 4391SOL    HW214073   0.763   5.626   0.275
 4392SOL     OW14074   4.917   2.996   4.395
 4392SOL    HW114075   4.873   3.084   4.414
 4392SOL    HW214076   4.941   2.952   4.482
 4393SOL     OW14077   4.992   6.903   3.600
 4393SOL    HW114078   5.043   6.926   3.516
 4393SOL    HW214079   4.914   6.965   3.609
 4394SOL     OW14080   5.835   6.483   2.531
 4394SOL    HW114081   5.779   6.560   2.562
 4394SOL    HW214082   5.858   6.495   2.434
 4395SOL     OW14083   4.401   1.527   1.718
 4395SOL    HW114084   4.454   1.443   1.707
 4395SOL    HW214085   4.419   1.589   1.641
 4396SOL     OW14086   0.860   0.932   4.386
 4396SOL    HW114087   0.792   0.884   4.441
 4396SOL    HW214088   0.828   0.937   4.291
 4397SOL     OW14089   6.896   0.735   5.270
 4397SOL    HW114090   6.888   0.772   5.363
 4397SOL    HW214091   6.849   0.795   5.206
 4398SOL     OW14092   0.853   4.490   4.085
 4398SOL    HW114093   0.917   4.551   4.131
 4398SOL    HW214094   0.831   4.527   3.995
 4399SOL     OW14095   1.907   1.074   0.714
 4399SOL    HW114096   1.978   1.098   0.779
 4399SOL    HW214097   1.905   0.975   0.701
 4400SOL     OW14098   2.531   6.872   4.153
 4400SOL    HW114099   2.491   6.785   4.126
 4400SOL    HW214100   2.476   6.947   4.116
 4401SOL     OW14101   5.592   6.139   4.186
 4401SOL    HW114102   5.558   6.169   4.275
 4401SOL    HW214103   5.542   6.058   4.156
 4402SOL     OW14104   1.272   5.704   2.921
 4402SOL    HW114105   1.364   5.722   2.955
 4402SOL    HW214106   1.257   5.758   2.837
 4403SOL     OW14107   0.231   0.111   3.036
 4403SOL    HW114108   0.173   0.158   3.103
 4403SOL    HW214109   0.324   0.146   3.042
 4404SOL     OW14110   0.456   4.210   3.317
 4404SOL    HW114111   0.433   4.171   3.228
 4404SOL    HW214112   0.547   4.181   3.344
 4405SOL     OW14113   2.946   4.782   5.899
 4405SOL    HW114114   2.996   4.696   5.909
 4405SOL    HW214115   2.909   4.789   5.807
 4406SOL     OW14116   5.713   4.477   1.394
 4406SOL    HW114117   5.626   4.460   1.348
 4406SOL    HW214118   5.780   4.510   1.326
 4407SOL     OW14119   6.654   6.169   0.147
 4407SOL    HW114120   6.602   6.090   0.181
 4407SOL    HW214121   6.752   6.153   0.163
 4408SOL     OW14122   5.090   0.499   0.604
 4408SOL    HW114123   5.041   0.563   0.663
 4408SOL    HW214124   5.051   0.502   0.512
 4409SOL     OW14125   3.551   0.638   1.825
 4409SOL    HW114126   3.594   0.631   1.735
 4409SOL    HW214127   3.452   0.636   1.816
 4410SOL     OW14128   2.254   5.537   1.049
 4410SOL    HW114129   2.263   5.461   0.985
 4410SOL    HW214130   2.327   5.603   1.032
 4411SOL     OW14131   3.928   3.007   2.793
 4411SOL    HW114132   3.971   2.980   2.706
 4411SOL    HW214133   3.855   2.943   2.815
 4412SOL     OW14134   4.026   1.113   6.426
 4412SOL    HW114135   4.078   1.181   6.478
 4412SOL    HW214136   4.069   1.101   6.336
 4413SOL     OW14137   4.028   5.333   4.359
 4413SOL    HW114138   4.066   5.354   4.269
 4413SOL    HW214139   4.013   5.234   4.367
 4414SOL     OW14140   4.131   4.850   1.999
 4414SOL    HW114141   4.183   4.766   2.008
 4414SOL    HW214142   4.051   4.847   2.059
 4415SOL     OW14143   5.313   3.835   6.229
 4415SOL    HW114144   5.273   3.902   6.167
 4415SOL    HW214145   5.318   3.746   6.185
 4416SOL     OW14146   3.135   0.912   4.635
 4416SOL    HW114147   3.083   0.989   4.599
 4416SOL    HW214148   3.188   0.870   4.562
 4417SOL     OW14149   0.223   5.208   1.969
 4417SOL    HW114150   0.191   5.302   1.980
 4417SOL    HW214151   0.306   5.195   2.023
 4418SOL     OW14152   4.517   6.027   4.542
 4418SOL    HW114153   4.419   6.044   4.535
 4418SOL    HW214154   4.550   5.983   4.459
 4419SOL     OW14155   6.387   5.034   0.467
 4419SOL    HW114156   6.476   5.008   0.429
 4419SOL    HW214157   6.316   4.975   0.428
 4420SOL     OW14158   5.247   1.233   6.984
 4420SOL    HW114159   5.219   1.268   0.048
 4420SOL    HW214160   5.343   1.204   6.988
 4421SOL     OW14161   1.997   1.558   2.850
 4421SOL    HW114162   1.998   1.459   2.835
 4421SOL    HW214163   2.066   1.601   2.792
 4422SOL     OW14164   2.385   3.955   6.312
 4422SOL    HW114165   2.407   3.896   6.235
 4422SOL    HW214166   2.355   4.045   6.279
 4423SOL     OW14167   1.177   2.582   6.382
 4423SOL    HW114168   1.247   2.650   6.406
 4423SOL    HW214169   1.089   2.611   6.420
 4424SOL     OW14170   5.842   6.265   3.263
 4424SOL    HW114171   5.774   6.195   3.285
 4424SOL    HW214172   5.892   6.237   3.181
 4425SOL     OW14173   3.581   5.291   6.459
 4425SOL    HW114174   3.519   5.217   6.433
 4425SOL    HW214175   3.610   5.340   6.377
 4426SOL     OW14176   0.148   0.702   5.430
 4426SOL    HW114177   0.090   0.762   5.374
 4426SOL    HW214178   0.098   0.675   5.512
 4427SOL     OW14179   0.721   0.678   3.276
 4427SOL    HW114180   0.773   0.736   3.214
 4427SOL    HW214181   0.702   0.590   3.233
 4428SOL     OW14182   1.889   5.119   4.473
 4428SOL    HW114183   1.802   5.078   4.501
 4428SOL    HW214184   1.944   5.137   4.555
 4429SOL     OW14185   3.106   6.660   3.486
 4429SOL    HW114186   3.067   6.752   3.480
 4429SOL    HW214187   3.091   6.623   3.578
 4430SOL     OW14188   3.268   1.692   2.770
 4430SOL    HW114189   3.191   1.648   2.725
 4430SOL    HW214190   3.348   1.689   2.710
 4431SOL     OW14191   2.905   1.761   3.525
 4431SOL    HW114192   2.832   1.814   3.568
 4431SOL    HW214193   2.905   1.777   3.426
 4432SOL     OW14194   3.447   3.435   2.691
 4432SOL    HW114195   3.375   3.474   2.633
 4432SOL    HW214196   3.433   3.336   2.700
 4433SOL     OW14197   6.286   6.400   3.050
 4433SOL    HW114198   6.361   6.335   3.056
 4433SOL    HW214199   6.294   6.452   2.965
 4434SOL     OW14200   5.595   1.769   3.355
 4434SOL    HW114201   5.526   1.724   3.298
 4434SOL    HW214202   5.549   1.828   3.421
 4435SOL     OW14203   3.366   2.801   1.509
 4435SOL    HW114204   3.333   2.709   1.529
 4435SOL    HW214205   3.408   2.839   1.591
 4436SOL     OW14206   3.506   1.744   0.293
 4436SOL    HW114207   3.458   1.796   0.222
 4436SOL    HW214208   3.516   1.801   0.374
 4437SOL     OW14209   4.257   0.429   4.938
 4437SOL    HW114210   4.234   0.352   4.878
 4437SOL    HW214211   4.177   0.486   4.952
 4438SOL     OW14212   4.041   2.515   6.920
 4438SOL    HW114213   4.032   2.571   6.838
 4438SOL    HW214214   4.082   2.427   6.895
 4439SOL     OW14215   1.080   5.409   2.138
 4439SOL    HW114216   1.059   5.409   2.236
 4439SOL    HW214217   1.152   5.343   2.119
 4440SOL     OW14218   1.440   6.117   6.885
 4440SOL    HW114219   1.442   6.215   6.870
 4440SOL    HW214220   1.511   6.092   6.950
 4441SOL     OW14221   5.798   2.622   2.403
 4441SOL    HW114222   5.885   2.589   2.440
 4441SOL    HW214223   5.742   2.544   2.376
 4442SOL     OW14224   4.074   6.195   4.016
 4442SOL    HW114225   4.046   6.283   4.054
 4442SOL    HW214226   4.007   6.125   4.040
 4443SOL     OW14227   2.246   2.591   5.789
 4443SOL    HW114228   2.312   2.526   5.826
 4443SOL    HW214229   2.252   2.592   5.690
 4444SOL     OW14230   4.672   6.401   1.090
 4444SOL    HW114231   4.623   6.381   1.005
 4444SOL    HW214232   4.607   6.401   1.166
 4445SOL     OW14233   1.368   0.908   6.376
 4445SOL    HW114234   1.401   0.875   6.287
 4445SOL    HW214235   1.333   1.002   6.366
 4446SOL     OW14236   5.885   0.246   2.947
 4446SOL    HW114237   5.827   0.171   2.913
 4446SOL    HW214238   5.866   0.329   2.895
 4447SOL     OW14239   5.539   2.875   5.873
 4447SOL    HW114240   5.636   2.901   5.868
 4447SOL    HW214241   5.515   2.854   5.968
 4448SOL     OW14242   2.385   3.761   0.430
 4448SOL    HW114243   2.297   3.717   0.415
 4448SOL    HW214244   2.441   3.751   0.348
 4449SOL     OW14245   2.624   0.391   5.421
 4449SOL    HW114246   2.525   0.397   5.405
 4449SOL    HW214247   2.673   0.429   5.342
 4450SOL     OW14248   3.324   2.924   3.302
 4450SOL    HW114249   3.230   2.947   3.330
 4450SOL    HW214250   3.328   2.917   3.202
 4451SOL     OW14251   6.149   4.542   2.216
 4451SOL    HW114252   6.126   4.563   2.121
 4451SOL    HW214253   6.248   4.550   2.228
 4452SOL     OW14254   6.051   6.054   6.027
 4452SOL    HW114255   5.976   6.032   5.965
 4452SOL    HW214256   6.070   6.152   6.022
 4453SOL     OW14257   5.295   2.376   1.898
 4453SOL    HW114258   5.267   2.351   1.991
 4453SOL    HW214259   5.395   2.381   1.894
 4454SOL     OW14260   5.166   2.901   0.803
 4454SOL    HW114261   5.140   2.967   0.873
 4454SOL    HW214262   5.265   2.901   0.792
 4455SOL     OW14263   3.600   0.215   2.713
 4455SOL    HW114264   3.575   0.290   2.774
 4455SOL    HW214265   3.522   0.193   2.654
 4456SOL     OW14266   1.534   5.119   2.682
 4456SOL    HW114267   1.440   5.153   2.675
 4456SOL    HW214268   1.594   5.175   2.625
 4457SOL     OW14269   4.641   2.345   6.260
 4457SOL    HW114270   4.640   2.251   6.227
 4457SOL    HW214271   4.602   2.348   6.352
 4458SOL     OW14272   2.759   2.190   6.277
 4458SOL    HW114273   2.848   2.154   6.304
 4458SOL    HW214274   2.772   2.272   6.221
 4459SOL     OW14275   4.773   6.678   5.090
 4459SOL    HW114276   4.781   6.624   5.006
 4459SOL    HW214277   4.858   6.728   5.106
 4460SOL     OW14278   2.681   3.476   6.578
 4460SOL    HW114279   2.599   3.471   6.635
 4460SOL    HW214280   2.670   3.414   6.500
 4461SOL     OW14281   1.365   6.976   2.568
 4461SOL    HW114282   1.421   6.900   2.536
 4461SOL    HW214283   1.342   0.009   2.490
 4462SOL     OW14284   6.254   5.439   0.801
 4462SOL    HW114285   6.280   5.342   0.803
 4462SOL    HW214286   6.205   5.459   0.717
 4463SOL     OW14287   1.871   3.566   6.509
 4463SOL    HW114288   1.939   3.638   6.525
 4463SOL    HW214289   1.845   3.564   6.413
 4464SOL     OW14290   5.274   3.613   5.909
 4464SOL    HW114291   5.351   3.668   5.877
 4464SOL    HW214292   5.195   3.629   5.851
 4465SOL     OW14293   1.756   6.489   2.066
 4465SOL    HW114294   1.755   6.399   2.021
 4465SOL    HW214295   1.833   6.542   2.031
 4466SOL     OW14296   1.021   1.826   2.546
 4466SOL    HW114297   1.094   1.758   2.539
 4466SOL    HW214298   1.040   1.887   2.622
 4467SOL     OW14299   1.434   0.207   2.893
 4467SOL    HW114300   1.359   0.158   2.848
 4467SOL    HW214301   1.409   0.226   2.988
 4468SOL     OW14302   1.185   2.870   0.112
 4468SOL    HW114303   1.119   2.815   0.060
 4468SOL    HW214304   1.269   2.817   0.125
 4469SOL     OW14305   3.115   0.394   1.394
 4469SOL    HW114306   3.120   0.478   1.339
 4469SOL    HW214307   3.112   0.315   1.333
 4470SOL     OW14308   4.925   3.801   1.525
 4470SOL    HW114309   4.896   3.857   1.602
 4470SOL    HW214310   4.999   3.848   1.476
 4471SOL     OW14311   0.440   2.618   1.602
 4471SOL    HW114312   0.382   2.563   1.661
 4471SOL    HW214313   0.386   2.654   1.526
 4472SOL     OW14314   1.726   4.056   2.131
 4472SOL    HW114315   1.793   4.012   2.191
 4472SOL    HW214316   1.685   4.134   2.179
 4473SOL     OW14317   0.098   7.016   4.417
 4473SOL    HW114318   0.111   0.063   4.485
 4473SOL    HW214319   0.181   6.961   4.411
 4474SOL     OW14320   4.035   6.817   2.888
 4474SOL    HW114321   4.054   6.779   2.979
 4474SOL    HW214322   4.054   6.748   2.819
 4475SOL     OW14323   2.048   4.070   1.237
 4475SOL    HW114324   1.969   4.108   1.188
 4475SOL    HW214325   2.109   4.144   1.264
 4476SOL     OW14326   4.740   6.509   2.188
 4476SOL    HW114327   4.665   6.490   2.250
 4476SOL    HW214328   4.728   6.599   2.146
 4477SOL     OW14329   1.879   1.452   6.841
 4477SOL    HW114330   1.789   1.447   6.799
 4477SOL    HW214331   1.871   1.438   6.940
 4478SOL     OW14332   2.433   0.004   2.423
 4478SOL    HW114333   2.369   0.013   2.346
 4478SOL    HW214334   2.500   0.078   2.420
 4479SOL     OW14335   1.033   0.342   5.761
 4479SOL    HW114336   0.970   0.319   5.834
 4479SOL    HW214337   1.005   0.297   5.676
 4480SOL     OW14338   1.077   4.631   4.638
 4480SOL    HW114339   1.020   4.654   4.560
 4480SOL    HW214340   1.052   4.688   4.716
 4481SOL     OW14341   1.181   5.978   3.952
 4481SOL    HW114342   1.244   6.050   3.981
 4481SOL    HW214343   1.106   6.018   3.899
 4482SOL     OW14344   0.329   4.743   3.655
 4482SOL    HW114345   0.393   4.677   3.618
 4482SOL    HW214346   0.324   4.732   3.755
 4483SOL     OW14347   6.173   2.875   1.453
 4483SOL    HW114348   6.228   2.825   1.520
 4483SOL    HW214349   6.228   2.951   1.417
 4484SOL     OW14350   3.903   2.633   5.373
 4484SOL    HW114351   3.834   2.564   5.354
 4484SOL    HW214352   3.972   2.632   5.301
 4485SOL     OW14353   4.796   1.687   6.837
 4485SOL    HW114354   4.725   1.625   6.872
 4485SOL    HW214355   4.884   1.660   6.875
 4486SOL     OW14356   6.751   4.124   5.379
 4486SOL    HW114357   6.777   4.096   5.472
 4486SOL    HW214358   6.771   4.221   5.367
 4487SOL     OW14359   2.706   3.547   6.259
 4487SOL    HW114360   2.639   3.483   6.296
 4487SOL    HW214361   2.658   3.622   6.213
 4488SOL     OW14362   6.177   1.801   5.534
 4488SOL    HW114363   6.272   1.829   5.526
 4488SOL    HW214364   6.172   1.711   5.577
 4489SOL     OW14365   5.869   5.257   4.722
 4489SOL    HW114366   5.893   5.277   4.817
 4489SOL    HW214367   5.842   5.342   4.676
 4490SOL     OW14368   5.946   1.553   2.201
 4490SOL    HW114369   5.998   1.483   2.249
 4490SOL    HW214370   5.911   1.620   2.267
 4491SOL     OW14371   1.639   4.146   2.976
 4491SOL    HW114372   1.608   4.168   2.883
 4491SOL    HW214373   1.589   4.067   3.010
 4492SOL     OW14374   4.646   2.364   0.223
 4492SOL    HW114375   4.706   2.424   0.277
 4492SOL    HW214376   4.628   2.407   0.135
 4493SOL     OW14377   4.644   5.150   5.104
 4493SOL    HW114378   4.629   5.060   5.062
 4493SOL    HW214379   4.643   5.220   5.034
 4494SOL     OW14380   0.016   4.026   5.277
 4494SOL    HW114381   6.987   4.000   5.357
 4494SOL    HW214382   6.996   3.997   5.194
 4495SOL     OW14383   5.282   6.544   2.165
 4495SOL    HW114384   5.207   6.589   2.212
 4495SOL    HW214385   5.289   6.579   2.071
 4496SOL     OW14386   5.609   4.073   6.204
 4496SOL    HW114387   5.594   4.114   6.294
 4496SOL    HW214388   5.526   4.083   6.149
 4497SOL     OW14389   5.474   5.490   6.837
 4497SOL    HW114390   5.442   5.578   6.802
 4497SOL    HW214391   5.572   5.481   6.818
 4498SOL     OW14392   0.499   3.839   6.693
 4498SOL    HW114393   0.515   3.751   6.737
 4498SOL    HW214394   0.548   3.843   6.606
 4499SOL     OW14395   0.008   3.414   4.755
 4499SOL    HW114396   0.016   3.426   4.853
 4499SOL    HW214397   0.095   3.381   4.718
 4500SOL     OW14398   2.870   3.556   4.430
 4500SOL    HW114399   2.940   3.580   4.497
 4500SOL    HW214400   2.795   3.507   4.476
 4501SOL     OW14401   0.675   4.234   5.442
 4501SOL    HW114402   0.726   4.305   5.393
 4501SOL    HW214403   0.665   4.259   5.538
 4502SOL     OW14404   1.587   2.439   6.639
 4502SOL    HW114405   1.578   2.345   6.670
 4502SOL    HW214406   1.609   2.498   6.716
 4503SOL     OW14407   2.061   1.481   3.461
 4503SOL    HW114408   1.986   1.438   3.411
 4503SOL    HW214409   2.148   1.458   3.417
 4504SOL     OW14410   5.831   2.392   5.631
 4504SOL    HW114411   5.927   2.403   5.606
 4504SOL    HW214412   5.790   2.319   5.576
 4505SOL     OW14413   1.118   6.282   5.158
 4505SOL    HW114414   1.042   6.220   5.140
 4505SOL    HW214415   1.197   6.257   5.101
 4506SOL     OW14416   4.456   1.348   5.312
 4506SOL    HW114417   4.543   1.368   5.265
 4506SOL    HW214418   4.475   1.318   5.405
 4507SOL     OW14419   4.731   5.063   1.215
 4507SOL    HW114420   4.797   5.078   1.289
 4507SOL    HW214421   4.780   5.046   1.129
 4508SOL     OW14422   1.570   3.897   6.985
 4508SOL    HW114423   1.508   3.854   0.025
 4508SOL    HW214424   1.546   3.994   6.976
 4509SOL     OW14425   4.297   2.181   4.649
 4509SOL    HW114426   4.270   2.091   4.684
 4509SOL    HW214427   4.218   2.225   4.607
 4510SOL     OW14428   5.651   0.417   5.030
 4510SOL    HW114429   5.569   0.408   4.974
 4510SOL    HW214430   5.689   0.326   5.048
 4511SOL     OW14431   6.742   3.137   0.389
 4511SOL    HW114432   6.648   3.163   0.411
 4511SOL    HW214433   6.744   3.088   0.302
 4512SOL     OW14434   2.096   6.565   6.990
 4512SOL    HW114435   2.162   6.621   0.014
 4512SOL    HW214436   2.130   6.471   6.984
 4513SOL     OW14437   4.459   6.588   1.659
 4513SOL    HW114438   4.554   6.616   1.645
 4513SOL    HW214439   4.398   6.655   1.617
 4514SOL     OW14440   3.468   1.119   4.951
 4514SOL    HW114441   3.409   1.176   5.008
 4514SOL    HW214442   3.427   1.108   4.860
 4515SOL     OW14443   6.889   4.692   0.336
 4515SOL    HW114444   6.954   4.724   0.405
 4515SOL    HW214445   6.917   4.724   0.246
 4516SOL     OW14446   1.212   1.501   5.030
 4516SOL    HW114447   1.229   1.407   5.001
 4516SOL    HW214448   1.229   1.509   5.128
 4517SOL     OW14449   3.485   6.827   6.645
 4517SOL    HW114450   3.445   6.894   6.707
 4517SOL    HW214451   3.445   6.839   6.554
 4518SOL     OW14452   1.046   1.972   4.023
 4518SOL    HW114453   0.983   1.895   4.014
 4518SOL    HW214454   1.125   1.943   4.077
 4519SOL     OW14455   0.125   2.419   3.695
 4519SOL    HW114456   0.199   2.482   3.718
 4519SOL    HW214457   0.045   2.440   3.751
 4520SOL     OW14458   6.420   4.571   2.305
 4520SOL    HW114459   6.430   4.669   2.290
 4520SOL    HW214460   6.508   4.526   2.289
 4521SOL     OW14461   4.881   2.488   6.291
 4521SOL    HW114462   4.963   2.452   6.247
 4521SOL    HW214463   4.800   2.462   6.238
 4522SOL     OW14464   5.700   6.504   3.570
 4522SOL    HW114465   5.717   6.530   3.475
 4522SOL    HW214466   5.601   6.507   3.589
 4523SOL     OW14467   3.148   4.959   0.673
 4523SOL    HW114468   3.133   4.935   0.577
 4523SOL    HW214469   3.245   4.946   0.695
 4524SOL     OW14470   5.645   1.360   5.354
 4524SOL    HW114471   5.670   1.389   5.262
 4524SOL    HW214472   5.706   1.287   5.384
 4525SOL     OW14473   6.404   1.560   4.201
 4525SOL    HW114474   6.426   1.594   4.292
 4525SOL    HW214475   6.401   1.460   4.202
 4526SOL     OW14476   4.593   6.787   1.090
 4526SOL    HW114477   4.606   6.731   1.172
 4526SOL    HW214478   4.651   6.869   1.097
 4527SOL     OW14479   5.026   1.209   3.097
 4527SOL    HW114480   5.112   1.254   3.075
 4527SOL    HW214481   4.981   1.178   3.013
 4528SOL     OW14482   5.361   0.191   0.410
 4528SOL    HW114483   5.425   0.121   0.442
 4528SOL    HW214484   5.336   0.173   0.315
 4529SOL     OW14485   2.530   0.741   2.718
 4529SOL    HW114486   2.554   0.805   2.645
 4529SOL    HW214487   2.454   0.779   2.771
 4530SOL     OW14488   0.780   3.397   5.485
 4530SOL    HW114489   0.716   3.445   5.425
 4530SOL    HW214490   0.734   3.318   5.526
 4531SOL     OW14491   0.943   3.434   3.749
 4531SOL    HW114492   1.001   3.486   3.811
 4531SOL    HW214493   0.991   3.351   3.719
 4532SOL     OW14494   6.545   1.549   1.224
 4532SOL    HW114495   6.520   1.464   1.180
 4532SOL    HW214496   6.597   1.530   1.307
 4533SOL     OW14497   1.781   6.111   2.866
 4533SOL    HW114498   1.730   6.047   2.809
 4533SOL    HW214499   1.764   6.205   2.835
 4534SOL     OW14500   5.590   3.930   5.086
 4534SOL    HW114501   5.513   3.876   5.053
 4534SOL    HW214502   5.656   3.870   5.131
 4535SOL     OW14503   4.954   3.148   1.895
 4535SOL    HW114504   4.952   3.084   1.818
 4535SOL    HW214505   4.871   3.138   1.949
 4536SOL     OW14506   5.395   0.814   4.589
 4536SOL    HW114507   5.480   0.843   4.545
 4536SOL    HW214508   5.414   0.789   4.684
 4537SOL     OW14509   3.543   3.483   6.742
 4537SOL    HW114510   3.642   3.478   6.757
 4537SOL    HW214511   3.521   3.443   6.653
 4538SOL     OW14512   3.488   1.616   2.999
 4538SOL    HW114513   3.412   1.636   2.937
 4538SOL    HW214514   3.453   1.607   3.093
 4539SOL     OW14515   2.030   2.089   3.609
 4539SOL    HW114516   1.980   2.164   3.567
 4539SOL    HW214517   1.984   2.002   3.590
 4540SOL     OW14518   3.760   3.190   4.782
 4540SOL    HW114519   3.827   3.262   4.764
 4540SOL    HW214520   3.674   3.232   4.812
 4541SOL     OW14521   5.075   1.494   0.513
 4541SOL    HW114522   5.148   1.467   0.576
 4541SOL    HW214523   5.115   1.534   0.431
 4542SOL     OW14524   6.020   5.937   2.068
 4542SOL    HW114525   5.969   5.989   2.000
 4542SOL    HW214526   6.062   5.857   2.026
 4543SOL     OW14527   4.994   2.028   1.064
 4543SOL    HW114528   4.913   1.978   1.095
 4543SOL    HW214529   4.975   2.070   0.975
 4544SOL     OW14530   2.731   5.862   6.585
 4544SOL    HW114531   2.674   5.829   6.509
 4544SOL    HW214532   2.706   5.814   6.668
 4545SOL     OW14533   4.459   2.192   5.369
 4545SOL    HW114534   4.548   2.147   5.366
 4545SOL    HW214535   4.415   2.173   5.456
 4546SOL     OW14536   1.000   6.422   6.551
 4546SOL    HW114537   0.987   6.376   6.638
 4546SOL    HW214538   1.007   6.354   6.478
 4547SOL     OW14539   5.657   2.564   1.321
 4547SOL    HW114540   5.666   2.520   1.410
 4547SOL    HW214541   5.632   2.495   1.253
 4548SOL     OW14542   0.083   4.380   3.731
 4548SOL    HW114543   0.006   4.323   3.760
 4548SOL    HW214544   0.144   4.395   3.808
 4549SOL     OW14545   6.502   3.455   2.762
 4549SOL    HW114546   6.456   3.412   2.840
 4549SOL    HW214547   6.516   3.552   2.781
 4550SOL     OW14548   1.015   5.830   3.089
 4550SOL    HW114549   0.999   5.861   2.995
 4550SOL    HW214550   1.091   5.765   3.089
 4551SOL     OW14551   0.408   2.589   4.990
 4551SOL    HW114552   0.417   2.651   4.912
 4551SOL    HW214553   0.427   2.496   4.961
 4552SOL     OW14554   0.699   3.525   4.917
 4552SOL    HW114555   0.654   3.613   4.933
 4552SOL    HW214556   0.688   3.467   4.998
 4553SOL     OW14557   4.671   4.992   0.368
 4553SOL    HW114558   4.703   5.084   0.349
 4553SOL    HW214559   4.717   4.927   0.306
 4554SOL     OW14560   4.262   0.014   2.864
 4554SOL    HW114561   4.211   6.955   2.852
 4554SOL    HW214562   4.355   0.003   2.828
 4555SOL     OW14563   4.415   2.042   6.736
 4555SOL    HW114564   4.409   2.115   6.803
 4555SOL    HW214565   4.511   2.017   6.722
 4556SOL     OW14566   4.288   0.474   3.837
 4556SOL    HW114567   4.280   0.547   3.769
 4556SOL    HW214568   4.372   0.423   3.822
 4557SOL     OW14569   5.531   0.297   5.743
 4557SOL    HW114570   5.507   0.317   5.648
 4557SOL    HW214571   5.449   0.302   5.800
 4558SOL     OW14572   5.962   3.742   6.424
 4558SOL    HW114573   5.999   3.724   6.333
 4558SOL    HW214574   5.880   3.798   6.416
 4559SOL     OW14575   1.113   6.410   1.261
 4559SOL    HW114576   1.091   6.334   1.323
 4559SOL    HW214577   1.213   6.415   1.249
 4560SOL     OW14578   5.249   3.000   2.991
 4560SOL    HW114579   5.338   3.039   3.013
 4560SOL    HW214580   5.177   3.067   3.011
 4561SOL     OW14581   3.202   1.310   0.248
 4561SOL    HW114582   3.118   1.365   0.249
 4561SOL    HW214583   3.280   1.370   0.267
 4562SOL     OW14584   3.436   5.823   6.475
 4562SOL    HW114585   3.426   5.917   6.443
 4562SOL    HW214586   3.348   5.790   6.512
 4563SOL     OW14587   5.605   1.725   0.454
 4563SOL    HW114588   5.602   1.682   0.544
 4563SOL    HW214589   5.700   1.747   0.431
 4564SOL     OW14590   1.098   5.146   0.737
 4564SOL    HW114591   1.143   5.220   0.688
 4564SOL    HW214592   1.093   5.167   0.834
 4565SOL     OW14593   0.631   1.596   5.126
 4565SOL    HW114594   0.696   1.533   5.084
 4565SOL    HW214595   0.571   1.634   5.056
 4566SOL     OW14596   0.334   0.061   6.721
 4566SOL    HW114597   0.253   0.015   6.757
 4566SOL    HW214598   0.369   0.009   6.642
 4567SOL     OW14599   6.898   1.045   0.404
 4567SOL    HW114600   6.860   1.135   0.425
 4567SOL    HW214601   6.900   0.990   0.488
 4568SOL     OW14602   3.204   4.657   5.591
 4568SOL    HW114603   3.248   4.582   5.541
 4568SOL    HW214604   3.109   4.667   5.560
 4569SOL     OW14605   1.061   1.704   4.293
 4569SOL    HW114606   1.060   1.609   4.263
 4569SOL    HW214607   1.044   1.708   4.391
 4570SOL     OW14608   0.042   5.653   3.334
 4570SOL    HW114609   0.088   5.576   3.289
 4570SOL    HW214610   0.110   5.713   3.375
 4571SOL     OW14611   3.061   3.140   4.523
 4571SOL    HW114612   3.120   3.078   4.473
 4571SOL    HW214613   3.056   3.228   4.475
 4572SOL     OW14614   0.921   6.964   1.313
 4572SOL    HW114615   0.962   6.978   1.403
 4572SOL    HW214616   0.994   6.956   1.245
 4573SOL     OW14617   6.334   6.028   1.311
 4573SOL    HW114618   6.274   6.050   1.387
 4573SOL    HW214619   6.429   6.044   1.336
 4574SOL     OW14620   6.948   4.768   1.488
 4574SOL    HW114621   6.978   4.712   1.566
 4574SOL    HW214622   6.992   4.857   1.492
 4575SOL     OW14623   6.333   1.627   0.829
 4575SOL    HW114624   6.328   1.539   0.876
 4575SOL    HW214625   6.363   1.612   0.734
 4576SOL     OW14626   2.988   5.888   6.684
 4576SOL    HW114627   3.031   5.973   6.653
 4576SOL    HW214628   2.889   5.894   6.670
 4577SOL     OW14629   0.733   3.352   3.116
 4577SOL    HW114630   0.668   3.292   3.070
 4577SOL    HW214631   0.794   3.297   3.173
 4578SOL     OW14632   0.258   3.489   3.669
 4578SOL    HW114633   0.190   3.523   3.604
 4578SOL    HW214634   0.211   3.454   3.750
 4579SOL     OW14635   4.641   1.671   2.762
 4579SOL    HW114636   4.626   1.692   2.859
 4579SOL    HW214637   4.637   1.756   2.709
 4580SOL     OW14638   6.036   5.621   0.947
 4580SOL    HW114639   6.033   5.630   0.848
 4580SOL    HW214640   6.131   5.615   0.978
 4581SOL     OW14641   3.104   5.299   3.347
 4581SOL    HW114642   3.190   5.250   3.334
 4581SOL    HW214643   3.095   5.370   3.277
 4582SOL     OW14644   5.071   6.681   3.838
 4582SOL    HW114645   5.072   6.777   3.868
 4582SOL    HW214646   5.001   6.668   3.768
 4583SOL     OW14647   2.928   1.898   5.330
 4583SOL    HW114648   2.885   1.814   5.297
 4583SOL    HW214649   2.987   1.935   5.258
 4584SOL     OW14650   6.662   5.974   6.027
 4584SOL    HW114651   6.688   5.967   6.123
 4584SOL    HW214652   6.700   5.896   5.977
 4585SOL     OW14653   2.990   6.281   3.226
 4585SOL    HW114654   2.969   6.318   3.316
 4585SOL    HW214655   3.046   6.347   3.176
 4586SOL     OW14656   3.793   5.700   1.812
 4586SOL    HW114657   3.812   5.755   1.893
 4586SOL    HW214658   3.731   5.626   1.835
 4587SOL     OW14659   3.894   3.098   1.168
 4587SOL    HW114660   3.806   3.083   1.123
 4587SOL    HW214661   3.923   3.193   1.155
 4588SOL     OW14662   4.059   3.824   4.753
 4588SOL    HW114663   4.139   3.826   4.693
 4588SOL    HW214664   3.976   3.819   4.698
 4589SOL     OW14665   6.246   2.317   3.018
 4589SOL    HW114666   6.237   2.376   2.938
 4589SOL    HW214667   6.319   2.351   3.077
 4590SOL     OW14668   3.831   5.426   2.623
 4590SOL    HW114669   3.848   5.386   2.534
 4590SOL    HW214670   3.870   5.368   2.695
 4591SOL     OW14671   6.202   5.719   5.555
 4591SOL    HW114672   6.235   5.627   5.580
 4591SOL    HW214673   6.169   5.718   5.461
 4592SOL     OW14674   4.048   2.799   0.691
 4592SOL    HW114675   3.977   2.870   0.688
 4592SOL    HW214676   4.029   2.729   0.623
 4593SOL     OW14677   3.862   5.691   2.796
 4593SOL    HW114678   3.874   5.674   2.698
 4593SOL    HW214679   3.952   5.697   2.839
 4594SOL     OW14680   3.346   1.623   1.838
 4594SOL    HW114681   3.326   1.720   1.821
 4594SOL    HW214682   3.436   1.601   1.800
 4595SOL     OW14683   3.449   3.004   6.184
 4595SOL    HW114684   3.398   3.024   6.268
 4595SOL    HW214685   3.389   3.016   6.105
 4596SOL     OW14686   6.091   6.247   2.595
 4596SOL    HW114687   6.127   6.162   2.633
 4596SOL    HW214688   6.078   6.236   2.496
 4597SOL     OW14689   5.019   4.481   6.341
 4597SOL    HW114690   4.923   4.497   6.367
 4597SOL    HW214691   5.066   4.568   6.331
 4598SOL     OW14692   2.049   5.450   6.700
 4598SOL    HW114693   2.036   5.456   6.799
 4598SOL    HW214694   2.120   5.516   6.673
 4599SOL     OW14695   1.566   4.340   1.357
 4599SOL    HW114696   1.654   4.292   1.357
 4599SOL    HW214697   1.500   4.287   1.304
 4600SOL     OW14698   3.399   5.677   0.120
 4600SOL    HW114699   3.373   5.582   0.101
 4600SOL    HW214700   3.492   5.694   0.087
 4601SOL     OW14701   1.993   1.132   5.179
 4601SOL    HW114702   1.962   1.037   5.182
 4601SOL    HW214703   1.945   1.185   5.249
 4602SOL     OW14704   1.961   6.865   1.661
 4602SOL    HW114705   1.927   6.959   1.659
 4602SOL    HW214706   1.989   6.838   1.569
 4603SOL     OW14707   3.355   6.770   1.760
 4603SOL    HW114708   3.290   6.704   1.722
 4603SOL    HW214709   3.350   6.768   1.860
 4604SOL     OW14710   3.806   0.129   2.571
 4604SOL    HW114711   3.775   0.039   2.539
 4604SOL    HW214712   3.742   0.163   2.640
 4605SOL     OW14713   4.647   1.046   4.498
 4605SOL    HW114714   4.605   0.966   4.455
 4605SOL    HW214715   4.577   1.116   4.513
 4606SOL     OW14716   6.769   6.583   4.425
 4606SOL    HW114717   6.826   6.647   4.373
 4606SOL    HW214718   6.806   6.491   4.416
 4607SOL     OW14719   2.756   1.872   1.370
 4607SOL    HW114720   2.834   1.924   1.405
 4607SOL    HW214721   2.740   1.791   1.427
 4608SOL     OW14722   1.288   4.933   5.039
 4608SOL    HW114723   1.271   4.836   5.019
 4608SOL    HW214724   1.369   4.963   4.989
 4609SOL     OW14725   4.312   5.779   6.895
 4609SOL    HW114726   4.390   5.765   6.955
 4609SOL    HW214727   4.277   5.872   6.907
 4610SOL     OW14728   6.953   2.809   0.050
 4610SOL    HW114729   6.890   2.764   7.012
 4610SOL    HW214730   0.018   2.813   0.009
 4611SOL     OW14731   0.746   3.944   6.844
 4611SOL    HW114732   0.677   3.944   6.771
 4611SOL    HW214733   0.716   3.883   6.918
 4612SOL     OW14734   1.878   6.054   6.521
 4612SOL    HW114735   1.929   6.097   6.596
 4612SOL    HW214736   1.798   6.110   6.499
 4613SOL     OW14737   2.909   5.486   2.758
 4613SOL    HW114738   2.876   5.537   2.678
 4613SOL    HW214739   2.968   5.411   2.727
 4614SOL     OW14740   2.232   5.800   0.377
 4614SOL    HW114741   2.146   5.755   0.402
 4614SOL    HW214742   2.307   5.734   0.383
 4615SOL     OW14743   1.415   1.964   0.072
 4615SOL    HW114744   1.350   2.032   0.106
 4615SOL    HW214745   1.378   1.920   7.016
 4616SOL     OW14746   5.942   0.009   6.423
 4616SOL    HW114747   6.035   0.033   6.449
 4616SOL    HW214748   5.932   6.936   6.421
 4617SOL     OW14749   0.950   2.597   2.881
 4617SOL    HW114750   0.917   2.504   2.869
 4617SOL    HW214751   0.907   2.657   2.814
 4618SOL     OW14752   0.762   2.656   5.828
 4618SOL    HW114753   0.746   2.614   5.918
 4618SOL    HW214754   0.851   2.700   5.827
 4619SOL     OW14755   4.894   0.841   3.719
 4619SOL    HW114756   4.822   0.800   3.775
 4619SOL    HW214757   4.947   0.906   3.774
 4620SOL     OW14758   3.559   4.522   0.203
 4620SOL    HW114759   3.487   4.583   0.172
 4620SOL    HW214760   3.632   4.519   0.134
 4621SOL     OW14761   6.694   1.267   4.833
 4621SOL    HW114762   6.636   1.187   4.846
 4621SOL    HW214763   6.655   1.345   4.882
 4622SOL     OW14764   1.893   3.114   0.893
 4622SOL    HW114765   1.926   3.176   0.822
 4622SOL    HW214766   1.810   3.069   0.863
 4623SOL     OW14767   0.119   5.023   0.676
 4623SOL    HW114768   0.109   5.122   0.666
 4623SOL    HW214769   0.081   4.995   0.764
 4624SOL     OW14770   4.556   1.099   3.584
 4624SOL    HW114771   4.460   1.109   3.608
 4624SOL    HW214772   4.566   1.029   3.512
 4625SOL     OW14773   1.015   4.180   0.029
 4625SOL    HW114774   1.032   4.088   0.065
 4625SOL    HW214775   1.078   4.199   6.981
 4626SOL     OW14776   6.608   4.799   1.637
 4626SOL    HW114777   6.607   4.896   1.661
 4626SOL    HW214778   6.527   4.754   1.676
 4627SOL     OW14779   3.582   5.753   5.578
 4627SOL    HW114780   3.666   5.721   5.620
 4627SOL    HW214781   3.578   5.720   5.483
 4628SOL     OW14782   6.270   4.945   2.202
 4628SOL    HW114783   6.191   4.961   2.262
 4628SOL    HW214784   6.345   4.907   2.256
 4629SOL     OW14785   2.199   5.377   5.730
 4629SOL    HW114786   2.237   5.291   5.764
 4629SOL    HW214787   2.269   5.448   5.734
 4630SOL     OW14788   2.524   5.697   3.279
 4630SOL    HW114789   2.443   5.724   3.227
 4630SOL    HW214790   2.505   5.707   3.377
 4631SOL     OW14791   2.687   6.146   3.789
 4631SOL    HW114792   2.779   6.120   3.761
 4631SOL    HW214793   2.638   6.065   3.822
 4632SOL     OW14794   4.916   5.157   4.307
 4632SOL    HW114795   4.816   5.155   4.310
 4632SOL    HW214796   4.953   5.134   4.397
 4633SOL     OW14797   6.409   1.646   5.322
 4633SOL    HW114798   6.460   1.560   5.317
 4633SOL    HW214799   6.363   1.662   5.235
 4634SOL     OW14800   2.945   4.932   0.441
 4634SOL    HW114801   2.885   4.902   0.367
 4634SOL    HW214802   2.889   4.961   0.519
 4635SOL     OW14803   5.659   3.248   2.384
 4635SOL    HW114804   5.647   3.150   2.397
 4635SOL    HW214805   5.748   3.266   2.343
 4636SOL     OW14806   2.967   5.210   0.449
 4636SOL    HW114807   2.924   5.252   0.529
 4636SOL    HW214808   2.994   5.116   0.471
 4637SOL     OW14809   1.239   0.208   5.989
 4637SOL    HW114810   1.270   0.226   5.895
 4637SOL    HW214811   1.185   0.125   5.992
 4638SOL     OW14812   3.883   3.206   6.375
 4638SOL    HW114813   3.867   3.110   6.399
 4638SOL    HW214814   3.885   3.261   6.458
 4639SOL     OW14815   0.578   4.198   5.732
 4639SOL    HW114816   0.630   4.113   5.735
 4639SOL    HW214817   0.491   4.183   5.685
 4640SOL     OW14818   5.123   4.652   4.149
 4640SOL    HW114819   5.199   4.687   4.093
 4640SOL    HW214820   5.074   4.730   4.189
 4641SOL     OW14821   2.601   5.047   4.402
 4641SOL    HW114822   2.640   4.956   4.410
 4641SOL    HW214823   2.505   5.040   4.374
 4642SOL     OW14824   6.196   5.363   4.599
 4642SOL    HW114825   6.133   5.326   4.531
 4642SOL    HW214826   6.282   5.313   4.597
 4643SOL     OW14827   4.125   2.296   1.395
 4643SOL    HW114828   4.161   2.357   1.465
 4643SOL    HW214829   4.063   2.346   1.335
 4644SOL     OW14830   1.566   6.057   4.738
 4644SOL    HW114831   1.580   6.052   4.639
 4644SOL    HW214832   1.512   5.979   4.768
 4645SOL     OW14833   2.162   6.521   4.352
 4645SOL    HW114834   2.237   6.540   4.288
 4645SOL    HW214835   2.198   6.519   4.445
 4646SOL     OW14836   2.833   0.044   2.305
 4646SOL    HW114837   2.898   0.037   2.230
 4646SOL    HW214838   2.750   0.091   2.273
 4647SOL     OW14839   0.884   0.109   3.681
 4647SOL    HW114840   0.828   0.040   3.726
 4647SOL    HW214841   0.964   0.130   3.737
 4648SOL     OW14842   3.077   6.688   3.032
 4648SOL    HW114843   3.104   6.758   3.099
 4648SOL    HW214844   3.060   6.732   2.944
 4649SOL     OW14845   5.223   0.635   5.583
 4649SOL    HW114846   5.209   0.584   5.667
 4649SOL    HW214847   5.233   0.733   5.604
 4650SOL     OW14848   4.676   6.332   3.392
 4650SOL    HW114849   4.749   6.317   3.325
 4650SOL    HW214850   4.706   6.400   3.458
 4651SOL     OW14851   6.888   2.182   1.852
 4651SOL    HW114852   6.986   2.185   1.876
 4651SOL    HW214853   6.855   2.275   1.837
 4652SOL     OW14854   0.185   0.259   3.998
 4652SOL    HW114855   0.178   0.160   3.987
 4652SOL    HW214856   0.133   0.287   4.079
 4653SOL     OW14857   6.736   6.480   0.206
 4653SOL    HW114858   6.725   6.537   0.124
 4653SOL    HW214859   6.667   6.408   0.205
 4654SOL     OW14860   0.737   6.869   0.463
 4654SOL    HW114861   0.774   6.945   0.516
 4654SOL    HW214862   0.759   6.881   0.367
 4655SOL     OW14863   0.494   4.332   2.823
 4655SOL    HW114864   0.525   4.425   2.803
 4655SOL    HW214865   0.395   4.331   2.836
 4656SOL     OW14866   0.875   0.776   2.829
 4656SOL    HW114867   0.779   0.794   2.852
 4656SOL    HW214868   0.915   0.858   2.789
 4657SOL     OW14869   4.770   6.602   1.684
 4657SOL    HW114870   4.828   6.582   1.605
 4657SOL    HW214871   4.820   6.582   1.768
 4658SOL     OW14872   4.305   0.212   3.316
 4658SOL    HW114873   4.243   0.165   3.253
 4658SOL    HW214874   4.386   0.244   3.267
 4659SOL     OW14875   1.699   2.838   5.009
 4659SOL    HW114876   1.683   2.931   5.043
 4659SOL    HW214877   1.613   2.799   4.977
 4660SOL     OW14878   0.175   1.527   5.336
 4660SOL    HW114879   0.272   1.544   5.355
 4660SOL    HW214880   0.150   1.436   5.369
 4661SOL     OW14881   3.353   4.189   4.451
 4661SOL    HW114882   3.258   4.161   4.465
 4661SOL    HW214883   3.392   4.220   4.537
 4662SOL     OW14884   5.221   0.200   5.598
 4662SOL    HW114885   5.257   0.287   5.566
 4662SOL    HW214886   5.217   0.135   5.522
 4663SOL     OW14887   7.005   1.936   2.104
 4663SOL    HW114888   6.999   1.854   2.047
 4663SOL    HW214889   0.068   1.980   2.090
 4664SOL     OW14890   2.285   2.719   6.353
 4664SOL    HW114891   2.359   2.774   6.391
 4664SOL    HW214892   2.313   2.680   6.265
 4665SOL     OW14893   5.195   0.147   6.195
 4665SOL    HW114894   5.192   0.080   6.270
 4665SOL    HW214895   5.216   0.100   6.109
 4666SOL     OW14896   2.349   2.147   6.775
 4666SOL    HW114897   2.250   2.133   6.779
 4666SOL    HW214898   2.375   2.221   6.837
 4667SOL     OW14899   6.690   4.849   6.581
 4667SOL    HW114900   6.667   4.945   6.592
 4667SOL    HW214901   6.641   4.795   6.649
 4668SOL     OW14902   6.492   1.563   4.469
 4668SOL    HW114903   6.501   1.474   4.514
 4668SOL    HW214904   6.569   1.622   4.495
 4669SOL     OW14905   1.875   5.938   0.560
 4669SOL    HW114906   1.811   6.011   0.583
 4669SOL    HW214907   1.857   5.907   0.467
 4670SOL     OW14908   2.774   1.483   5.011
 4670SOL    HW114909   2.809   1.402   5.058
 4670SOL    HW214910   2.829   1.502   4.930
 4671SOL     OW14911   6.123   3.095   1.617
 4671SOL    HW114912   6.059   3.172   1.611
 4671SOL    HW214913   6.082   3.015   1.574
 4672SOL     OW14914   1.771   4.458   6.293
 4672SOL    HW114915   1.740   4.395   6.222
 4672SOL    HW214916   1.851   4.508   6.261
 4673SOL     OW14917   3.653   0.428   1.985
 4673SOL    HW114918   3.626   0.508   1.931
 4673SOL    HW214919   3.576   0.364   1.991
 4674SOL     OW14920   4.953   5.480   5.496
 4674SOL    HW114921   4.885   5.408   5.507
 4674SOL    HW214922   4.915   5.568   5.526
 4675SOL     OW14923   1.453   4.162   1.122
 4675SOL    HW114924   1.416   4.233   1.061
 4675SOL    HW214925   1.502   4.095   1.067
 4676SOL     OW14926   1.814   6.078   3.465
 4676SOL    HW114927   1.734   6.132   3.489
 4676SOL    HW214928   1.844   6.101   3.372
 4677SOL     OW14929   1.702   1.935   0.571
 4677SOL    HW114930   1.697   1.836   0.562
 4677SOL    HW214931   1.633   1.966   0.637
 4678SOL     OW14932   1.881   4.277   2.798
 4678SOL    HW114933   1.798   4.226   2.818
 4678SOL    HW214934   1.947   4.217   2.753
 4679SOL     OW14935   5.466   6.057   1.782
 4679SOL    HW114936   5.522   6.122   1.730
 4679SOL    HW214937   5.420   5.995   1.718
 4680SOL     OW14938   2.712   1.656   1.558
 4680SOL    HW114939   2.720   1.572   1.612
 4680SOL    HW214940   2.690   1.733   1.618
 4681SOL     OW14941   5.098   4.424   0.650
 4681SOL    HW114942   5.020   4.460   0.702
 4681SOL    HW214943   5.182   4.465   0.684
 4682SOL     OW14944   4.673   3.353   6.482
 4682SOL    HW114945   4.683   3.269   6.428
 4682SOL    HW214946   4.755   3.409   6.471
 4683SOL     OW14947   5.881   4.272   3.624
 4683SOL    HW114948   5.913   4.358   3.664
 4683SOL    HW214949   5.793   4.287   3.579
 4684SOL     OW14950   4.305   6.179   0.337
 4684SOL    HW114951   4.208   6.152   0.335
 4684SOL    HW214952   4.312   6.278   0.345
 4685SOL     OW14953   2.341   3.532   6.062
 4685SOL    HW114954   2.411   3.592   6.023
 4685SOL    HW214955   2.264   3.588   6.095
 4686SOL     OW14956   3.210   6.069   1.114
 4686SOL    HW114957   3.111   6.059   1.127
 4686SOL    HW214958   3.237   6.020   1.030
 4687SOL     OW14959   3.171   1.668   3.020
 4687SOL    HW114960   3.211   1.583   3.054
 4687SOL    HW214961   3.215   1.692   2.933
 4688SOL     OW14962   5.469   2.483   5.951
 4688SOL    HW114963   5.557   2.504   5.907
 4688SOL    HW214964   5.455   2.546   6.028
 4689SOL     OW14965   5.428   0.885   0.563
 4689SOL    HW114966   5.470   0.945   0.495
 4689SOL    HW214967   5.473   0.796   0.561
 4690SOL     OW14968   2.361   1.875   0.635
 4690SOL    HW114969   2.319   1.787   0.613
 4690SOL    HW214970   2.452   1.860   0.674
 4691SOL     OW14971   5.189   4.589   6.865
 4691SOL    HW114972   5.206   4.500   6.907
 4691SOL    HW214973   5.090   4.605   6.861
 4692SOL     OW14974   6.747   4.353   2.489
 4692SOL    HW114975   6.709   4.433   2.536
 4692SOL    HW214976   6.742   4.274   2.549
 4693SOL     OW14977   1.746   0.905   3.860
 4693SOL    HW114978   1.657   0.871   3.829
 4693SOL    HW214979   1.735   0.950   3.949
 4694SOL     OW14980   2.403   1.462   0.830
 4694SOL    HW114981   2.411   1.488   0.734
 4694SOL    HW214982   2.465   1.386   0.848
 4695SOL     OW14983   1.302   5.522   0.853
 4695SOL    HW114984   1.316   5.621   0.852
 4695SOL    HW214985   1.256   5.496   0.938
 4696SOL     OW14986   1.278   5.350   6.313
 4696SOL    HW114987   1.199   5.340   6.373
 4696SOL    HW214988   1.247   5.366   6.219
 4697SOL     OW14989   1.916   3.933   1.418
 4697SOL    HW114990   1.974   3.981   1.352
 4697SOL    HW214991   1.968   3.916   1.502
 4698SOL     OW14992   4.816   0.180   3.302
 4698SOL    HW114993   4.857   0.222   3.383
 4698SOL    HW214994   4.761   0.101   3.329
 4699SOL     OW14995   0.409   0.930   2.158
 4699SOL    HW114996   0.509   0.918   2.162
 4699SOL    HW214997   0.383   0.960   2.066
 4700SOL     OW14998   6.529   2.117   2.577
 4700SOL    HW114999   6.558   2.028   2.613
 4700SOL    HW215000   6.609   2.172   2.555
 4701SOL     OW15001   3.277   2.000   1.976
 4701SOL    HW115002   3.338   2.026   1.901
 4701SOL    HW215003   3.183   2.026   1.954
 4702SOL     OW15004   4.802   5.118   6.933
 4702SOL    HW115005   4.757   5.099   6.846
 4702SOL    HW215006   4.866   5.044   6.955
 4703SOL     OW15007   1.081   4.778   2.648
 4703SOL    HW115008   1.119   4.856   2.597
 4703SOL    HW215009   1.120   4.693   2.612
 4704SOL     OW15010   6.919   5.956   5.816
 4704SOL    HW115011   7.003   5.904   5.829
 4704SOL    HW215012   6.884   5.941   5.723
 4705SOL     OW15013   2.937   2.453   1.028
 4705SOL    HW115014   2.932   2.490   1.120
 4705SOL    HW215015   2.855   2.399   1.009
 4706SOL     OW15016   1.248   0.113   0.994
 4706SOL    HW115017   1.273   0.179   0.923
 4706SOL    HW215018   1.330   0.086   1.044
 4707SOL     OW15019   1.677   6.532   0.985
 4707SOL    HW115020   1.676   6.527   1.084
 4707SOL    HW215021   1.732   6.457   0.948
 4708SOL     OW15022   1.423   2.095   4.802
 4708SOL    HW115023   1.435   2.086   4.900
 4708SOL    HW215024   1.359   2.025   4.770
 4709SOL     OW15025   5.108   4.962   4.802
 4709SOL    HW115026   5.086   5.019   4.722
 4709SOL    HW215027   5.038   4.973   4.872
 4710SOL     OW15028   5.117   6.966   4.494
 4710SOL    HW115029   5.147   0.029   4.528
 4710SOL    HW215030   5.190   6.924   4.440
 4711SOL     OW15031   6.265   2.896   3.593
 4711SOL    HW115032   6.202   2.827   3.557
 4711SOL    HW215033   6.247   2.910   3.690
 4712SOL     OW15034   4.309   4.509   5.663
 4712SOL    HW115035   4.332   4.441   5.733
 4712SOL    HW215036   4.280   4.594   5.707
 4713SOL     OW15037   5.496   4.450   1.235
 4713SOL    HW115038   5.471   4.465   1.139
 4713SOL    HW215039   5.438   4.506   1.294
 4714SOL     OW15040   6.602   1.878   6.580
 4714SOL    HW115041   6.510   1.904   6.608
 4714SOL    HW215042   6.602   1.782   6.550
 4715SOL     OW15043   6.269   1.797   1.797
 4715SOL    HW115044   6.220   1.733   1.856
 4715SOL    HW215045   6.345   1.839   1.847
 4716SOL     OW15046   4.023   5.518   5.482
 4716SOL    HW115047   3.944   5.484   5.533
 4716SOL    HW215048   3.991   5.574   5.405
 4717SOL     OW15049   2.776   5.413   5.626
 4717SOL    HW115050   2.831   5.333   5.648
 4717SOL    HW215051   2.737   5.403   5.534
 4718SOL     OW15052   5.443   2.961   0.737
 4718SOL    HW115053   5.524   2.904   0.752
 4718SOL    HW215054   5.415   2.955   0.641
 4719SOL     OW15055   5.992   3.041   3.310
 4719SOL    HW115056   6.033   2.968   3.365
 4719SOL    HW215057   5.907   3.071   3.354
 4720SOL     OW15058   3.441   5.004   0.680
 4720SOL    HW115059   3.455   5.091   0.632
 4720SOL    HW215060   3.460   5.017   0.778
 4721SOL     OW15061   6.364   3.496   1.981
 4721SOL    HW115062   6.301   3.421   2.003
 4721SOL    HW215063   6.343   3.575   2.037
 4722SOL     OW15064   0.891   4.796   6.892
 4722SOL    HW115065   0.989   4.788   6.910
 4722SOL    HW215066   0.844   4.715   6.925
 4723SOL     OW15067   3.727   4.729   5.837
 4723SOL    HW115068   3.669   4.743   5.757
 4723SOL    HW215069   3.814   4.778   5.824
 4724SOL     OW15070   0.267   6.538   4.021
 4724SOL    HW115071   0.228   6.454   4.059
 4724SOL    HW215072   0.299   6.521   3.928
 4725SOL     OW15073   5.482   5.140   0.949
 4725SOL    HW115074   5.527   5.072   0.890
 4725SOL    HW215075   5.385   5.147   0.924
 4726SOL     OW15076   1.581   2.768   5.891
 4726SOL    HW115077   1.673   2.756   5.928
 4726SOL    HW215078   1.571   2.863   5.859
 4727SOL     OW15079   0.589   5.487   0.497
 4727SOL    HW115080   0.595   5.575   0.448
 4727SOL    HW215081   0.657   5.485   0.570
 4728SOL     OW15082   6.168   1.159   2.860
 4728SOL    HW115083   6.223   1.216   2.798
 4728SOL    HW215084   6.088   1.211   2.891
 4729SOL     OW15085   5.306   0.660   0.053
 4729SOL    HW115086   5.305   0.634   0.150
 4729SOL    HW215087   5.235   0.609   0.004
 4730SOL     OW15088   3.775   0.131   4.760
 4730SOL    HW115089   3.845   0.200   4.746
 4730SOL    HW215090   3.686   0.175   4.770
 4731SOL     OW15091   2.858   0.663   0.580
 4731SOL    HW115092   2.795   0.732   0.544
 4731SOL    HW215093   2.951   0.699   0.580
 4732SOL     OW15094   0.555   3.745   5.079
 4732SOL    HW115095   0.580   3.702   5.165
 4732SOL    HW215096   0.590   3.839   5.077
 4733SOL     OW15097   2.235   4.084   3.285
 4733SOL    HW115098   2.298   4.145   3.334
 4733SOL    HW215099   2.212   4.125   3.197
 4734SOL     OW15100   5.090   3.275   5.664
 4734SOL    HW115101   5.050   3.192   5.626
 4734SOL    HW215102   5.112   3.339   5.591
 4735SOL     OW15103   0.436   6.298   4.394
 4735SOL    HW115104   0.365   6.229   4.376
 4735SOL    HW215105   0.492   6.268   4.472
 4736SOL     OW15106   6.835   1.971   3.719
 4736SOL    HW115107   6.736   1.955   3.722
 4736SOL    HW215108   6.869   1.954   3.627
 4737SOL     OW15109   1.956   5.113   1.037
 4737SOL    HW115110   2.012   5.044   1.084
 4737SOL    HW215111   1.991   5.204   1.059
 4738SOL     OW15112   2.603   0.451   4.229
 4738SOL    HW115113   2.604   0.473   4.327
 4738SOL    HW215114   2.686   0.400   4.206
 4739SOL     OW15115   6.062   3.179   4.739
 4739SOL    HW115116   5.983   3.136   4.785
 4739SOL    HW215117   6.102   3.247   4.800
 4740SOL     OW15118   0.711   0.976   1.473
 4740SOL    HW115119   0.729   1.017   1.562
 4740SOL    HW215120   0.643   0.903   1.483
 4741SOL     OW15121   4.204   4.577   0.927
 4741SOL    HW115122   4.157   4.590   1.014
 4741SOL    HW215123   4.140   4.594   0.852
 4742SOL     OW15124   2.267   5.622   1.748
 4742SOL    HW115125   2.335   5.565   1.793
 4742SOL    HW215126   2.297   5.718   1.751
 4743SOL     OW15127   2.487   1.403   5.950
 4743SOL    HW115128   2.538   1.409   6.036
 4743SOL    HW215129   2.539   1.346   5.885
 4744SOL     OW15130   1.919   3.401   5.743
 4744SOL    HW115131   1.889   3.317   5.787
 4744SOL    HW215132   1.962   3.379   5.655
 4745SOL     OW15133   3.108   5.211   5.502
 4745SOL    HW115134   3.188   5.257   5.540
 4745SOL    HW215135   3.050   5.177   5.576
 4746SOL     OW15136   6.300   5.647   0.034
 4746SOL    HW115137   6.322   5.602   0.121
 4746SOL    HW215138   6.246   5.729   0.052
 4747SOL     OW15139   0.029   2.883   0.345
 4747SOL    HW115140   7.023   2.905   0.253
 4747SOL    HW215141   0.004   2.956   0.408
 4748SOL     OW15142   1.038   0.980   1.468
 4748SOL    HW115143   0.961   0.998   1.529
 4748SOL    HW215144   1.072   0.888   1.484
 4749SOL     OW15145   1.859   6.511   0.374
 4749SOL    HW115146   1.944   6.462   0.356
 4749SOL    HW215147   1.864   6.555   0.464
 4750SOL     OW15148   0.216   1.423   4.019
 4750SOL    HW115149   0.259   1.497   3.967
 4750SOL    HW215150   0.225   1.441   4.117
 4751SOL     OW15151   1.422   4.470   6.950
 4751SOL    HW115152   1.425   4.564   6.982
 4751SOL    HW215153   1.495   4.418   6.995
 4752SOL     OW15154   2.249   6.131   1.110
 4752SOL    HW115155   2.246   6.051   1.050
 4752SOL    HW215156   2.165   6.184   1.098
 4753SOL     OW15157   5.713   0.125   5.297
 4753SOL    HW115158   5.751   0.125   5.205
 4753SOL    HW215159   5.614   0.136   5.292
 4754SOL     OW15160   6.456   0.048   6.219
 4754SOL    HW115161   6.526   0.027   6.150
 4754SOL    HW215162   6.378   7.013   6.206
 4755SOL     OW15163   2.342   1.209   6.378
 4755SOL    HW115164   2.344   1.306   6.400
 4755SOL    HW215165   2.329   1.156   6.462
 4756SOL     OW15166   5.039   2.386   1.784
 4756SOL    HW115167   5.136   2.382   1.807
 4756SOL    HW215168   5.004   2.478   1.803
 4757SOL     OW15169   2.427   2.684   2.062
 4757SOL    HW115170   2.419   2.781   2.082
 4757SOL    HW215171   2.393   2.666   1.969
 4758SOL     OW15172   4.259   5.200   5.779
 4758SOL    HW115173   4.293   5.120   5.729
 4758SOL    HW215174   4.164   5.218   5.753
 4759SOL     OW15175   5.500   5.889   4.911
 4759SOL    HW115176   5.532   5.926   4.998
 4759SOL    HW215177   5.578   5.879   4.849
 4760SOL     OW15178   1.724   1.442   1.402
 4760SOL    HW115179   1.764   1.505   1.468
 4760SOL    HW215180   1.721   1.350   1.441
 4761SOL     OW15181   6.529   0.239   6.646
 4761SOL    HW115182   6.604   0.197   6.596
 4761SOL    HW215183   6.525   0.337   6.625
 4762SOL     OW15184   2.305   4.768   2.098
 4762SOL    HW115185   2.301   4.678   2.142
 4762SOL    HW215186   2.387   4.817   2.130
 4763SOL     OW15187   6.401   5.929   2.996
 4763SOL    HW115188   6.305   5.903   3.012
 4763SOL    HW215189   6.459   5.886   3.065
 4764SOL     OW15190   4.508   3.830   5.289
 4764SOL    HW115191   4.551   3.749   5.249
 4764SOL    HW215192   4.578   3.900   5.305
 4765SOL     OW15193   4.652   6.094   5.303
 4765SOL    HW115194   4.745   6.129   5.308
 4765SOL    HW215195   4.587   6.170   5.307
 4766SOL     OW15196   3.125   1.031   3.326
 4766SOL    HW115197   3.159   1.087   3.250
 4766SOL    HW215198   3.030   1.055   3.345
 4767SOL     OW15199   3.674   0.153   1.107
 4767SOL    HW115200   3.695   0.155   1.205
 4767SOL    HW215201   3.601   0.087   1.090
 4768SOL     OW15202   4.892   1.612   4.658
 4768SOL    HW115203   4.809   1.645   4.612
 4768SOL    HW215204   4.884   1.513   4.673
 4769SOL     OW15205   3.979   5.712   1.390
 4769SOL    HW115206   4.059   5.675   1.342
 4769SOL    HW215207   3.944   5.643   1.454
 4770SOL     OW15208   2.359   0.468   2.935
 4770SOL    HW115209   2.292   0.449   3.007
 4770SOL    HW215210   2.360   0.566   2.916
 4771SOL     OW15211   3.416   5.043   6.355
 4771SOL    HW115212   3.358   5.037   6.435
 4771SOL    HW215213   3.387   4.976   6.287
 4772SOL     OW15214   2.572   0.009   1.066
 4772SOL    HW115215   2.625   7.023   0.982
 4772SOL    HW215216   2.633   0.037   1.140
 4773SOL     OW15217   0.282   5.473   3.973
 4773SOL    HW115218   0.231   5.400   4.019
 4773SOL    HW215219   0.227   5.509   3.898
 4774SOL     OW15220   0.605   2.942   2.399
 4774SOL    HW115221   0.505   2.940   2.395
 4774SOL    HW215222   0.642   2.870   2.341
 4775SOL     OW15223   4.840   0.552   2.587
 4775SOL    HW115224   4.828   0.471   2.530
 4775SOL    HW215225   4.892   0.528   2.668
 4776SOL     OW15226   2.369   6.176   2.588
 4776SOL    HW115227   2.392   6.086   2.626
 4776SOL    HW215228   2.452   6.219   2.552
 4777SOL     OW15229   2.555   4.731   1.014
 4777SOL    HW115230   2.487   4.662   1.039
 4777SOL    HW215231   2.623   4.691   0.954
 4778SOL     OW15232   5.132   3.340   1.945
 4778SOL    HW115233   5.213   3.300   1.986
 4778SOL    HW215234   5.060   3.271   1.938
 4779SOL     OW15235   6.562   0.170   2.968
 4779SOL    HW115236   6.654   0.168   2.928
 4779SOL    HW215237   6.529   0.077   2.980
 4780SOL     OW15238   0.905   0.609   5.895
 4780SOL    HW115239   0.890   0.701   5.859
 4780SOL    HW215240   0.999   0.601   5.929
 4781SOL     OW15241   1.948   5.982   1.168
 4781SOL    HW115242   1.926   5.907   1.106
 4781SOL    HW215243   2.003   5.948   1.244
 4782SOL     OW15244   5.334   0.217   0.142
 4782SOL    HW115245   5.392   0.273   0.082
 4782SOL    HW215246   5.355   0.120   0.128
 4783SOL     OW15247   4.424   4.532   0.707
 4783SOL    HW115248   4.361   4.480   0.764
 4783SOL    HW215249   4.455   4.613   0.756
 4784SOL     OW15250   6.202   4.728   5.630
 4784SOL    HW115251   6.107   4.753   5.613
 4784SOL    HW215252   6.262   4.788   5.579
 4785SOL     OW15253   6.815   6.820   0.814
 4785SOL    HW115254   6.809   6.757   0.892
 4785SOL    HW215255   6.797   6.771   0.729
 4786SOL     OW15256   2.020   2.804   2.225
 4786SOL    HW115257   1.957   2.799   2.303
 4786SOL    HW215258   2.112   2.827   2.258
 4787SOL     OW15259   3.017   2.186   3.501
 4787SOL    HW115260   2.927   2.147   3.483
 4787SOL    HW215261   3.080   2.160   3.427
 4788SOL     OW15262   1.297   5.701   5.802
 4788SOL    HW115263   1.308   5.611   5.760
 4788SOL    HW215264   1.382   5.752   5.794
 4789SOL     OW15265   5.100   0.463   0.195
 4789SOL    HW115266   5.056   0.444   0.283
 4789SOL    HW215267   5.137   0.379   0.157
 4790SOL     OW15268   5.391   2.616   6.605
 4790SOL    HW115269   5.386   2.659   6.515
 4790SOL    HW215270   5.437   2.528   6.597
 4791SOL     OW15271   5.904   0.452   2.288
 4791SOL    HW115272   5.908   0.433   2.386
 4791SOL    HW215273   5.837   0.391   2.245
 4792SOL     OW15274   2.109   3.238   2.653
 4792SOL    HW115275   2.203   3.247   2.685
 4792SOL    HW215276   2.105   3.171   2.579
 4793SOL     OW15277   1.479   0.327   5.904
 4793SOL    HW115278   1.562   0.274   5.885
 4793SOL    HW215279   1.439   0.295   5.990
 4794SOL     OW15280   3.809   6.847   2.594
 4794SOL    HW115281   3.731   6.787   2.577
 4794SOL    HW215282   3.789   6.906   2.673
 4795SOL     OW15283   6.506   2.825   4.691
 4795SOL    HW115284   6.573   2.761   4.730
 4795SOL    HW215285   6.437   2.846   4.760
 4796SOL     OW15286   4.813   2.788   0.278
 4796SOL    HW115287   4.774   2.869   0.323
 4796SOL    HW215288   4.780   2.784   0.183
 4797SOL     OW15289   1.245   5.310   5.960
 4797SOL    HW115290   1.164   5.332   6.014
 4797SOL    HW215291   1.218   5.265   5.875
 4798SOL     OW15292   0.087   4.593   5.075
 4798SOL    HW115293   0.056   4.649   5.152
 4798SOL    HW215294   0.183   4.615   5.054
 4799SOL     OW15295   5.603   1.523   4.762
 4799SOL    HW115296   5.580   1.524   4.665
 4799SOL    HW215297   5.702   1.527   4.772
 4800SOL     OW15298   3.010   2.911   6.152
 4800SOL    HW115299   2.921   2.939   6.114
 4800SOL    HW215300   2.999   2.887   6.248
 4801SOL     OW15301   1.915   2.006   0.097
 4801SOL    HW115302   1.868   2.021   0.184
 4801SOL    HW215303   1.847   1.989   0.025
 4802SOL     OW15304   2.058   6.589   2.289
 4802SOL    HW115305   1.965   6.592   2.326
 4802SOL    HW215306   2.107   6.511   2.329
 4803SOL     OW15307   0.756   6.880   0.873
 4803SOL    HW115308   0.800   6.799   0.912
 4803SOL    HW215309   0.746   6.950   0.944
 4804SOL     OW15310   4.258   5.509   6.850
 4804SOL    HW115311   4.292   5.602   6.854
 4804SOL    HW215312   4.178   5.500   6.910
 4805SOL     OW15313   6.752   0.453   0.581
 4805SOL    HW115314   6.712   0.363   0.598
 4805SOL    HW215315   6.749   0.507   0.665
 4806SOL     OW15316   6.960   3.899   2.945
 4806SOL    HW115317   6.990   3.807   2.971
 4806SOL    HW215318   6.899   3.935   3.016
 4807SOL     OW15319   0.942   5.880   1.926
 4807SOL    HW115320   0.936   5.792   1.881
 4807SOL    HW215321   0.860   5.933   1.907
 4808SOL     OW15322   5.512   3.459   0.734
 4808SOL    HW115323   5.488   3.545   0.778
 4808SOL    HW215324   5.429   3.404   0.723
 4809SOL     OW15325   3.384   4.742   0.136
 4809SOL    HW115326   3.389   4.778   0.042
 4809SOL    HW215327   3.293   4.704   0.152
 4810SOL     OW15328   0.800   5.084   1.473
 4810SOL    HW115329   0.859   5.101   1.551
 4810SOL    HW215330   0.781   5.170   1.425
 4811SOL     OW15331   3.002   5.171   2.235
 4811SOL    HW115332   3.081   5.119   2.268
 4811SOL    HW215333   2.918   5.121   2.255
 4812SOL     OW15334   6.880   5.217   4.236
 4812SOL    HW115335   6.971   5.243   4.268
 4812SOL    HW215336   6.823   5.189   4.313
 4813SOL     OW15337   5.077   1.504   2.521
 4813SOL    HW115338   5.044   1.522   2.614
 4813SOL    HW215339   5.147   1.433   2.524
 4814SOL     OW15340   6.283   4.511   0.752
 4814SOL    HW115341   6.269   4.489   0.655
 4814SOL    HW215342   6.204   4.478   0.804
 4815SOL     OW15343   5.207   5.163   2.405
 4815SOL    HW115344   5.298   5.178   2.366
 4815SOL    HW215345   5.192   5.229   2.479
 4816SOL     OW15346   5.596   5.241   2.956
 4816SOL    HW115347   5.499   5.265   2.957
 4816SOL    HW215348   5.613   5.173   2.885
 4817SOL     OW15349   0.812   1.937   5.508
 4817SOL    HW115350   0.876   2.006   5.475
 4817SOL    HW215351   0.785   1.959   5.602
 4818SOL     OW15352   0.471   6.801   3.725
 4818SOL    HW115353   0.408   6.726   3.744
 4818SOL    HW215354   0.504   6.793   3.630
 4819SOL     OW15355   1.421   3.423   0.198
 4819SOL    HW115356   1.350   3.479   0.155
 4819SOL    HW215357   1.421   3.331   0.157
 4820SOL     OW15358   6.826   3.155   1.594
 4820SOL    HW115359   6.893   3.207   1.541
 4820SOL    HW215360   6.749   3.214   1.618
 4821SOL     OW15361   0.293   6.383   1.875
 4821SOL    HW115362   0.232   6.454   1.910
 4821SOL    HW215363   0.298   6.308   1.941
 4822SOL     OW15364   1.163   4.087   4.624
 4822SOL    HW115365   1.095   4.149   4.663
 4822SOL    HW215366   1.239   4.140   4.587
 4823SOL     OW15367   0.975   2.673   2.444
 4823SOL    HW115368   1.012   2.676   2.537
 4823SOL    HW215369   1.039   2.719   2.382
 4824SOL     OW15370   5.286   1.068   5.174
 4824SOL    HW115371   5.341   1.039   5.095
 4824SOL    HW215372   5.191   1.037   5.161
 4825SOL     OW15373   1.226   0.524   4.419
 4825SOL    HW115374   1.133   0.489   4.435
 4825SOL    HW215375   1.222   0.624   4.407
 4826SOL     OW15376   4.622   0.244   1.668
 4826SOL    HW115377   4.546   0.309   1.660
 4826SOL    HW215378   4.693   0.267   1.601
 4827SOL     OW15379   6.852   1.708   0.059
 4827SOL    HW115380   6.896   1.642   0.120
 4827SOL    HW215381   6.774   1.750   0.106
 4828SOL     OW15382   4.726   0.163   2.619
 4828SOL    HW115383   4.635   0.171   2.659
 4828SOL    HW215384   4.722   0.185   2.521
 4829SOL     OW15385   4.421   6.991   5.877
 4829SOL    HW115386   4.357   0.039   5.898
 4829SOL    HW215387   4.385   6.904   5.913
 4830SOL     OW15388   4.023   5.819   3.782
 4830SOL    HW115389   4.049   5.737   3.834
 4830SOL    HW215390   4.095   5.888   3.791
 4831SOL     OW15391   3.623   5.399   5.901
 4831SOL    HW115392   3.621   5.456   5.819
 4831SOL    HW215393   3.530   5.370   5.924
 4832SOL     OW15394   3.079   3.654   4.572
 4832SOL    HW115395   3.032   3.724   4.626
 4832SOL    HW215396   3.175   3.679   4.562
 4833SOL     OW15397   5.771   2.588   4.479
 4833SOL    HW115398   5.776   2.507   4.536
 4833SOL    HW215399   5.770   2.561   4.382
 4834SOL     OW15400   2.587   5.424   2.611
 4834SOL    HW115401   2.521   5.414   2.685
 4834SOL    HW215402   2.674   5.380   2.637
 4835SOL     OW15403   6.882   3.596   5.975
 4835SOL    HW115404   6.909   3.600   6.071
 4835SOL    HW215405   6.830   3.512   5.959
 4836SOL     OW15406   4.967   0.578   5.443
 4836SOL    HW115407   4.915   0.653   5.402
 4836SOL    HW215408   5.055   0.613   5.476
 4837SOL     OW15409   6.912   3.203   3.780
 4837SOL    HW115410   6.859   3.124   3.813
 4837SOL    HW215411   6.925   3.194   3.681
 4838SOL     OW15412   1.308   4.493   6.330
 4838SOL    HW115413   1.309   4.399   6.294
 4838SOL    HW215414   1.366   4.498   6.411
 4839SOL     OW15415   1.901   2.396   0.188
 4839SOL    HW115416   1.868   2.489   0.203
 4839SOL    HW215417   1.973   2.375   0.254
 4840SOL     OW15418   5.029   3.848   5.398
 4840SOL    HW115419   4.956   3.823   5.462
 4840SOL    HW215420   5.112   3.798   5.421
 4841SOL     OW15421   2.895   5.119   3.702
 4841SOL    HW115422   2.814   5.106   3.645
 4841SOL    HW215423   2.868   5.125   3.798
 4842SOL     OW15424   2.365   5.090   2.885
 4842SOL    HW115425   2.388   5.185   2.863
 4842SOL    HW215426   2.447   5.033   2.874
 4843SOL     OW15427   0.198   2.982   1.956
 4843SOL    HW115428   0.173   3.046   2.029
 4843SOL    HW215429   0.260   3.027   1.893
 4844SOL     OW15430   1.252   4.883   5.324
 4844SOL    HW115431   1.275   4.885   5.227
 4844SOL    HW215432   1.232   4.789   5.351
 4845SOL     OW15433   4.380   4.230   5.318
 4845SOL    HW115434   4.319   4.300   5.279
 4845SOL    HW215435   4.475   4.252   5.296
 4846SOL     OW15436   0.607   2.827   4.290
 4846SOL    HW115437   0.608   2.900   4.221
 4846SOL    HW215438   0.514   2.816   4.326
 4847SOL     OW15439   2.505   6.642   5.779
 4847SOL    HW115440   2.583   6.703   5.791
 4847SOL    HW215441   2.430   6.671   5.839
 4848SOL     OW15442   2.377   1.361   3.874
 4848SOL    HW115443   2.447   1.296   3.845
 4848SOL    HW215444   2.363   1.353   3.973
 4849SOL     OW15445   2.156   0.730   0.225
 4849SOL    HW115446   2.253   0.747   0.207
 4849SOL    HW215447   2.130   0.774   0.311
 4850SOL     OW15448   4.705   0.878   1.202
 4850SOL    HW115449   4.638   0.818   1.159
 4850SOL    HW215450   4.783   0.823   1.234
 4851SOL     OW15451   2.952   6.519   0.057
 4851SOL    HW115452   2.901   6.456   0.116
 4851SOL    HW215453   3.025   6.469   0.012
 4852SOL     OW15454   4.034   5.373   5.147
 4852SOL    HW115455   4.064   5.463   5.114
 4852SOL    HW215456   4.109   5.328   5.194
 4853SOL     OW15457   3.696   0.510   3.399
 4853SOL    HW115458   3.711   0.608   3.388
 4853SOL    HW215459   3.765   0.473   3.461
 4854SOL     OW15460   5.996   5.889   1.659
 4854SOL    HW115461   6.063   5.816   1.655
 4854SOL    HW215462   5.919   5.868   1.599
 4855SOL     OW15463   6.575   4.432   5.064
 4855SOL    HW115464   6.547   4.393   4.976
 4855SOL    HW215465   6.530   4.382   5.138
 4856SOL     OW15466   0.687   4.050   2.621
 4856SOL    HW115467   0.680   4.114   2.544
 4856SOL    HW215468   0.723   3.963   2.589
 4857SOL     OW15469   2.954   2.123   4.359
 4857SOL    HW115470   2.914   2.189   4.423
 4857SOL    HW215471   2.906   2.129   4.271
 4858SOL     OW15472   0.740   0.047   4.781
 4858SOL    HW115473   0.740   0.033   4.881
 4858SOL    HW215474   0.821   0.004   4.742
 4859SOL     OW15475   1.003   6.021   2.172
 4859SOL    HW115476   1.088   5.985   2.209
 4859SOL    HW215477   0.962   5.954   2.111
 4860SOL     OW15478   4.953   5.319   0.498
 4860SOL    HW115479   4.960   5.297   0.401
 4860SOL    HW215480   5.040   5.356   0.531
 4861SOL     OW15481   6.630   4.917   5.940
 4861SOL    HW115482   6.545   4.954   5.901
 4861SOL    HW215483   6.678   4.990   5.989
 4862SOL     OW15484   2.548   4.945   5.002
 4862SOL    HW115485   2.464   4.928   4.949
 4862SOL    HW215486   2.557   4.876   5.073
 4863SOL     OW15487   4.704   2.667   2.831
 4863SOL    HW115488   4.642   2.607   2.781
 4863SOL    HW215489   4.774   2.703   2.769
 4864SOL     OW15490   3.405   1.081   1.614
 4864SOL    HW115491   3.323   1.124   1.575
 4864SOL    HW215492   3.419   1.114   1.707
 4865SOL     OW15493   4.008   5.260   5.707
 4865SOL    HW115494   3.945   5.238   5.781
 4865SOL    HW215495   3.967   5.330   5.648
 4866SOL     OW15496   5.917   4.817   2.021
 4866SOL    HW115497   5.879   4.761   1.948
 4866SOL    HW215498   6.016   4.827   2.007
 4867SOL     OW15499   4.972   5.179   2.662
 4867SOL    HW115500   4.977   5.248   2.734
 4867SOL    HW215501   5.041   5.109   2.677
 4868SOL     OW15502   0.068   5.766   1.174
 4868SOL    HW115503   0.167   5.777   1.168
 4868SOL    HW215504   0.037   5.705   1.101
 4869SOL     OW15505   0.072   1.674   6.993
 4869SOL    HW115506   0.134   1.668   0.046
 4869SOL    HW215507   7.009   1.709   7.023
 4870SOL     OW15508   4.655   6.328   1.729
 4870SOL    HW115509   4.589   6.402   1.748
 4870SOL    HW215510   4.624   6.244   1.773
 4871SOL     OW15511   1.062   2.273   3.485
 4871SOL    HW115512   1.073   2.369   3.512
 4871SOL    HW215513   1.148   2.240   3.446
 4872SOL     OW15514   1.240   0.083   2.753
 4872SOL    HW115515   1.278   0.037   2.673
 4872SOL    HW215516   1.180   0.020   2.802
 4873SOL     OW15517   0.218   5.565   4.581
 4873SOL    HW115518   0.285   5.606   4.520
 4873SOL    HW215519   0.233   5.597   4.674
 4874SOL     OW15520   5.539   3.470   3.304
 4874SOL    HW115521   5.441   3.459   3.316
 4874SOL    HW215522   5.559   3.485   3.207
 4875SOL     OW15523   5.439   1.520   1.032
 4875SOL    HW115524   5.407   1.557   0.945
 4875SOL    HW215525   5.438   1.593   1.102
 4876SOL     OW15526   6.590   0.961   6.503
 4876SOL    HW115527   6.524   0.894   6.535
 4876SOL    HW215528   6.582   0.973   6.404
 4877SOL     OW15529   6.348   1.333   1.015
 4877SOL    HW115530   6.286   1.301   1.087
 4877SOL    HW215531   6.436   1.285   1.022
 4878SOL     OW15532   0.066   1.653   1.481
 4878SOL    HW115533   7.009   1.663   1.537
 4878SOL    HW215534   0.112   1.568   1.505
 4879SOL     OW15535   4.037   4.974   3.434
 4879SOL    HW115536   3.951   4.979   3.484
 4879SOL    HW215537   4.087   5.060   3.444
 4880SOL     OW15538   5.999   1.437   0.072
 4880SOL    HW115539   6.085   1.472   0.109
 4880SOL    HW215540   5.923   1.472   0.126
 4881SOL     OW15541   3.186   6.718   6.227
 4881SOL    HW115542   3.166   6.627   6.261
 4881SOL    HW215543   3.231   6.711   6.138
 4882SOL     OW15544   5.978   1.039   5.314
 4882SOL    HW115545   5.970   1.049   5.214
 4882SOL    HW215546   5.977   0.942   5.337
 4883SOL     OW15547   6.390   4.711   1.789
 4883SOL    HW115548   6.423   4.635   1.845
 4883SOL    HW215549   6.346   4.675   1.707
 4884SOL     OW15550   3.591   6.419   1.928
 4884SOL    HW115551   3.687   6.430   1.954
 4884SOL    HW215552   3.585   6.401   1.830
 4885SOL     OW15553   1.773   6.971   1.260
 4885SOL    HW115554   1.732   6.941   1.346
 4885SOL    HW215555   1.860   7.016   1.278
 4886SOL     OW15556   6.066   0.461   0.376
 4886SOL    HW115557   6.132   0.392   0.346
 4886SOL    HW215558   6.111   0.550   0.381
 4887SOL     OW15559   7.024   2.139   3.883
 4887SOL    HW115560   0.059   2.201   3.832
 4887SOL    HW215561   6.968   2.088   3.818
 4888SOL     OW15562   1.637   6.148   2.561
 4888SOL    HW115563   1.574   6.177   2.489
 4888SOL    HW215564   1.704   6.221   2.577
 4889SOL     OW15565   1.010   1.939   6.900
 4889SOL    HW115566   0.962   1.870   6.954
 4889SOL    HW215567   1.109   1.929   6.913
 4890SOL     OW15568   0.927   0.576   4.225
 4890SOL    HW115569   0.924   0.532   4.315
 4890SOL    HW215570   0.981   0.660   4.230
 4891SOL     OW15571   0.878   4.965   0.847
 4891SOL    HW115572   0.928   5.035   0.795
 4891SOL    HW215573   0.800   4.934   0.793
 4892SOL     OW15574   0.951   5.523   1.565
 4892SOL    HW115575   0.953   5.604   1.505
 4892SOL    HW215576   1.033   5.468   1.549
 4893SOL     OW15577   0.238   4.008   6.466
 4893SOL    HW115578   0.321   4.051   6.501
 4893SOL    HW215579   0.195   4.069   6.399
 4894SOL     OW15580   2.056   0.526   2.867
 4894SOL    HW115581   2.034   0.612   2.821
 4894SOL    HW215582   2.055   0.451   2.800
 4895SOL     OW15583   0.833   3.058   0.373
 4895SOL    HW115584   0.819   3.057   0.274
 4895SOL    HW215585   0.929   3.073   0.394
 4896SOL     OW15586   3.655   4.947   4.824
 4896SOL    HW115587   3.653   5.047   4.833
 4896SOL    HW215588   3.632   4.922   4.730
 4897SOL     OW15589   3.321   5.516   0.445
 4897SOL    HW115590   3.366   5.596   0.407
 4897SOL    HW215591   3.305   5.529   0.543
 4898SOL     OW15592   5.508   1.571   5.468
 4898SOL    HW115593   5.563   1.492   5.440
 4898SOL    HW215594   5.458   1.548   5.552
 4899SOL     OW15595   6.239   4.650   3.388
 4899SOL    HW115596   6.270   4.557   3.406
 4899SOL    HW215597   6.254   4.706   3.470
 4900SOL     OW15598   0.303   6.398   6.072
 4900SOL    HW115599   0.398   6.388   6.103
 4900SOL    HW215600   0.284   6.495   6.055
 4901SOL     OW15601   0.927   6.091   3.895
 4901SOL    HW115602   0.854   6.042   3.849
 4901SOL    HW215603   0.894   6.127   3.982
 4902SOL     OW15604   2.966   5.056   1.702
 4902SOL    HW115605   2.965   4.956   1.701
 4902SOL    HW215606   2.975   5.088   1.797
 4903SOL     OW15607   4.778   0.097   6.638
 4903SOL    HW115608   4.775   0.053   6.549
 4903SOL    HW215609   4.710   0.171   6.641
 4904SOL     OW15610   1.929   6.300   4.253
 4904SOL    HW115611   1.959   6.363   4.181
 4904SOL    HW215612   1.891   6.353   4.329
 4905SOL     OW15613   4.791   2.910   1.677
 4905SOL    HW115614   4.723   2.929   1.749
 4905SOL    HW215615   4.757   2.839   1.616
 4906SOL     OW15616   4.737   0.087   0.663
 4906SOL    HW115617   4.718   0.184   0.648
 4906SOL    HW215618   4.744   0.040   0.575
 4907SOL     OW15619   4.002   0.147   3.632
 4907SOL    HW115620   3.902   0.150   3.644
 4907SOL    HW215621   4.030   0.053   3.609
 4908SOL     OW15622   3.486   6.518   6.661
 4908SOL    HW115623   3.584   6.521   6.641
 4908SOL    HW215624   3.449   6.611   6.658
 4909SOL     OW15625   6.338   6.131   5.102
 4909SOL    HW115626   6.378   6.120   5.193
 4909SOL    HW215627   6.267   6.201   5.104
 4910SOL     OW15628   5.184   0.426   5.162
 4910SOL    HW115629   5.104   0.370   5.184
 4910SOL    HW215630   5.222   0.465   5.246
 4911SOL     OW15631   0.319   2.543   5.625
 4911SOL    HW115632   0.401   2.544   5.683
 4911SOL    HW215633   0.296   2.637   5.599
 4912SOL     OW15634   3.727   1.915   2.329
 4912SOL    HW115635   3.656   1.936   2.263
 4912SOL    HW215636   3.806   1.876   2.281
 4913SOL     OW15637   3.637   3.643   3.290
 4913SOL    HW115638   3.619   3.592   3.206
 4913SOL    HW215639   3.610   3.588   3.369
 4914SOL     OW15640   2.028   6.918   3.551
 4914SOL    HW115641   1.941   6.870   3.561
 4914SOL    HW215642   2.011   7.016   3.542
 4915SOL     OW15643   3.972   6.475   4.023
 4915SOL    HW115644   3.895   6.447   4.080
 4915SOL    HW215645   3.948   6.463   3.927
 4916SOL     OW15646   2.687   2.121   3.064
 4916SOL    HW115647   2.782   2.145   3.042
 4916SOL    HW215648   2.626   2.195   3.037
 4917SOL     OW15649   2.085   4.532   1.111
 4917SOL    HW115650   2.074   4.442   1.069
 4917SOL    HW215651   2.044   4.532   1.202
 4918SOL     OW15652   2.473   0.341   1.980
 4918SOL    HW115653   2.513   0.285   2.053
 4918SOL    HW215654   2.510   0.434   1.986
 4919SOL     OW15655   1.852   2.818   2.482
 4919SOL    HW115656   1.823   2.888   2.416
 4919SOL    HW215657   1.772   2.775   2.523
 4920SOL     OW15658   4.135   1.031   0.800
 4920SOL    HW115659   4.214   1.006   0.856
 4920SOL    HW215660   4.104   1.123   0.824
 4921SOL     OW15661   2.200   4.097   1.777
 4921SOL    HW115662   2.250   4.093   1.691
 4921SOL    HW215663   2.255   4.144   1.846
 4922SOL     OW15664   1.555   3.144   5.537
 4922SOL    HW115665   1.644   3.167   5.498
 4922SOL    HW215666   1.484   3.198   5.491
 4923SOL     OW15667   4.895   0.726   1.623
 4923SOL    HW115668   4.915   0.814   1.664
 4923SOL    HW215669   4.887   0.656   1.694
 4924SOL     OW15670   1.064   4.001   4.376
 4924SOL    HW115671   1.096   4.036   4.464
 4924SOL    HW215672   1.047   3.903   4.383
 4925SOL     OW15673   5.136   6.274   0.740
 4925SOL    HW115674   5.071   6.198   0.753
 4925SOL    HW215675   5.094   6.359   0.772
 4926SOL     OW15676   4.686   2.518   2.204
 4926SOL    HW115677   4.601   2.512   2.151
 4926SOL    HW215678   4.761   2.477   2.152
 4927SOL     OW15679   3.325   2.963   3.041
 4927SOL    HW115680   3.231   2.992   3.024
 4927SOL    HW215681   3.387   3.039   3.023
 4928SOL     OW15682   0.472   6.815   7.011
 4928SOL    HW115683   0.508   6.897   6.966
 4928SOL    HW215684   0.398   6.840   0.048
 4929SOL     OW15685   1.037   4.834   4.475
 4929SOL    HW115686   0.972   4.904   4.504
 4929SOL    HW215687   1.130   4.870   4.482
 4930SOL     OW15688   0.157   2.146   0.177
 4930SOL    HW115689   0.124   2.200   0.100
 4930SOL    HW215690   0.080   2.105   0.225
 4931SOL     OW15691   0.607   0.243   0.446
 4931SOL    HW115692   0.592   0.219   0.542
 4931SOL    HW215693   0.616   0.342   0.438
 4932SOL     OW15694   2.475   2.142   1.422
 4932SOL    HW115695   2.443   2.118   1.514
 4932SOL    HW215696   2.398   2.142   1.358
 4933SOL     OW15697   2.562   1.157   3.792
 4933SOL    HW115698   2.602   1.111   3.871
 4933SOL    HW215699   2.635   1.189   3.731
 4934SOL     OW15700   0.369   5.633   4.157
 4934SOL    HW115701   0.326   5.577   4.086
 4934SOL    HW215702   0.455   5.671   4.123
 4935SOL     OW15703   2.142   1.674   6.605
 4935SOL    HW115704   2.079   1.750   6.588
 4935SOL    HW215705   2.194   1.692   6.688
 4936SOL     OW15706   3.684   6.034   1.459
 4936SOL    HW115707   3.590   6.044   1.426
 4936SOL    HW215708   3.685   6.032   1.559
 4937SOL     OW15709   0.843   3.030   5.994
 4937SOL    HW115710   0.747   3.003   6.000
 4937SOL    HW215711   0.898   2.951   5.968
 4938SOL     OW15712   3.491   4.645   1.515
 4938SOL    HW115713   3.466   4.724   1.571
 4938SOL    HW215714   3.471   4.561   1.566
 4939SOL     OW15715   1.319   1.828   1.510
 4939SOL    HW115716   1.227   1.861   1.533
 4939SOL    HW215717   1.370   1.810   1.594
 4940SOL     OW15718   0.151   2.778   3.745
 4940SOL    HW115719   0.132   2.799   3.840
 4940SOL    HW215720   0.232   2.719   3.739
 4941SOL     OW15721   4.218   2.405   5.381
 4941SOL    HW115722   4.206   2.436   5.475
 4941SOL    HW215723   4.192   2.480   5.319
 4942SOL     OW15724   5.297   2.832   3.534
 4942SOL    HW115725   5.351   2.801   3.612
 4942SOL    HW215726   5.302   2.765   3.460
 4943SOL     OW15727   5.261   3.128   6.613
 4943SOL    HW115728   5.358   3.149   6.626
 4943SOL    HW215729   5.218   3.114   6.702
 4944SOL     OW15730   1.421   5.021   1.461
 4944SOL    HW115731   1.454   4.929   1.480
 4944SOL    HW215732   1.473   5.060   1.386
 4945SOL     OW15733   1.994   0.417   5.244
 4945SOL    HW115734   1.976   0.320   5.254
 4945SOL    HW215735   2.029   0.455   5.330
 4946SOL     OW15736   1.369   4.788   0.655
 4946SOL    HW115737   1.325   4.850   0.721
 4946SOL    HW215738   1.432   4.840   0.597
 4947SOL     OW15739   1.808   0.965   1.629
 4947SOL    HW115740   1.876   0.939   1.561
 4947SOL    HW215741   1.753   0.885   1.654
 4948SOL     OW15742   1.499   2.359   1.202
 4948SOL    HW115743   1.466   2.265   1.205
 4948SOL    HW215744   1.438   2.413   1.143
 4949SOL     OW15745   6.342   2.995   5.923
 4949SOL    HW115746   6.329   3.087   5.960
 4949SOL    HW215747   6.437   2.967   5.937
 4950SOL     OW15748   2.599   4.587   5.512
 4950SOL    HW115749   2.680   4.561   5.460
 4950SOL    HW215750   2.616   4.570   5.609
 4951SOL     OW15751   5.235   5.979   3.578
 4951SOL    HW115752   5.275   6.065   3.547
 4951SOL    HW215753   5.307   5.918   3.611
 4952SOL     OW15754   0.493   0.217   5.990
 4952SOL    HW115755   0.475   0.266   5.904
 4952SOL    HW215756   0.518   0.283   6.061
 4953SOL     OW15757   1.397   1.984   5.119
 4953SOL    HW115758   1.468   1.927   5.161
 4953SOL    HW215759   1.307   1.945   5.140
 4954SOL     OW15760   2.908   3.955   5.186
 4954SOL    HW115761   2.815   3.982   5.213
 4954SOL    HW215762   2.965   4.037   5.178
 4955SOL     OW15763   3.006   5.851   0.188
 4955SOL    HW115764   3.041   5.777   0.247
 4955SOL    HW215765   2.997   5.817   0.095
 4956SOL     OW15766   2.243   0.274   4.926
 4956SOL    HW115767   2.207   0.236   4.841
 4956SOL    HW215768   2.222   0.372   4.931
 4957SOL     OW15769   6.478   4.077   6.770
 4957SOL    HW115770   6.558   4.128   6.739
 4957SOL    HW215771   6.508   3.999   6.825
 4958SOL     OW15772   2.336   0.340   6.307
 4958SOL    HW115773   2.372   0.365   6.217
 4958SOL    HW215774   2.392   0.383   6.378
 4959SOL     OW15775   6.969   2.966   1.751
 4959SOL    HW115776   6.933   2.949   1.843
 4959SOL    HW215777   6.908   3.028   1.703
 4960SOL     OW15778   4.021   4.887   3.812
 4960SOL    HW115779   4.080   4.834   3.751
 4960SOL    HW215780   3.949   4.931   3.760
 4961SOL     OW15781   3.263   0.786   6.964
 4961SOL    HW115782   3.165   0.805   6.971
 4961SOL    HW215783   3.312   0.844   0.003
 4962SOL     OW15784   6.831   3.896   1.040
 4962SOL    HW115785   6.841   3.863   0.947
 4962SOL    HW215786   6.879   3.983   1.050
 4963SOL     OW15787   0.523   4.232   0.086
 4963SOL    HW115788   0.485   4.293   0.017
 4963SOL    HW215789   0.614   4.202   0.057
 4964SOL     OW15790   2.734   6.871   4.735
 4964SOL    HW115791   2.787   6.937   4.681
 4964SOL    HW215792   2.743   6.781   4.694
 4965SOL     OW15793   1.210   6.472   2.732
 4965SOL    HW115794   1.172   6.460   2.823
 4965SOL    HW215795   1.252   6.563   2.725
 4966SOL     OW15796   3.170   6.479   4.474
 4966SOL    HW115797   3.177   6.421   4.555
 4966SOL    HW215798   3.147   6.423   4.394
 4967SOL     OW15799   3.998   4.761   5.565
 4967SOL    HW115800   4.034   4.692   5.502
 4967SOL    HW215801   4.022   4.736   5.659
 4968SOL     OW15802   0.469   1.569   3.899
 4968SOL    HW115803   0.559   1.612   3.905
 4968SOL    HW215804   0.476   1.483   3.848
 4969SOL     OW15805   0.543   6.542   2.224
 4969SOL    HW115806   0.479   6.469   2.250
 4969SOL    HW215807   0.628   6.533   2.277
 4970SOL     OW15808   1.391   1.284   1.409
 4970SOL    HW115809   1.329   1.207   1.422
 4970SOL    HW215810   1.485   1.255   1.428
 4971SOL     OW15811   6.849   6.026   2.978
 4971SOL    HW115812   6.807   6.107   3.021
 4971SOL    HW215813   6.929   6.054   2.926
 4972SOL     OW15814   1.819   4.197   1.351
 4972SOL    HW115815   1.843   4.126   1.417
 4972SOL    HW215816   1.785   4.154   1.268
 4973SOL     OW15817   0.196   0.913   0.854
 4973SOL    HW115818   0.121   0.974   0.880
 4973SOL    HW215819   0.160   0.820   0.840
 4974SOL     OW15820   3.640   4.524   6.242
 4974SOL    HW115821   3.593   4.498   6.326
 4974SOL    HW215822   3.667   4.442   6.192
 4975SOL     OW15823   5.830   3.607   0.237
 4975SOL    HW115824   5.852   3.578   0.331
 4975SOL    HW215825   5.752   3.555   0.204
 4976SOL     OW15826   0.940   6.991   4.262
 4976SOL    HW115827   0.900   0.056   4.252
 4976SOL    HW215828   0.917   6.935   4.183
 4977SOL     OW15829   2.844   5.377   6.079
 4977SOL    HW115830   2.754   5.376   6.035
 4977SOL    HW215831   2.910   5.421   6.018
 4978SOL     OW15832   5.004   4.550   5.363
 4978SOL    HW115833   4.986   4.452   5.373
 4978SOL    HW215834   4.992   4.576   5.267
 4979SOL     OW15835   1.409   0.015   6.596
 4979SOL    HW115836   1.480   0.085   6.599
 4979SOL    HW215837   1.400   6.999   6.686
 4980SOL     OW15838   6.349   3.767   3.149
 4980SOL    HW115839   6.375   3.833   3.078
 4980SOL    HW215840   6.277   3.707   3.114
 4981SOL     OW15841   3.444   4.973   1.980
 4981SOL    HW115842   3.400   4.971   1.890
 4981SOL    HW215843   3.517   4.905   1.982
 4982SOL     OW15844   4.733   1.381   6.989
 4982SOL    HW115845   4.710   1.299   6.937
 4982SOL    HW215846   4.664   1.452   6.973
 4983SOL     OW15847   6.469   4.940   4.044
 4983SOL    HW115848   6.561   4.979   4.044
 4983SOL    HW215849   6.468   4.855   3.992
 4984SOL     OW15850   5.141   4.450   2.895
 4984SOL    HW115851   5.189   4.421   2.812
 4984SOL    HW215852   5.145   4.377   2.963
 4985SOL     OW15853   5.939   5.968   2.611
 4985SOL    HW115854   5.917   5.880   2.570
 4985SOL    HW215855   6.036   5.971   2.633
 4986SOL     OW15856   0.725   4.566   1.888
 4986SOL    HW115857   0.818   4.561   1.926
 4986SOL    HW215858   0.689   4.658   1.900
 4987SOL     OW15859   0.773   0.267   2.317
 4987SOL    HW115860   0.720   0.349   2.294
 4987SOL    HW215861   0.739   0.228   2.403
 4988SOL     OW15862   5.819   0.339   3.501
 4988SOL    HW115863   5.904   0.374   3.541
 4988SOL    HW215864   5.799   0.389   3.417
 4989SOL     OW15865   5.275   0.805   2.207
 4989SOL    HW115866   5.221   0.889   2.196
 4989SOL    HW215867   5.325   0.786   2.123
 4990SOL     OW15868   4.369   1.545   6.667
 4990SOL    HW115869   4.293   1.507   6.721
 4990SOL    HW215870   4.333   1.613   6.603
 4991SOL     OW15871   1.057   6.064   4.850
 4991SOL    HW115872   0.995   6.088   4.925
 4991SOL    HW215873   1.005   6.053   4.766
 4992SOL     OW15874   0.074   0.624   3.392
 4992SOL    HW115875   7.015   0.639   3.342
 4992SOL    HW215876   0.056   0.625   3.490
 4993SOL     OW15877   4.571   6.189   5.763
 4993SOL    HW115878   4.535   6.146   5.681
 4993SOL    HW215879   4.497   6.237   5.811
 4994SOL     OW15880   2.920   5.131   5.676
 4994SOL    HW115881   2.853   5.101   5.609
 4994SOL    HW215882   2.878   5.135   5.767
 4995SOL     OW15883   0.350   0.886   4.339
 4995SOL    HW115884   0.263   0.868   4.385
 4995SOL    HW215885   0.421   0.827   4.377
 4996SOL     OW15886   0.255   1.705   4.350
 4996SOL    HW115887   0.233   1.765   4.427
 4996SOL    HW215888   0.288   1.761   4.273
 4997SOL     OW15889   3.421   2.020   1.460
 4997SOL    HW115890   3.476   2.103   1.453
 4997SOL    HW215891   3.330   2.036   1.423
 4998SOL     OW15892   1.171   3.128   3.414
 4998SOL    HW115893   1.264   3.128   3.379
 4998SOL    HW215894   1.164   3.195   3.489
 4999SOL     OW15895   1.343   3.584   4.674
 4999SOL    HW115896   1.342   3.572   4.774
 4999SOL    HW215897   1.281   3.658   4.649
 5000SOL     OW15898   3.059   5.967   3.237
 5000SOL    HW115899   3.043   5.885   3.181
 5000SOL    HW215900   2.995   5.968   3.314
 5001SOL     OW15901   0.745   5.235   2.781
 5001SOL    HW115902   0.811   5.311   2.785
 5001SOL    HW215903   0.731   5.197   2.872
 5002SOL     OW15904   0.511   4.585   2.672
 5002SOL    HW115905   0.440   4.549   2.612
 5002SOL    HW215906   0.492   4.680   2.693
 5003SOL     OW15907   4.226   6.119   3.268
 5003SOL    HW115908   4.163   6.160   3.202
 5003SOL    HW215909   4.316   6.109   3.227
 5004SOL     OW15910   3.479   6.078   6.351
 5004SOL    HW115911   3.436   6.095   6.263
 5004SOL    HW215912   3.454   6.151   6.415
 5005SOL     OW15913   3.050   3.135   6.439
 5005SOL    HW115914   3.020   3.042   6.417
 5005SOL    HW215915   2.978   3.200   6.416
 5006SOL     OW15916   5.535   1.312   1.905
 5006SOL    HW115917   5.591   1.336   1.984
 5006SOL    HW215918   5.471   1.386   1.885
 5007SOL     OW15919   6.218   0.814   1.012
 5007SOL    HW115920   6.268   0.820   0.925
 5007SOL    HW215921   6.138   0.756   0.999
 5008SOL     OW15922   6.559   6.625   1.877
 5008SOL    HW115923   6.590   6.708   1.830
 5008SOL    HW215924   6.628   6.554   1.870
 5009SOL     OW15925   0.941   2.647   0.613
 5009SOL    HW115926   0.879   2.710   0.567
 5009SOL    HW215927   1.031   2.691   0.622
 5010SOL     OW15928   3.374   2.644   0.210
 5010SOL    HW115929   3.397   2.614   0.118
 5010SOL    HW215930   3.405   2.576   0.276
 5011SOL     OW15931   1.772   3.762   0.136
 5011SOL    HW115932   1.822   3.785   0.219
 5011SOL    HW215933   1.706   3.835   0.116
 5012SOL     OW15934   5.564   2.317   5.686
 5012SOL    HW115935   5.632   2.372   5.735
 5012SOL    HW215936   5.560   2.226   5.728
 5013SOL     OW15937   6.285   0.424   5.595
 5013SOL    HW115938   6.232   0.339   5.601
 5013SOL    HW215939   6.343   0.422   5.514
 5014SOL     OW15940   6.626   4.265   0.483
 5014SOL    HW115941   6.542   4.297   0.527
 5014SOL    HW215942   6.687   4.226   0.552
 5015SOL     OW15943   5.561   0.555   4.505
 5015SOL    HW115944   5.468   0.580   4.477
 5015SOL    HW215945   5.626   0.621   4.467
 5016SOL     OW15946   1.439   3.253   4.818
 5016SOL    HW115947   1.413   3.196   4.740
 5016SOL    HW215948   1.487   3.334   4.785
 5017SOL     OW15949   0.815   2.669   0.895
 5017SOL    HW115950   0.876   2.664   0.816
 5017SOL    HW215951   0.868   2.686   0.978
 5018SOL     OW15952   0.306   5.363   2.252
 5018SOL    HW115953   0.342   5.271   2.234
 5018SOL    HW215954   0.254   5.394   2.173
 5019SOL     OW15955   1.757   5.583   5.662
 5019SOL    HW115956   1.850   5.551   5.645
 5019SOL    HW215957   1.725   5.550   5.751
 5020SOL     OW15958   0.505   6.935   4.714
 5020SOL    HW115959   0.423   6.988   4.735
 5020SOL    HW215960   0.586   6.990   4.732
 5021SOL     OW15961   1.677   0.472   1.115
 5021SOL    HW115962   1.679   0.390   1.058
 5021SOL    HW215963   1.697   0.448   1.209
 5022SOL     OW15964   0.213   2.797   1.425
 5022SOL    HW115965   0.194   2.852   1.507
 5022SOL    HW215966   0.207   2.855   1.344
 5023SOL     OW15967   6.959   3.620   1.516
 5023SOL    HW115968   6.912   3.601   1.429
 5023SOL    HW215969   6.891   3.643   1.586
 5024SOL     OW15970   5.369   4.010   0.502
 5024SOL    HW115971   5.284   4.062   0.498
 5024SOL    HW215972   5.410   4.019   0.593
 5025SOL     OW15973   4.146   1.784   4.582
 5025SOL    HW115974   4.147   1.687   4.558
 5025SOL    HW215975   4.056   1.822   4.560
 5026SOL     OW15976   6.564   5.376   4.524
 5026SOL    HW115977   6.513   5.418   4.448
 5026SOL    HW215978   6.629   5.442   4.561
 5027SOL     OW15979   5.390   0.885   1.289
 5027SOL    HW115980   5.397   0.800   1.237
 5027SOL    HW215981   5.436   0.959   1.239
 5028SOL     OW15982   0.330   1.854   2.937
 5028SOL    HW115983   0.290   1.768   2.967
 5028SOL    HW215984   0.329   1.920   3.013
 5029SOL     OW15985   6.538   3.069   2.513
 5029SOL    HW115986   6.439   3.074   2.497
 5029SOL    HW215987   6.554   3.041   2.608
 5030SOL     OW15988   6.723   5.918   6.281
 5030SOL    HW115989   6.713   5.849   6.353
 5030SOL    HW215990   6.796   5.982   6.306
 5031SOL     OW15991   6.991   1.078   5.199
 5031SOL    HW115992   6.967   1.174   5.191
 5031SOL    HW215993   0.010   1.062   5.287
 5032SOL     OW15994   3.385   2.340   6.250
 5032SOL    HW115995   3.422   2.427   6.281
 5032SOL    HW215996   3.439   2.306   6.173
 5033SOL     OW15997   2.334   1.481   0.100
 5033SOL    HW115998   2.281   1.463   0.017
 5033SOL    HW215999   2.290   1.553   0.153
 5034SOL     OW16000   4.313   6.547   4.378
 5034SOL    HW116001   4.403   6.588   4.389
 5034SOL    HW216002   4.267   6.543   4.466
 5035SOL     OW16003   6.893   4.376   5.340
 5035SOL    HW116004   6.938   4.318   5.408
 5035SOL    HW216005   6.929   4.355   5.249
 5036SOL     OW16006   6.899   4.597   5.534
 5036SOL    HW116007   6.825   4.651   5.575
 5036SOL    HW216008   6.861   4.514   5.493
 5037SOL     OW16009   4.339   4.172   1.413
 5037SOL    HW116010   4.437   4.161   1.426
 5037SOL    HW216011   4.292   4.162   1.501
 5038SOL     OW16012   3.860   3.545   4.071
 5038SOL    HW116013   3.950   3.550   4.027
 5038SOL    HW216014   3.800   3.615   4.033
 5039SOL     OW16015   1.945   3.368   6.209
 5039SOL    HW116016   2.002   3.354   6.129
 5039SOL    HW216017   1.930   3.281   6.255
 5040SOL     OW16018   1.216   5.263   5.496
 5040SOL    HW116019   1.263   5.200   5.558
 5040SOL    HW216020   1.272   5.279   5.415
 5041SOL     OW16021   1.089   2.950   1.934
 5041SOL    HW116022   1.025   2.952   2.012
 5041SOL    HW216023   1.182   2.957   1.968
 5042SOL     OW16024   7.023   3.862   6.481
 5042SOL    HW116025   0.087   3.904   6.481
 5042SOL    HW216026   0.003   3.770   6.521
 5043SOL     OW16027   4.377   0.960   0.165
 5043SOL    HW116028   4.323   0.877   0.171
 5043SOL    HW216029   4.390   0.985   0.069
 5044SOL     OW16030   0.178   6.330   1.643
 5044SOL    HW116031   0.095   6.385   1.647
 5044SOL    HW216032   0.204   6.302   1.736
 5045SOL     OW16033   6.311   4.804   5.867
 5045SOL    HW116034   6.297   4.752   5.783
 5045SOL    HW216035   6.359   4.889   5.847
 5046SOL     OW16036   3.808   3.950   4.165
 5046SOL    HW116037   3.720   3.929   4.121
 5046SOL    HW216038   3.797   4.030   4.225
 5047SOL     OW16039   2.021   3.647   2.806
 5047SOL    HW116040   1.993   3.557   2.838
 5047SOL    HW216041   2.074   3.693   2.878
 5048SOL     OW16042   1.776   0.636   4.850
 5048SOL    HW116043   1.835   0.571   4.897
 5048SOL    HW216044   1.744   0.705   4.915
 5049SOL     OW16045   5.934   1.208   6.379
 5049SOL    HW116046   5.912   1.170   6.469
 5049SOL    HW216047   6.016   1.163   6.343
 5050SOL     OW16048   1.625   1.625   6.769
 5050SOL    HW116049   1.533   1.622   6.729
 5050SOL    HW216050   1.628   1.570   6.852
 5051SOL     OW16051   4.066   4.723   1.193
 5051SOL    HW116052   4.035   4.745   1.286
 5051SOL    HW216053   3.987   4.718   1.132
 5052SOL     OW16054   4.057   1.865   6.276
 5052SOL    HW116055   4.019   1.851   6.368
 5052SOL    HW216056   4.044   1.961   6.249
 5053SOL     OW16057   0.852   5.064   3.264
 5053SOL    HW116058   0.813   5.082   3.173
 5053SOL    HW216059   0.833   5.141   3.324
 5054SOL     OW16060   3.742   4.894   5.478
 5054SOL    HW116061   3.834   4.866   5.505
 5054SOL    HW216062   3.718   4.851   5.391
 5055SOL     OW16063   0.646   2.910   6.266
 5055SOL    HW116064   0.630   2.897   6.168
 5055SOL    HW216065   0.678   2.825   6.306
 5056SOL     OW16066   4.886   4.091   5.181
 5056SOL    HW116067   4.940   4.148   5.118
 5056SOL    HW216068   4.930   4.002   5.190
 5057SOL     OW16069   1.020   0.166   2.320
 5057SOL    HW116070   0.993   0.077   2.357
 5057SOL    HW216071   0.940   0.226   2.315
 5058SOL     OW16072   3.551   4.697   6.821
 5058SOL    HW116073   3.527   4.727   6.729
 5058SOL    HW216074   3.628   4.750   6.855
 5059SOL     OW16075   0.081   0.081   3.358
 5059SOL    HW116076   0.091   0.049   3.452
 5059SOL    HW216077   0.144   0.157   3.342
 5060SOL     OW16078   6.760   2.108   6.059
 5060SOL    HW116079   6.761   2.064   6.150
 5060SOL    HW216080   6.681   2.168   6.052
 5061SOL     OW16081   4.713   2.250   6.925
 5061SOL    HW116082   4.722   2.151   6.916
 5061SOL    HW216083   4.617   2.274   6.940
 5062SOL     OW16084   0.401   0.084   2.123
 5062SOL    HW116085   0.498   0.093   2.146
 5062SOL    HW216086   0.390   0.024   2.044
 5063SOL     OW16087   0.368   6.800   1.556
 5063SOL    HW116088   0.383   6.766   1.648
 5063SOL    HW216089   0.430   6.876   1.537
 5064SOL     OW16090   4.806   3.285   0.309
 5064SOL    HW116091   4.793   3.232   0.394
 5064SOL    HW216092   4.745   3.364   0.310
 5065SOL     OW16093   3.190   0.161   5.337
 5065SOL    HW116094   3.251   0.164   5.259
 5065SOL    HW216095   3.243   0.161   5.422
 5066SOL     OW16096   5.554   4.211   1.678
 5066SOL    HW116097   5.654   4.204   1.672
 5066SOL    HW216098   5.522   4.284   1.618
 5067SOL     OW16099   5.523   1.553   0.030
 5067SOL    HW116100   5.478   1.585   0.114
 5067SOL    HW216101   5.485   1.602   6.978
 5068SOL     OW16102   3.275   4.371   0.882
 5068SOL    HW116103   3.231   4.399   0.967
 5068SOL    HW216104   3.230   4.416   0.804
 5069SOL     OW16105   1.567   4.204   2.721
 5069SOL    HW116106   1.605   4.231   2.632
 5069SOL    HW216107   1.474   4.240   2.730
 5070SOL     OW16108   5.037   3.384   4.229
 5070SOL    HW116109   4.969   3.382   4.303
 5070SOL    HW216110   5.117   3.436   4.259
 5071SOL     OW16111   4.365   2.395   4.836
 5071SOL    HW116112   4.328   2.331   4.768
 5071SOL    HW216113   4.292   2.424   4.898
 5072SOL     OW16114   0.366   5.563   0.644
 5072SOL    HW116115   0.380   5.654   0.683
 5072SOL    HW216116   0.452   5.529   0.607
 5073SOL     OW16117   6.584   6.590   2.414
 5073SOL    HW116118   6.508   6.643   2.452
 5073SOL    HW216119   6.631   6.542   2.488
 5074SOL     OW16120   2.878   4.026   0.052
 5074SOL    HW116121   2.811   4.099   0.064
 5074SOL    HW216122   2.969   4.066   0.037
 5075SOL     OW16123   6.821   0.914   5.772
 5075SOL    HW116124   6.767   0.854   5.831
 5075SOL    HW216125   6.870   0.981   5.828
 5076SOL     OW16126   3.513   0.471   0.544
 5076SOL    HW116127   3.460   0.556   0.545
 5076SOL    HW216128   3.583   0.475   0.616
 5077SOL     OW16129   1.559   2.520   3.744
 5077SOL    HW116130   1.464   2.548   3.756
 5077SOL    HW216131   1.578   2.442   3.803
 5078SOL     OW16132   1.302   2.123   3.395
 5078SOL    HW116133   1.340   2.196   3.451
 5078SOL    HW216134   1.301   2.151   3.299
 5079SOL     OW16135   2.952   5.794   6.190
 5079SOL    HW116136   2.993   5.783   6.099
 5079SOL    HW216137   2.989   5.723   6.251
 5080SOL     OW16138   5.650   6.501   5.167
 5080SOL    HW116139   5.735   6.542   5.134
 5080SOL    HW216140   5.574   6.531   5.110
 5081SOL     OW16141   3.231   3.976   3.102
 5081SOL    HW116142   3.292   3.916   3.153
 5081SOL    HW216143   3.152   4.000   3.159
 5082SOL     OW16144   6.116   6.531   5.703
 5082SOL    HW116145   6.133   6.588   5.623
 5082SOL    HW216146   6.186   6.549   5.772
 5083SOL     OW16147   1.626   6.795   2.295
 5083SOL    HW116148   1.596   6.746   2.213
 5083SOL    HW216149   1.628   6.893   2.276
 5084SOL     OW16150   1.337   4.770   4.189
 5084SOL    HW116151   1.389   4.719   4.121
 5084SOL    HW216152   1.318   4.711   4.267
 5085SOL     OW16153   5.413   1.198   6.707
 5085SOL    HW116154   5.445   1.291   6.689
 5085SOL    HW216155   5.334   1.201   6.768
 5086SOL     OW16156   6.269   4.717   3.908
 5086SOL    HW116157   6.240   4.748   3.999
 5086SOL    HW216158   6.357   4.670   3.916
 5087SOL     OW16159   6.559   6.414   4.181
 5087SOL    HW116160   6.504   6.476   4.237
 5087SOL    HW216161   6.637   6.464   4.144
 5088SOL     OW16162   6.496   0.973   6.245
 5088SOL    HW116163   6.431   0.938   6.179
 5088SOL    HW216164   6.502   1.073   6.236
 5089SOL     OW16165   6.370   3.302   2.943
 5089SOL    HW116166   6.273   3.291   2.921
 5089SOL    HW216167   6.387   3.270   3.037
 5090SOL     OW16168   2.253   4.747   1.169
 5090SOL    HW116169   2.325   4.730   1.237
 5090SOL    HW216170   2.185   4.674   1.174
 5091SOL     OW16171   1.157   6.131   2.926
 5091SOL    HW116172   1.091   6.057   2.937
 5091SOL    HW216173   1.202   6.123   2.837
 5092SOL     OW16174   3.551   2.520   1.700
 5092SOL    HW116175   3.453   2.503   1.689
 5092SOL    HW216176   3.594   2.441   1.744
 5093SOL     OW16177   1.130   2.377   1.817
 5093SOL    HW116178   1.110   2.384   1.719
 5093SOL    HW216179   1.203   2.442   1.841
 5094SOL     OW16180   0.919   6.934   5.767
 5094SOL    HW116181   0.935   6.836   5.774
 5094SOL    HW216182   0.975   6.972   5.694
 5095SOL     OW16183   1.429   0.664   4.703
 5095SOL    HW116184   1.482   0.736   4.658
 5095SOL    HW216185   1.433   0.581   4.647
 5096SOL     OW16186   4.975   3.712   0.771
 5096SOL    HW116187   5.065   3.751   0.791
 5096SOL    HW216188   4.981   3.656   0.688
 5097SOL     OW16189   1.527   0.738   5.746
 5097SOL    HW116190   1.588   0.740   5.825
 5097SOL    HW216191   1.560   0.801   5.675
 5098SOL     OW16192   0.769   1.187   1.705
 5098SOL    HW116193   0.855   1.198   1.755
 5098SOL    HW216194   0.775   1.237   1.619
 5099SOL     OW16195   1.142   0.557   5.627
 5099SOL    HW116196   1.240   0.540   5.615
 5099SOL    HW216197   1.103   0.486   5.685
 5100SOL     OW16198   5.110   6.893   6.373
 5100SOL    HW116199   5.177   6.934   6.435
 5100SOL    HW216200   5.042   6.843   6.426
 5101SOL     OW16201   4.770   6.351   0.035
 5101SOL    HW116202   4.802   6.279   6.999
 5101SOL    HW216203   4.849   6.397   0.075
 5102SOL     OW16204   5.518   0.934   5.550
 5102SOL    HW116205   5.520   0.997   5.472
 5102SOL    HW216206   5.427   0.932   5.590
 5103SOL     OW16207   0.198   0.501   4.242
 5103SOL    HW116208   0.101   0.525   4.248
 5103SOL    HW216209   0.223   0.491   4.146
 5104SOL     OW16210   2.207   1.131   1.831
 5104SOL    HW116211   2.283   1.195   1.843
 5104SOL    HW216212   2.143   1.168   1.764
 5105SOL     OW16213   3.939   4.051   6.197
 5105SOL    HW116214   4.025   4.045   6.248
 5105SOL    HW216215   3.918   3.962   6.156
 5106SOL     OW16216   3.212   0.319   2.793
 5106SOL    HW116217   3.244   0.361   2.707
 5106SOL    HW216218   3.205   0.390   2.863
 5107SOL     OW16219   2.946   0.571   6.851
 5107SOL    HW116220   3.020   0.504   6.839
 5107SOL    HW216221   2.882   0.564   6.775
 5108SOL     OW16222   2.942   3.836   3.864
 5108SOL    HW116223   2.846   3.832   3.895
 5108SOL    HW216224   2.997   3.882   3.934
 5109SOL     OW16225   0.353   1.413   0.926
 5109SOL    HW116226   0.448   1.444   0.915
 5109SOL    HW216227   0.345   1.320   0.890
 5110SOL     OW16228   1.923   6.382   6.077
 5110SOL    HW116229   2.004   6.343   6.121
 5110SOL    HW216230   1.941   6.395   5.980
 5111SOL     OW16231   1.117   1.588   6.447
 5111SOL    HW116232   1.109   1.684   6.420
 5111SOL    HW216233   1.034   1.539   6.422
 5112SOL     OW16234   0.318   6.416   3.527
 5112SOL    HW116235   0.298   6.352   3.453
 5112SOL    HW216236   0.323   6.509   3.490
 5113SOL     OW16237   1.216   0.757   0.494
 5113SOL    HW116238   1.258   0.847   0.505
 5113SOL    HW216239   1.117   0.767   0.494
 5114SOL     OW16240   3.353   4.762   0.554
 5114SOL    HW116241   3.368   4.768   0.455
 5114SOL    HW216242   3.406   4.833   0.600
 5115SOL     OW16243   1.454   4.177   6.633
 5115SOL    HW116244   1.471   4.147   6.539
 5115SOL    HW216245   1.402   4.262   6.632
 5116SOL     OW16246   5.066   4.814   6.391
 5116SOL    HW116247   5.118   4.784   6.311
 5116SOL    HW216248   5.118   4.792   6.474
 5117SOL     OW16249   2.612   4.725   4.176
 5117SOL    HW116250   2.534   4.763   4.125
 5117SOL    HW216251   2.579   4.656   4.241
 5118SOL     OW16252   4.707   6.000   0.103
 5118SOL    HW116253   4.687   6.048   0.189
 5118SOL    HW216254   4.647   5.920   0.095
 5119SOL     OW16255   5.413   0.817   1.928
 5119SOL    HW116256   5.455   0.882   1.990
 5119SOL    HW216257   5.361   0.866   1.857
 5120SOL     OW16258   5.928   0.870   3.011
 5120SOL    HW116259   5.880   0.840   2.928
 5120SOL    HW216260   5.972   0.791   3.054
 5121SOL     OW16261   0.134   3.209   5.534
 5121SOL    HW116262   0.224   3.248   5.552
 5121SOL    HW216263   0.078   3.274   5.482
 5122SOL     OW16264   2.392   0.642   3.250
 5122SOL    HW116265   2.487   0.622   3.228
 5122SOL    HW216266   2.386   0.731   3.296
 5123SOL     OW16267   5.382   3.780   3.315
 5123SOL    HW116268   5.377   3.710   3.244
 5123SOL    HW216269   5.447   3.851   3.288
 5124SOL     OW16270   2.443   6.306   6.618
 5124SOL    HW116271   2.406   6.373   6.554
 5124SOL    HW216272   2.399   6.217   6.603
 5125SOL     OW16273   0.317   3.626   4.095
 5125SOL    HW116274   0.322   3.526   4.094
 5125SOL    HW216275   0.358   3.662   4.011
 5126SOL     OW16276   6.080   4.818   6.449
 5126SOL    HW116277   6.167   4.772   6.463
 5126SOL    HW216278   6.091   4.891   6.382
 5127SOL     OW16279   5.649   3.742   6.734
 5127SOL    HW116280   5.671   3.831   6.773
 5127SOL    HW216281   5.550   3.727   6.738
 5128SOL     OW16282   1.196   0.846   6.581
 5128SOL    HW116283   1.262   0.856   6.507
 5128SOL    HW216284   1.219   0.910   6.655
 5129SOL     OW16285   5.340   0.379   2.185
 5129SOL    HW116286   5.334   0.449   2.256
 5129SOL    HW216287   5.426   0.389   2.135
 5130SOL     OW16288   1.184   5.076   4.702
 5130SOL    HW116289   1.137   5.015   4.766
 5130SOL    HW216290   1.221   5.023   4.626
 5131SOL     OW16291   3.241   4.917   3.541
 5131SOL    HW116292   3.155   4.892   3.586
 5131SOL    HW216293   3.227   4.918   3.442
 5132SOL     OW16294   3.536   1.248   6.744
 5132SOL    HW116295   3.586   1.162   6.736
 5132SOL    HW216296   3.570   1.314   6.677
 5133SOL     OW16297   3.960   5.784   6.669
 5133SOL    HW116298   3.981   5.779   6.571
 5133SOL    HW216299   3.919   5.697   6.698
 5134SOL     OW16300   6.416   6.694   1.395
 5134SOL    HW116301   6.329   6.669   1.351
 5134SOL    HW216302   6.416   6.662   1.489
 5135SOL     OW16303   6.471   3.097   2.220
 5135SOL    HW116304   6.517   3.039   2.286
 5135SOL    HW216305   6.438   3.042   2.143
 5136SOL     OW16306   0.939   0.986   6.335
 5136SOL    HW116307   0.849   1.026   6.314
 5136SOL    HW216308   0.928   0.911   6.400
 5137SOL     OW16309   5.093   2.588   5.175
 5137SOL    HW116310   5.093   2.488   5.169
 5137SOL    HW216311   5.091   2.616   5.271
 5138SOL     OW16312   3.799   3.700   4.302
 5138SOL    HW116313   3.818   3.645   4.221
 5138SOL    HW216314   3.849   3.786   4.298
 5139SOL     OW16315   1.961   0.149   5.303
 5139SOL    HW116316   1.988   0.092   5.226
 5139SOL    HW216317   1.889   0.103   5.355
 5140SOL     OW16318   4.142   2.056   5.883
 5140SOL    HW116319   4.098   2.061   5.973
 5140SOL    HW216320   4.156   1.960   5.858
 5141SOL     OW16321   6.790   2.866   1.957
 5141SOL    HW116322   6.808   2.938   2.024
 5141SOL    HW216323   6.755   2.785   2.005
 5142SOL     OW16324   0.092   6.804   3.605
 5142SOL    HW116325   0.051   6.784   3.695
 5142SOL    HW216326   0.154   6.882   3.613
 5143SOL     OW16327   0.769   4.648   4.414
 5143SOL    HW116328   0.731   4.741   4.421
 5143SOL    HW216329   0.841   4.647   4.345
 5144SOL     OW16330   1.722   3.787   6.642
 5144SOL    HW116331   1.747   3.745   6.554
 5144SOL    HW216332   1.714   3.716   6.712
 5145SOL     OW16333   2.630   6.747   6.688
 5145SOL    HW116334   2.532   6.761   6.697
 5145SOL    HW216335   2.666   6.809   6.618
 5146SOL     OW16336   4.484   4.761   5.939
 5146SOL    HW116337   4.434   4.779   6.024
 5146SOL    HW216338   4.533   4.674   5.948
 5147SOL     OW16339   4.905   3.076   3.263
 5147SOL    HW116340   4.922   3.049   3.168
 5147SOL    HW216341   4.844   3.009   3.306
 5148SOL     OW16342   0.545   0.707   1.753
 5148SOL    HW116343   0.496   0.792   1.736
 5148SOL    HW216344   0.496   0.653   1.821
 5149SOL     OW16345   5.563   4.540   3.393
 5149SOL    HW116346   5.583   4.621   3.337
 5149SOL    HW216347   5.580   4.562   3.489
 5150SOL     OW16348   1.449   5.064   4.012
 5150SOL    HW116349   1.542   5.068   4.048
 5150SOL    HW216350   1.389   5.019   4.078
 5151SOL     OW16351   5.856   4.744   2.276
 5151SOL    HW116352   5.878   4.763   2.180
 5151SOL    HW216353   5.847   4.645   2.289
 5152SOL     OW16354   1.567   0.315   6.256
 5152SOL    HW116355   1.475   0.337   6.223
 5152SOL    HW216356   1.572   0.218   6.277
 5153SOL     OW16357   1.376   1.771   0.472
 5153SOL    HW116358   1.369   1.680   0.514
 5153SOL    HW216359   1.394   1.839   0.543
 5154SOL     OW16360   0.694   2.893   6.646
 5154SOL    HW116361   0.781   2.930   6.613
 5154SOL    HW216362   0.626   2.898   6.574
 5155SOL     OW16363   2.184   1.690   0.554
 5155SOL    HW116364   2.186   1.590   0.547
 5155SOL    HW216365   2.131   1.717   0.634
 5156SOL     OW16366   5.443   4.970   5.949
 5156SOL    HW116367   5.511   4.897   5.955
 5156SOL    HW216368   5.440   5.005   5.855
 5157SOL     OW16369   3.870   0.641   2.554
 5157SOL    HW116370   3.875   0.738   2.531
 5157SOL    HW216371   3.960   0.608   2.582
 5158SOL     OW16372   4.263   1.284   2.651
 5158SOL    HW116373   4.195   1.225   2.693
 5158SOL    HW216374   4.242   1.380   2.672
 5159SOL     OW16375   5.449   3.500   6.096
 5159SOL    HW116376   5.416   3.543   6.012
 5159SOL    HW216377   5.376   3.447   6.138
 5160SOL     OW16378   0.129   6.329   3.242
 5160SOL    HW116379   0.040   6.284   3.255
 5160SOL    HW216380   0.114   6.426   3.224
 5161SOL     OW16381   0.660   3.323   0.390
 5161SOL    HW116382   0.672   3.244   0.449
 5161SOL    HW216383   0.668   3.407   0.445
 5162SOL     OW16384   0.047   6.511   2.831
 5162SOL    HW116385   0.019   6.556   2.916
 5162SOL    HW216386   0.047   6.578   2.756
 5163SOL     OW16387   3.161   6.542   1.744
 5163SOL    HW116388   3.074   6.557   1.790
 5163SOL    HW216389   3.158   6.454   1.696
 5164SOL     OW16390   2.922   3.832   1.159
 5164SOL    HW116391   2.948   3.861   1.251
 5164SOL    HW216392   2.851   3.893   1.124
 5165SOL     OW16393   1.658   4.856   0.033
 5165SOL    HW116394   1.635   4.896   6.971
 5165SOL    HW216395   1.757   4.848   0.042
 5166SOL     OW16396   1.808   5.471   1.691
 5166SOL    HW116397   1.770   5.379   1.690
 5166SOL    HW216398   1.888   5.474   1.752
 5167SOL     OW16399   5.212   3.149   5.315
 5167SOL    HW116400   5.267   3.194   5.385
 5167SOL    HW216401   5.124   3.195   5.307
 5168SOL     OW16402   4.144   2.207   1.949
 5168SOL    HW116403   4.120   2.195   1.853
 5168SOL    HW216404   4.066   2.183   2.006
 5169SOL     OW16405   4.337   0.403   4.195
 5169SOL    HW116406   4.276   0.481   4.182
 5169SOL    HW216407   4.340   0.378   4.292
 5170SOL     OW16408   1.435   3.689   6.575
 5170SOL    HW116409   1.523   3.735   6.587
 5170SOL    HW216410   1.390   3.679   6.664
 5171SOL     OW16411   2.067   5.987   5.603
 5171SOL    HW116412   1.995   5.926   5.635
 5171SOL    HW216413   2.102   6.041   5.681
 5172SOL     OW16414   0.484   5.113   3.812
 5172SOL    HW116415   0.475   5.013   3.803
 5172SOL    HW216416   0.422   5.145   3.884
 5173SOL     OW16417   4.356   3.817   5.749
 5173SOL    HW116418   4.357   3.811   5.650
 5173SOL    HW216419   4.262   3.814   5.782
 5174SOL     OW16420   2.551   6.763   3.423
 5174SOL    HW116421   2.559   6.719   3.513
 5174SOL    HW216422   2.466   6.816   3.419
 5175SOL     OW16423   3.050   4.519   0.028
 5175SOL    HW116424   2.988   4.454   7.009
 5175SOL    HW216425   3.142   4.479   0.034
 5176SOL     OW16426   5.371   5.433   0.419
 5176SOL    HW116427   5.450   5.428   0.358
 5176SOL    HW216428   5.288   5.452   0.366
 5177SOL     OW16429   4.797   0.926   0.760
 5177SOL    HW116430   4.722   0.944   0.823
 5177SOL    HW216431   4.761   0.897   0.672
 5178SOL     OW16432   0.760   3.581   1.730
 5178SOL    HW116433   0.670   3.560   1.690
 5178SOL    HW216434   0.802   3.655   1.678
 5179SOL     OW16435   6.006   4.524   3.218
 5179SOL    HW116436   6.087   4.571   3.181
 5179SOL    HW216437   5.996   4.436   3.173
 5180SOL     OW16438   2.379   0.109   1.281
 5180SOL    HW116439   2.315   0.038   1.252
 5180SOL    HW216440   2.462   0.105   1.225
 5181SOL     OW16441   0.535   0.815   6.697
 5181SOL    HW116442   0.457   0.768   6.656
 5181SOL    HW216443   0.614   0.755   6.697
 5182SOL     OW16444   4.277   5.056   2.888
 5182SOL    HW116445   4.237   4.992   2.952
 5182SOL    HW216446   4.236   5.147   2.900
 5183SOL     OW16447   4.208   1.623   3.572
 5183SOL    HW116448   4.248   1.705   3.532
 5183SOL    HW216449   4.145   1.581   3.507
 5184SOL     OW16450   2.069   1.660   4.101
 5184SOL    HW116451   2.047   1.592   4.031
 5184SOL    HW216452   2.147   1.714   4.070
 5185SOL     OW16453   5.546   0.609   1.797
 5185SOL    HW116454   5.507   0.677   1.858
 5185SOL    HW216455   5.567   0.652   1.709
 5186SOL     OW16456   6.828   3.096   5.983
 5186SOL    HW116457   6.923   3.073   6.004
 5186SOL    HW216458   6.812   3.083   5.885
 5187SOL     OW16459   2.280   4.461   5.463
 5187SOL    HW116460   2.356   4.404   5.433
 5187SOL    HW216461   2.195   4.409   5.459
 5188SOL     OW16462   6.712   6.858   1.880
 5188SOL    HW116463   6.688   6.878   1.975
 5188SOL    HW216464   6.667   6.924   1.820
 5189SOL     OW16465   5.817   0.463   5.986
 5189SOL    HW116466   5.909   0.439   6.017
 5189SOL    HW216467   5.756   0.385   5.996
 5190SOL     OW16468   1.521   2.959   1.555
 5190SOL    HW116469   1.492   3.054   1.561
 5190SOL    HW216470   1.618   2.955   1.528
 5191SOL     OW16471   2.822   5.752   2.246
 5191SOL    HW116472   2.828   5.710   2.337
 5191SOL    HW216473   2.845   5.849   2.253
 5192SOL     OW16474   2.030   5.487   1.851
 5192SOL    HW116475   2.035   5.445   1.942
 5192SOL    HW216476   2.123   5.506   1.818
 5193SOL     OW16477   5.564   0.368   0.012
 5193SOL    HW116478   5.660   0.392   7.024
 5193SOL    HW216479   5.506   0.434   6.990
 5194SOL     OW16480   4.158   2.122   6.981
 5194SOL    HW116481   4.155   2.201   0.015
 5194SOL    HW216482   4.067   2.105   6.943
 5195SOL     OW16483   0.083   1.092   4.159
 5195SOL    HW116484   0.097   1.161   4.229
 5195SOL    HW216485   0.165   1.035   4.151
 5196SOL     OW16486   4.528   6.846   3.554
 5196SOL    HW116487   4.452   6.891   3.507
 5196SOL    HW216488   4.555   6.764   3.503
 5197SOL     OW16489   1.410   4.383   5.900
 5197SOL    HW116490   1.333   4.441   5.874
 5197SOL    HW216491   1.390   4.339   5.988
 5198SOL     OW16492   5.431   5.465   3.113
 5198SOL    HW116493   5.474   5.554   3.128
 5198SOL    HW216494   5.502   5.397   3.092
 5199SOL     OW16495   6.738   5.402   1.165
 5199SOL    HW116496   6.651   5.411   1.117
 5199SOL    HW216497   6.727   5.339   1.243
 5200SOL     OW16498   0.179   3.905   5.628
 5200SOL    HW116499   0.093   3.879   5.584
 5200SOL    HW216500   0.174   3.883   5.726
 5201SOL     OW16501   1.799   5.630   3.954
 5201SOL    HW116502   1.699   5.627   3.955
 5201SOL    HW216503   1.829   5.725   3.943
 5202SOL     OW16504   6.627   3.671   6.593
 5202SOL    HW116505   6.548   3.731   6.609
 5202SOL    HW216506   6.618   3.589   6.649
 5203SOL     OW16507   0.140   2.802   6.824
 5203SOL    HW116508   0.211   2.854   6.778
 5203SOL    HW216509   0.173   2.770   6.912
 5204SOL     OW16510   4.382   4.991   0.490
 5204SOL    HW116511   4.438   4.962   0.412
 5204SOL    HW216512   4.302   4.932   0.497
 5205SOL     OW16513   1.732   1.197   1.501
 5205SOL    HW116514   1.775   1.138   1.433
 5205SOL    HW216515   1.668   1.143   1.556
 5206SOL     OW16516   0.377   4.405   6.959
 5206SOL    HW116517   0.301   4.421   7.022
 5206SOL    HW216518   0.341   4.364   6.875
 5207SOL     OW16519   1.669   5.547   4.366
 5207SOL    HW116520   1.745   5.563   4.303
 5207SOL    HW216521   1.584   5.541   4.315
 5208SOL     OW16522   4.178   0.810   0.296
 5208SOL    HW116523   4.081   0.796   0.274
 5208SOL    HW216524   4.185   0.865   0.380
 5209SOL     OW16525   6.046   5.873   3.388
 5209SOL    HW116526   6.015   5.850   3.296
 5209SOL    HW216527   5.978   5.931   3.433
 5210SOL     OW16528   5.089   3.768   3.915
 5210SOL    HW116529   5.076   3.826   3.835
 5210SOL    HW216530   5.012   3.705   3.924
 5211SOL     OW16531   3.213   3.468   3.358
 5211SOL    HW116532   3.185   3.548   3.305
 5211SOL    HW216533   3.279   3.414   3.305
 5212SOL     OW16534   0.448   2.327   0.453
 5212SOL    HW116535   0.408   2.418   0.443
 5212SOL    HW216536   0.451   2.302   0.550
 5213SOL     OW16537   4.942   2.610   5.515
 5213SOL    HW116538   4.937   2.601   5.614
 5213SOL    HW216539   5.012   2.678   5.491
 5214SOL     OW16540   5.578   1.667   5.168
 5214SOL    HW116541   5.594   1.693   5.264
 5214SOL    HW216542   5.480   1.666   5.149
 5215SOL     OW16543   5.242   4.267   3.598
 5215SOL    HW116544   5.168   4.253   3.664
 5215SOL    HW216545   5.316   4.202   3.615
 5216SOL     OW16546   5.094   4.349   1.620
 5216SOL    HW116547   5.187   4.380   1.635
 5216SOL    HW216548   5.035   4.427   1.600
 5217SOL     OW16549   3.392   5.330   3.992
 5217SOL    HW116550   3.418   5.257   4.054
 5217SOL    HW216551   3.403   5.419   4.038
 5218SOL     OW16552   1.850   6.781   3.979
 5218SOL    HW116553   1.888   6.737   4.060
 5218SOL    HW216554   1.769   6.731   3.949
 5219SOL     OW16555   3.095   0.011   6.442
 5219SOL    HW116556   3.179   6.988   6.466
 5219SOL    HW216557   3.038   0.020   6.524
 5220SOL     OW16558   1.239   5.895   2.249
 5220SOL    HW116559   1.236   5.796   2.260
 5220SOL    HW216560   1.323   5.931   2.290
 5221SOL     OW16561   5.213   1.228   4.351
 5221SOL    HW116562   5.180   1.321   4.338
 5221SOL    HW216563   5.304   1.218   4.309
 5222SOL     OW16564   2.345   0.369   4.315
 5222SOL    HW116565   2.324   0.451   4.368
 5222SOL    HW216566   2.441   0.372   4.287
 5223SOL     OW16567   4.848   0.298   1.494
 5223SOL    HW116568   4.914   0.230   1.529
 5223SOL    HW216569   4.818   0.271   1.402
 5224SOL     OW16570   6.723   2.180   2.375
 5224SOL    HW116571   6.786   2.252   2.346
 5224SOL    HW216572   6.767   2.090   2.366
 5225SOL     OW16573   6.876   0.178   3.976
 5225SOL    HW116574   6.954   0.192   4.037
 5225SOL    HW216575   6.875   0.083   3.945
 5226SOL     OW16576   0.911   6.253   4.628
 5226SOL    HW116577   0.895   6.300   4.715
 5226SOL    HW216578   0.849   6.289   4.558
 5227SOL     OW16579   6.872   5.219   3.620
 5227SOL    HW116580   6.948   5.166   3.657
 5227SOL    HW216581   6.892   5.317   3.629
 5228SOL     OW16582   5.527   1.656   0.714
 5228SOL    HW116583   5.431   1.629   0.722
 5228SOL    HW216584   5.550   1.717   0.790
 5229SOL     OW16585   0.947   4.256   6.493
 5229SOL    HW116586   0.961   4.242   6.591
 5229SOL    HW216587   0.895   4.179   6.455
 5230SOL     OW16588   6.999   0.804   1.067
 5230SOL    HW116589   0.032   0.858   1.127
 5230SOL    HW216590   6.952   0.865   1.004
 5231SOL     OW16591   3.893   3.044   4.355
 5231SOL    HW116592   3.908   3.139   4.383
 5231SOL    HW216593   3.857   2.991   4.432
 5232SOL     OW16594   4.371   2.120   6.475
 5232SOL    HW116595   4.412   2.056   6.541
 5232SOL    HW216596   4.411   2.211   6.489
 5233SOL     OW16597   6.362   6.415   1.815
 5233SOL    HW116598   6.404   6.496   1.856
 5233SOL    HW216599   6.358   6.426   1.716
 5234SOL     OW16600   3.124   0.387   0.525
 5234SOL    HW116601   3.193   0.337   0.577
 5234SOL    HW216602   3.144   0.485   0.528
 5235SOL     OW16603   1.440   3.415   0.919
 5235SOL    HW116604   1.386   3.469   0.984
 5235SOL    HW216605   1.471   3.331   0.963
 5236SOL     OW16606   5.540   2.952   1.409
 5236SOL    HW116607   5.587   2.915   1.489
 5236SOL    HW216608   5.487   3.033   1.437
 5237SOL     OW16609   2.568   2.136   5.277
 5237SOL    HW116610   2.637   2.180   5.335
 5237SOL    HW216611   2.539   2.199   5.205
 5238SOL     OW16612   1.244   5.198   0.420
 5238SOL    HW116613   1.187   5.276   0.394
 5238SOL    HW216614   1.185   5.122   0.448
 5239SOL     OW16615   2.930   3.309   3.810
 5239SOL    HW116616   2.913   3.349   3.720
 5239SOL    HW216617   2.925   3.380   3.879
 5240SOL     OW16618   3.061   2.554   5.348
 5240SOL    HW116619   2.964   2.538   5.328
 5240SOL    HW216620   3.116   2.477   5.316
 5241SOL     OW16621   0.847   6.079   6.600
 5241SOL    HW116622   0.782   6.075   6.524
 5241SOL    HW216623   0.802   6.050   6.685
 5242SOL     OW16624   6.121   1.186   5.541
 5242SOL    HW116625   6.079   1.193   5.631
 5242SOL    HW216626   6.083   1.108   5.492
 5243SOL     OW16627   0.830   5.947   1.072
 5243SOL    HW116628   0.881   5.906   0.997
 5243SOL    HW216629   0.818   5.879   1.144
 5244SOL     OW16630   3.823   3.881   5.566
 5244SOL    HW116631   3.739   3.840   5.601
 5244SOL    HW216632   3.851   3.836   5.481
 5245SOL     OW16633   4.053   4.200   5.756
 5245SOL    HW116634   4.114   4.207   5.676
 5245SOL    HW216635   4.107   4.206   5.839
 5246SOL     OW16636   0.252   3.867   3.094
 5246SOL    HW116637   0.192   3.797   3.057
 5246SOL    HW216638   0.337   3.825   3.126
 5247SOL     OW16639   0.103   5.527   0.530
 5247SOL    HW116640   0.197   5.526   0.566
 5247SOL    HW216641   0.064   5.618   0.541
 5248SOL     OW16642   5.154   0.534   5.826
 5248SOL    HW116643   5.060   0.509   5.848
 5248SOL    HW216644   5.195   0.580   5.905
 5249SOL     OW16645   0.601   5.402   4.089
 5249SOL    HW116646   0.641   5.310   4.090
 5249SOL    HW216647   0.651   5.459   4.024
 5250SOL     OW16648   0.480   1.523   5.985
 5250SOL    HW116649   0.524   1.600   6.030
 5250SOL    HW216650   0.435   1.555   5.901
 5251SOL     OW16651   6.667   3.627   1.052
 5251SOL    HW116652   6.650   3.702   0.988
 5251SOL    HW216653   6.584   3.572   1.063
 5252SOL     OW16654   2.603   6.192   0.954
 5252SOL    HW116655   2.528   6.253   0.979
 5252SOL    HW216656   2.687   6.245   0.941
 5253SOL     OW16657   5.746   3.654   4.347
 5253SOL    HW116658   5.715   3.602   4.267
 5253SOL    HW216659   5.791   3.593   4.411
 5254SOL     OW16660   4.868   1.146   3.963
 5254SOL    HW116661   4.934   1.129   4.036
 5254SOL    HW216662   4.792   1.081   3.969
 5255SOL     OW16663   3.589   0.533   4.849
 5255SOL    HW116664   3.619   0.595   4.777
 5255SOL    HW216665   3.566   0.585   4.931
 5256SOL     OW16666   5.122   1.709   3.359
 5256SOL    HW116667   5.079   1.787   3.404
 5256SOL    HW216668   5.183   1.742   3.286
 5257SOL     OW16669   3.875   6.819   1.050
 5257SOL    HW116670   3.910   6.730   1.077
 5257SOL    HW216671   3.835   6.864   1.130
 5258SOL     OW16672   5.151   4.151   1.992
 5258SOL    HW116673   5.208   4.073   2.018
 5258SOL    HW216674   5.059   4.140   2.030
 5259SOL     OW16675   4.723   6.199   2.442
 5259SOL    HW116676   4.750   6.210   2.346
 5259SOL    HW216677   4.783   6.255   2.500
 5260SOL     OW16678   5.225   3.528   0.581
 5260SOL    HW116679   5.265   3.487   0.499
 5260SOL    HW216680   5.204   3.457   0.648
 5261SOL     OW16681   6.894   2.144   5.005
 5261SOL    HW116682   6.870   2.097   4.920
 5261SOL    HW216683   6.993   2.153   5.012
 5262SOL     OW16684   2.746   7.021   2.826
 5262SOL    HW116685   2.823   0.041   2.869
 5262SOL    HW216686   2.711   0.050   2.750
 5263SOL     OW16687   1.699   0.165   5.911
 5263SOL    HW116688   1.675   0.119   5.996
 5263SOL    HW216689   1.749   0.102   5.852
 5264SOL     OW16690   6.489   1.486   1.670
 5264SOL    HW116691   6.559   1.484   1.599
 5264SOL    HW216692   6.399   1.471   1.629
 5265SOL     OW16693   5.620   4.057   2.237
 5265SOL    HW116694   5.641   3.975   2.185
 5265SOL    HW216695   5.534   4.097   2.204
 5266SOL     OW16696   2.350   6.522   1.807
 5266SOL    HW116697   2.391   6.518   1.898
 5266SOL    HW216698   2.368   6.612   1.767
 5267SOL     OW16699   4.645   4.752   5.707
 5267SOL    HW116700   4.741   4.779   5.709
 5267SOL    HW216701   4.601   4.780   5.792
 5268SOL     OW16702   6.605   5.690   5.159
 5268SOL    HW116703   6.505   5.679   5.167
 5268SOL    HW216704   6.648   5.661   5.244
 5269SOL     OW16705   1.747   5.480   3.496
 5269SOL    HW116706   1.686   5.520   3.565
 5269SOL    HW216707   1.798   5.404   3.536
 5270SOL     OW16708   5.312   2.538   1.112
 5270SOL    HW116709   5.238   2.477   1.082
 5270SOL    HW216710   5.273   2.619   1.155
 5271SOL     OW16711   4.360   4.851   5.315
 5271SOL    HW116712   4.291   4.902   5.367
 5271SOL    HW216713   4.434   4.824   5.377
 5272SOL     OW16714   0.653   5.913   5.073
 5272SOL    HW116715   0.700   5.909   4.985
 5272SOL    HW216716   0.648   5.822   5.113
 5273SOL     OW16717   0.602   2.259   4.002
 5273SOL    HW116718   0.548   2.176   4.006
 5273SOL    HW216719   0.666   2.255   3.925
 5274SOL     OW16720   6.647   4.875   3.769
 5274SOL    HW116721   6.614   4.967   3.787
 5274SOL    HW216722   6.747   4.874   3.773
 5275SOL     OW16723   3.023   6.987   6.179
 5275SOL    HW116724   3.066   6.982   6.269
 5275SOL    HW216725   2.940   0.017   6.185
 5276SOL     OW16726   6.942   7.017   0.979
 5276SOL    HW116727   6.859   6.981   0.935
 5276SOL    HW216728   6.941   6.992   1.076
 5277SOL     OW16729   1.491   2.152   3.637
 5277SOL    HW116730   1.539   2.131   3.552
 5277SOL    HW216731   1.467   2.067   3.684
 5278SOL     OW16732   6.305   6.632   6.197
 5278SOL    HW116733   6.380   6.676   6.246
 5278SOL    HW216734   6.293   6.539   6.232
 5279SOL     OW16735   1.640   5.913   6.303
 5279SOL    HW116736   1.608   5.931   6.210
 5279SOL    HW216737   1.636   5.998   6.356
 5280SOL     OW16738   3.816   6.183   5.118
 5280SOL    HW116739   3.741   6.241   5.088
 5280SOL    HW216740   3.815   6.098   5.065
 5281SOL     OW16741   1.099   0.330   4.782
 5281SOL    HW116742   1.157   0.374   4.849
 5281SOL    HW216743   1.152   0.310   4.699
 5282SOL     OW16744   2.329   0.389   2.651
 5282SOL    HW116745   2.367   0.392   2.743
 5282SOL    HW216746   2.229   0.397   2.655
 5283SOL     OW16747   1.042   0.457   3.842
 5283SOL    HW116748   1.006   0.438   3.934
 5283SOL    HW216749   0.991   0.532   3.801
 5284SOL     OW16750   5.072   2.338   2.540
 5284SOL    HW116751   4.997   2.351   2.605
 5284SOL    HW216752   5.072   2.244   2.507
 5285SOL     OW16753   0.860   2.821   3.305
 5285SOL    HW116754   0.840   2.738   3.255
 5285SOL    HW216755   0.776   2.873   3.321
 5286SOL     OW16756   6.634   3.663   0.430
 5286SOL    HW116757   6.699   3.718   0.376
 5286SOL    HW216758   6.563   3.723   0.467
 5287SOL     OW16759   3.416   5.541   1.879
 5287SOL    HW116760   3.396   5.629   1.924
 5287SOL    HW216761   3.490   5.495   1.929
 5288SOL     OW16762   4.819   0.158   2.197
 5288SOL    HW116763   4.791   0.195   2.109
 5288SOL    HW216764   4.860   0.068   2.184
 5289SOL     OW16765   2.291   4.780   6.512
 5289SOL    HW116766   2.216   4.722   6.481
 5289SOL    HW216767   2.281   4.871   6.471
 5290SOL     OW16768   1.708   4.153   5.480
 5290SOL    HW116769   1.644   4.226   5.502
 5290SOL    HW216770   1.779   4.187   5.418
 5291SOL     OW16771   2.379   4.529   5.767
 5291SOL    HW116772   2.378   4.488   5.676
 5291SOL    HW216773   2.300   4.497   5.819
 5292SOL     OW16774   6.544   3.931   6.279
 5292SOL    HW116775   6.514   3.995   6.208
 5292SOL    HW216776   6.464   3.885   6.318
 5293SOL     OW16777   2.127   5.223   4.741
 5293SOL    HW116778   2.173   5.196   4.657
 5293SOL    HW216779   2.060   5.295   4.721
 5294SOL     OW16780   4.653   0.830   5.603
 5294SOL    HW116781   4.652   0.784   5.691
 5294SOL    HW216782   4.719   0.785   5.542
 5295SOL     OW16783   4.041   1.162   3.274
 5295SOL    HW116784   3.958   1.106   3.274
 5295SOL    HW216785   4.099   1.136   3.351
 5296SOL     OW16786   3.828   3.653   0.624
 5296SOL    HW116787   3.920   3.692   0.631
 5296SOL    HW216788   3.801   3.648   0.528
 5297SOL     OW16789   2.261   3.296   0.662
 5297SOL    HW116790   2.294   3.247   0.742
 5297SOL    HW216791   2.287   3.393   0.669
 5298SOL     OW16792   2.526   6.163   6.871
 5298SOL    HW116793   2.428   6.150   6.855
 5298SOL    HW216794   2.544   6.160   6.969
 5299SOL     OW16795   3.129   2.347   0.855
 5299SOL    HW116796   3.061   2.355   0.928
 5299SOL    HW216797   3.101   2.274   0.792
 5300SOL     OW16798   0.578   5.279   0.818
 5300SOL    HW116799   0.656   5.321   0.772
 5300SOL    HW216800   0.535   5.212   0.758
 5301SOL     OW16801   4.434   0.300   6.374
 5301SOL    HW116802   4.386   0.356   6.308
 5301SOL    HW216803   4.429   0.204   6.346
 5302SOL     OW16804   5.512   6.312   3.874
 5302SOL    HW116805   5.448   6.358   3.812
 5302SOL    HW216806   5.462   6.247   3.932
 5303SOL     OW16807   0.392   5.116   5.801
 5303SOL    HW116808   0.294   5.138   5.808
 5303SOL    HW216809   0.421   5.070   5.885
 5304SOL     OW16810   6.102   0.944   0.681
 5304SOL    HW116811   6.107   0.957   0.582
 5304SOL    HW216812   6.136   1.026   0.728
 5305SOL     OW16813   1.618   5.136   2.257
 5305SOL    HW116814   1.541   5.072   2.252
 5305SOL    HW216815   1.633   5.164   2.352
 5306SOL     OW16816   0.220   4.324   5.943
 5306SOL    HW116817   0.148   4.356   5.882
 5306SOL    HW216818   0.309   4.353   5.909
 5307SOL     OW16819   4.408   2.039   0.428
 5307SOL    HW116820   4.383   2.117   0.371
 5307SOL    HW216821   4.500   2.053   0.465
 5308SOL     OW16822   1.183   4.454   2.571
 5308SOL    HW116823   1.280   4.476   2.564
 5308SOL    HW216824   1.163   4.371   2.519
 5309SOL     OW16825   3.471   6.012   2.009
 5309SOL    HW116826   3.500   6.100   2.048
 5309SOL    HW216827   3.437   6.027   1.916
 5310SOL     OW16828   6.295   3.346   2.598
 5310SOL    HW116829   6.223   3.414   2.614
 5310SOL    HW216830   6.374   3.367   2.655
 5311SOL     OW16831   5.922   0.034   6.897
 5311SOL    HW116832   5.853   0.085   6.846
 5311SOL    HW216833   5.950   0.087   6.977
 5312SOL     OW16834   0.374   6.106   2.016
 5312SOL    HW116835   0.411   6.014   2.024
 5312SOL    HW216836   0.314   6.125   2.093
 5313SOL     OW16837   0.844   4.350   5.722
 5313SOL    HW116838   0.776   4.305   5.780
 5313SOL    HW216839   0.816   4.445   5.707
 5314SOL     OW16840   4.640   0.111   1.176
 5314SOL    HW116841   4.704   0.186   1.193
 5314SOL    HW216842   4.621   0.106   1.078
 5315SOL     OW16843   4.809   2.692   3.105
 5315SOL    HW116844   4.749   2.692   3.025
 5315SOL    HW216845   4.901   2.719   3.078
 5316SOL     OW16846   1.053   3.794   5.505
 5316SOL    HW116847   0.997   3.718   5.537
 5316SOL    HW216848   1.002   3.879   5.510
 5317SOL     OW16849   6.355   1.031   5.542
 5317SOL    HW116850   6.280   1.090   5.571
 5317SOL    HW216851   6.391   0.982   5.622
 5318SOL     OW16852   0.552   2.891   0.587
 5318SOL    HW116853   0.459   2.904   0.555
 5318SOL    HW216854   0.552   2.830   0.667
 5319SOL     OW16855   4.900   6.132   1.079
 5319SOL    HW116856   4.892   6.091   1.169
 5319SOL    HW216857   4.878   6.229   1.084
 5320SOL     OW16858   4.221   5.628   1.318
 5320SOL    HW116859   4.309   5.675   1.323
 5320SOL    HW216860   4.235   5.532   1.294
 5321SOL     OW16861   2.333   4.508   4.734
 5321SOL    HW116862   2.303   4.456   4.654
 5321SOL    HW216863   2.338   4.447   4.813
 5322SOL     OW16864   5.602   0.012   0.203
 5322SOL    HW116865   5.567   7.007   0.291
 5322SOL    HW216866   5.640   6.960   0.153
 5323SOL     OW16867   4.350   1.433   5.728
 5323SOL    HW116868   4.425   1.374   5.697
 5323SOL    HW216869   4.265   1.405   5.682
 5324SOL     OW16870   2.928   2.414   0.191
 5324SOL    HW116871   2.999   2.356   0.151
 5324SOL    HW216872   2.970   2.484   0.248
 5325SOL     OW16873   3.144   1.524   5.087
 5325SOL    HW116874   3.111   1.603   5.034
 5325SOL    HW216875   3.172   1.452   5.024
 5326SOL     OW16876   6.641   5.736   3.542
 5326SOL    HW116877   6.715   5.768   3.600
 5326SOL    HW216878   6.677   5.710   3.453
 5327SOL     OW16879   6.099   2.374   4.927
 5327SOL    HW116880   6.000   2.357   4.935
 5327SOL    HW216881   6.116   2.472   4.924
 5328SOL     OW16882   3.176   3.635   6.227
 5328SOL    HW116883   3.234   3.583   6.164
 5328SOL    HW216884   3.231   3.702   6.276
 5329SOL     OW16885   0.588   5.200   6.458
 5329SOL    HW116886   0.557   5.283   6.412
 5329SOL    HW216887   0.529   5.124   6.430
 5330SOL     OW16888   3.761   4.483   0.026
 5330SOL    HW116889   3.844   4.467   0.079
 5330SOL    HW216890   3.781   4.472   6.955
 5331SOL     OW16891   6.060   2.166   6.576
 5331SOL    HW116892   6.049   2.209   6.487
 5331SOL    HW216893   6.058   2.236   6.648
 5332SOL     OW16894   1.107   3.534   1.524
 5332SOL    HW116895   1.173   3.470   1.564
 5332SOL    HW216896   1.113   3.529   1.424
 5333SOL     OW16897   1.159   1.225   3.236
 5333SOL    HW116898   1.137   1.140   3.284
 5333SOL    HW216899   1.242   1.265   3.276
 5334SOL     OW16900   3.044   0.835   4.984
 5334SOL    HW116901   3.032   0.926   4.944
 5334SOL    HW216902   3.056   0.769   4.910
 5335SOL     OW16903   6.659   6.101   1.162
 5335SOL    HW116904   6.625   6.164   1.092
 5335SOL    HW216905   6.759   6.102   1.163
 5336SOL     OW16906   2.075   3.518   2.421
 5336SOL    HW116907   2.047   3.475   2.335
 5336SOL    HW216908   2.077   3.449   2.494
 5337SOL     OW16909   5.253   3.917   1.180
 5337SOL    HW116910   5.172   3.925   1.122
 5337SOL    HW216911   5.246   3.982   1.256
 5338SOL     OW16912   5.979   1.486   6.846
 5338SOL    HW116913   6.051   1.547   6.879
 5338SOL    HW216914   5.938   1.437   6.923
 5339SOL     OW16915   6.926   1.393   3.597
 5339SOL    HW116916   6.930   1.437   3.686
 5339SOL    HW216917   6.841   1.341   3.590
 5340SOL     OW16918   5.864   3.706   0.535
 5340SOL    HW116919   5.881   3.723   0.632
 5340SOL    HW216920   5.791   3.637   0.526
 5341SOL     OW16921   3.792   2.331   6.488
 5341SOL    HW116922   3.880   2.343   6.442
 5341SOL    HW216923   3.757   2.420   6.517
 5342SOL     OW16924   3.796   0.716   5.104
 5342SOL    HW116925   3.791   0.746   5.009
 5342SOL    HW216926   3.705   0.686   5.134
 5343SOL     OW16927   3.480   3.866   3.792
 5343SOL    HW116928   3.437   3.783   3.830
 5343SOL    HW216929   3.518   3.845   3.702
 5344SOL     OW16930   1.934   2.098   2.643
 5344SOL    HW116931   1.890   2.131   2.559
 5344SOL    HW216932   2.032   2.086   2.628
 5345SOL     OW16933   3.959   6.232   1.538
 5345SOL    HW116934   3.917   6.176   1.466
 5345SOL    HW216935   3.903   6.229   1.620
 5346SOL     OW16936   3.012   6.274   3.964
 5346SOL    HW116937   3.099   6.255   3.919
 5346SOL    HW216938   2.987   6.196   4.023
 5347SOL     OW16939   0.193   2.534   2.020
 5347SOL    HW116940   0.203   2.465   2.092
 5347SOL    HW216941   0.133   2.607   2.052
 5348SOL     OW16942   1.000   1.570   0.363
 5348SOL    HW116943   1.024   1.647   0.305
 5348SOL    HW216944   1.022   1.591   0.458
 5349SOL     OW16945   1.261   2.254   0.544
 5349SOL    HW116946   1.178   2.201   0.529
 5349SOL    HW216947   1.341   2.200   0.518
 5350SOL     OW16948   2.321   0.622   6.196
 5350SOL    HW116949   2.395   0.688   6.195
 5350SOL    HW216950   2.249   0.654   6.257
 5351SOL     OW16951   5.158   5.520   1.874
 5351SOL    HW116952   5.171   5.486   1.967
 5351SOL    HW216953   5.156   5.443   1.810
 5352SOL     OW16954   2.156   5.876   4.023
 5352SOL    HW116955   2.180   5.965   3.984
 5352SOL    HW216956   2.081   5.836   3.971
 5353SOL     OW16957   3.422   5.837   4.380
 5353SOL    HW116958   3.386   5.871   4.294
 5353SOL    HW216959   3.374   5.753   4.406
 5354SOL     OW16960   1.679   4.815   2.256
 5354SOL    HW116961   1.769   4.855   2.275
 5354SOL    HW216962   1.673   4.792   2.159
 5355SOL     OW16963   5.067   2.620   3.929
 5355SOL    HW116964   5.155   2.669   3.929
 5355SOL    HW216965   5.057   2.572   3.842
 5356SOL     OW16966   6.102   4.514   1.950
 5356SOL    HW116967   6.031   4.448   1.929
 5356SOL    HW216968   6.190   4.481   1.915
 5357SOL     OW16969   3.086   0.311   0.996
 5357SOL    HW116970   3.047   0.401   0.977
 5357SOL    HW216971   3.055   0.246   0.928
 5358SOL     OW16972   3.925   2.090   0.637
 5358SOL    HW116973   3.849   2.081   0.573
 5358SOL    HW216974   3.916   2.175   0.688
 5359SOL     OW16975   2.091   2.097   6.805
 5359SOL    HW116976   2.106   2.068   6.900
 5359SOL    HW216977   2.033   2.179   6.804
 5360SOL     OW16978   4.116   6.547   4.574
 5360SOL    HW116979   4.017   6.534   4.569
 5360SOL    HW216980   4.153   6.492   4.648
 5361SOL     OW16981   2.301   6.810   4.623
 5361SOL    HW116982   2.376   6.869   4.652
 5361SOL    HW216983   2.232   6.864   4.575
 5362SOL     OW16984   5.140   3.915   3.676
 5362SOL    HW116985   5.044   3.893   3.696
 5362SOL    HW216986   5.169   3.992   3.733
 5363SOL     OW16987   0.618   5.994   6.410
 5363SOL    HW116988   0.563   5.917   6.443
 5363SOL    HW216989   0.638   5.981   6.313
 5364SOL     OW16990   6.749   5.668   1.393
 5364SOL    HW116991   6.711   5.721   1.318
 5364SOL    HW216992   6.713   5.575   1.391
 5365SOL     OW16993   3.957   3.139   6.779
 5365SOL    HW116994   4.019   3.143   6.856
 5365SOL    HW216995   3.989   3.199   6.706
 5366SOL     OW16996   5.295   4.902   1.714
 5366SOL    HW116997   5.287   4.815   1.762
 5366SOL    HW216998   5.207   4.926   1.673
 5367SOL     OW16999   0.445   5.266   0.378
 5367SOL    HW117000   0.515   5.328   0.414
 5367SOL    HW217001   0.381   5.318   0.321
 5368SOL     OW17002   5.237   1.397   2.987
 5368SOL    HW117003   5.237   1.414   3.085
 5368SOL    HW217004   5.262   1.481   2.939
 5369SOL     OW17005   2.963   6.127   3.688
 5369SOL    HW117006   2.984   6.216   3.648
 5369SOL    HW217007   3.046   6.087   3.726
 5370SOL     OW17008   3.908   3.283   1.613
 5370SOL    HW117009   3.826   3.323   1.653
 5370SOL    HW217010   3.887   3.192   1.577
 5371SOL     OW17011   1.856   3.859   4.199
 5371SOL    HW117012   1.855   3.835   4.102
 5371SOL    HW217013   1.792   3.800   4.249
 5372SOL     OW17014   2.119   5.853   2.678
 5372SOL    HW117015   2.026   5.866   2.644
 5372SOL    HW217016   2.127   5.895   2.769
 5373SOL     OW17017   2.845   4.843   4.162
 5373SOL    HW117018   2.751   4.816   4.184
 5373SOL    HW217019   2.889   4.881   4.243
 5374SOL     OW17020   1.071   3.866   6.795
 5374SOL    HW117021   1.155   3.901   6.753
 5374SOL    HW217022   1.063   3.902   6.888
 5375SOL     OW17023   1.299   4.632   5.011
 5375SOL    HW117024   1.229   4.609   4.943
 5375SOL    HW217025   1.305   4.558   5.079
 5376SOL     OW17026   1.486   2.894   1.155
 5376SOL    HW117027   1.495   2.993   1.157
 5376SOL    HW217028   1.424   2.865   1.228
 5377SOL     OW17029   6.658   0.023   1.671
 5377SOL    HW117030   6.630   7.006   1.585
 5377SOL    HW217031   6.757   0.032   1.673
 5378SOL     OW17032   6.829   0.351   1.436
 5378SOL    HW117033   6.732   0.332   1.456
 5378SOL    HW217034   6.835   0.420   1.364
 5379SOL     OW17035   0.552   5.094   4.816
 5379SOL    HW117036   0.651   5.109   4.811
 5379SOL    HW217037   0.520   5.054   4.729
 5380SOL     OW17038   1.706   0.952   3.176
 5380SOL    HW117039   1.627   0.901   3.211
 5380SOL    HW217040   1.757   0.991   3.252
 5381SOL     OW17041   6.334   3.696   0.501
 5381SOL    HW117042   6.336   3.602   0.537
 5381SOL    HW217043   6.289   3.696   0.412
 5382SOL     OW17044   3.144   0.005   2.139
 5382SOL    HW117045   3.120   0.098   2.111
 5382SOL    HW217046   3.105   6.965   2.073
 5383SOL     OW17047   2.780   2.330   5.021
 5383SOL    HW117048   2.781   2.418   5.068
 5383SOL    HW217049   2.869   2.286   5.031
 5384SOL     OW17050   6.630   0.727   3.977
 5384SOL    HW117051   6.649   0.629   3.985
 5384SOL    HW217052   6.559   0.752   4.043
 5385SOL     OW17053   2.919   3.754   2.870
 5385SOL    HW117054   3.004   3.725   2.913
 5385SOL    HW217055   2.844   3.752   2.937
 5386SOL     OW17056   4.547   6.697   4.418
 5386SOL    HW117057   4.580   6.786   4.450
 5386SOL    HW217058   4.616   6.627   4.439
 5387SOL     OW17059   1.926   5.703   3.291
 5387SOL    HW117060   1.881   5.614   3.284
 5387SOL    HW217061   1.970   5.712   3.380
 5388SOL     OW17062   5.117   6.664   3.388
 5388SOL    HW117063   5.046   6.716   3.339
 5388SOL    HW217064   5.113   6.686   3.485
 5389SOL     OW17065   4.965   0.896   1.846
 5389SOL    HW117066   5.064   0.905   1.837
 5389SOL    HW217067   4.941   0.893   1.943
 5390SOL     OW17068   4.448   4.975   4.150
 5390SOL    HW117069   4.360   4.981   4.198
 5390SOL    HW217070   4.519   5.019   4.205
 5391SOL     OW17071   2.126   1.956   0.338
 5391SOL    HW117072   2.154   1.880   0.396
 5391SOL    HW217073   2.189   1.963   0.260
 5392SOL     OW17074   6.015   3.387   0.921
 5392SOL    HW117075   5.962   3.302   0.923
 5392SOL    HW217076   6.017   3.427   1.012
 5393SOL     OW17077   6.112   6.463   6.839
 5393SOL    HW117078   6.054   6.501   6.766
 5393SOL    HW217079   6.188   6.412   6.798
 5394SOL     OW17080   6.805   4.010   6.388
 5394SOL    HW117081   6.901   3.984   6.403
 5394SOL    HW217082   6.754   3.929   6.359
 5395SOL     OW17083   4.716   0.723   2.017
 5395SOL    HW117084   4.685   0.745   1.925
 5395SOL    HW217085   4.762   0.803   2.057
 5396SOL     OW17086   5.138   3.725   3.079
 5396SOL    HW117087   5.146   3.804   3.140
 5396SOL    HW217088   5.044   3.690   3.081
 5397SOL     OW17089   6.521   2.874   1.816
 5397SOL    HW117090   6.508   2.962   1.772
 5397SOL    HW217091   6.619   2.856   1.828
 5398SOL     OW17092   3.658   1.587   1.998
 5398SOL    HW117093   3.584   1.608   2.063
 5398SOL    HW217094   3.707   1.671   1.974
 5399SOL     OW17095   2.412   6.122   0.726
 5399SOL    HW117096   2.482   6.166   0.783
 5399SOL    HW217097   2.332   6.181   0.720
 5400SOL     OW17098   2.906   4.116   0.486
 5400SOL    HW117099   2.893   4.171   0.569
 5400SOL    HW217100   2.949   4.172   0.415
 5401SOL     OW17101   5.717   3.370   1.338
 5401SOL    HW117102   5.642   3.327   1.390
 5401SOL    HW217103   5.705   3.349   1.241
 5402SOL     OW17104   2.361   5.901   1.800
 5402SOL    HW117105   2.429   5.925   1.869
 5402SOL    HW217106   2.269   5.916   1.836
 5403SOL     OW17107   6.181   3.438   6.332
 5403SOL    HW117108   6.156   3.403   6.242
 5403SOL    HW217109   6.107   3.419   6.397
 5404SOL     OW17110   0.791   1.729   3.457
 5404SOL    HW117111   0.846   1.768   3.383
 5404SOL    HW217112   0.853   1.690   3.526
 5405SOL     OW17113   6.315   5.431   0.219
 5405SOL    HW117114   6.338   5.336   0.196
 5405SOL    HW217115   6.388   5.470   0.275
 5406SOL     OW17116   2.343   1.477   6.378
 5406SOL    HW117117   2.398   1.522   6.307
 5406SOL    HW217118   2.248   1.505   6.369
 5407SOL     OW17119   4.868   3.541   0.533
 5407SOL    HW117120   4.795   3.565   0.596
 5407SOL    HW217121   4.895   3.446   0.548
 5408SOL     OW17122   2.757   1.177   6.123
 5408SOL    HW117123   2.718   1.268   6.113
 5408SOL    HW217124   2.855   1.180   6.106
 5409SOL     OW17125   5.329   0.172   3.648
 5409SOL    HW117126   5.324   0.096   3.712
 5409SOL    HW217127   5.424   0.202   3.639
 5410SOL     OW17128   2.714   2.387   1.707
 5410SOL    HW117129   2.771   2.331   1.646
 5410SOL    HW217130   2.771   2.430   1.776
 5411SOL     OW17131   6.484   5.187   5.603
 5411SOL    HW117132   6.463   5.273   5.556
 5411SOL    HW217133   6.481   5.111   5.538
 5412SOL     OW17134   5.059   2.125   0.612
 5412SOL    HW117135   5.045   2.059   0.538
 5412SOL    HW217136   5.117   2.084   0.682
 5413SOL     OW17137   2.955   1.580   1.428
 5413SOL    HW117138   2.869   1.617   1.463
 5413SOL    HW217139   2.937   1.519   1.351
 5414SOL     OW17140   5.375   2.031   4.827
 5414SOL    HW117141   5.362   2.051   4.923
 5414SOL    HW217142   5.401   1.935   4.816
 5415SOL     OW17143   0.786   5.755   1.270
 5415SOL    HW117144   0.718   5.764   1.343
 5415SOL    HW217145   0.756   5.684   1.206
 5416SOL     OW17146   5.093   5.424   6.154
 5416SOL    HW117147   5.031   5.436   6.076
 5416SOL    HW217148   5.041   5.417   6.238
 5417SOL     OW17149   3.632   6.955   5.040
 5417SOL    HW117150   3.631   0.029   5.041
 5417SOL    HW217151   3.652   6.922   5.133
 5418SOL     OW17152   3.388   6.845   3.707
 5418SOL    HW117153   3.319   6.864   3.637
 5418SOL    HW217154   3.397   6.746   3.718
 5419SOL     OW17155   3.731   5.520   0.137
 5419SOL    HW117156   3.685   5.560   0.058
 5419SOL    HW217157   3.669   5.457   0.183
 5420SOL     OW17158   1.665   3.119   2.589
 5420SOL    HW117159   1.600   3.056   2.546
 5420SOL    HW217160   1.685   3.088   2.682
 5421SOL     OW17161   1.586   3.487   1.675
 5421SOL    HW117162   1.605   3.515   1.581
 5421SOL    HW217163   1.574   3.568   1.732
 5422SOL     OW17164   0.429   5.176   0.636
 5422SOL    HW117165   0.339   5.134   0.623
 5422SOL    HW217166   0.445   5.244   0.564
 5423SOL     OW17167   6.728   3.281   6.583
 5423SOL    HW117168   6.742   3.367   6.631
 5423SOL    HW217169   6.669   3.296   6.504
 5424SOL     OW17170   5.767   3.058   3.465
 5424SOL    HW117171   5.751   2.971   3.511
 5424SOL    HW217172   5.798   3.126   3.531
 5425SOL     OW17173   4.422   1.234   4.677
 5425SOL    HW117174   4.483   1.182   4.736
 5425SOL    HW217175   4.334   1.246   4.723
 5426SOL     OW17176   6.526   5.547   4.295
 5426SOL    HW117177   6.509   5.589   4.206
 5426SOL    HW217178   6.571   5.458   4.283
 5427SOL     OW17179   5.008   5.399   6.402
 5427SOL    HW117180   5.032   5.490   6.435
 5427SOL    HW217181   5.027   5.332   6.475
 5428SOL     OW17182   6.854   6.998   1.248
 5428SOL    HW117183   6.881   0.029   1.325
 5428SOL    HW217184   6.886   6.904   1.263
 5429SOL     OW17185   2.258   2.047   6.171
 5429SOL    HW117186   2.297   1.964   6.130
 5429SOL    HW217187   2.332   2.105   6.206
 5430SOL     OW17188   0.457   3.213   6.032
 5430SOL    HW117189   0.360   3.220   6.009
 5430SOL    HW217190   0.509   3.276   5.974
 5431SOL     OW17191   3.036   6.167   0.485
 5431SOL    HW117192   3.035   6.245   0.422
 5431SOL    HW217193   2.944   6.151   0.519
 5432SOL     OW17194   5.408   0.476   6.824
 5432SOL    HW117195   5.311   0.456   6.810
 5432SOL    HW217196   5.460   0.454   6.742
 5433SOL     OW17197   0.159   1.767   5.176
 5433SOL    HW117198   0.222   1.752   5.253
 5433SOL    HW217199   0.088   1.832   5.204
 5434SOL     OW17200   3.415   0.715   5.730
 5434SOL    HW117201   3.348   0.650   5.694
 5434SOL    HW217202   3.477   0.743   5.657
 5435SOL     OW17203   5.750   6.935   1.914
 5435SOL    HW117204   5.699   7.021   1.906
 5435SOL    HW217205   5.821   6.944   1.983
 5436SOL     OW17206   5.178   3.590   4.369
 5436SOL    HW117207   5.100   3.578   4.431
 5436SOL    HW217208   5.212   3.683   4.377
 5437SOL     OW17209   2.740   3.916   0.476
 5437SOL    HW117210   2.805   3.991   0.461
 5437SOL    HW217211   2.717   3.910   0.573
 5438SOL     OW17212   6.667   2.825   2.667
 5438SOL    HW117213   6.658   2.904   2.729
 5438SOL    HW217214   6.576   2.792   2.642
 5439SOL     OW17215   0.635   2.515   1.153
 5439SOL    HW117216   0.696   2.567   1.094
 5439SOL    HW217217   0.607   2.572   1.230
 5440SOL     OW17218   1.075   1.177   0.741
 5440SOL    HW117219   1.097   1.153   0.836
 5440SOL    HW217220   1.095   1.274   0.726
 5441SOL     OW17221   4.609   2.249   3.061
 5441SOL    HW117222   4.588   2.168   3.116
 5441SOL    HW217223   4.690   2.294   3.097
 5442SOL     OW17224   3.626   5.961   3.445
 5442SOL    HW117225   3.617   6.039   3.507
 5442SOL    HW217226   3.569   5.886   3.478
 5443SOL     OW17227   3.508   0.442   4.037
 5443SOL    HW117228   3.446   0.506   3.992
 5443SOL    HW217229   3.602   0.475   4.028
 5444SOL     OW17230   0.994   0.364   4.096
 5444SOL    HW117231   0.936   0.412   4.161
 5444SOL    HW217232   1.087   0.403   4.098
 5445SOL     OW17233   6.405   3.847   3.379
 5445SOL    HW117234   6.389   3.799   3.293
 5445SOL    HW217235   6.381   3.787   3.455
 5446SOL     OW17236   6.423   4.945   4.625
 5446SOL    HW117237   6.500   4.881   4.630
 5446SOL    HW217238   6.385   4.945   4.533
 5447SOL     OW17239   3.171   2.251   6.869
 5447SOL    HW117240   3.108   2.262   6.792
 5447SOL    HW217241   3.172   2.155   6.898
 5448SOL     OW17242   4.228   3.170   5.334
 5448SOL    HW117243   4.239   3.123   5.421
 5448SOL    HW217244   4.144   3.138   5.289
 5449SOL     OW17245   1.798   3.077   6.700
 5449SOL    HW117246   1.768   2.989   6.665
 5449SOL    HW217247   1.788   3.147   6.629
 5450SOL     OW17248   1.984   0.652   1.606
 5450SOL    HW117249   1.984   0.710   1.525
 5450SOL    HW217250   2.078   0.628   1.630
 5451SOL     OW17251   1.892   6.254   3.222
 5451SOL    HW117252   1.946   6.203   3.155
 5451SOL    HW217253   1.891   6.351   3.196
 5452SOL     OW17254   2.454   4.612   6.938
 5452SOL    HW117255   2.527   4.679   6.921
 5452SOL    HW217256   2.371   4.660   6.967
 5453SOL     OW17257   6.152   3.848   0.694
 5453SOL    HW117258   6.141   3.750   0.683
 5453SOL    HW217259   6.248   3.873   0.680
 5454SOL     OW17260   0.265   4.253   6.754
 5454SOL    HW117261   0.336   4.247   6.684
 5454SOL    HW217262   0.265   4.170   6.809
 5455SOL     OW17263   6.333   3.483   0.138
 5455SOL    HW117264   6.418   3.451   0.179
 5455SOL    HW217265   6.261   3.415   0.150
 5456SOL     OW17266   3.458   6.513   0.073
 5456SOL    HW117267   3.546   6.529   0.116
 5456SOL    HW217268   3.434   6.416   0.080
 5457SOL     OW17269   5.467   2.284   0.482
 5457SOL    HW117270   5.452   2.193   0.520
 5457SOL    HW217271   5.512   2.341   0.551
 5458SOL     OW17272   0.189   4.462   0.131
 5458SOL    HW117273   0.216   4.543   0.181
 5458SOL    HW217274   0.089   4.451   0.136
 5459SOL     OW17275   2.298   4.352   6.966
 5459SOL    HW117276   2.349   4.431   6.931
 5459SOL    HW217277   2.257   4.376   0.028
 5460SOL     OW17278   2.998   6.837   2.706
 5460SOL    HW117279   2.899   6.827   2.716
 5460SOL    HW217280   3.024   6.932   2.724
 5461SOL     OW17281   6.169   6.368   5.119
 5461SOL    HW117282   6.169   6.339   5.023
 5461SOL    HW217283   6.208   6.459   5.127
 5462SOL     OW17284   1.191   0.273   0.135
 5462SOL    HW117285   1.254   0.346   0.161
 5462SOL    HW217286   1.157   0.227   0.217
 5463SOL     OW17287   6.174   2.315   0.124
 5463SOL    HW117288   6.152   2.263   0.042
 5463SOL    HW217289   6.139   2.408   0.115
 5464SOL     OW17290   1.518   0.770   4.274
 5464SOL    HW117291   1.442   0.809   4.222
 5464SOL    HW217292   1.502   0.782   4.372
 5465SOL     OW17293   3.830   6.639   3.309
 5465SOL    HW117294   3.787   6.695   3.239
 5465SOL    HW217295   3.759   6.591   3.362
 5466SOL     OW17296   5.563   4.723   5.291
 5466SOL    HW117297   5.513   4.644   5.327
 5466SOL    HW217298   5.503   4.778   5.233
 5467SOL     OW17299   5.315   2.335   3.221
 5467SOL    HW117300   5.246   2.384   3.168
 5467SOL    HW217301   5.395   2.316   3.164
 5468SOL     OW17302   5.339   1.991   4.283
 5468SOL    HW117303   5.271   1.923   4.254
 5468SOL    HW217304   5.424   1.944   4.307
 5469SOL     OW17305   3.870   5.342   6.977
 5469SOL    HW117306   3.871   5.289   6.893
 5469SOL    HW217307   3.788   5.400   6.979
 5470SOL     OW17308   2.539   5.419   3.378
 5470SOL    HW117309   2.549   5.514   3.348
 5470SOL    HW217310   2.442   5.395   3.380
 5471SOL     OW17311   5.636   6.716   1.557
 5471SOL    HW117312   5.663   6.657   1.633
 5471SOL    HW217313   5.666   6.675   1.471
 5472SOL     OW17314   3.780   3.854   6.057
 5472SOL    HW117315   3.735   3.941   6.035
 5472SOL    HW217316   3.833   3.823   5.978
 5473SOL     OW17317   0.885   3.572   3.233
 5473SOL    HW117318   0.956   3.538   3.172
 5473SOL    HW217319   0.805   3.511   3.228
 5474SOL     OW17320   1.189   4.388   4.002
 5474SOL    HW117321   1.123   4.374   4.076
 5474SOL    HW217322   1.272   4.335   4.020
 5475SOL     OW17323   3.000   2.602   7.000
 5475SOL    HW117324   3.024   2.532   0.041
 5475SOL    HW217325   3.079   2.662   6.985
 5476SOL     OW17326   2.109   3.655   6.199
 5476SOL    HW117327   2.043   3.724   6.166
 5476SOL    HW217328   2.143   3.683   6.289
 5477SOL     OW17329   1.761   3.152   3.297
 5477SOL    HW117330   1.739   3.208   3.377
 5477SOL    HW217331   1.743   3.203   3.214
 5478SOL     OW17332   4.910   5.101   5.171
 5478SOL    HW117333   4.820   5.130   5.202
 5478SOL    HW217334   4.955   5.176   5.123
 5479SOL     OW17335   4.842   0.797   5.849
 5479SOL    HW117336   4.869   0.850   5.929
 5479SOL    HW217337   4.749   0.762   5.863
 5480SOL     OW17338   6.818   3.454   3.883
 5480SOL    HW117339   6.839   3.360   3.853
 5480SOL    HW217340   6.754   3.495   3.818
 5481SOL     OW17341   3.723   0.917   4.410
 5481SOL    HW117342   3.694   0.870   4.327
 5481SOL    HW217343   3.806   0.874   4.445
 5482SOL     OW17344   4.065   4.492   1.663
 5482SOL    HW117345   4.031   4.398   1.657
 5482SOL    HW217346   3.990   4.554   1.685
 5483SOL     OW17347   0.827   2.833   5.543
 5483SOL    HW117348   0.819   2.791   5.452
 5483SOL    HW217349   0.737   2.835   5.586
 5484SOL     OW17350   4.919   0.306   5.226
 5484SOL    HW117351   4.865   0.351   5.297
 5484SOL    HW217352   4.859   0.281   5.150
 5485SOL     OW17353   3.625   6.795   5.268
 5485SOL    HW117354   3.695   6.790   5.339
 5485SOL    HW217355   3.627   6.712   5.213
 5486SOL     OW17356   2.688   5.924   5.004
 5486SOL    HW117357   2.602   5.969   5.028
 5486SOL    HW217358   2.674   5.825   5.001
 5487SOL     OW17359   2.945   4.773   6.219
 5487SOL    HW117360   3.004   4.709   6.168
 5487SOL    HW217361   2.926   4.852   6.162
 5488SOL     OW17362   7.023   1.281   0.259
 5488SOL    HW117363   7.005   1.184   0.274
 5488SOL    HW217364   0.034   1.294   0.167
 5489SOL     OW17365   6.547   3.556   2.334
 5489SOL    HW117366   6.593   3.523   2.251
 5489SOL    HW217367   6.449   3.564   2.317
 5490SOL     OW17368   1.621   6.894   2.779
 5490SOL    HW117369   1.558   6.958   2.736
 5490SOL    HW217370   1.713   6.933   2.780
 5491SOL     OW17371   6.948   2.950   1.123
 5491SOL    HW117372   6.851   2.970   1.131
 5491SOL    HW217373   6.965   2.893   1.043
 5492SOL     OW17374   1.277   3.740   5.688
 5492SOL    HW117375   1.360   3.698   5.652
 5492SOL    HW217376   1.219   3.771   5.613
 5493SOL     OW17377   4.147   3.591   2.144
 5493SOL    HW117378   4.111   3.598   2.236
 5493SOL    HW217379   4.247   3.583   2.147
 5494SOL     OW17380   6.189   4.604   5.299
 5494SOL    HW117381   6.154   4.561   5.217
 5494SOL    HW217382   6.126   4.677   5.327
 5495SOL     OW17383   5.775   0.822   0.627
 5495SOL    HW117384   5.810   0.813   0.534
 5495SOL    HW217385   5.761   0.731   0.666
 5496SOL     OW17386   4.125   0.971   3.937
 5496SOL    HW117387   4.176   1.055   3.920
 5496SOL    HW217388   4.029   0.992   3.952
 5497SOL     OW17389   0.286   0.940   5.678
 5497SOL    HW117390   0.346   0.925   5.756
 5497SOL    HW217391   0.342   0.947   5.595
 5498SOL     OW17392   0.409   5.449   1.747
 5498SOL    HW117393   0.361   5.378   1.696
 5498SOL    HW217394   0.356   5.473   1.829
 5499SOL     OW17395   0.479   0.327   3.619
 5499SOL    HW117396   0.442   0.340   3.711
 5499SOL    HW217397   0.410   0.354   3.552
 5500SOL     OW17398   1.517   1.208   6.849
 5500SOL    HW117399   1.534   1.183   6.945
 5500SOL    HW217400   1.420   1.225   6.836
 5501SOL     OW17401   3.953   2.129   0.237
 5501SOL    HW117402   3.983   2.038   0.209
 5501SOL    HW217403   4.018   2.197   0.202
 5502SOL     OW17404   4.895   3.825   6.378
 5502SOL    HW117405   4.986   3.861   6.361
 5502SOL    HW217406   4.900   3.750   6.443
 5503SOL     OW17407   0.569   3.906   0.522
 5503SOL    HW117408   0.494   3.942   0.467
 5503SOL    HW217409   0.541   3.901   0.618
 5504SOL     OW17410   4.445   0.799   6.325
 5504SOL    HW117411   4.415   0.861   6.398
 5504SOL    HW217412   4.493   0.721   6.366
 5505SOL     OW17413   2.327   4.315   3.870
 5505SOL    HW117414   2.294   4.225   3.841
 5505SOL    HW217415   2.296   4.384   3.804
 5506SOL     OW17416   6.955   3.659   6.265
 5506SOL    HW117417   6.860   3.684   6.282
 5506SOL    HW217418   7.014   3.736   6.289
 5507SOL     OW17419   3.631   0.426   5.692
 5507SOL    HW117420   3.604   0.354   5.757
 5507SOL    HW217421   3.722   0.460   5.718
 5508SOL     OW17422   1.190   0.966   0.124
 5508SOL    HW117423   1.241   0.881   0.135
 5508SOL    HW217424   1.135   0.962   0.040
 5509SOL     OW17425   0.400   5.495   1.062
 5509SOL    HW117426   0.343   5.451   0.993
 5509SOL    HW217427   0.351   5.572   1.102
 5510SOL     OW17428   5.119   5.538   0.324
 5510SOL    HW117429   5.123   5.544   0.224
 5510SOL    HW217430   5.023   5.532   0.352
 5511SOL     OW17431   0.592   1.587   5.588
 5511SOL    HW117432   0.672   1.568   5.645
 5511SOL    HW217433   0.615   1.659   5.523
 5512SOL     OW17434   3.247   0.860   1.381
 5512SOL    HW117435   3.253   0.911   1.467
 5512SOL    HW217436   3.203   0.917   1.312
 5513SOL     OW17437   3.884   5.124   6.346
 5513SOL    HW117438   3.856   5.176   6.265
 5513SOL    HW217439   3.983   5.129   6.356
 5514SOL     OW17440   3.591   6.593   5.064
 5514SOL    HW117441   3.657   6.525   5.032
 5514SOL    HW217442   3.565   6.653   4.988
 5515SOL     OW17443   2.446   5.381   2.070
 5515SOL    HW117444   2.496   5.435   2.137
 5515SOL    HW217445   2.432   5.288   2.105
 5516SOL     OW17446   2.356   2.746   5.007
 5516SOL    HW117447   2.273   2.769   4.956
 5516SOL    HW217448   2.387   2.825   5.059
 5517SOL     OW17449   1.662   4.106   2.465
 5517SOL    HW117450   1.704   4.016   2.476
 5517SOL    HW217451   1.563   4.095   2.452
 5518SOL     OW17452   5.364   4.273   5.849
 5518SOL    HW117453   5.274   4.303   5.817
 5518SOL    HW217454   5.435   4.311   5.790
 5519SOL     OW17455   5.163   2.945   3.856
 5519SOL    HW117456   5.085   2.966   3.914
 5519SOL    HW217457   5.246   2.942   3.911
 5520SOL     OW17458   5.732   6.152   2.346
 5520SOL    HW117459   5.753   6.055   2.333
 5520SOL    HW217460   5.739   6.175   2.443
 5521SOL     OW17461   5.732   5.246   2.251
 5521SOL    HW117462   5.696   5.305   2.178
 5521SOL    HW217463   5.803   5.186   2.214
 5522SOL     OW17464   5.925   5.354   1.598
 5522SOL    HW117465   5.844   5.297   1.588
 5522SOL    HW217466   5.932   5.385   1.693
 5523SOL     OW17467   5.633   0.749   3.291
 5523SOL    HW117468   5.629   0.665   3.238
 5523SOL    HW217469   5.669   0.730   3.382
 5524SOL     OW17470   3.607   0.965   5.175
 5524SOL    HW117471   3.568   1.013   5.096
 5524SOL    HW217472   3.533   0.932   5.233
 5525SOL     OW17473   6.606   2.832   0.898
 5525SOL    HW117474   6.605   2.878   0.810
 5525SOL    HW217475   6.643   2.894   0.967
 5526SOL     OW17476   4.862   4.037   3.148
 5526SOL    HW117477   4.858   4.128   3.189
 5526SOL    HW217478   4.850   3.968   3.218
 5527SOL     OW17479   5.111   2.903   4.219
 5527SOL    HW117480   5.040   2.940   4.279
 5527SOL    HW217481   5.106   2.948   4.130
 5528SOL     OW17482   1.101   2.122   1.320
 5528SOL    HW117483   1.020   2.122   1.261
 5528SOL    HW217484   1.174   2.175   1.277
 5529SOL     OW17485   2.405   0.940   3.148
 5529SOL    HW117486   2.316   0.897   3.159
 5529SOL    HW217487   2.393   1.034   3.116
 5530SOL     OW17488   6.500   2.264   1.816
 5530SOL    HW117489   6.455   2.353   1.812
 5530SOL    HW217490   6.432   2.192   1.804
 5531SOL     OW17491   3.841   4.041   1.518
 5531SOL    HW117492   3.760   4.036   1.576
 5531SOL    HW217493   3.878   3.950   1.504
 5532SOL     OW17494   1.998   2.531   0.509
 5532SOL    HW117495   1.914   2.543   0.562
 5532SOL    HW217496   2.040   2.444   0.534
 5533SOL     OW17497   4.593   1.360   4.212
 5533SOL    HW117498   4.576   1.449   4.171
 5533SOL    HW217499   4.588   1.368   4.312
 5534SOL     OW17500   1.039   1.222   5.625
 5534SOL    HW117501   1.054   1.152   5.694
 5534SOL    HW217502   1.062   1.186   5.535
 5535SOL     OW17503   0.792   1.525   2.439
 5535SOL    HW117504   0.889   1.505   2.430
 5535SOL    HW217505   0.755   1.474   2.517
 5536SOL     OW17506   3.015   1.259   5.149
 5536SOL    HW117507   3.058   1.344   5.179
 5536SOL    HW217508   3.045   1.183   5.207
 5537SOL     OW17509   3.792   1.314   2.896
 5537SOL    HW117510   3.821   1.324   2.991
 5537SOL    HW217511   3.752   1.400   2.864
 5538SOL     OW17512   4.640   5.312   4.888
 5538SOL    HW117513   4.722   5.363   4.915
 5538SOL    HW217514   4.633   5.311   4.789
 5539SOL     OW17515   2.248   2.700   0.772
 5539SOL    HW117516   2.170   2.734   0.824
 5539SOL    HW217517   2.278   2.770   0.706
 5540SOL     OW17518   4.998   4.567   3.268
 5540SOL    HW117519   4.963   4.548   3.177
 5540SOL    HW217520   4.932   4.539   3.337
 5541SOL     OW17521   4.952   1.701   6.404
 5541SOL    HW117522   4.934   1.603   6.389
 5541SOL    HW217523   5.018   1.734   6.336
 5542SOL     OW17524   3.711   4.763   6.097
 5542SOL    HW117525   3.728   4.740   6.002
 5542SOL    HW217526   3.669   4.685   6.144
 5543SOL     OW17527   6.348   3.664   6.611
 5543SOL    HW117528   6.261   3.703   6.581
 5543SOL    HW217529   6.350   3.662   6.711
 5544SOL     OW17530   5.985   0.794   5.376
 5544SOL    HW117531   5.982   0.766   5.472
 5544SOL    HW217532   6.055   0.740   5.329
 5545SOL     OW17533   4.276   1.946   2.670
 5545SOL    HW117534   4.281   1.860   2.618
 5545SOL    HW217535   4.280   1.925   2.768
 5546SOL     OW17536   1.678   5.313   6.154
 5546SOL    HW117537   1.615   5.373   6.204
 5546SOL    HW217538   1.635   5.282   6.070
 5547SOL     OW17539   3.242   4.929   5.569
 5547SOL    HW117540   3.296   4.984   5.505
 5547SOL    HW217541   3.255   4.832   5.549
 5548SOL     OW17542   6.230   3.840   5.454
 5548SOL    HW117543   6.149   3.897   5.470
 5548SOL    HW217544   6.268   3.862   5.364
 5549SOL     OW17545   2.948   4.747   6.990
 5549SOL    HW117546   2.969   4.650   7.006
 5549SOL    HW217547   2.993   4.778   6.906
 5550SOL     OW17548   2.837   6.003   1.533
 5550SOL    HW117549   2.877   6.077   1.479
 5550SOL    HW217550   2.738   6.017   1.541
 5551SOL     OW17551   1.686   1.828   3.287
 5551SOL    HW117552   1.650   1.882   3.363
 5551SOL    HW217553   1.757   1.765   3.320
 5552SOL     OW17554   0.077   2.325   1.417
 5552SOL    HW117555   7.023   2.267   1.425
 5552SOL    HW217556   0.057   2.415   1.455
 5553SOL     OW17557   4.712   5.813   0.449
 5553SOL    HW117558   4.637   5.832   0.386
 5553SOL    HW217559   4.693   5.857   0.537
 5554SOL     OW17560   3.022   1.987   5.086
 5554SOL    HW117561   3.070   2.064   5.044
 5554SOL    HW217562   2.931   1.978   5.046
 5555SOL     OW17563   0.175   4.935   3.579
 5555SOL    HW117564   0.084   4.903   3.550
 5555SOL    HW217565   0.236   4.857   3.590
 5556SOL     OW17566   0.380   2.252   5.381
 5556SOL    HW117567   0.471   2.211   5.390
 5556SOL    HW217568   0.322   2.193   5.325
 5557SOL     OW17569   2.145   6.380   4.018
 5557SOL    HW117570   2.139   6.479   4.033
 5557SOL    HW217571   2.219   6.343   4.075
 5558SOL     OW17572   5.239   2.994   5.079
 5558SOL    HW117573   5.236   3.077   5.024
 5558SOL    HW217574   5.220   3.017   5.175
 5559SOL     OW17575   1.940   0.645   0.806
 5559SOL    HW117576   1.931   0.738   0.769
 5559SOL    HW217577   1.898   0.641   0.896
 5560SOL     OW17578   0.259   0.994   3.422
 5560SOL    HW117579   0.322   1.016   3.497
 5560SOL    HW217580   0.171   1.039   3.438
 5561SOL     OW17581   1.428   3.147   3.350
 5561SOL    HW117582   1.464   3.239   3.351
 5561SOL    HW217583   1.434   3.109   3.257
 5562SOL     OW17584   2.380   3.289   6.173
 5562SOL    HW117585   2.362   3.376   6.128
 5562SOL    HW217586   2.401   3.220   6.104
 5563SOL     OW17587   4.720   5.845   2.653
 5563SOL    HW117588   4.691   5.940   2.665
 5563SOL    HW217589   4.673   5.788   2.721
 5564SOL     OW17590   5.344   3.397   1.663
 5564SOL    HW117591   5.405   3.472   1.638
 5564SOL    HW217592   5.263   3.399   1.604
 5565SOL     OW17593   3.528   2.296   5.520
 5565SOL    HW117594   3.623   2.292   5.550
 5565SOL    HW217595   3.505   2.390   5.493
 5566SOL     OW17596   1.804   4.924   1.261
 5566SOL    HW117597   1.804   4.928   1.161
 5566SOL    HW217598   1.808   4.829   1.292
 5567SOL     OW17599   1.546   5.554   1.700
 5567SOL    HW117600   1.541   5.634   1.760
 5567SOL    HW217601   1.641   5.524   1.691
 5568SOL     OW17602   4.005   1.144   1.629
 5568SOL    HW117603   4.101   1.117   1.629
 5568SOL    HW217604   3.992   1.221   1.568
 5569SOL     OW17605   4.250   1.895   0.091
 5569SOL    HW117606   4.242   1.844   0.005
 5569SOL    HW217607   4.220   1.989   0.077
 5570SOL     OW17608   6.414   4.064   5.791
 5570SOL    HW117609   6.428   4.068   5.692
 5570SOL    HW217610   6.495   4.026   5.835
 5571SOL     OW17611   6.838   5.600   6.818
 5571SOL    HW117612   6.843   5.690   6.774
 5571SOL    HW217613   6.747   5.588   6.858
 5572SOL     OW17614   4.689   2.599   6.432
 5572SOL    HW117615   4.602   2.582   6.385
 5572SOL    HW217616   4.763   2.560   6.378
 5573SOL     OW17617   1.479   3.897   0.924
 5573SOL    HW117618   1.401   3.897   0.986
 5573SOL    HW217619   1.452   3.859   0.836
 5574SOL     OW17620   0.908   5.936   5.246
 5574SOL    HW117621   0.950   5.852   5.213
 5574SOL    HW217622   0.809   5.922   5.258
 5575SOL     OW17623   1.413   1.545   0.639
 5575SOL    HW117624   1.452   1.575   0.726
 5575SOL    HW217625   1.484   1.498   0.585
 5576SOL     OW17626   6.059   6.325   0.565
 5576SOL    HW117627   6.085   6.342   0.470
 5576SOL    HW217628   6.139   6.293   0.615
 5577SOL     OW17629   1.863   3.596   5.562
 5577SOL    HW117630   1.889   3.586   5.466
 5577SOL    HW217631   1.867   3.508   5.607
 5578SOL     OW17632   4.340   2.604   0.060
 5578SOL    HW117633   4.329   2.610   0.159
 5578SOL    HW217634   4.322   2.693   0.019
 5579SOL     OW17635   4.878   3.992   6.860
 5579SOL    HW117636   4.806   3.977   6.793
 5579SOL    HW217637   4.938   3.912   6.862
 5580SOL     OW17638   5.913   1.638   0.409
 5580SOL    HW117639   5.993   1.608   0.356
 5580SOL    HW217640   5.933   1.724   0.455
 5581SOL     OW17641   2.502   1.800   6.498
 5581SOL    HW117642   2.425   1.789   6.435
 5581SOL    HW217643   2.469   1.800   6.592
 5582SOL     OW17644   3.889   3.234   3.761
 5582SOL    HW117645   3.853   3.256   3.852
 5582SOL    HW217646   3.831   3.164   3.719
 5583SOL     OW17647   3.740   0.201   1.367
 5583SOL    HW117648   3.800   0.213   1.446
 5583SOL    HW217649   3.700   0.289   1.342
 5584SOL     OW17650   6.515   3.116   3.601
 5584SOL    HW117651   6.440   3.099   3.537
 5584SOL    HW217652   6.567   3.195   3.570
 5585SOL     OW17653   5.717   0.319   4.526
 5585SOL    HW117654   5.651   0.247   4.547
 5585SOL    HW217655   5.669   0.405   4.509
 5586SOL     OW17656   1.817   1.183   5.832
 5586SOL    HW117657   1.837   1.225   5.920
 5586SOL    HW217658   1.718   1.170   5.822
 5587SOL     OW17659   3.635   0.403   4.312
 5587SOL    HW117660   3.731   0.398   4.286
 5587SOL    HW217661   3.596   0.490   4.282
 5588SOL     OW17662   2.786   0.178   5.801
 5588SOL    HW117663   2.808   0.209   5.708
 5588SOL    HW217664   2.712   0.111   5.796
 5589SOL     OW17665   4.379   2.668   6.362
 5589SOL    HW117666   4.418   2.641   6.274
 5589SOL    HW217667   4.429   2.746   6.397
 5590SOL     OW17668   6.963   6.031   3.932
 5590SOL    HW117669   7.019   6.107   3.965
 5590SOL    HW217670   6.987   5.948   3.981
 5591SOL     OW17671   5.222   0.892   0.713
 5591SOL    HW117672   5.304   0.880   0.656
 5591SOL    HW217673   5.156   0.951   0.664
 5592SOL     OW17674   1.858   3.331   2.589
 5592SOL    HW117675   1.952   3.311   2.615
 5592SOL    HW217676   1.808   3.246   2.573
 5593SOL     OW17677   1.511   3.009   5.770
 5593SOL    HW117678   1.460   3.066   5.835
 5593SOL    HW217679   1.544   3.067   5.695
 5594SOL     OW17680   1.910   0.689   0.100
 5594SOL    HW117681   1.872   0.597   0.094
 5594SOL    HW217682   1.997   0.686   0.150
 5595SOL     OW17683   0.147   2.413   5.931
 5595SOL    HW117684   0.125   2.486   5.995
 5595SOL    HW217685   0.156   2.327   5.981
 5596SOL     OW17686   4.873   0.787   3.161
 5596SOL    HW117687   4.939   0.712   3.169
 5596SOL    HW217688   4.784   0.750   3.134
 5597SOL     OW17689   0.116   0.439   6.113
 5597SOL    HW117690   0.140   0.525   6.069
 5597SOL    HW217691   0.135   0.445   6.211
 5598SOL     OW17692   6.546   1.312   3.845
 5598SOL    HW117693   6.508   1.400   3.818
 5598SOL    HW217694   6.611   1.280   3.776
 5599SOL     OW17695   4.943   3.326   3.152
 5599SOL    HW117696   5.039   3.334   3.125
 5599SOL    HW217697   4.932   3.246   3.211
 5600SOL     OW17698   2.169   1.797   2.286
 5600SOL    HW117699   2.120   1.751   2.213
 5600SOL    HW217700   2.267   1.780   2.277
 5601SOL     OW17701   5.691   2.630   5.486
 5601SOL    HW117702   5.719   2.555   5.545
 5601SOL    HW217703   5.656   2.705   5.543
 5602SOL     OW17704   0.666   1.913   2.589
 5602SOL    HW117705   0.577   1.923   2.633
 5602SOL    HW217706   0.731   1.872   2.653
 5603SOL     OW17707   4.085   2.251   4.434
 5603SOL    HW117708   4.059   2.346   4.451
 5603SOL    HW217709   4.038   2.217   4.352
 5604SOL     OW17710   0.566   0.204   4.062
 5604SOL    HW117711   0.533   0.119   4.103
 5604SOL    HW217712   0.513   0.224   3.980
 5605SOL     OW17713   3.029   6.011   4.176
 5605SOL    HW117714   2.946   6.035   4.126
 5605SOL    HW217715   3.022   5.917   4.210
 5606SOL     OW17716   4.480   2.181   1.047
 5606SOL    HW117717   4.432   2.163   0.961
 5606SOL    HW217718   4.548   2.254   1.032
 5607SOL     OW17719   6.185   2.734   2.363
 5607SOL    HW117720   6.265   2.688   2.326
 5607SOL    HW217721   6.123   2.666   2.403
 5608SOL     OW17722   4.394   1.057   3.259
 5608SOL    HW117723   4.409   1.134   3.321
 5608SOL    HW217724   4.437   1.076   3.171
 5609SOL     OW17725   6.670   0.041   0.774
 5609SOL    HW117726   6.597   0.010   0.835
 5609SOL    HW217727   6.737   6.994   0.763
 5610SOL     OW17728   4.964   4.644   0.215
 5610SOL    HW117729   4.978   4.547   0.200
 5610SOL    HW217730   4.866   4.663   0.226
 5611SOL     OW17731   0.226   4.957   1.115
 5611SOL    HW117732   0.180   4.956   1.204
 5611SOL    HW217733   0.324   4.974   1.128
 5612SOL     OW17734   2.709   1.571   0.885
 5612SOL    HW117735   2.775   1.545   0.955
 5612SOL    HW217736   2.709   1.502   0.812
 5613SOL     OW17737   6.755   5.344   5.566
 5613SOL    HW117738   6.762   5.408   5.641
 5613SOL    HW217739   6.663   5.348   5.527
 5614SOL     OW17740   5.458   2.207   4.090
 5614SOL    HW117741   5.383   2.218   4.025
 5614SOL    HW217742   5.422   2.189   4.181
 5615SOL     OW17743   0.359   3.184   3.260
 5615SOL    HW117744   0.368   3.220   3.353
 5615SOL    HW217745   0.284   3.232   3.213
 5616SOL     OW17746   1.770   3.572   2.479
 5616SOL    HW117747   1.802   3.492   2.530
 5616SOL    HW217748   1.843   3.604   2.418
 5617SOL     OW17749   1.694   5.465   6.499
 5617SOL    HW117750   1.612   5.478   6.443
 5617SOL    HW217751   1.667   5.436   6.591
 5618SOL     OW17752   6.738   6.095   3.374
 5618SOL    HW117753   6.810   6.108   3.306
 5618SOL    HW217754   6.777   6.105   3.466
 5619SOL     OW17755   3.853   3.029   4.083
 5619SOL    HW117756   3.855   3.016   4.182
 5619SOL    HW217757   3.834   3.125   4.062
 5620SOL     OW17758   4.601   4.831   5.425
 5620SOL    HW117759   4.634   4.814   5.517
 5620SOL    HW217760   4.605   4.747   5.371
 5621SOL     OW17761   1.296   2.313   5.653
 5621SOL    HW117762   1.222   2.247   5.639
 5621SOL    HW217763   1.304   2.334   5.751
 5622SOL     OW17764   4.875   6.033   4.688
 5622SOL    HW117765   4.893   6.102   4.618
 5622SOL    HW217766   4.833   5.953   4.646
 5623SOL     OW17767   4.982   5.835   3.546
 5623SOL    HW117768   5.006   5.755   3.599
 5623SOL    HW217769   5.055   5.903   3.553
 5624SOL     OW17770   6.768   4.497   4.287
 5624SOL    HW117771   6.750   4.399   4.277
 5624SOL    HW217772   6.795   4.517   4.381
 5625SOL     OW17773   0.946   5.789   5.572
 5625SOL    HW117774   1.045   5.785   5.554
 5625SOL    HW217775   0.902   5.708   5.534
 5626SOL     OW17776   1.246   4.368   5.132
 5626SOL    HW117777   1.171   4.341   5.071
 5626SOL    HW217778   1.329   4.318   5.106
 5627SOL     OW17779   1.185   5.716   6.730
 5627SOL    HW117780   1.281   5.725   6.701
 5627SOL    HW217781   1.160   5.796   6.784
 5628SOL     OW17782   2.380   2.430   1.480
 5628SOL    HW117783   2.408   2.339   1.509
 5628SOL    HW217784   2.288   2.426   1.441
 5629SOL     OW17785   5.482   3.595   1.488
 5629SOL    HW117786   5.465   3.608   1.390
 5629SOL    HW217787   5.552   3.660   1.518
 5630SOL     OW17788   2.122   4.190   6.832
 5630SOL    HW117789   2.038   4.190   6.886
 5630SOL    HW217790   2.181   4.265   6.861
 5631SOL     OW17791   4.260   1.088   1.539
 5631SOL    HW117792   4.271   1.111   1.442
 5631SOL    HW217793   4.336   1.030   1.568
 5632SOL     OW17794   5.754   6.958   5.822
 5632SOL    HW117795   5.702   6.971   5.737
 5632SOL    HW217796   5.692   6.964   5.900
 5633SOL     OW17797   0.887   5.515   5.696
 5633SOL    HW117798   0.898   5.458   5.615
 5633SOL    HW217799   0.841   5.462   5.768
 5634SOL     OW17800   2.614   0.001   0.399
 5634SOL    HW117801   2.578   6.934   0.404
 5634SOL    HW217802   2.672   0.010   0.317
 5635SOL     OW17803   2.002   0.895   6.351
 5635SOL    HW117804   2.095   0.864   6.331
 5635SOL    HW217805   1.955   0.916   6.266
 5636SOL     OW17806   6.331   1.673   5.851
 5636SOL    HW117807   6.368   1.600   5.793
 5636SOL    HW217808   6.299   1.633   5.937
 5637SOL     OW17809   4.855   6.625   4.681
 5637SOL    HW117810   4.814   6.714   4.702
 5637SOL    HW217811   4.858   6.570   4.764
 5638SOL     OW17812   5.859   5.421   0.910
 5638SOL    HW117813   5.893   5.331   0.881
 5638SOL    HW217814   5.936   5.480   0.934
 5639SOL     OW17815   1.164   0.508   1.267
 5639SOL    HW117816   1.112   0.508   1.182
 5639SOL    HW217817   1.159   0.417   1.309
 5640SOL     OW17818   2.419   5.911   3.087
 5640SOL    HW117819   2.357   5.932   3.011
 5640SOL    HW217820   2.510   5.890   3.052
 5641SOL     OW17821   0.805   4.151   3.606
 5641SOL    HW117822   0.822   4.145   3.704
 5641SOL    HW217823   0.882   4.195   3.561
 5642SOL     OW17824   1.519   5.027   0.471
 5642SOL    HW117825   1.608   5.007   0.512
 5642SOL    HW217826   1.497   5.123   0.485
 5643SOL     OW17827   4.697   1.954   4.707
 5643SOL    HW117828   4.652   1.884   4.763
 5643SOL    HW217829   4.696   1.925   4.611
 5644SOL     OW17830   4.045   0.585   5.021
 5644SOL    HW117831   4.096   0.547   5.099
 5644SOL    HW217832   3.980   0.653   5.054
 5645SOL     OW17833   5.763   5.678   3.541
 5645SOL    HW117834   5.680   5.634   3.575
 5645SOL    HW217835   5.815   5.714   3.618
 5646SOL     OW17836   0.492   6.517   4.195
 5646SOL    HW117837   0.486   6.446   4.265
 5646SOL    HW217838   0.409   6.573   4.197
 5647SOL     OW17839   5.628   5.311   5.945
 5647SOL    HW117840   5.668   5.355   6.025
 5647SOL    HW217841   5.546   5.360   5.917
 5648SOL     OW17842   1.701   1.618   4.047
 5648SOL    HW117843   1.775   1.661   3.996
 5648SOL    HW217844   1.697   1.520   4.026
 5649SOL     OW17845   0.701   1.119   5.175
 5649SOL    HW117846   0.639   1.181   5.126
 5649SOL    HW217847   0.735   1.049   5.113
 5650SOL     OW17848   6.964   4.831   0.097
 5650SOL    HW117849   6.888   4.872   0.047
 5650SOL    HW217850   7.009   4.901   0.153
 5651SOL     OW17851   6.835   0.866   2.260
 5651SOL    HW117852   6.736   0.867   2.274
 5651SOL    HW217853   6.871   0.775   2.281
 5652SOL     OW17854   4.978   5.096   0.697
 5652SOL    HW117855   4.891   5.100   0.747
 5652SOL    HW217856   4.976   5.162   0.622
 5653SOL     OW17857   0.148   5.918   6.232
 5653SOL    HW117858   0.210   5.876   6.165
 5653SOL    HW217859   0.152   6.017   6.224
 5654SOL     OW17860   6.825   0.121   5.215
 5654SOL    HW117861   6.742   0.107   5.268
 5654SOL    HW217862   6.871   0.033   5.201
 5655SOL     OW17863   6.890   3.442   4.329
 5655SOL    HW117864   6.829   3.364   4.348
 5655SOL    HW217865   6.976   3.408   4.290
 5656SOL     OW17866   3.575   4.257   0.272
 5656SOL    HW117867   3.544   4.351   0.259
 5656SOL    HW217868   3.634   4.252   0.352
 5657SOL     OW17869   3.562   0.120   1.990
 5657SOL    HW117870   3.516   0.145   1.905
 5657SOL    HW217871   3.656   0.093   1.971
 5658SOL     OW17872   3.579   6.959   5.715
 5658SOL    HW117873   3.673   6.952   5.680
 5658SOL    HW217874   3.515   6.935   5.643
 5659SOL     OW17875   3.007   3.914   2.662
 5659SOL    HW117876   2.964   3.865   2.737
 5659SOL    HW217877   3.078   3.975   2.699
 5660SOL     OW17878   5.244   6.574   6.683
 5660SOL    HW117879   5.334   6.543   6.651
 5660SOL    HW217880   5.206   6.507   6.746
 5661SOL     OW17881   6.398   5.383   4.074
 5661SOL    HW117882   6.385   5.479   4.099
 5661SOL    HW217883   6.405   5.375   3.975
 5662SOL     OW17884   2.227   4.576   4.157
 5662SOL    HW117885   2.269   4.600   4.245
 5662SOL    HW217886   2.264   4.635   4.086
 5663SOL     OW17887   1.604   4.230   0.868
 5663SOL    HW117888   1.525   4.247   0.810
 5663SOL    HW217889   1.663   4.311   0.869
 5664SOL     OW17890   7.013   4.740   2.099
 5664SOL    HW117891   6.998   4.821   2.042
 5664SOL    HW217892   6.927   4.690   2.107
 5665SOL     OW17893   2.400   3.358   5.846
 5665SOL    HW117894   2.469   3.413   5.800
 5665SOL    HW217895   2.375   3.400   5.933
 5666SOL     OW17896   5.500   4.399   0.941
 5666SOL    HW117897   5.414   4.378   0.895
 5666SOL    HW217898   5.564   4.324   0.927
 5667SOL     OW17899   6.683   5.206   2.959
 5667SOL    HW117900   6.727   5.293   2.979
 5667SOL    HW217901   6.599   5.198   3.011
 5668SOL     OW17902   5.513   1.982   6.552
 5668SOL    HW117903   5.561   1.902   6.517
 5668SOL    HW217904   5.568   2.064   6.537
 5669SOL     OW17905   0.842   4.869   6.627
 5669SOL    HW117906   0.831   4.786   6.572
 5669SOL    HW217907   0.862   4.843   6.722
 5670SOL     OW17908   0.413   3.535   4.355
 5670SOL    HW117909   0.502   3.570   4.386
 5670SOL    HW217910   0.389   3.579   4.269
 5671SOL     OW17911   1.469   0.788   6.148
 5671SOL    HW117912   1.432   0.705   6.107
 5671SOL    HW217913   1.549   0.817   6.095
 5672SOL     OW17914   5.124   4.396   5.766
 5672SOL    HW117915   5.128   4.494   5.783
 5672SOL    HW217916   5.120   4.379   5.668
 5673SOL     OW17917   0.391   0.548   1.931
 5673SOL    HW117918   0.383   0.553   2.030
 5673SOL    HW217919   0.363   0.457   1.899
 5674SOL     OW17920   6.744   3.345   1.372
 5674SOL    HW117921   6.834   3.338   1.415
 5674SOL    HW217922   6.697   3.425   1.408
 5675SOL     OW17923   4.467   2.523   5.177
 5675SOL    HW117924   4.530   2.563   5.110
 5675SOL    HW217925   4.373   2.548   5.153
 5676SOL     OW17926   2.039   0.498   2.089
 5676SOL    HW117927   2.109   0.530   2.153
 5676SOL    HW217928   2.083   0.447   2.015
 5677SOL     OW17929   6.461   0.949   3.525
 5677SOL    HW117930   6.493   0.950   3.620
 5677SOL    HW217931   6.370   0.989   3.520
 5678SOL     OW17932   3.104   6.890   3.226
 5678SOL    HW117933   3.131   6.970   3.173
 5678SOL    HW217934   3.151   6.892   3.314
 5679SOL     OW17935   1.678   6.642   4.912
 5679SOL    HW117936   1.668   6.667   4.815
 5679SOL    HW217937   1.596   6.669   4.962
 5680SOL     OW17938   2.400   5.401   6.543
 5680SOL    HW117939   2.471   5.414   6.611
 5680SOL    HW217940   2.328   5.342   6.580
 5681SOL     OW17941   1.105   3.134   6.774
 5681SOL    HW117942   1.095   3.127   6.874
 5681SOL    HW217943   1.202   3.122   6.750
 5682SOL     OW17944   1.084   2.953   5.628
 5682SOL    HW117945   1.007   2.890   5.624
 5682SOL    HW217946   1.158   2.913   5.682
 5683SOL     OW17947   3.474   2.598   6.345
 5683SOL    HW117948   3.404   2.649   6.295
 5683SOL    HW217949   3.563   2.641   6.332
 5684SOL     OW17950   3.360   4.179   4.034
 5684SOL    HW117951   3.417   4.186   4.116
 5684SOL    HW217952   3.416   4.197   3.953
 5685SOL     OW17953   7.013   4.978   1.966
 5685SOL    HW117954   6.950   5.041   1.921
 5685SOL    HW217955   0.080   4.996   1.935
 5686SOL     OW17956   3.846   0.211   0.681
 5686SOL    HW117957   3.900   0.177   0.604
 5686SOL    HW217958   3.752   0.176   0.675
 5687SOL     OW17959   5.293   5.235   5.415
 5687SOL    HW117960   5.345   5.244   5.500
 5687SOL    HW217961   5.357   5.220   5.339
 5688SOL     OW17962   5.837   2.254   1.382
 5688SOL    HW117963   5.829   2.171   1.438
 5688SOL    HW217964   5.758   2.261   1.322
 5689SOL     OW17965   4.258   1.849   0.960
 5689SOL    HW117966   4.177   1.875   1.013
 5689SOL    HW217967   4.248   1.883   0.866
 5690SOL     OW17968   4.180   5.710   1.040
 5690SOL    HW117969   4.232   5.669   1.115
 5690SOL    HW217970   4.155   5.804   1.064
 5691SOL     OW17971   2.135   0.141   1.806
 5691SOL    HW117972   2.053   0.164   1.754
 5691SOL    HW217973   2.187   0.224   1.824
 5692SOL     OW17974   6.300   3.259   6.033
 5692SOL    HW117975   6.225   3.304   5.983
 5692SOL    HW217976   6.385   3.308   6.016
 5693SOL     OW17977   4.558   2.467   2.716
 5693SOL    HW117978   4.483   2.435   2.774
 5693SOL    HW217979   4.613   2.389   2.687
 5694SOL     OW17980   0.462   1.000   3.615
 5694SOL    HW117981   0.527   1.075   3.621
 5694SOL    HW217982   0.506   0.920   3.575
 5695SOL     OW17983   1.567   3.395   3.455
 5695SOL    HW117984   1.661   3.408   3.488
 5695SOL    HW217985   1.505   3.391   3.533
 5696SOL     OW17986   2.626   0.999   5.240
 5696SOL    HW117987   2.660   0.944   5.164
 5696SOL    HW217988   2.702   1.047   5.283
 5697SOL     OW17989   6.768   2.617   0.479
 5697SOL    HW117990   6.674   2.583   0.479
 5697SOL    HW217991   6.772   2.704   0.529
 5698SOL     OW17992   0.796   3.144   1.611
 5698SOL    HW117993   0.722   3.163   1.546
 5698SOL    HW217994   0.799   3.216   1.680
 5699SOL     OW17995   5.932   1.055   5.040
 5699SOL    HW117996   5.960   1.150   5.028
 5699SOL    HW217997   5.861   1.032   4.974
 5700SOL     OW17998   1.546   5.738   5.266
 5700SOL    HW117999   1.595   5.822   5.288
 5700SOL    HW218000   1.454   5.761   5.235
 5701SOL     OW18001   6.762   5.604   2.409
 5701SOL    HW118002   6.802   5.696   2.411
 5701SOL    HW218003   6.727   5.581   2.499
 5702SOL     OW18004   2.220   6.577   6.642
 5702SOL    HW118005   2.216   6.494   6.697
 5702SOL    HW218006   2.186   6.558   6.550
 5703SOL     OW18007   4.390   4.743   0.312
 5703SOL    HW118008   4.337   4.676   0.364
 5703SOL    HW218009   4.331   4.817   0.282
 5704SOL     OW18010   4.662   5.098   3.549
 5704SOL    HW118011   4.627   5.187   3.577
 5704SOL    HW218012   4.728   5.065   3.617
 5705SOL     OW18013   6.083   0.072   1.228
 5705SOL    HW118014   6.054   0.167   1.230
 5705SOL    HW218015   6.015   0.017   1.178
 5706SOL     OW18016   1.304   1.591   6.831
 5706SOL    HW118017   1.254   1.524   6.777
 5706SOL    HW218018   1.331   1.550   6.918
 5707SOL     OW18019   2.143   1.282   6.190
 5707SOL    HW118020   2.174   1.355   6.251
 5707SOL    HW218021   2.200   1.201   6.205
 5708SOL     OW18022   4.998   0.018   2.523
 5708SOL    HW118023   4.899   0.023   2.533
 5708SOL    HW218024   5.035   0.110   2.513
 5709SOL     OW18025   0.567   6.455   2.801
 5709SOL    HW118026   0.482   6.440   2.852
 5709SOL    HW218027   0.577   6.384   2.732
 5710SOL     OW18028   3.010   3.423   5.996
 5710SOL    HW118029   3.002   3.457   6.090
 5710SOL    HW218030   3.086   3.359   5.989
 5711SOL     OW18031   5.013   1.123   3.735
 5711SOL    HW118032   4.952   1.129   3.814
 5711SOL    HW218033   4.969   1.162   3.655
 5712SOL     OW18034   6.968   6.174   6.016
 5712SOL    HW118035   6.923   6.103   5.962
 5712SOL    HW218036   6.990   6.251   5.957
 5713SOL     OW18037   0.139   2.939   2.623
 5713SOL    HW118038   0.058   2.995   2.612
 5713SOL    HW218039   0.117   2.860   2.681
 5714SOL     OW18040   1.388   0.606   5.953
 5714SOL    HW118041   1.438   0.520   5.938
 5714SOL    HW218042   1.390   0.660   5.870
 5715SOL     OW18043   1.597   6.409   2.308
 5715SOL    HW118044   1.663   6.453   2.247
 5715SOL    HW218045   1.575   6.471   2.384
 5716SOL     OW18046   1.474   4.035   6.400
 5716SOL    HW118047   1.449   4.097   6.325
 5716SOL    HW218048   1.573   4.017   6.396
 5717SOL     OW18049   0.956   4.335   1.136
 5717SOL    HW118050   1.038   4.283   1.157
 5717SOL    HW218051   0.892   4.278   1.084
 5718SOL     OW18052   2.698   4.712   6.259
 5718SOL    HW118053   2.793   4.730   6.285
 5718SOL    HW218054   2.692   4.706   6.159
 5719SOL     OW18055   3.429   0.373   6.665
 5719SOL    HW118056   3.354   0.439   6.668
 5719SOL    HW218057   3.505   0.407   6.720
 5720SOL     OW18058   1.298   5.498   5.604
 5720SOL    HW118059   1.259   5.414   5.565
 5720SOL    HW218060   1.392   5.508   5.573
 5721SOL     OW18061   0.298   3.046   0.865
 5721SOL    HW118062   0.219   3.106   0.882
 5721SOL    HW218063   0.275   2.953   0.893
 5722SOL     OW18064   5.797   0.124   4.746
 5722SOL    HW118065   5.833   0.034   4.720
 5722SOL    HW218066   5.867   0.193   4.731
 5723SOL     OW18067   3.964   5.902   0.341
 5723SOL    HW118068   4.027   5.865   0.274
 5723SOL    HW218069   3.871   5.899   0.305
 5724SOL     OW18070   5.600   1.968   6.192
 5724SOL    HW118071   5.623   2.049   6.137
 5724SOL    HW218072   5.645   1.888   6.153
 5725SOL     OW18073   5.461   5.123   4.453
 5725SOL    HW118074   5.395   5.156   4.521
 5725SOL    HW218075   5.553   5.127   4.492
 5726SOL     OW18076   5.664   3.682   5.794
 5726SOL    HW118077   5.635   3.748   5.863
 5726SOL    HW218078   5.666   3.590   5.834
 5727SOL     OW18079   5.719   1.862   3.111
 5727SOL    HW118080   5.716   1.813   3.198
 5727SOL    HW218081   5.794   1.929   3.112
 5728SOL     OW18082   6.148   0.577   5.346
 5728SOL    HW118083   6.214   0.603   5.275
 5728SOL    HW218084   6.196   0.535   5.422
 5729SOL     OW18085   0.008   1.311   6.197
 5729SOL    HW118086   0.095   1.347   6.164
 5729SOL    HW218087   0.020   1.275   6.290
 5730SOL     OW18088   4.038   5.508   5.934
 5730SOL    HW118089   4.121   5.502   5.878
 5730SOL    HW218090   4.043   5.590   5.991
 5731SOL     OW18091   2.569   0.935   4.263
 5731SOL    HW118092   2.533   0.847   4.231
 5731SOL    HW218093   2.647   0.919   4.323
 5732SOL     OW18094   6.044   5.269   5.024
 5732SOL    HW118095   6.113   5.276   4.951
 5732SOL    HW218096   6.082   5.217   5.100
 5733SOL     OW18097   3.490   0.592   6.960
 5733SOL    HW118098   3.427   0.669   6.965
 5733SOL    HW218099   3.536   0.592   6.871
 5734SOL     OW18100   1.621   6.743   5.606
 5734SOL    HW118101   1.560   6.664   5.597
 5734SOL    HW218102   1.600   6.791   5.691
 5735SOL     OW18103   3.954   0.822   2.179
 5735SOL    HW118104   3.983   0.728   2.194
 5735SOL    HW218105   3.963   0.845   2.082
 5736SOL     OW18106   4.402   3.962   6.779
 5736SOL    HW118107   4.308   3.990   6.756
 5736SOL    HW218108   4.407   3.862   6.782
 5737SOL     OW18109   4.924   5.143   1.398
 5737SOL    HW118110   5.002   5.160   1.338
 5737SOL    HW218111   4.944   5.179   1.489
 5738SOL     OW18112   3.754   1.013   6.461
 5738SOL    HW118113   3.844   1.048   6.487
 5738SOL    HW218114   3.743   1.017   6.362
 5739SOL     OW18115   2.850   0.796   6.012
 5739SOL    HW118116   2.808   0.878   5.973
 5739SOL    HW218117   2.814   0.715   5.965
 5740SOL     OW18118   5.628   3.751   1.097
 5740SOL    HW118119   5.558   3.693   1.139
 5740SOL    HW218120   5.718   3.722   1.130
 5741SOL     OW18121   0.812   3.577   4.239
 5741SOL    HW118122   0.741   3.618   4.297
 5741SOL    HW218123   0.783   3.485   4.211
 5742SOL     OW18124   4.310   6.996   3.471
 5742SOL    HW118125   4.297   0.058   3.425
 5742SOL    HW218126   4.257   6.994   3.555
 5743SOL     OW18127   3.496   4.176   5.684
 5743SOL    HW118128   3.463   4.190   5.777
 5743SOL    HW218129   3.577   4.118   5.685
 5744SOL     OW18130   5.622   6.651   2.971
 5744SOL    HW118131   5.534   6.666   2.927
 5744SOL    HW218132   5.622   6.694   3.062
 5745SOL     OW18133   2.344   2.456   3.625
 5745SOL    HW118134   2.247   2.481   3.620
 5745SOL    HW218135   2.385   2.499   3.706
 5746SOL     OW18136   3.944   0.412   3.523
 5746SOL    HW118137   4.041   0.420   3.499
 5746SOL    HW218138   3.931   0.333   3.583
 5747SOL     OW18139   1.225   5.904   1.971
 5747SOL    HW118140   1.135   5.873   1.941
 5747SOL    HW218141   1.232   5.898   2.071
 5748SOL     OW18142   0.241   6.137   0.669
 5748SOL    HW118143   0.320   6.169   0.722
 5748SOL    HW218144   0.207   6.052   0.708
 5749SOL     OW18145   1.551   6.360   5.161
 5749SOL    HW118146   1.551   6.354   5.261
 5749SOL    HW218147   1.540   6.268   5.123
 5750SOL     OW18148   6.976   4.013   4.199
 5750SOL    HW118149   6.904   3.946   4.217
 5750SOL    HW218150   0.039   3.972   4.217
 5751SOL     OW18151   2.096   3.619   4.252
 5751SOL    HW118152   2.134   3.568   4.329
 5751SOL    HW218153   2.012   3.665   4.281
 5752SOL     OW18154   5.460   0.183   0.750
 5752SOL    HW118155   5.449   0.278   0.720
 5752SOL    HW218156   5.500   0.180   0.841
 5753SOL     OW18157   2.984   3.889   4.929
 5753SOL    HW118158   3.055   3.959   4.942
 5753SOL    HW218159   2.937   3.873   5.016
 5754SOL     OW18160   1.076   5.847   1.638
 5754SOL    HW118161   1.055   5.798   1.723
 5754SOL    HW218162   0.993   5.886   1.600
 5755SOL     OW18163   2.375   2.493   6.575
 5755SOL    HW118164   2.473   2.484   6.557
 5755SOL    HW218165   2.359   2.573   6.633
 5756SOL     OW18166   6.198   6.267   2.000
 5756SOL    HW118167   6.244   6.312   1.923
 5756SOL    HW218168   6.227   6.171   2.005
 5757SOL     OW18169   0.008   6.328   3.644
 5757SOL    HW118170   6.995   6.238   3.622
 5757SOL    HW218171   7.017   6.392   3.569
 5758SOL     OW18172   1.397   6.415   3.239
 5758SOL    HW118173   1.420   6.340   3.176
 5758SOL    HW218174   1.480   6.467   3.259
 5759SOL     OW18175   4.418   0.027   1.811
 5759SOL    HW118176   4.401   0.013   1.908
 5759SOL    HW218177   4.517   0.023   1.793
 5760SOL     OW18178   6.689   3.264   2.265
 5760SOL    HW118179   6.666   3.286   2.360
 5760SOL    HW218180   6.609   3.228   2.219
 5761SOL     OW18181   5.567   5.957   4.573
 5761SOL    HW118182   5.581   5.861   4.550
 5761SOL    HW218183   5.616   5.978   4.657
 5762SOL     OW18184   5.510   4.186   6.910
 5762SOL    HW118185   5.566   4.244   6.969
 5762SOL    HW218186   5.452   4.127   6.965
 5763SOL     OW18187   5.523   0.614   0.495
 5763SOL    HW118188   5.473   0.533   0.527
 5763SOL    HW218189   5.560   0.596   0.403
 5764SOL     OW18190   4.377   5.331   3.419
 5764SOL    HW118191   4.412   5.385   3.495
 5764SOL    HW218192   4.289   5.290   3.444
 5765SOL     OW18193   6.205   4.936   0.894
 5765SOL    HW118194   6.179   4.969   0.984
 5765SOL    HW218195   6.280   4.871   0.902
 5766SOL     OW18196   1.284   1.560   4.582
 5766SOL    HW118197   1.297   1.462   4.599
 5766SOL    HW218198   1.187   1.582   4.586
 5767SOL     OW18199   2.118   0.861   0.475
 5767SOL    HW118200   2.158   0.900   0.559
 5767SOL    HW218201   2.020   0.851   0.487
 5768SOL     OW18202   6.585   6.884   4.041
 5768SOL    HW118203   6.632   6.811   3.991
 5768SOL    HW218204   6.583   6.861   4.138
 5769SOL     OW18205   1.944   5.359   6.467
 5769SOL    HW118206   1.854   5.399   6.478
 5769SOL    HW218207   1.981   5.336   6.557
 5770SOL     OW18208   0.560   6.043   0.783
 5770SOL    HW118209   0.644   5.994   0.805
 5770SOL    HW218210   0.555   6.126   0.837
 5771SOL     OW18211   2.025   5.533   3.864
 5771SOL    HW118212   1.933   5.567   3.882
 5771SOL    HW218213   2.069   5.507   3.950
 5772SOL     OW18214   4.529   0.784   1.830
 5772SOL    HW118215   4.485   0.812   1.916
 5772SOL    HW218216   4.478   0.823   1.753
 5773SOL     OW18217   4.224   1.915   2.209
 5773SOL    HW118218   4.265   1.961   2.288
 5773SOL    HW218219   4.262   1.953   2.125
 5774SOL     OW18220   1.171   6.460   3.906
 5774SOL    HW118221   1.244   6.448   3.839
 5774SOL    HW218222   1.144   6.557   3.909
 5775SOL     OW18223   0.596   5.380   3.175
 5775SOL    HW118224   0.594   5.365   3.273
 5775SOL    HW218225   0.638   5.468   3.155
 5776SOL     OW18226   1.973   0.507   3.112
 5776SOL    HW118227   1.915   0.425   3.117
 5776SOL    HW218228   2.005   0.519   3.018
 5777SOL     OW18229   1.444   0.474   3.100
 5777SOL    HW118230   1.418   0.487   3.004
 5777SOL    HW218231   1.411   0.552   3.153
 5778SOL     OW18232   1.283   1.407   6.592
 5778SOL    HW118233   1.220   1.480   6.568
 5778SOL    HW218234   1.253   1.321   6.550
 5779SOL     OW18235   4.705   2.367   6.692
 5779SOL    HW118236   4.726   2.335   6.784
 5779SOL    HW218237   4.659   2.456   6.698
 5780SOL     OW18238   5.792   5.579   4.249
 5780SOL    HW118239   5.833   5.514   4.185
 5780SOL    HW218240   5.815   5.672   4.222
 5781SOL     OW18241   6.815   4.828   5.074
 5781SOL    HW118242   6.810   4.736   5.113
 5781SOL    HW218243   6.901   4.871   5.102
 5782SOL     OW18244   1.028   1.398   0.063
 5782SOL    HW118245   0.930   1.414   0.078
 5782SOL    HW218246   1.064   1.342   0.138
 5783SOL     OW18247   1.327   1.608   1.978
 5783SOL    HW118248   1.313   1.698   2.019
 5783SOL    HW218249   1.406   1.611   1.916
 5784SOL     OW18250   0.509   6.169   6.748
 5784SOL    HW118251   0.461   6.239   6.802
 5784SOL    HW218252   0.478   6.175   6.653
 5785SOL     OW18253   2.845   1.870   0.576
 5785SOL    HW118254   2.820   1.839   0.485
 5785SOL    HW218255   2.857   1.969   0.576
 5786SOL     OW18256   6.974   4.185   0.085
 5786SOL    HW118257   6.958   4.280   0.058
 5786SOL    HW218258   6.911   4.125   0.035
 5787SOL     OW18259   1.998   2.052   5.707
 5787SOL    HW118260   1.945   1.968   5.699
 5787SOL    HW218261   1.945   2.128   5.669
 5788SOL     OW18262   2.397   1.246   2.616
 5788SOL    HW118263   2.369   1.330   2.570
 5788SOL    HW218264   2.345   1.169   2.578
 5789SOL     OW18265   3.270   5.165   6.780
 5789SOL    HW118266   3.291   5.080   6.829
 5789SOL    HW218267   3.175   5.165   6.751
 5790SOL     OW18268   0.285   3.391   4.692
 5790SOL    HW118269   0.348   3.329   4.739
 5790SOL    HW218270   0.284   3.369   4.594
 5791SOL     OW18271   3.065   0.324   2.472
 5791SOL    HW118272   3.140   0.361   2.526
 5791SOL    HW218273   3.098   0.246   2.418
 5792SOL     OW18274   0.323   2.037   3.152
 5792SOL    HW118275   0.302   2.026   3.249
 5792SOL    HW218276   0.266   2.111   3.114
 5793SOL     OW18277   6.869   0.940   3.501
 5793SOL    HW118278   6.851   0.977   3.592
 5793SOL    HW218279   6.855   1.011   3.433
 5794SOL     OW18280   3.684   2.695   0.211
 5794SOL    HW118281   3.663   2.684   0.308
 5794SOL    HW218282   3.623   2.639   0.156
 5795SOL     OW18283   5.726   5.201   5.659
 5795SOL    HW118284   5.672   5.219   5.577
 5795SOL    HW218285   5.668   5.212   5.740
 5796SOL     OW18286   3.429   0.726   0.275
 5796SOL    HW118287   3.486   0.752   0.353
 5796SOL    HW218288   3.462   0.772   0.193
 5797SOL     OW18289   3.834   1.854   5.264
 5797SOL    HW118290   3.751   1.800   5.251
 5797SOL    HW218291   3.862   1.850   5.360
 5798SOL     OW18292   0.543   3.672   5.486
 5798SOL    HW118293   0.520   3.604   5.416
 5798SOL    HW218294   0.628   3.719   5.460
 5799SOL     OW18295   5.620   0.412   3.869
 5799SOL    HW118296   5.557   0.397   3.945
 5799SOL    HW218297   5.636   0.326   3.821
 5800SOL     OW18298   5.768   5.980   1.285
 5800SOL    HW118299   5.716   6.065   1.287
 5800SOL    HW218300   5.706   5.904   1.265
 5801SOL     OW18301   0.622   1.940   4.134
 5801SOL    HW118302   0.661   1.879   4.204
 5801SOL    HW218303   0.571   2.013   4.179
 5802SOL     OW18304   0.873   4.488   6.855
 5802SOL    HW118305   0.778   4.491   6.887
 5802SOL    HW218306   0.932   4.456   6.929
 5803SOL     OW18307   1.351   5.022   1.731
 5803SOL    HW118308   1.388   5.044   1.640
 5803SOL    HW218309   1.281   4.951   1.721
 5804SOL     OW18310   6.266   4.342   3.920
 5804SOL    HW118311   6.307   4.331   3.830
 5804SOL    HW218312   6.336   4.368   3.986
 5805SOL     OW18313   3.793   3.964   6.764
 5805SOL    HW118314   3.826   3.975   6.670
 5805SOL    HW218315   3.697   3.937   6.763
 5806SOL     OW18316   0.226   6.692   6.809
 5806SOL    HW118317   0.325   6.697   6.801
 5806SOL    HW218318   0.186   6.667   6.721
 5807SOL     OW18319   1.072   3.742   1.838
 5807SOL    HW118320   1.113   3.697   1.917
 5807SOL    HW218321   1.085   3.686   1.757
 5808SOL     OW18322   5.488   3.781   2.639
 5808SOL    HW118323   5.424   3.781   2.716
 5808SOL    HW218324   5.566   3.722   2.660
 5809SOL     OW18325   6.434   2.482   4.251
 5809SOL    HW118326   6.425   2.409   4.183
 5809SOL    HW218327   6.409   2.447   4.341
 5810SOL     OW18328   3.369   0.942   4.383
 5810SOL    HW118329   3.428   0.949   4.463
 5810SOL    HW218330   3.403   1.001   4.310
 5811SOL     OW18331   3.217   0.382   4.934
 5811SOL    HW118332   3.124   0.350   4.953
 5811SOL    HW218333   3.282   0.333   4.992
 5812SOL     OW18334   4.933   0.291   4.499
 5812SOL    HW118335   4.961   0.341   4.581
 5812SOL    HW218336   4.855   0.338   4.457
 5813SOL     OW18337   1.257   1.140   6.295
 5813SOL    HW118338   1.285   1.228   6.334
 5813SOL    HW218339   1.166   1.149   6.255
 5814SOL     OW18340   6.548   3.988   0.489
 5814SOL    HW118341   6.638   3.958   0.457
 5814SOL    HW218342   6.513   4.060   0.429
 5815SOL     OW18343   4.566   2.561   3.458
 5815SOL    HW118344   4.634   2.581   3.529
 5815SOL    HW218345   4.557   2.640   3.397
 5816SOL     OW18346   5.859   6.593   0.389
 5816SOL    HW118347   5.818   6.556   0.472
 5816SOL    HW218348   5.959   6.591   0.397
 5817SOL     OW18349   5.693   2.988   5.407
 5817SOL    HW118350   5.736   3.072   5.441
 5817SOL    HW218351   5.618   2.962   5.468
 5818SOL     OW18352   6.819   6.042   4.512
 5818SOL    HW118353   6.735   6.041   4.565
 5818SOL    HW218354   6.872   5.959   4.532
 5819SOL     OW18355   4.055   0.449   0.843
 5819SOL    HW118356   4.084   0.392   0.767
 5819SOL    HW218357   3.973   0.410   0.885
 5820SOL     OW18358   4.870   0.137   3.771
 5820SOL    HW118359   4.773   0.111   3.773
 5820SOL    HW218360   4.912   0.113   3.859
 5821SOL     OW18361   1.942   0.823   2.009
 5821SOL    HW118362   1.868   0.757   2.015
 5821SOL    HW218363   1.975   0.846   2.101
 5822SOL     OW18364   0.811   2.142   1.560
 5822SOL    HW118365   0.854   2.195   1.633
 5822SOL    HW218366   0.713   2.133   1.579
 5823SOL     OW18367   1.093   1.191   5.317
 5823SOL    HW118368   1.073   1.096   5.297
 5823SOL    HW218369   1.159   1.227   5.251
 5824SOL     OW18370   7.006   6.649   3.053
 5824SOL    HW118371   6.982   6.742   3.026
 5824SOL    HW218372   6.929   6.607   3.100
 5825SOL     OW18373   2.246   2.184   5.784
 5825SOL    HW118374   2.317   2.197   5.715
 5825SOL    HW218375   2.188   2.106   5.758
 5826SOL     OW18376   6.781   5.920   5.542
 5826SOL    HW118377   6.717   5.973   5.486
 5826SOL    HW218378   6.850   5.878   5.483
 5827SOL     OW18379   1.329   5.522   4.697
 5827SOL    HW118380   1.394   5.475   4.757
 5827SOL    HW218381   1.239   5.477   4.704
 5828SOL     OW18382   0.130   3.310   1.804
 5828SOL    HW118383   0.208   3.326   1.745
 5828SOL    HW218384   0.161   3.274   1.892
 5829SOL     OW18385   2.665   1.215   2.541
 5829SOL    HW118386   2.733   1.234   2.612
 5829SOL    HW218387   2.576   1.252   2.568
 5830SOL     OW18388   3.950   0.852   5.692
 5830SOL    HW118389   3.878   0.840   5.761
 5830SOL    HW218390   4.023   0.787   5.708
 5831SOL     OW18391   6.369   6.743   3.916
 5831SOL    HW118392   6.446   6.803   3.934
 5831SOL    HW218393   6.286   6.781   3.957
 5832SOL     OW18394   4.253   3.626   5.313
 5832SOL    HW118395   4.292   3.717   5.318
 5832SOL    HW218396   4.211   3.612   5.223
 5833SOL     OW18397   3.236   3.433   4.023
 5833SOL    HW118398   3.189   3.347   4.044
 5833SOL    HW218399   3.206   3.466   3.934
 5834SOL     OW18400   6.058   1.782   0.637
 5834SOL    HW118401   6.068   1.740   0.727
 5834SOL    HW218402   5.964   1.812   0.624
 5835SOL     OW18403   5.245   2.716   3.102
 5835SOL    HW118404   5.316   2.778   3.069
 5835SOL    HW218405   5.155   2.757   3.089
 5836SOL     OW18406   2.689   5.931   3.264
 5836SOL    HW118407   2.618   5.861   3.261
 5836SOL    HW218408   2.762   5.903   3.327
 5837SOL     OW18409   4.090   4.466   6.516
 5837SOL    HW118410   4.189   4.479   6.508
 5837SOL    HW218411   4.059   4.402   6.447
 5838SOL     OW18412   1.949   1.837   5.977
 5838SOL    HW118413   1.930   1.928   5.940
 5838SOL    HW218414   2.042   1.834   6.013
 5839SOL     OW18415   0.245   2.604   2.481
 5839SOL    HW118416   0.254   2.648   2.392
 5839SOL    HW218417   0.337   2.587   2.518
 5840SOL     OW18418   1.269   5.666   0.018
 5840SOL    HW118419   1.289   5.710   6.957
 5840SOL    HW218420   1.177   5.692   0.049
 5841SOL     OW18421   5.812   2.827   2.194
 5841SOL    HW118422   5.734   2.885   2.175
 5841SOL    HW218423   5.794   2.774   2.277
 5842SOL     OW18424   3.407   3.150   0.977
 5842SOL    HW118425   3.426   3.226   0.916
 5842SOL    HW218426   3.308   3.147   0.996
 5843SOL     OW18427   2.205   3.956   2.467
 5843SOL    HW118428   2.164   3.871   2.500
 5843SOL    HW218429   2.273   3.988   2.532
 5844SOL     OW18430   0.430   6.746   5.890
 5844SOL    HW118431   0.349   6.702   5.928
 5844SOL    HW218432   0.404   6.836   5.854
 5845SOL     OW18433   1.003   1.238   2.986
 5845SOL    HW118434   1.050   1.213   3.070
 5845SOL    HW218435   0.925   1.177   2.972
 5846SOL     OW18436   6.682   2.911   5.052
 5846SOL    HW118437   6.765   2.880   5.005
 5846SOL    HW218438   6.662   3.006   5.025
 5847SOL     OW18439   1.846   1.890   2.437
 5847SOL    HW118440   1.920   1.856   2.494
 5847SOL    HW218441   1.851   1.990   2.431
 5848SOL     OW18442   2.587   4.883   3.794
 5848SOL    HW118443   2.571   4.900   3.696
 5848SOL    HW218444   2.530   4.946   3.848
 5849SOL     OW18445   0.501   0.876   5.956
 5849SOL    HW118446   0.430   0.896   6.023
 5849SOL    HW218447   0.588   0.857   6.003
 5850SOL     OW18448   1.084   3.253   1.942
 5850SOL    HW118449   1.064   3.184   2.012
 5850SOL    HW218450   1.173   3.294   1.961
 5851SOL     OW18451   5.584   3.007   2.718
 5851SOL    HW118452   5.575   3.105   2.702
 5851SOL    HW218453   5.503   2.960   2.681
 5852SOL     OW18454   4.451   6.370   3.204
 5852SOL    HW118455   4.506   6.349   3.285
 5852SOL    HW218456   4.510   6.404   3.132
 5853SOL     OW18457   3.239   5.758   5.814
 5853SOL    HW118458   3.177   5.836   5.811
 5853SOL    HW218459   3.249   5.720   5.722
 5854SOL     OW18460   6.757   3.371   6.025
 5854SOL    HW118461   6.709   3.396   6.109
 5854SOL    HW218462   6.778   3.273   6.027
 5855SOL     OW18463   0.991   0.959   5.225
 5855SOL    HW118464   1.018   0.876   5.177
 5855SOL    HW218465   0.898   0.985   5.199
 5856SOL     OW18466   1.847   5.402   3.263
 5856SOL    HW118467   1.810   5.422   3.354
 5856SOL    HW218468   1.777   5.357   3.208
 5857SOL     OW18469   5.730   2.652   4.941
 5857SOL    HW118470   5.717   2.680   4.846
 5857SOL    HW218471   5.731   2.732   5.000
 5858SOL     OW18472   2.435   2.439   1.859
 5858SOL    HW118473   2.517   2.447   1.802
 5858SOL    HW218474   2.444   2.359   1.918
 5859SOL     OW18475   5.639   6.203   0.998
 5859SOL    HW118476   5.650   6.212   1.097
 5859SOL    HW218477   5.695   6.128   0.964
 5860SOL     OW18478   2.353   4.212   1.973
 5860SOL    HW118479   2.413   4.288   1.949
 5860SOL    HW218480   2.309   4.230   2.061
 5861SOL     OW18481   5.374   1.565   3.694
 5861SOL    HW118482   5.313   1.493   3.660
 5861SOL    HW218483   5.454   1.523   3.736
 5862SOL     OW18484   4.038   5.518   3.045
 5862SOL    HW118485   4.114   5.570   3.084
 5862SOL    HW218486   4.002   5.455   3.114
 5863SOL     OW18487   2.785   0.839   5.655
 5863SOL    HW118488   2.707   0.875   5.604
 5863SOL    HW218489   2.758   0.754   5.701
 5864SOL     OW18490   4.195   3.915   1.766
 5864SOL    HW118491   4.114   3.859   1.750
 5864SOL    HW218492   4.276   3.869   1.729
 5865SOL     OW18493   5.375   0.559   3.704
 5865SOL    HW118494   5.353   0.531   3.798
 5865SOL    HW218495   5.332   0.496   3.640
 5866SOL     OW18496   4.074   6.241   6.781
 5866SOL    HW118497   4.073   6.190   6.695
 5866SOL    HW218498   4.015   6.321   6.772
 5867SOL     OW18499   0.276   3.178   0.614
 5867SOL    HW118500   0.267   3.095   0.558
 5867SOL    HW218501   0.318   3.154   0.702
 5868SOL     OW18502   0.154   0.337   4.901
 5868SOL    HW118503   0.197   0.330   4.811
 5868SOL    HW218504   0.118   0.430   4.913
 5869SOL     OW18505   2.217   5.042   3.732
 5869SOL    HW118506   2.222   5.132   3.688
 5869SOL    HW218507   2.222   4.970   3.663
 5870SOL     OW18508   4.871   5.448   4.938
 5870SOL    HW118509   4.913   5.506   4.869
 5870SOL    HW218510   4.939   5.384   4.975
 5871SOL     OW18511   3.984   3.997   6.954
 5871SOL    HW118512   3.899   3.994   6.902
 5871SOL    HW218513   3.965   4.024   0.022
 5872SOL     OW18514   3.935   6.024   0.044
 5872SOL    HW118515   3.883   5.971   7.004
 5872SOL    HW218516   4.033   6.011   0.028
 5873SOL     OW18517   2.116   2.617   0.273
 5873SOL    HW118518   2.063   2.592   0.354
 5873SOL    HW218519   2.071   2.693   0.226
 5874SOL     OW18520   2.823   3.100   1.422
 5874SOL    HW118521   2.874   3.145   1.495
 5874SOL    HW218522   2.790   3.168   1.357
 5875SOL     OW18523   3.784   1.432   0.484
 5875SOL    HW118524   3.784   1.514   0.541
 5875SOL    HW218525   3.871   1.384   0.495
 5876SOL     OW18526   3.324   3.044   6.825
 5876SOL    HW118527   3.338   2.945   6.823
 5876SOL    HW218528   3.261   3.067   6.900
 5877SOL     OW18529   6.248   6.392   1.490
 5877SOL    HW118530   6.220   6.306   1.534
 5877SOL    HW218531   6.347   6.391   1.476
 5878SOL     OW18532   5.698   5.678   2.946
 5878SOL    HW118533   5.679   5.763   2.897
 5878SOL    HW218534   5.646   5.676   3.031
 5879SOL     OW18535   3.650   3.008   6.013
 5879SOL    HW118536   3.576   2.996   6.079
 5879SOL    HW218537   3.615   3.058   5.933
 5880SOL     OW18538   4.588   3.614   5.571
 5880SOL    HW118539   4.509   3.555   5.557
 5880SOL    HW218540   4.561   3.710   5.560
 5881SOL     OW18541   1.401   6.721   2.447
 5881SOL    HW118542   1.444   6.650   2.504
 5881SOL    HW218543   1.464   6.748   2.375
 5882SOL     OW18544   1.355   6.588   5.665
 5882SOL    HW118545   1.353   6.496   5.703
 5882SOL    HW218546   1.262   6.614   5.637
 5883SOL     OW18547   6.818   2.853   0.639
 5883SOL    HW118548   6.887   2.923   0.617
 5883SOL    HW218549   6.831   2.822   0.733
 5884SOL     OW18550   6.645   0.973   3.796
 5884SOL    HW118551   6.606   0.881   3.803
 5884SOL    HW218552   6.706   0.989   3.874
 5885SOL     OW18553   0.386   5.851   0.854
 5885SOL    HW118554   0.425   5.857   0.946
 5885SOL    HW218555   0.414   5.931   0.801
 5886SOL     OW18556   1.506   3.035   3.077
 5886SOL    HW118557   1.572   2.973   3.120
 5886SOL    HW218558   1.420   2.987   3.063
 5887SOL     OW18559   2.341   2.149   1.655
 5887SOL    HW118560   2.258   2.203   1.647
 5887SOL    HW218561   2.317   2.054   1.679
 5888SOL     OW18562   2.962   0.154   0.744
 5888SOL    HW118563   2.947   0.248   0.713
 5888SOL    HW218564   2.874   0.107   0.753
 5889SOL     OW18565   6.815   1.665   1.293
 5889SOL    HW118566   6.814   1.660   1.193
 5889SOL    HW218567   6.910   1.670   1.325
 5890SOL     OW18568   2.113   6.289   2.653
 5890SOL    HW118569   2.084   6.294   2.748
 5890SOL    HW218570   2.212   6.273   2.649
 5891SOL     OW18571   2.908   3.285   0.483
 5891SOL    HW118572   2.863   3.241   0.405
 5891SOL    HW218573   2.951   3.216   0.541
 5892SOL     OW18574   0.258   3.853   0.528
 5892SOL    HW118575   0.196   3.829   0.453
 5892SOL    HW218576   0.223   3.816   0.614
 5893SOL     OW18577   1.004   5.135   1.667
 5893SOL    HW118578   1.078   5.171   1.610
 5893SOL    HW218579   0.993   5.194   1.747
 5894SOL     OW18580   0.886   5.890   5.908
 5894SOL    HW118581   0.862   5.912   5.814
 5894SOL    HW218582   0.930   5.800   5.911
 5895SOL     OW18583   6.405   3.279   4.957
 5895SOL    HW118584   6.356   3.320   4.879
 5895SOL    HW218585   6.370   3.318   5.042
 5896SOL     OW18586   5.324   1.465   1.884
 5896SOL    HW118587   5.282   1.456   1.794
 5896SOL    HW218588   5.273   1.532   1.938
 5897SOL     OW18589   3.977   1.542   1.734
 5897SOL    HW118590   3.905   1.497   1.680
 5897SOL    HW218591   4.057   1.559   1.676
 5898SOL     OW18592   1.945   1.436   5.699
 5898SOL    HW118593   2.029   1.434   5.644
 5898SOL    HW218594   1.910   1.343   5.709
 5899SOL     OW18595   6.399   5.356   6.499
 5899SOL    HW118596   6.374   5.382   6.405
 5899SOL    HW218597   6.361   5.265   6.519
 5900SOL     OW18598   0.459   5.422   2.949
 5900SOL    HW118599   0.509   5.409   3.035
 5900SOL    HW218600   0.461   5.337   2.896
 5901SOL     OW18601   1.092   0.424   6.568
 5901SOL    HW118602   1.107   0.438   6.666
 5901SOL    HW218603   1.157   0.357   6.533
 5902SOL     OW18604   5.596   3.649   4.825
 5902SOL    HW118605   5.594   3.703   4.740
 5902SOL    HW218606   5.528   3.685   4.888
 5903SOL     OW18607   5.454   2.762   6.845
 5903SOL    HW118608   5.526   2.715   6.897
 5903SOL    HW218609   5.437   2.712   6.760
 5904SOL     OW18610   1.316   4.944   1.992
 5904SOL    HW118611   1.327   4.975   1.898
 5904SOL    HW218612   1.229   4.896   2.002
 5905SOL     OW18613   5.210   0.969   3.617
 5905SOL    HW118614   5.144   1.000   3.548
 5905SOL    HW218615   5.190   1.012   3.705
 5906SOL     OW18616   5.780   1.167   5.482
 5906SOL    HW118617   5.852   1.158   5.412
 5906SOL    HW218618   5.767   1.078   5.527
 5907SOL     OW18619   1.635   1.080   0.052
 5907SOL    HW118620   1.641   0.981   0.038
 5907SOL    HW218621   1.726   1.114   0.077
 5908SOL     OW18622   4.244   3.354   6.995
 5908SOL    HW118623   4.223   3.418   0.043
 5908SOL    HW218624   4.235   3.400   6.907
 5909SOL     OW18625   0.488   4.541   5.485
 5909SOL    HW118626   0.571   4.595   5.471
 5909SOL    HW218627   0.463   4.497   5.399
 5910SOL     OW18628   1.793   3.843   1.730
 5910SOL    HW118629   1.770   3.937   1.756
 5910SOL    HW218630   1.892   3.833   1.728
 5911SOL     OW18631   6.821   5.436   6.252
 5911SOL    HW118632   6.755   5.367   6.221
 5911SOL    HW218633   6.802   5.459   6.348
 5912SOL     OW18634   6.132   3.307   6.875
 5912SOL    HW118635   6.036   3.327   6.854
 5912SOL    HW218636   6.139   3.271   6.968
 5913SOL     OW18637   2.307   2.858   5.548
 5913SOL    HW118638   2.362   2.869   5.631
 5913SOL    HW218639   2.251   2.775   5.556
 5914SOL     OW18640   2.619   5.810   0.442
 5914SOL    HW118641   2.589   5.859   0.524
 5914SOL    HW218642   2.679   5.869   0.388
 5915SOL     OW18643   5.774   2.830   2.837
 5915SOL    HW118644   5.736   2.783   2.758
 5915SOL    HW218645   5.757   2.928   2.830
 5916SOL     OW18646   4.247   0.092   5.575
 5916SOL    HW118647   4.312   0.166   5.595
 5916SOL    HW218648   4.155   0.130   5.569
 5917SOL     OW18649   3.434   2.881   3.548
 5917SOL    HW118650   3.363   2.895   3.617
 5917SOL    HW218651   3.394   2.883   3.457
 5918SOL     OW18652   1.365   3.716   4.306
 5918SOL    HW118653   1.372   3.747   4.211
 5918SOL    HW218654   1.386   3.792   4.367
 5919SOL     OW18655   2.788   2.491   0.636
 5919SOL    HW118656   2.861   2.472   0.571
 5919SOL    HW218657   2.817   2.562   0.699
 5920SOL     OW18658   2.954   6.709   6.878
 5920SOL    HW118659   2.959   6.635   6.945
 5920SOL    HW218660   2.977   6.796   6.923
 5921SOL     OW18661   3.908   5.237   6.109
 5921SOL    HW118662   3.971   5.310   6.085
 5921SOL    HW218663   3.856   5.209   6.029
 5922SOL     OW18664   6.684   4.877   3.068
 5922SOL    HW118665   6.753   4.813   3.035
 5922SOL    HW218666   6.673   4.865   3.167
 5923SOL     OW18667   6.295   0.354   3.772
 5923SOL    HW118668   6.364   0.283   3.756
 5923SOL    HW218669   6.250   0.337   3.860
 5924SOL     OW18670   5.267   2.371   4.820
 5924SOL    HW118671   5.170   2.347   4.828
 5924SOL    HW218672   5.300   2.345   4.729
 5925SOL     OW18673   5.019   5.648   2.670
 5925SOL    HW118674   4.976   5.717   2.729
 5925SOL    HW218675   4.951   5.579   2.645
 5926SOL     OW18676   3.893   5.514   1.571
 5926SOL    HW118677   3.838   5.457   1.510
 5926SOL    HW218678   3.854   5.511   1.663
 5927SOL     OW18679   2.572   6.100   1.587
 5927SOL    HW118680   2.605   6.086   1.680
 5927SOL    HW218681   2.549   6.197   1.574
 5928SOL     OW18682   1.974   0.818   2.271
 5928SOL    HW118683   2.008   0.728   2.298
 5928SOL    HW218684   1.934   0.863   2.351
 5929SOL     OW18685   1.019   6.683   5.774
 5929SOL    HW118686   1.074   6.692   5.691
 5929SOL    HW218687   0.973   6.595   5.775
 5930SOL     OW18688   6.067   1.547   4.109
 5930SOL    HW118689   6.137   1.603   4.065
 5930SOL    HW218690   6.041   1.472   4.049
 5931SOL     OW18691   6.045   5.258   1.942
 5931SOL    HW118692   6.019   5.337   1.887
 5931SOL    HW218693   6.137   5.272   1.980
 5932SOL     OW18694   2.484   6.454   0.828
 5932SOL    HW118695   2.532   6.524   0.881
 5932SOL    HW218696   2.390   6.484   0.811
 5933SOL     OW18697   0.450   3.810   2.168
 5933SOL    HW118698   0.353   3.807   2.145
 5933SOL    HW218699   0.464   3.875   2.243
 5934SOL     OW18700   3.743   3.299   3.114
 5934SOL    HW118701   3.721   3.389   3.079
 5934SOL    HW218702   3.711   3.291   3.209
 5935SOL     OW18703   3.576   4.123   4.694
 5935SOL    HW118704   3.651   4.163   4.746
 5935SOL    HW218705   3.505   4.090   4.757
 5936SOL     OW18706   4.771   4.355   6.677
 5936SOL    HW118707   4.707   4.279   6.668
 5936SOL    HW218708   4.763   4.415   6.597
 5937SOL     OW18709   0.580   3.791   1.436
 5937SOL    HW118710   0.672   3.811   1.471
 5937SOL    HW218711   0.540   3.876   1.400
 5938SOL     OW18712   1.902   4.774   3.565
 5938SOL    HW118713   1.827   4.710   3.582
 5938SOL    HW218714   1.864   4.863   3.539
 5939SOL     OW18715   3.380   0.913   3.060
 5939SOL    HW118716   3.318   0.838   3.088
 5939SOL    HW218717   3.451   0.925   3.130
 5940SOL     OW18718   3.809   6.499   2.154
 5940SOL    HW118719   3.894   6.543   2.184
 5940SOL    HW218720   3.731   6.551   2.188
 5941SOL     OW18721   6.174   4.864   1.936
 5941SOL    HW118722   6.221   4.888   2.021
 5941SOL    HW218723   6.235   4.809   1.878
 5942SOL     OW18724   4.114   2.966   6.478
 5942SOL    HW118725   4.176   2.916   6.418
 5942SOL    HW218726   4.166   3.025   6.539
 5943SOL     OW18727   2.125   5.713   0.784
 5943SOL    HW118728   2.108   5.681   0.878
 5943SOL    HW218729   2.057   5.673   0.723
 5944SOL     OW18730   4.942   1.276   2.065
 5944SOL    HW118731   4.870   1.344   2.081
 5944SOL    HW218732   4.912   1.212   1.994
 5945SOL     OW18733   6.769   5.136   5.037
 5945SOL    HW118734   6.735   5.044   5.055
 5945SOL    HW218735   6.850   5.132   4.979
 5946SOL     OW18736   3.401   4.173   5.970
 5946SOL    HW118737   3.489   4.127   5.981
 5946SOL    HW218738   3.328   4.105   5.967
 5947SOL     OW18739   4.208   3.223   1.718
 5947SOL    HW118740   4.218   3.125   1.698
 5947SOL    HW218741   4.119   3.254   1.686
 5948SOL     OW18742   3.687   4.909   3.024
 5948SOL    HW118743   3.738   4.825   3.038
 5948SOL    HW218744   3.747   4.988   3.038
 5949SOL     OW18745   3.825   4.864   1.189
 5949SOL    HW118746   3.819   4.802   1.111
 5949SOL    HW218747   3.817   4.959   1.156
 5950SOL     OW18748   6.222   2.093   4.263
 5950SOL    HW118749   6.160   2.063   4.191
 5950SOL    HW218750   6.247   2.015   4.320
 5951SOL     OW18751   1.189   6.532   4.195
 5951SOL    HW118752   1.267   6.576   4.151
 5951SOL    HW218753   1.165   6.448   4.145
 5952SOL     OW18754   6.594   5.589   3.913
 5952SOL    HW118755   6.650   5.605   3.993
 5952SOL    HW218756   6.638   5.522   3.854
 5953SOL     OW18757   6.949   3.188   5.244
 5953SOL    HW118758   6.999   3.155   5.164
 5953SOL    HW218759   6.878   3.123   5.269
 5954SOL     OW18760   6.843   4.471   5.980
 5954SOL    HW118761   6.854   4.570   5.966
 5954SOL    HW218762   6.932   4.429   5.995
 5955SOL     OW18763   5.638   5.463   2.067
 5955SOL    HW118764   5.695   5.545   2.067
 5955SOL    HW218765   5.544   5.487   2.092
 5956SOL     OW18766   3.885   1.849   0.141
 5956SOL    HW118767   3.922   1.890   0.057
 5956SOL    HW218768   3.844   1.760   0.119
 5957SOL     OW18769   5.274   6.335   6.407
 5957SOL    HW118770   5.276   6.423   6.361
 5957SOL    HW218771   5.345   6.276   6.369
 5958SOL     OW18772   6.640   6.356   2.301
 5958SOL    HW118773   6.626   6.426   2.371
 5958SOL    HW218774   6.552   6.319   2.272
 5959SOL     OW18775   3.153   2.141   5.733
 5959SOL    HW118776   3.129   2.116   5.826
 5959SOL    HW218777   3.096   2.090   5.668
 5960SOL     OW18778   2.895   0.178   3.956
 5960SOL    HW118779   2.900   0.233   3.872
 5960SOL    HW218780   2.979   0.125   3.966
 5961SOL     OW18781   3.713   1.160   4.773
 5961SOL    HW118782   3.656   1.121   4.701
 5961SOL    HW218783   3.662   1.164   4.858
 5962SOL     OW18784   4.895   5.386   2.809
 5962SOL    HW118785   4.849   5.319   2.867
 5962SOL    HW218786   4.921   5.465   2.863
 5963SOL     OW18787   3.752   3.723   3.654
 5963SOL    HW118788   3.691   3.775   3.594
 5963SOL    HW218789   3.845   3.758   3.644
 5964SOL     OW18790   6.680   5.111   6.633
 5964SOL    HW118791   6.653   5.193   6.583
 5964SOL    HW218792   6.647   5.117   6.727
 5965SOL     OW18793   1.548   2.363   6.259
 5965SOL    HW118794   1.647   2.360   6.246
 5965SOL    HW218795   1.523   2.448   6.306
 5966SOL     OW18796   2.957   5.688   4.955
 5966SOL    HW118797   2.998   5.613   4.903
 5966SOL    HW218798   3.010   5.771   4.939
 5967SOL     OW18799   4.607   6.470   2.698
 5967SOL    HW118800   4.548   6.404   2.651
 5967SOL    HW218801   4.642   6.536   2.631
 5968SOL     OW18802   6.438   2.029   3.082
 5968SOL    HW118803   6.534   2.034   3.054
 5968SOL    HW218804   6.381   2.077   3.015
 5969SOL     OW18805   6.206   3.070   4.507
 5969SOL    HW118806   6.174   3.111   4.593
 5969SOL    HW218807   6.131   3.069   4.440
 5970SOL     OW18808   0.857   3.781   2.946
 5970SOL    HW118809   0.949   3.790   2.982
 5970SOL    HW218810   0.852   3.821   2.855
 5971SOL     OW18811   1.905   0.255   3.126
 5971SOL    HW118812   1.977   0.260   3.057
 5971SOL    HW218813   1.841   0.182   3.102
 5972SOL     OW18814   4.887   6.409   0.567
 5972SOL    HW118815   4.887   6.459   0.653
 5972SOL    HW218816   4.981   6.384   0.542
 5973SOL     OW18817   1.871   5.039   2.525
 5973SOL    HW118818   1.967   5.014   2.535
 5973SOL    HW218819   1.815   4.982   2.585
 5974SOL     OW18820   6.598   4.064   5.981
 5974SOL    HW118821   6.693   4.033   5.990
 5974SOL    HW218822   6.597   4.163   5.965
 5975SOL     OW18823   3.901   2.307   0.800
 5975SOL    HW118824   3.858   2.394   0.779
 5975SOL    HW218825   3.890   2.288   0.898
 5976SOL     OW18826   3.423   2.935   4.574
 5976SOL    HW118827   3.474   2.924   4.489
 5976SOL    HW218828   3.361   3.013   4.566
 5977SOL     OW18829   1.748   4.468   2.090
 5977SOL    HW118830   1.698   4.468   2.003
 5977SOL    HW218831   1.690   4.429   2.162
 5978SOL     OW18832   5.310   4.061   2.642
 5978SOL    HW118833   5.325   4.038   2.545
 5978SOL    HW218834   5.212   4.070   2.659
 5979SOL     OW18835   6.117   0.276   3.584
 5979SOL    HW118836   6.191   0.307   3.645
 5979SOL    HW218837   6.147   0.284   3.489
 5980SOL     OW18838   4.591   4.414   0.131
 5980SOL    HW118839   4.658   4.432   0.059
 5980SOL    HW218840   4.577   4.496   0.185
 5981SOL     OW18841   6.640   1.674   1.824
 5981SOL    HW118842   6.591   1.596   1.785
 5981SOL    HW218843   6.660   1.656   1.921
 5982SOL     OW18844   6.407   2.215   6.800
 5982SOL    HW118845   6.482   2.237   6.738
 5982SOL    HW218846   6.391   2.116   6.799
 5983SOL     OW18847   1.993   1.991   4.229
 5983SOL    HW118848   1.984   2.051   4.309
 5983SOL    HW218849   1.909   1.938   4.218
 5984SOL     OW18850   0.184   6.166   4.490
 5984SOL    HW118851   0.106   6.222   4.520
 5984SOL    HW218852   0.226   6.123   4.570
 5985SOL     OW18853   5.592   2.103   3.270
 5985SOL    HW118854   5.539   2.038   3.324
 5985SOL    HW218855   5.690   2.090   3.288
 5986SOL     OW18856   3.105   3.050   3.390
 5986SOL    HW118857   3.112   3.064   3.489
 5986SOL    HW218858   3.038   3.115   3.353
 5987SOL     OW18859   4.677   0.613   5.290
 5987SOL    HW118860   4.689   0.533   5.349
 5987SOL    HW218861   4.618   0.589   5.213
 5988SOL     OW18862   4.060   6.920   4.607
 5988SOL    HW118863   3.965   6.914   4.637
 5988SOL    HW218864   4.105   6.997   4.654
 5989SOL     OW18865   2.177   7.002   6.634
 5989SOL    HW118866   2.198   0.033   6.554
 5989SOL    HW218867   2.099   0.015   6.683
 5990SOL     OW18868   3.613   4.580   0.598
 5990SOL    HW118869   3.532   4.538   0.556
 5990SOL    HW218870   3.690   4.576   0.534
 5991SOL     OW18871   3.971   5.114   5.424
 5991SOL    HW118872   3.899   5.169   5.466
 5991SOL    HW218873   3.930   5.046   5.362
 5992SOL     OW18874   3.573   1.073   3.935
 5992SOL    HW118875   3.599   1.078   3.838
 5992SOL    HW218876   3.628   1.004   3.981
 5993SOL     OW18877   3.070   6.318   5.498
 5993SOL    HW118878   3.103   6.235   5.544
 5993SOL    HW218879   3.029   6.379   5.566
 5994SOL     OW18880   6.064   2.081   1.930
 5994SOL    HW118881   5.995   2.147   1.960
 5994SOL    HW218882   6.155   2.121   1.940
 5995SOL     OW18883   6.938   5.574   1.032
 5995SOL    HW118884   6.865   5.552   1.097
 5995SOL    HW218885   6.998   5.495   1.021
 5996SOL     OW18886   0.339   5.670   6.943
 5996SOL    HW118887   0.257   5.616   6.919
 5996SOL    HW218888   0.334   5.759   6.898
 5997SOL     OW18889   0.567   0.346   1.708
 5997SOL    HW118890   0.513   0.345   1.792
 5997SOL    HW218891   0.659   0.379   1.727
 5998SOL     OW18892   5.087   2.080   2.436
 5998SOL    HW118893   5.182   2.055   2.417
 5998SOL    HW218894   5.041   2.003   2.480
 5999SOL     OW18895   1.409   1.891   3.498
 5999SOL    HW118896   1.413   1.884   3.598
 5999SOL    HW218897   1.384   1.984   3.472
 6000SOL     OW18898   4.166   5.200   2.299
 6000SOL    HW118899   4.187   5.131   2.368
 6000SOL    HW218900   4.077   5.180   2.258
 6001SOL     OW18901   6.824   3.499   6.773
 6001SOL    HW118902   6.921   3.475   6.767
 6001SOL    HW218903   6.814   3.586   6.822
 6002SOL     OW18904   0.663   7.020   1.135
 6002SOL    HW118905   0.740   7.016   1.199
 6002SOL    HW218906   0.583   6.975   1.176
 6003SOL     OW18907   5.380   3.749   4.946
 6003SOL    HW118908   5.300   3.727   4.889
 6003SOL    HW218909   5.355   3.742   5.042
 6004SOL     OW18910   0.470   3.775   3.198
 6004SOL    HW118911   0.539   3.835   3.158
 6004SOL    HW218912   0.512   3.721   3.272
 6005SOL     OW18913   4.127   5.347   4.100
 6005SOL    HW118914   4.156   5.256   4.071
 6005SOL    HW218915   4.206   5.408   4.099
 6006SOL     OW18916   2.952   7.017   6.678
 6006SOL    HW118917   2.862   0.033   6.686
 6006SOL    HW218918   2.981   6.983   6.767
 6007SOL     OW18919   5.437   3.099   3.679
 6007SOL    HW118920   5.418   3.007   3.644
 6007SOL    HW218921   5.449   3.162   3.602
 6008SOL     OW18922   3.342   5.258   5.620
 6008SOL    HW118923   3.352   5.325   5.547
 6008SOL    HW218924   3.427   5.206   5.629
 6009SOL     OW18925   2.721   2.035   4.716
 6009SOL    HW118926   2.701   2.026   4.619
 6009SOL    HW218927   2.671   2.114   4.752
 6010SOL     OW18928   2.200   4.355   2.460
 6010SOL    HW118929   2.226   4.325   2.368
 6010SOL    HW218930   2.133   4.290   2.498
 6011SOL     OW18931   5.237   2.696   1.858
 6011SOL    HW118932   5.278   2.626   1.916
 6011SOL    HW218933   5.274   2.688   1.765
 6012SOL     OW18934   0.045   2.191   6.701
 6012SOL    HW118935   0.138   2.223   6.684
 6012SOL    HW218936   0.044   2.091   6.701
 6013SOL     OW18937   6.413   1.199   1.789
 6013SOL    HW118938   6.490   1.261   1.774
 6013SOL    HW218939   6.353   1.237   1.859
 6014SOL     OW18940   5.988   1.616   0.869
 6014SOL    HW118941   6.045   1.571   0.938
 6014SOL    HW218942   5.976   1.554   0.791
 6015SOL     OW18943   5.840   1.940   5.269
 6015SOL    HW118944   5.915   1.880   5.298
 6015SOL    HW218945   5.759   1.922   5.325
 6016SOL     OW18946   0.675   1.042   5.782
 6016SOL    HW118947   0.616   1.092   5.846
 6016SOL    HW218948   0.700   1.103   5.707
 6017SOL     OW18949   6.055   5.332   3.803
 6017SOL    HW118950   5.969   5.282   3.813
 6017SOL    HW218951   6.107   5.295   3.727
 6018SOL     OW18952   3.137   3.092   0.294
 6018SOL    HW118953   3.156   3.003   0.253
 6018SOL    HW218954   3.134   3.083   0.394
 6019SOL     OW18955   4.659   1.252   3.235
 6019SOL    HW118956   4.723   1.328   3.246
 6019SOL    HW218957   4.575   1.286   3.193
 6020SOL     OW18958   3.252   0.082   2.419
 6020SOL    HW118959   3.308   0.104   2.339
 6020SOL    HW218960   3.197   0.001   2.400
 6021SOL     OW18961   4.589   0.847   2.928
 6021SOL    HW118962   4.650   0.900   2.987
 6021SOL    HW218963   4.629   0.758   2.910
 6022SOL     OW18964   4.878   1.407   3.231
 6022SOL    HW118965   4.932   1.325   3.215
 6022SOL    HW218966   4.829   1.432   3.148
 6023SOL     OW18967   6.507   0.710   3.298
 6023SOL    HW118968   6.471   0.783   3.356
 6023SOL    HW218969   6.560   0.646   3.354
 6024SOL     OW18970   0.473   4.782   2.348
 6024SOL    HW118971   0.438   4.789   2.441
 6024SOL    HW218972   0.523   4.865   2.325
 6025SOL     OW18973   4.271   0.901   1.929
 6025SOL    HW118974   4.194   0.961   1.907
 6025SOL    HW218975   4.288   0.904   2.027
 6026SOL     OW18976   0.429   5.178   5.223
 6026SOL    HW118977   0.359   5.153   5.290
 6026SOL    HW218978   0.385   5.200   5.136
 6027SOL     OW18979   2.036   4.278   6.268
 6027SOL    HW118980   2.125   4.237   6.291
 6027SOL    HW218981   2.035   4.300   6.170
 6028SOL     OW18982   1.760   4.425   0.668
 6028SOL    HW118983   1.662   4.439   0.653
 6028SOL    HW218984   1.796   4.497   0.727
 6029SOL     OW18985   1.957   6.241   0.576
 6029SOL    HW118986   1.869   6.195   0.569
 6029SOL    HW218987   2.024   6.177   0.615
 6030SOL     OW18988   2.577   0.948   2.552
 6030SOL    HW118989   2.481   0.961   2.527
 6030SOL    HW218990   2.620   1.037   2.566
 6031SOL     OW18991   5.123   6.181   5.806
 6031SOL    HW118992   5.133   6.178   5.706
 6031SOL    HW218993   5.037   6.227   5.829
 6032SOL     OW18994   1.688   3.374   2.806
 6032SOL    HW118995   1.753   3.353   2.733
 6032SOL    HW218996   1.616   3.433   2.769
 6033SOL     OW18997   2.198   1.996   3.262
 6033SOL    HW118998   2.176   2.029   3.171
 6033SOL    HW218999   2.225   2.073   3.320
 6034SOL     OW19000   2.728   4.825   4.478
 6034SOL    HW119001   2.676   4.806   4.561
 6034SOL    HW219002   2.819   4.785   4.485
 6035SOL     OW19003   5.281   0.908   4.182
 6035SOL    HW119004   5.301   0.813   4.206
 6035SOL    HW219005   5.360   0.965   4.202
 6036SOL     OW19006   0.110   6.846   4.909
 6036SOL    HW119007   0.035   6.811   4.854
 6036SOL    HW219008   0.154   6.922   4.862
 6037SOL     OW19009   4.736   4.502   5.639
 6037SOL    HW119010   4.665   4.567   5.665
 6037SOL    HW219011   4.820   4.551   5.615
 6038SOL     OW19012   0.457   3.216   6.325
 6038SOL    HW119013   0.472   3.207   6.227
 6038SOL    HW219014   0.496   3.136   6.372
 6039SOL     OW19015   3.371   3.670   2.418
 6039SOL    HW119016   3.352   3.675   2.320
 6039SOL    HW219017   3.457   3.621   2.433
 6040SOL     OW19018   0.899   1.837   6.255
 6040SOL    HW119019   0.982   1.857   6.308
 6040SOL    HW219020   0.913   1.861   6.159
 6041SOL     OW19021   0.825   2.141   6.954
 6041SOL    HW119022   0.877   2.065   6.917
 6041SOL    HW219023   0.743   2.107   6.999
 6042SOL     OW19024   5.561   5.161   2.431
 6042SOL    HW119025   5.527   5.068   2.416
 6042SOL    HW219026   5.627   5.183   2.359
 6043SOL     OW19027   1.419   4.715   4.635
 6043SOL    HW119028   1.427   4.634   4.576
 6043SOL    HW219029   1.491   4.711   4.705
 6044SOL     OW19030   0.315   1.650   1.251
 6044SOL    HW119031   0.411   1.648   1.224
 6044SOL    HW219032   0.308   1.665   1.349
 6045SOL     OW19033   5.760   5.750   0.766
 6045SOL    HW119034   5.852   5.711   0.773
 6045SOL    HW219035   5.704   5.693   0.706
 6046SOL     OW19036   2.686   2.323   0.110
 6046SOL    HW119037   2.768   2.368   0.145
 6046SOL    HW219038   2.686   2.328   0.010
 6047SOL     OW19039   6.386   0.779   4.117
 6047SOL    HW119040   6.313   0.841   4.089
 6047SOL    HW219041   6.346   0.696   4.157
 6048SOL     OW19042   3.725   0.607   3.704
 6048SOL    HW119043   3.665   0.685   3.689
 6048SOL    HW219044   3.816   0.628   3.669
 6049SOL     OW19045   4.400   3.212   6.384
 6049SOL    HW119046   4.425   3.295   6.334
 6049SOL    HW219047   4.347   3.151   6.324
 6050SOL     OW19048   3.642   4.370   5.528
 6050SOL    HW119049   3.671   4.432   5.601
 6050SOL    HW219050   3.580   4.301   5.565
 6051SOL     OW19051   2.032   2.592   2.520
 6051SOL    HW119052   1.957   2.652   2.492
 6051SOL    HW219053   2.085   2.565   2.440
 6052SOL     OW19054   6.691   0.799   0.155
 6052SOL    HW119055   6.752   0.745   0.097
 6052SOL    HW219056   6.673   0.749   0.239
 6053SOL     OW19057   3.720   0.494   0.089
 6053SOL    HW119058   3.648   0.532   0.032
 6053SOL    HW219059   3.789   0.449   0.031
 6054SOL     OW19060   1.983   4.425   1.339
 6054SOL    HW119061   1.928   4.503   1.370
 6054SOL    HW219062   1.935   4.340   1.361
 6055SOL     OW19063   5.382   1.137   5.423
 6055SOL    HW119064   5.332   1.216   5.459
 6055SOL    HW219065   5.346   1.114   5.332
 6056SOL     OW19066   4.602   1.454   6.062
 6056SOL    HW119067   4.598   1.491   6.155
 6056SOL    HW219068   4.602   1.354   6.066
 6057SOL     OW19069   4.550   1.023   5.265
 6057SOL    HW119070   4.525   1.076   5.346
 6057SOL    HW219071   4.470   1.014   5.206
 6058SOL     OW19072   5.517   3.299   4.290
 6058SOL    HW119073   5.470   3.269   4.373
 6058SOL    HW219074   5.449   3.337   4.227
 6059SOL     OW19075   4.775   5.464   6.287
 6059SOL    HW119076   4.799   5.544   6.232
 6059SOL    HW219077   4.858   5.423   6.324
 6060SOL     OW19078   3.877   4.310   5.930
 6060SOL    HW119079   3.948   4.296   5.860
 6060SOL    HW219080   3.905   4.385   5.991
 6061SOL     OW19081   3.471   2.081   6.755
 6061SOL    HW119082   3.431   2.104   6.666
 6061SOL    HW219083   3.405   2.028   6.809
 6062SOL     OW19084   2.377   1.158   4.881
 6062SOL    HW119085   2.381   1.095   4.959
 6062SOL    HW219086   2.458   1.217   4.882
 6063SOL     OW19087   4.308   0.466   6.566
 6063SOL    HW119088   4.352   0.548   6.604
 6063SOL    HW219089   4.370   0.421   6.503
 6064SOL     OW19090   1.581   5.595   3.030
 6064SOL    HW119091   1.625   5.673   3.075
 6064SOL    HW219092   1.600   5.598   2.932
 6065SOL     OW19093   6.324   6.795   0.779
 6065SOL    HW119094   6.395   6.781   0.710
 6065SOL    HW219095   6.281   6.707   0.801
 6066SOL     OW19096   4.405   1.801   1.226
 6066SOL    HW119097   4.471   1.872   1.204
 6066SOL    HW219098   4.322   1.814   1.171
 6067SOL     OW19099   6.406   1.610   6.200
 6067SOL    HW119100   6.399   1.562   6.287
 6067SOL    HW219101   6.501   1.608   6.168
 6068SOL     OW19102   4.771   2.936   4.959
 6068SOL    HW119103   4.815   3.008   4.905
 6068SOL    HW219104   4.840   2.884   5.008
 6069SOL     OW19105   6.916   3.932   5.541
 6069SOL    HW119106   6.862   3.975   5.613
 6069SOL    HW219107   6.932   3.836   5.564
 6070SOL     OW19108   4.288   1.739   6.478
 6070SOL    HW119109   4.228   1.818   6.495
 6070SOL    HW219110   4.263   1.697   6.391
 6071SOL     OW19111   4.219   5.958   5.974
 6071SOL    HW119112   4.319   5.959   5.966
 6071SOL    HW219113   4.179   5.951   5.883
 6072SOL     OW19114   1.092   1.970   1.546
 6072SOL    HW119115   1.072   2.025   1.627
 6072SOL    HW219116   1.099   2.030   1.466
 6073SOL     OW19117   6.168   3.269   0.213
 6073SOL    HW119118   6.216   3.243   0.297
 6073SOL    HW219119   6.132   3.187   0.168
 6074SOL     OW19120   1.051   6.691   4.690
 6074SOL    HW119121   1.064   6.616   4.756
 6074SOL    HW219122   0.973   6.669   4.631
 6075SOL     OW19123   6.751   3.290   6.975
 6075SOL    HW119124   6.710   3.234   6.902
 6075SOL    HW219125   6.741   3.387   6.952
 6076SOL     OW19126   2.507   6.430   4.741
 6076SOL    HW119127   2.518   6.424   4.840
 6076SOL    HW219128   2.594   6.457   4.699
 6077SOL     OW19129   5.437   5.771   2.751
 6077SOL    HW119130   5.361   5.830   2.779
 6077SOL    HW219131   5.524   5.817   2.769
 6078SOL     OW19132   3.295   5.166   3.755
 6078SOL    HW119133   3.299   5.232   3.831
 6078SOL    HW219134   3.256   5.210   3.674
 6079SOL     OW19135   2.451   3.336   0.061
 6079SOL    HW119136   2.523   3.284   0.016
 6079SOL    HW219137   2.363   3.311   0.022
 6080SOL     OW19138   6.304   1.882   0.865
 6080SOL    HW119139   6.301   1.786   0.839
 6080SOL    HW219140   6.211   1.915   0.882
 6081SOL     OW19141   6.631   3.420   4.140
 6081SOL    HW119142   6.639   3.495   4.206
 6081SOL    HW219143   6.655   3.454   4.049
 6082SOL     OW19144   3.793   0.220   3.076
 6082SOL    HW119145   3.846   0.294   3.117
 6082SOL    HW219146   3.841   0.184   2.997
 6083SOL     OW19147   1.308   5.216   6.712
 6083SOL    HW119148   1.385   5.164   6.674
 6083SOL    HW219149   1.265   5.269   6.640
 6084SOL     OW19150   6.546   5.176   4.707
 6084SOL    HW119151   6.547   5.238   4.629
 6084SOL    HW219152   6.514   5.086   4.679
 6085SOL     OW19153   7.007   3.906   0.068
 6085SOL    HW119154   0.018   3.988   0.113
 6085SOL    HW219155   6.916   3.886   0.104
 6086SOL     OW19156   3.807   1.214   4.116
 6086SOL    HW119157   3.807   1.279   4.192
 6086SOL    HW219158   3.833   1.260   4.031
 6087SOL     OW19159   5.672   6.708   0.214
 6087SOL    HW119160   5.752   6.712   0.274
 6087SOL    HW219161   5.690   6.760   0.131
 6088SOL     OW19162   0.080   6.647   4.624
 6088SOL    HW119163   0.084   6.650   4.524
 6088SOL    HW219164   0.028   6.726   4.658
 6089SOL     OW19165   0.437   3.766   1.015
 6089SOL    HW119166   0.449   3.668   0.998
 6089SOL    HW219167   0.386   3.780   1.100
 6090SOL     OW19168   0.510   6.151   5.951
 6090SOL    HW119169   0.467   6.066   5.921
 6090SOL    HW219170   0.441   6.211   5.991
 6091SOL     OW19171   6.887   1.708   1.645
 6091SOL    HW119172   6.824   1.657   1.704
 6091SOL    HW219173   6.890   1.804   1.674
 6092SOL     OW19174   2.582   0.721   2.304
 6092SOL    HW119175   2.513   0.768   2.248
 6092SOL    HW219176   2.651   0.787   2.334
 6093SOL     OW19177   1.978   3.571   1.404
 6093SOL    HW119178   2.055   3.513   1.433
 6093SOL    HW219179   1.991   3.598   1.308
 6094SOL     OW19180   1.791   1.513   1.150
 6094SOL    HW119181   1.765   1.493   1.245
 6094SOL    HW219182   1.890   1.529   1.146
 6095SOL     OW19183   5.253   3.198   6.946
 6095SOL    HW119184   5.213   3.286   6.969
 6095SOL    HW219185   5.325   3.175   7.012
 6096SOL     OW19186   5.293   1.224   3.809
 6096SOL    HW119187   5.233   1.145   3.810
 6096SOL    HW219188   5.339   1.230   3.720
 6097SOL     OW19189   2.093   0.743   2.667
 6097SOL    HW119190   1.999   0.731   2.634
 6097SOL    HW219191   2.116   0.840   2.663
 6098SOL     OW19192   1.915   2.582   6.309
 6098SOL    HW119193   2.012   2.559   6.309
 6098SOL    HW219194   1.863   2.508   6.266
 6099SOL     OW19195   5.554   5.549   5.164
 6099SOL    HW119196   5.467   5.573   5.121
 6099SOL    HW219197   5.560   5.594   5.253
 6100SOL     OW19198   6.644   3.424   6.267
 6100SOL    HW119199   6.690   3.513   6.274
 6100SOL    HW219200   6.581   3.413   6.344
 6101SOL     OW19201   6.815   2.308   5.807
 6101SOL    HW119202   6.716   2.306   5.819
 6101SOL    HW219203   6.851   2.394   5.843
 6102SOL     OW19204   2.738   0.762   4.662
 6102SOL    HW119205   2.686   0.830   4.714
 6102SOL    HW219206   2.834   0.765   4.691
 6103SOL     OW19207   0.236   0.830   3.969
 6103SOL    HW119208   0.273   0.913   3.926
 6103SOL    HW219209   0.138   0.841   3.983
 6104SOL     OW19210   5.796   1.926   6.894
 6104SOL    HW119211   5.795   1.858   6.968
 6104SOL    HW219212   5.705   1.964   6.883
 6105SOL     OW19213   3.674   5.692   6.456
 6105SOL    HW119214   3.695   5.662   6.363
 6105SOL    HW219215   3.579   5.725   6.459
 6106SOL     OW19216   3.262   4.853   6.633
 6106SOL    HW119217   3.343   4.805   6.600
 6106SOL    HW219218   3.231   4.918   6.563
 6107SOL     OW19219   2.217   4.700   4.889
 6107SOL    HW119220   2.270   4.644   4.825
 6107SOL    HW219221   2.258   4.791   4.895
 6108SOL     OW19222   0.643   1.999   3.856
 6108SOL    HW119223   0.729   2.048   3.847
 6108SOL    HW219224   0.639   1.956   3.946
 6109SOL     OW19225   4.797   2.523   0.378
 6109SOL    HW119226   4.890   2.510   0.413
 6109SOL    HW219227   4.791   2.612   0.333
 6110SOL     OW19228   3.492   2.243   6.027
 6110SOL    HW119229   3.584   2.272   6.053
 6110SOL    HW219230   3.487   2.234   5.928
 6111SOL     OW19231   0.773   4.650   2.982
 6111SOL    HW119232   0.719   4.729   3.010
 6111SOL    HW219233   0.763   4.577   3.050
 6112SOL     OW19234   2.031   1.778   3.020
 6112SOL    HW119235   2.014   1.696   2.967
 6112SOL    HW219236   2.075   1.847   2.962
 6113SOL     OW19237   1.309   0.377   6.198
 6113SOL    HW119238   1.275   0.313   6.128
 6113SOL    HW219239   1.278   0.469   6.176
 6114SOL     OW19240   5.232   5.627   0.060
 6114SOL    HW119241   5.174   5.610   7.006
 6114SOL    HW219242   5.305   5.558   0.064
 6115SOL     OW19243   4.967   5.264   3.156
 6115SOL    HW119244   4.984   5.176   3.111
 6115SOL    HW219245   5.032   5.332   3.121
 6116SOL     OW19246   2.807   1.197   1.900
 6116SOL    HW119247   2.770   1.112   1.863
 6116SOL    HW219248   2.895   1.178   1.943
 6117SOL     OW19249   6.110   6.869   4.173
 6117SOL    HW119250   6.149   6.927   4.102
 6117SOL    HW219251   6.011   6.879   4.173
 6118SOL     OW19252   6.364   1.511   2.623
 6118SOL    HW119253   6.346   1.522   2.721
 6118SOL    HW219254   6.347   1.598   2.576
 6119SOL     OW19255   0.662   4.740   5.179
 6119SOL    HW119256   0.646   4.831   5.142
 6119SOL    HW219257   0.676   4.675   5.104
 6120SOL     OW19258   3.137   0.055   3.705
 6120SOL    HW119259   3.198   0.125   3.742
 6120SOL    HW219260   3.077   0.096   3.636
 6121SOL     OW19261   0.578   2.745   3.636
 6121SOL    HW119262   0.652   2.684   3.664
 6121SOL    HW219263   0.565   2.738   3.537
 6122SOL     OW19264   3.835   6.130   2.944
 6122SOL    HW119265   3.761   6.153   3.007
 6122SOL    HW219266   3.805   6.056   2.884
 6123SOL     OW19267   6.814   1.008   1.255
 6123SOL    HW119268   6.731   1.060   1.275
 6123SOL    HW219269   6.893   1.069   1.253
 6124SOL     OW19270   3.376   0.275   5.150
 6124SOL    HW119271   3.458   0.267   5.094
 6124SOL    HW219272   3.393   0.339   5.225
 6125SOL     OW19273   2.146   6.348   1.732
 6125SOL    HW119274   2.217   6.413   1.760
 6125SOL    HW219275   2.190   6.266   1.695
 6126SOL     OW19276   5.031   5.007   3.663
 6126SOL    HW119277   4.961   4.962   3.719
 6126SOL    HW219278   5.057   5.093   3.706
 6127SOL     OW19279   2.266   6.581   1.488
 6127SOL    HW119280   2.235   6.499   1.537
 6127SOL    HW219281   2.286   6.653   1.555
 6128SOL     OW19282   0.033   3.312   0.618
 6128SOL    HW119283   0.022   3.405   0.583
 6128SOL    HW219284   0.130   3.288   0.616
 6129SOL     OW19285   6.174   3.595   3.064
 6129SOL    HW119286   6.155   3.524   2.996
 6129SOL    HW219287   6.090   3.649   3.079
 6130SOL     OW19288   5.756   2.778   3.516
 6130SOL    HW119289   5.723   2.756   3.424
 6130SOL    HW219290   5.742   2.699   3.576
 6131SOL     OW19291   0.023   1.467   5.885
 6131SOL    HW119292   0.058   1.479   5.978
 6131SOL    HW219293   0.083   1.405   5.835
 6132SOL     OW19294   3.743   2.162   6.935
 6132SOL    HW119295   3.703   2.250   6.910
 6132SOL    HW219296   3.766   2.111   6.853
 6133SOL     OW19297   0.365   3.374   1.589
 6133SOL    HW119298   0.428   3.298   1.605
 6133SOL    HW219299   0.410   3.460   1.610
 6134SOL     OW19300   3.211   3.363   6.876
 6134SOL    HW119301   3.132   3.425   6.873
 6134SOL    HW219302   3.183   3.277   6.921
 6135SOL     OW19303   6.480   6.927   0.973
 6135SOL    HW119304   6.447   7.004   1.028
 6135SOL    HW219305   6.404   6.889   0.920
 6136SOL     OW19306   1.070   1.498   2.368
 6136SOL    HW119307   1.138   1.558   2.411
 6136SOL    HW219308   1.079   1.504   2.268
 6137SOL     OW19309   3.467   6.895   5.459
 6137SOL    HW119310   3.519   6.895   5.374
 6137SOL    HW219311   3.372   6.920   5.440
 6138SOL     OW19312   3.951   6.345   2.365
 6138SOL    HW119313   3.983   6.376   2.454
 6138SOL    HW219314   3.859   6.382   2.348
 6139SOL     OW19315   1.749   3.909   5.188
 6139SOL    HW119316   1.769   3.870   5.278
 6139SOL    HW219317   1.808   3.989   5.173
 6140SOL     OW19318   0.975   0.071   1.668
 6140SOL    HW119319   0.961   0.030   1.758
 6140SOL    HW219320   1.072   0.067   1.645
 6141SOL     OW19321   6.888   5.438   5.341
 6141SOL    HW119322   6.815   5.435   5.272
 6141SOL    HW219323   6.854   5.402   5.428
 6142SOL     OW19324   6.782   4.164   0.714
 6142SOL    HW119325   6.859   4.102   0.699
 6142SOL    HW219326   6.718   4.123   0.778
 6143SOL     OW19327   6.295   5.225   6.027
 6143SOL    HW119328   6.339   5.290   5.965
 6143SOL    HW219329   6.197   5.226   6.012
 6144SOL     OW19330   0.188   4.005   3.342
 6144SOL    HW119331   0.202   3.976   3.248
 6144SOL    HW219332   0.242   4.088   3.360
 6145SOL     OW19333   4.982   4.829   3.409
 6145SOL    HW119334   4.955   4.745   3.455
 6145SOL    HW219335   4.951   4.908   3.462
 6146SOL     OW19336   5.269   1.477   3.263
 6146SOL    HW119337   5.266   1.392   3.314
 6146SOL    HW219338   5.226   1.550   3.316
 6147SOL     OW19339   2.241   4.437   2.889
 6147SOL    HW119340   2.151   4.451   2.929
 6147SOL    HW219341   2.248   4.487   2.803
 6148SOL     OW19342   6.277   6.258   4.200
 6148SOL    HW119343   6.360   6.306   4.170
 6148SOL    HW219344   6.211   6.324   4.235
 6149SOL     OW19345   3.237   4.920   3.265
 6149SOL    HW119346   3.153   4.974   3.264
 6149SOL    HW219347   3.281   4.925   3.175
 6150SOL     OW19348   4.851   6.021   6.690
 6150SOL    HW119349   4.897   6.035   6.602
 6150SOL    HW219350   4.848   5.923   6.711
 6151SOL     OW19351   5.172   2.736   5.429
 6151SOL    HW119352   5.210   2.672   5.496
 6151SOL    HW219353   5.244   2.796   5.395
 6152SOL     OW19354   5.509   4.829   6.564
 6152SOL    HW119355   5.412   4.836   6.589
 6152SOL    HW219356   5.531   4.734   6.542
 6153SOL     OW19357   4.566   3.967   1.433
 6153SOL    HW119358   4.605   4.053   1.401
 6153SOL    HW219359   4.475   3.954   1.393
 6154SOL     OW19360   6.184   1.831   2.112
 6154SOL    HW119361   6.163   1.895   2.038
 6154SOL    HW219362   6.144   1.742   2.091
 6155SOL     OW19363   0.242   3.349   4.421
 6155SOL    HW119364   0.172   3.325   4.354
 6155SOL    HW219365   0.300   3.422   4.385
 6156SOL     OW19366   5.359   6.651   3.010
 6156SOL    HW119367   5.279   6.598   2.983
 6156SOL    HW219368   5.388   6.624   3.102
 6157SOL     OW19369   2.409   2.030   3.825
 6157SOL    HW119370   2.448   1.951   3.778
 6157SOL    HW219371   2.344   2.075   3.764
 6158SOL     OW19372   4.410   0.656   6.741
 6158SOL    HW119373   4.493   0.711   6.736
 6158SOL    HW219374   4.355   0.684   6.819
 6159SOL     OW19375   5.267   1.937   6.894
 6159SOL    HW119376   5.259   1.838   6.891
 6159SOL    HW219377   5.216   1.972   6.973
 6160SOL     OW19378   5.545   5.805   0.921
 6160SOL    HW119379   5.464   5.855   0.892
 6160SOL    HW219380   5.608   5.796   0.843
 6161SOL     OW19381   5.823   0.919   5.961
 6161SOL    HW119382   5.781   0.956   6.044
 6161SOL    HW219383   5.893   0.852   5.985
 6162SOL     OW19384   1.394   5.505   4.295
 6162SOL    HW119385   1.346   5.424   4.329
 6162SOL    HW219386   1.356   5.587   4.338
 6163SOL     OW19387   5.984   3.944   0.917
 6163SOL    HW119388   6.016   3.915   0.827
 6163SOL    HW219389   5.965   4.042   0.916
 6164SOL     OW19390   2.320   1.940   1.092
 6164SOL    HW119391   2.363   1.864   1.044
 6164SOL    HW219392   2.306   1.916   1.188
 6165SOL     OW19393   4.029   6.163   0.340
 6165SOL    HW119394   3.953   6.203   0.288
 6165SOL    HW219395   4.013   6.065   0.351
 6166SOL     OW19396   3.283   1.842   5.908
 6166SOL    HW119397   3.208   1.785   5.874
 6166SOL    HW219398   3.250   1.900   5.982
 6167SOL     OW19399   0.091   4.621   2.542
 6167SOL    HW119400   0.126   4.626   2.449
 6167SOL    HW219401   0.049   4.532   2.558
 6168SOL     OW19402   0.212   3.619   1.507
 6168SOL    HW119403   0.231   3.522   1.517
 6168SOL    HW219404   0.113   3.633   1.501
 6169SOL     OW19405   2.191   4.266   2.186
 6169SOL    HW119406   2.189   4.168   2.205
 6169SOL    HW219407   2.112   4.292   2.131
 6170SOL     OW19408   6.978   3.398   5.418
 6170SOL    HW119409   6.974   3.324   5.351
 6170SOL    HW219410   6.947   3.483   5.377
 6171SOL     OW19411   0.873   0.502   0.663
 6171SOL    HW119412   0.919   0.589   0.646
 6171SOL    HW219413   0.835   0.501   0.755
 6172SOL     OW19414   0.780   2.631   3.115
 6172SOL    HW119415   0.844   2.637   3.038
 6172SOL    HW219416   0.724   2.548   3.105
 6173SOL     OW19417   6.967   6.909   2.967
 6173SOL    HW119418   0.013   6.950   2.911
 6173SOL    HW219419   6.975   6.941   3.061
 6174SOL     OW19420   5.206   4.709   2.954
 6174SOL    HW119421   5.231   4.697   3.050
 6174SOL    HW219422   5.177   4.621   2.916
 6175SOL     OW19423   2.783   1.184   5.034
 6175SOL    HW119424   2.856   1.152   5.093
 6175SOL    HW219425   2.817   1.192   4.940
 6176SOL     OW19426   4.044   4.337   5.319
 6176SOL    HW119427   4.128   4.335   5.265
 6176SOL    HW219428   3.979   4.270   5.284
 6177SOL     OW19429   5.254   1.178   1.937
 6177SOL    HW119430   5.312   1.258   1.954
 6177SOL    HW219431   5.165   1.207   1.903
 6178SOL     OW19432   4.936   3.847   2.514
 6178SOL    HW119433   4.985   3.865   2.429
 6178SOL    HW219434   4.887   3.760   2.507
 6179SOL     OW19435   6.546   5.082   1.724
 6179SOL    HW119436   6.588   5.103   1.813
 6179SOL    HW219437   6.453   5.120   1.722
 6180SOL     OW19438   3.051   5.164   0.860
 6180SOL    HW119439   3.089   5.098   0.795
 6180SOL    HW219440   3.110   5.169   0.941
 6181SOL     OW19441   4.721   5.044   6.703
 6181SOL    HW119442   4.806   5.018   6.656
 6181SOL    HW219443   4.673   5.113   6.649
 6182SOL     OW19444   3.134   3.370   0.311
 6182SOL    HW119445   3.035   3.381   0.320
 6182SOL    HW219446   3.156   3.272   0.302
 6183SOL     OW19447   1.274   2.368   0.798
 6183SOL    HW119448   1.268   2.329   0.706
 6183SOL    HW219449   1.367   2.401   0.815
 6184SOL     OW19450   2.716   0.992   6.339
 6184SOL    HW119451   2.746   1.058   6.270
 6184SOL    HW219452   2.663   1.038   6.409
 6185SOL     OW19453   3.638   2.859   5.033
 6185SOL    HW119454   3.582   2.853   4.950
 6185SOL    HW219455   3.628   2.775   5.086
 6186SOL     OW19456   6.026   1.965   1.694
 6186SOL    HW119457   6.087   1.888   1.710
 6186SOL    HW219458   6.047   2.038   1.759
 6187SOL     OW19459   5.274   2.603   4.969
 6187SOL    HW119460   5.269   2.516   4.919
 6187SOL    HW219461   5.209   2.602   5.045
 6188SOL     OW19462   2.260   2.256   5.323
 6188SOL    HW119463   2.346   2.303   5.339
 6188SOL    HW219464   2.270   2.159   5.344
 6189SOL     OW19465   4.781   6.226   2.176
 6189SOL    HW119466   4.710   6.162   2.149
 6189SOL    HW219467   4.770   6.312   2.126
 6190SOL     OW19468   6.164   2.468   5.536
 6190SOL    HW119469   6.204   2.485   5.446
 6190SOL    HW219470   6.170   2.371   5.558
 6191SOL     OW19471   2.970   3.622   6.420
 6191SOL    HW119472   3.057   3.638   6.373
 6191SOL    HW219473   2.906   3.695   6.397
 6192SOL     OW19474   2.180   2.088   0.078
 6192SOL    HW119475   2.082   2.078   0.094
 6192SOL    HW219476   2.205   2.185   0.083
 6193SOL     OW19477   5.175   5.410   0.611
 6193SOL    HW119478   5.256   5.414   0.552
 6193SOL    HW219479   5.204   5.399   0.706
 6194SOL     OW19480   6.648   0.610   6.348
 6194SOL    HW119481   6.560   0.654   6.330
 6194SOL    HW219482   6.720   0.656   6.296
 6195SOL     OW19483   6.254   0.180   5.470
 6195SOL    HW119484   6.155   0.179   5.451
 6195SOL    HW219485   6.304   0.179   5.383
 6196SOL     OW19486   5.156   3.984   3.115
 6196SOL    HW119487   5.065   3.972   3.074
 6196SOL    HW219488   5.147   3.990   3.214
 6197SOL     OW19489   2.263   5.472   2.459
 6197SOL    HW119490   2.288   5.557   2.506
 6197SOL    HW219491   2.345   5.429   2.421
 6198SOL     OW19492   6.027   6.161   6.554
 6198SOL    HW119493   5.970   6.148   6.473
 6198SOL    HW219494   5.985   6.113   6.632
 6199SOL     OW19495   0.814   0.440   0.952
 6199SOL    HW119496   0.848   0.346   0.961
 6199SOL    HW219497   0.887   0.504   0.978
 6200SOL     OW19498   1.959   2.129   1.776
 6200SOL    HW119499   1.861   2.126   1.756
 6200SOL    HW219500   2.006   2.182   1.706
 6201SOL     OW19501   6.417   3.696   4.021
 6201SOL    HW119502   6.348   3.696   4.094
 6201SOL    HW219503   6.373   3.674   3.934
 6202SOL     OW19504   6.506   1.337   3.020
 6202SOL    HW119505   6.520   1.259   2.958
 6202SOL    HW219506   6.432   1.394   2.985
 6203SOL     OW19507   6.389   5.373   1.937
 6203SOL    HW119508   6.362   5.306   2.006
 6203SOL    HW219509   6.341   5.353   1.851
 6204SOL     OW19510   1.780   6.881   5.270
 6204SOL    HW119511   1.839   6.877   5.190
 6204SOL    HW219512   1.726   6.965   5.268
 6205SOL     OW19513   4.894   3.995   2.131
 6205SOL    HW119514   4.846   4.066   2.182
 6205SOL    HW219515   4.953   3.944   2.193
 6206SOL     OW19516   5.103   2.028   3.723
 6206SOL    HW119517   5.144   1.937   3.714
 6206SOL    HW219518   5.113   2.077   3.637
 6207SOL     OW19519   1.344   5.787   4.332
 6207SOL    HW119520   1.327   5.798   4.430
 6207SOL    HW219521   1.402   5.862   4.300
 6208SOL     OW19522   3.830   2.697   5.776
 6208SOL    HW119523   3.914   2.675   5.726
 6208SOL    HW219524   3.767   2.744   5.714
 6209SOL     OW19525   3.991   4.143   1.292
 6209SOL    HW119526   4.037   4.231   1.298
 6209SOL    HW219527   3.955   4.118   1.381
 6210SOL     OW19528   4.759   2.842   3.340
 6210SOL    HW119529   4.811   2.768   3.382
 6210SOL    HW219530   4.680   2.804   3.291
 6211SOL     OW19531   4.696   5.629   5.102
 6211SOL    HW119532   4.770   5.688   5.135
 6211SOL    HW219533   4.735   5.544   5.065
 6212SOL     OW19534   3.665   5.400   6.220
 6212SOL    HW119535   3.703   5.311   6.193
 6212SOL    HW219536   3.679   5.466   6.146
 6213SOL     OW19537   4.460   6.030   0.945
 6213SOL    HW119538   4.392   6.095   0.978
 6213SOL    HW219539   4.422   5.977   0.869
 6214SOL     OW19540   6.040   6.142   5.241
 6214SOL    HW119541   6.109   6.119   5.310
 6214SOL    HW219542   6.057   6.234   5.206
 6215SOL     OW19543   5.210   2.343   6.122
 6215SOL    HW119544   5.252   2.339   6.031
 6215SOL    HW219545   5.262   2.285   6.185
 6216SOL     OW19546   5.217   3.068   3.333
 6216SOL    HW119547   5.145   3.033   3.393
 6216SOL    HW219548   5.306   3.055   3.377
 6217SOL     OW19549   0.873   4.309   2.611
 6217SOL    HW119550   0.881   4.407   2.628
 6217SOL    HW219551   0.786   4.289   2.567
 6218SOL     OW19552   4.892   6.641   0.393
 6218SOL    HW119553   4.886   6.726   0.445
 6218SOL    HW219554   4.877   6.563   0.454
 6219SOL     OW19555   1.353   0.920   5.386
 6219SOL    HW119556   1.332   0.992   5.319
 6219SOL    HW219557   1.294   0.842   5.370
 6220SOL     OW19558   3.865   1.262   1.135
 6220SOL    HW119559   3.834   1.322   1.209
 6220SOL    HW219560   3.794   1.258   1.064
 6221SOL     OW19561   6.445   5.876   7.011
 6221SOL    HW119562   6.360   5.825   7.000
 6221SOL    HW219563   6.440   5.961   6.957
 6222SOL     OW19564   6.044   1.307   2.299
 6222SOL    HW119565   6.056   1.338   2.394
 6222SOL    HW219566   5.971   1.240   2.294
 6223SOL     OW19567   0.265   5.118   4.039
 6223SOL    HW119568   0.265   5.183   4.115
 6223SOL    HW219569   0.277   5.025   4.074
 6224SOL     OW19570   4.549   1.827   6.532
 6224SOL    HW119571   4.460   1.789   6.507
 6224SOL    HW219572   4.585   1.778   6.611
 6225SOL     OW19573   3.745   6.931   6.448
 6225SOL    HW119574   3.689   7.013   6.434
 6225SOL    HW219575   3.755   6.882   6.361
 6226SOL     OW19576   0.946   1.132   3.685
 6226SOL    HW119577   1.036   1.143   3.642
 6226SOL    HW219578   0.941   1.188   3.767
 6227SOL     OW19579   2.690   3.771   5.673
 6227SOL    HW119580   2.659   3.866   5.665
 6227SOL    HW219581   2.725   3.755   5.765
 6228SOL     OW19582   2.094   2.620   3.983
 6228SOL    HW119583   2.066   2.564   4.061
 6228SOL    HW219584   2.188   2.598   3.958
 6229SOL     OW19585   0.373   3.635   4.634
 6229SOL    HW119586   0.341   3.550   4.677
 6229SOL    HW219587   0.357   3.631   4.536
 6230SOL     OW19588   0.382   1.255   1.813
 6230SOL    HW119589   0.298   1.270   1.760
 6230SOL    HW219590   0.432   1.342   1.820
 6231SOL     OW19591   6.346   4.737   6.905
 6231SOL    HW119592   6.271   4.670   6.905
 6231SOL    HW219593   6.361   4.770   6.998
 6232SOL     OW19594   5.565   1.257   7.011
 6232SOL    HW119595   5.545   1.304   6.925
 6232SOL    HW219596   5.542   1.316   0.062
 6233SOL     OW19597   0.106   3.358   1.162
 6233SOL    HW119598   0.200   3.384   1.184
 6233SOL    HW219599   0.066   3.310   1.239
 6234SOL     OW19600   6.583   6.846   4.642
 6234SOL    HW119601   6.650   6.914   4.613
 6234SOL    HW219602   6.631   6.762   4.670
 6235SOL     OW19603   6.570   0.827   2.341
 6235SOL    HW119604   6.636   0.884   2.391
 6235SOL    HW219605   6.478   0.843   2.377
 6236SOL     OW19606   0.489   4.172   0.821
 6236SOL    HW119607   0.496   4.234   0.899
 6236SOL    HW219608   0.408   4.195   0.768
 6237SOL     OW19609   3.991   0.502   1.472
 6237SOL    HW119610   4.036   0.453   1.397
 6237SOL    HW219611   3.938   0.578   1.435
 6238SOL     OW19612   2.693   6.600   4.596
 6238SOL    HW119613   2.638   6.648   4.528
 6238SOL    HW219614   2.731   6.516   4.556
 6239SOL     OW19615   5.030   0.734   2.501
 6239SOL    HW119616   5.076   0.757   2.586
 6239SOL    HW219617   4.946   0.684   2.520
 6240SOL     OW19618   4.051   3.245   4.643
 6240SOL    HW119619   4.058   3.313   4.715
 6240SOL    HW219620   4.130   3.184   4.646
 6241SOL     OW19621   2.299   6.536   3.696
 6241SOL    HW119622   2.390   6.575   3.706
 6241SOL    HW219623   2.231   6.602   3.729
 6242SOL     OW19624   2.830   1.863   3.279
 6242SOL    HW119625   2.771   1.837   3.203
 6242SOL    HW219626   2.912   1.907   3.244
 6243SOL     OW19627   5.798   1.513   5.942
 6243SOL    HW119628   5.853   1.436   5.975
 6243SOL    HW219629   5.703   1.484   5.932
 6244SOL     OW19630   4.219   4.661   2.374
 6244SOL    HW119631   4.131   4.702   2.349
 6244SOL    HW219632   4.274   4.648   2.292
 6245SOL     OW19633   0.539   4.516   2.242
 6245SOL    HW119634   0.471   4.457   2.200
 6245SOL    HW219635   0.502   4.609   2.251
 6246SOL     OW19636   0.916   6.557   4.286
 6246SOL    HW119637   0.910   6.576   4.384
 6246SOL    HW219638   1.007   6.583   4.253
 6247SOL     OW19639   6.839   5.818   3.706
 6247SOL    HW119640   6.824   5.835   3.804
 6247SOL    HW219641   6.923   5.863   3.676
 6248SOL     OW19642   3.522   3.333   0.023
 6248SOL    HW119643   3.496   3.240   0.051
 6248SOL    HW219644   3.446   3.395   0.038
 6249SOL     OW19645   6.756   2.596   0.908
 6249SOL    HW119646   6.715   2.540   0.980
 6249SOL    HW219647   6.702   2.679   0.895
 6250SOL     OW19648   0.216   0.443   0.939
 6250SOL    HW119649   0.217   0.391   0.854
 6250SOL    HW219650   0.142   0.510   0.936
 6251SOL     OW19651   3.161   7.013   4.334
 6251SOL    HW119652   3.172   6.914   4.338
 6251SOL    HW219653   3.211   0.030   4.409
 6252SOL     OW19654   2.773   5.451   6.917
 6252SOL    HW119655   2.741   5.461   6.822
 6252SOL    HW219656   2.866   5.486   6.925
 6253SOL     OW19657   3.328   5.043   4.699
 6253SOL    HW119658   3.313   5.020   4.602
 6253SOL    HW219659   3.305   4.965   4.756
 6254SOL     OW19660   0.396   6.051   1.115
 6254SOL    HW119661   0.316   6.112   1.114
 6254SOL    HW219662   0.479   6.105   1.095
 6255SOL     OW19663   0.456   1.939   1.045
 6255SOL    HW119664   0.400   1.873   1.095
 6255SOL    HW219665   0.471   2.020   1.101
 6256SOL     OW19666   4.653   5.175   2.890
 6256SOL    HW119667   4.622   5.135   2.803
 6256SOL    HW219668   4.670   5.102   2.956
 6257SOL     OW19669   4.148   3.955   1.147
 6257SOL    HW119670   4.089   3.993   1.218
 6257SOL    HW219671   4.099   3.882   1.099
 6258SOL     OW19672   4.397   6.655   6.271
 6258SOL    HW119673   4.414   6.561   6.301
 6258SOL    HW219674   4.357   6.654   6.179
 6259SOL     OW19675   2.150   0.026   5.600
 6259SOL    HW119676   2.157   0.091   5.676
 6259SOL    HW219677   2.087   6.979   5.624
 6260SOL     OW19678   2.383   1.464   0.557
 6260SOL    HW119679   2.437   1.522   0.496
 6260SOL    HW219680   2.367   1.376   0.513
 6261SOL     OW19681   3.560   6.278   1.678
 6261SOL    HW119682   3.582   6.356   1.618
 6261SOL    HW219683   3.643   6.242   1.719
 6262SOL     OW19684   6.366   6.358   2.268
 6262SOL    HW119685   6.315   6.396   2.345
 6262SOL    HW219686   6.308   6.295   2.216
 6263SOL     OW19687   6.993   5.835   4.601
 6263SOL    HW119688   0.065   5.816   4.594
 6263SOL    HW219689   6.957   5.796   4.685
 6264SOL     OW19690   1.093   0.219   1.231
 6264SOL    HW119691   1.111   0.224   1.133
 6264SOL    HW219692   0.996   0.237   1.248
 6265SOL     OW19693   4.565   1.766   0.067
 6265SOL    HW119694   4.608   1.711   0.138
 6265SOL    HW219695   4.487   1.815   0.105
 6266SOL     OW19696   2.907   5.544   3.419
 6266SOL    HW119697   2.859   5.477   3.475
 6266SOL    HW219698   2.973   5.594   3.475
 6267SOL     OW19699   0.999   6.814   5.321
 6267SOL    HW119700   0.913   6.854   5.352
 6267SOL    HW219701   0.980   6.748   5.248
 6268SOL     OW19702   2.976   0.203   2.037
 6268SOL    HW119703   2.895   0.164   1.993
 6268SOL    HW219704   2.948   0.279   2.096
 6269SOL     OW19705   5.779   5.858   1.518
 6269SOL    HW119706   5.698   5.799   1.521
 6269SOL    HW219707   5.778   5.912   1.434
 6270SOL     OW19708   1.689   6.137   0.510
 6270SOL    HW119709   1.635   6.109   0.431
 6270SOL    HW219710   1.629   6.183   0.576
 6271SOL     OW19711   6.219   3.161   6.621
 6271SOL    HW119712   6.252   3.211   6.541
 6271SOL    HW219713   6.173   3.224   6.683
 6272SOL     OW19714   6.132   0.151   0.186
 6272SOL    HW119715   6.126   0.104   0.274
 6272SOL    HW219716   6.040   0.167   0.150
 6273SOL     OW19717   6.939   0.304   1.695
 6273SOL    HW119718   7.023   0.354   1.717
 6273SOL    HW219719   6.912   0.323   1.601
 6274SOL     OW19720   3.605   5.876   5.243
 6274SOL    HW119721   3.692   5.872   5.192
 6274SOL    HW219722   3.585   5.971   5.266
 6275SOL     OW19723   2.012   5.648   0.430
 6275SOL    HW119724   2.027   5.603   0.518
 6275SOL    HW219725   1.914   5.655   0.413
 6276SOL     OW19726   1.989   5.422   2.861
 6276SOL    HW119727   1.946   5.513   2.856
 6276SOL    HW219728   2.059   5.422   2.932
 6277SOL     OW19729   5.340   2.760   1.392
 6277SOL    HW119730   5.260   2.758   1.331
 6277SOL    HW219731   5.411   2.817   1.351
 6278SOL     OW19732   2.755   6.730   5.822
 6278SOL    HW119733   2.799   6.781   5.748
 6278SOL    HW219734   2.824   6.675   5.869
 6279SOL     OW19735   2.931   6.593   1.897
 6279SOL    HW119736   2.840   6.587   1.936
 6279SOL    HW219737   2.995   6.626   1.966
 6280SOL     OW19738   6.929   1.707   6.559
 6280SOL    HW119739   7.000   1.660   6.611
 6280SOL    HW219740   6.847   1.717   6.616
 6281SOL     OW19741   6.157   4.328   5.450
 6281SOL    HW119742   6.164   4.391   5.373
 6281SOL    HW219743   6.100   4.250   5.424
 6282SOL     OW19744   1.026   3.751   6.174
 6282SOL    HW119745   1.063   3.700   6.252
 6282SOL    HW219746   1.101   3.794   6.124
 6283SOL     OW19747   1.121   6.128   5.912
 6283SOL    HW119748   1.028   6.092   5.924
 6283SOL    HW219749   1.187   6.053   5.918
 6284SOL     OW19750   2.580   4.189   6.902
 6284SOL    HW119751   2.545   4.190   6.809
 6284SOL    HW219752   2.504   4.207   6.966
 6285SOL     OW19753   1.408   3.496   2.992
 6285SOL    HW119754   1.408   3.497   2.892
 6285SOL    HW219755   1.501   3.512   3.025
 6286SOL     OW19756   0.856   3.197   4.870
 6286SOL    HW119757   0.954   3.173   4.868
 6286SOL    HW219758   0.803   3.124   4.827
 6287SOL     OW19759   4.412   4.944   5.061
 6287SOL    HW119760   4.383   4.903   5.147
 6287SOL    HW219761   4.359   5.028   5.044
 6288SOL     OW19762   3.684   3.207   6.802
 6288SOL    HW119763   3.687   3.143   6.879
 6288SOL    HW219764   3.777   3.222   6.767
 6289SOL     OW19765   2.547   4.693   6.468
 6289SOL    HW119766   2.460   4.741   6.466
 6289SOL    HW219767   2.591   4.700   6.378
 6290SOL     OW19768   5.287   5.607   5.127
 6290SOL    HW119769   5.226   5.543   5.172
 6290SOL    HW219770   5.316   5.678   5.192
 6291SOL     OW19771   3.421   3.174   2.739
 6291SOL    HW119772   3.482   3.171   2.819
 6291SOL    HW219773   3.457   3.113   2.668
 6292SOL     OW19774   2.052   3.379   4.712
 6292SOL    HW119775   1.952   3.366   4.708
 6292SOL    HW219776   2.095   3.291   4.732
 6293SOL     OW19777   5.102   0.987   6.865
 6293SOL    HW119778   5.136   1.078   6.889
 6293SOL    HW219779   5.002   0.987   6.867
 6294SOL     OW19780   2.568   1.514   3.502
 6294SOL    HW119781   2.591   1.599   3.548
 6294SOL    HW219782   2.565   1.530   3.403
 6295SOL     OW19783   5.938   4.471   5.535
 6295SOL    HW119784   5.948   4.571   5.539
 6295SOL    HW219785   6.028   4.429   5.522
 6296SOL     OW19786   0.090   2.639   6.586
 6296SOL    HW119787   0.051   2.574   6.652
 6296SOL    HW219788   0.052   2.730   6.602
 6297SOL     OW19789   5.813   0.495   4.278
 6297SOL    HW119790   5.772   0.404   4.270
 6297SOL    HW219791   5.912   0.486   4.284
 6298SOL     OW19792   6.043   4.657   0.145
 6298SOL    HW119793   6.022   4.624   0.053
 6298SOL    HW219794   6.036   4.757   0.147
 6299SOL     OW19795   4.745   2.022   2.872
 6299SOL    HW119796   4.707   2.097   2.925
 6299SOL    HW219797   4.710   2.025   2.778
 6300SOL     OW19798   3.324   0.148   5.575
 6300SOL    HW119799   3.291   0.231   5.619
 6300SOL    HW219800   3.295   0.068   5.629
 6301SOL     OW19801   3.249   6.666   0.698
 6301SOL    HW119802   3.278   6.735   0.765
 6301SOL    HW219803   3.281   6.576   0.727
 6302SOL     OW19804   2.960   1.316   5.652
 6302SOL    HW119805   3.034   1.294   5.588
 6302SOL    HW219806   2.968   1.258   5.733
 6303SOL     OW19807   1.381   5.982   6.104
 6303SOL    HW119808   1.408   6.061   6.049
 6303SOL    HW219809   1.327   6.012   6.182
 6304SOL     OW19810   3.941   0.866   3.180
 6304SOL    HW119811   3.884   0.867   3.097
 6304SOL    HW219812   4.037   0.872   3.154
 6305SOL     OW19813   0.560   5.812   5.734
 6305SOL    HW119814   0.637   5.870   5.760
 6305SOL    HW219815   0.478   5.842   5.783
 6306SOL     OW19816   6.734   4.549   3.852
 6306SOL    HW119817   6.749   4.484   3.778
 6306SOL    HW219818   6.758   4.641   3.822
 6307SOL     OW19819   4.109   3.550   3.328
 6307SOL    HW119820   4.085   3.460   3.291
 6307SOL    HW219821   4.075   3.621   3.266
 6308SOL     OW19822   0.315   2.956   0.432
 6308SOL    HW119823   0.245   2.892   0.402
 6308SOL    HW219824   0.330   3.026   0.362
 6309SOL     OW19825   1.314   6.511   4.446
 6309SOL    HW119826   1.256   6.542   4.370
 6309SOL    HW219827   1.257   6.469   4.517
 6310SOL     OW19828   2.027   6.769   3.208
 6310SOL    HW119829   2.095   6.840   3.224
 6310SOL    HW219830   2.020   6.751   3.110
 6311SOL     OW19831   5.464   1.109   6.089
 6311SOL    HW119832   5.378   1.159   6.087
 6311SOL    HW219833   5.494   1.097   6.183
 6312SOL     OW19834   3.157   6.614   6.749
 6312SOL    HW119835   3.239   6.667   6.727
 6312SOL    HW219836   3.084   6.676   6.778
 6313SOL     OW19837   5.604   6.257   3.089
 6313SOL    HW119838   5.664   6.335   3.072
 6313SOL    HW219839   5.656   6.172   3.075
 6314SOL     OW19840   2.388   0.437   1.557
 6314SOL    HW119841   2.345   0.519   1.596
 6314SOL    HW219842   2.485   0.436   1.582
 6315SOL     OW19843   2.367   2.807   3.874
 6315SOL    HW119844   2.357   2.844   3.966
 6315SOL    HW219845   2.456   2.763   3.865
 6316SOL     OW19846   5.669   1.755   4.538
 6316SOL    HW119847   5.653   1.657   4.550
 6316SOL    HW219848   5.619   1.786   4.457
 6317SOL     OW19849   5.301   4.343   1.855
 6317SOL    HW119850   5.227   4.283   1.885
 6317SOL    HW219851   5.388   4.310   1.890
 6318SOL     OW19852   6.455   0.196   5.926
 6318SOL    HW119853   6.411   0.106   5.921
 6318SOL    HW219854   6.413   0.250   5.999
 6319SOL     OW19855   5.881   2.186   4.503
 6319SOL    HW119856   5.916   2.212   4.414
 6319SOL    HW219857   5.866   2.087   4.506
 6320SOL     OW19858   6.577   1.269   4.329
 6320SOL    HW119859   6.507   1.257   4.258
 6320SOL    HW219860   6.667   1.276   4.287
 6321SOL     OW19861   5.456   2.289   0.841
 6321SOL    HW119862   5.381   2.223   0.832
 6321SOL    HW219863   5.418   2.382   0.845
 6322SOL     OW19864   1.647   0.887   1.224
 6322SOL    HW119865   1.650   0.812   1.289
 6322SOL    HW219866   1.597   0.859   1.141
 6323SOL     OW19867   2.712   2.974   1.198
 6323SOL    HW119868   2.758   2.995   1.284
 6323SOL    HW219869   2.667   2.885   1.204
 6324SOL     OW19870   4.695   1.272   0.949
 6324SOL    HW119871   4.664   1.211   0.876
 6324SOL    HW219872   4.795   1.270   0.953
 6325SOL     OW19873   1.768   2.506   3.396
 6325SOL    HW119874   1.694   2.451   3.359
 6325SOL    HW219875   1.731   2.589   3.439
 6326SOL     OW19876   5.129   5.079   6.144
 6326SOL    HW119877   5.133   5.179   6.150
 6326SOL    HW219878   5.200   5.039   6.202
 6327SOL     OW19879   6.941   0.734   3.062
 6327SOL    HW119880   6.913   0.655   3.007
 6327SOL    HW219881   6.897   0.729   3.152
 6328SOL     OW19882   4.085   2.999   5.760
 6328SOL    HW119883   4.006   3.013   5.701
 6328SOL    HW219884   4.081   3.061   5.838
 6329SOL     OW19885   1.404   2.773   5.641
 6329SOL    HW119886   1.426   2.864   5.674
 6329SOL    HW219887   1.451   2.757   5.553
 6330SOL     OW19888   5.255   0.395   3.502
 6330SOL    HW119889   5.273   0.309   3.550
 6330SOL    HW219890   5.260   0.379   3.403
 6331SOL     OW19891   6.763   3.203   2.921
 6331SOL    HW119892   6.768   3.301   2.905
 6331SOL    HW219893   6.855   3.164   2.920
 6332SOL     OW19894   2.207   2.014   0.860
 6332SOL    HW119895   2.252   2.000   0.949
 6332SOL    HW219896   2.275   2.038   0.791
 6333SOL     OW19897   5.008   1.031   0.617
 6333SOL    HW119898   4.935   0.984   0.666
 6333SOL    HW219899   4.976   1.122   0.589
 6334SOL     OW19900   2.444   1.522   2.087
 6334SOL    HW119901   2.382   1.513   2.009
 6334SOL    HW219902   2.513   1.592   2.067
 6335SOL     OW19903   5.936   1.461   0.628
 6335SOL    HW119904   5.907   1.521   0.554
 6335SOL    HW219905   6.036   1.460   0.633
 6336SOL     OW19906   0.692   3.445   6.232
 6336SOL    HW119907   0.701   3.348   6.210
 6336SOL    HW219908   0.743   3.465   6.316
 6337SOL     OW19909   4.667   5.833   5.396
 6337SOL    HW119910   4.671   5.932   5.400
 6337SOL    HW219911   4.653   5.803   5.302
 6338SOL     OW19912   3.029   1.868   4.036
 6338SOL    HW119913   3.058   1.869   3.941
 6338SOL    HW219914   3.062   1.785   4.081
 6339SOL     OW19915   1.199   4.409   3.589
 6339SOL    HW119916   1.191   4.334   3.654
 6339SOL    HW219917   1.296   4.425   3.569
 6340SOL     OW19918   2.375   4.358   1.547
 6340SOL    HW119919   2.346   4.263   1.538
 6340SOL    HW219920   2.471   4.360   1.577
 6341SOL     OW19921   1.363   4.825   3.840
 6341SOL    HW119922   1.338   4.918   3.866
 6341SOL    HW219923   1.306   4.760   3.892
 6342SOL     OW19924   2.028   1.698   2.051
 6342SOL    HW119925   1.942   1.728   2.092
 6342SOL    HW219926   2.062   1.768   1.988
 6343SOL     OW19927   2.672   5.826   0.798
 6343SOL    HW119928   2.663   5.874   0.885
 6343SOL    HW219929   2.581   5.813   0.757
 6344SOL     OW19930   0.025   1.313   3.360
 6344SOL    HW119931   7.006   1.349   3.441
 6344SOL    HW219932   0.109   1.364   3.343
 6345SOL     OW19933   5.801   3.818   1.521
 6345SOL    HW119934   5.843   3.772   1.442
 6345SOL    HW219935   5.777   3.912   1.496
 6346SOL     OW19936   7.024   4.232   5.528
 6346SOL    HW119937   0.089   4.271   5.515
 6346SOL    HW219938   0.005   4.148   5.582
 6347SOL     OW19939   2.428   2.279   2.936
 6347SOL    HW119940   2.390   2.188   2.919
 6347SOL    HW219941   2.389   2.316   3.020
 6348SOL     OW19942   0.114   2.353   5.465
 6348SOL    HW119943   0.093   2.414   5.388
 6348SOL    HW219944   0.205   2.313   5.451
 6349SOL     OW19945   0.185   0.766   6.969
 6349SOL    HW119946   0.167   0.864   6.957
 6349SOL    HW219947   0.160   0.739   0.036
 6350SOL     OW19948   1.181   4.316   1.873
 6350SOL    HW119949   1.164   4.380   1.798
 6350SOL    HW219950   1.106   4.250   1.879
 6351SOL     OW19951   5.729   3.335   2.056
 6351SOL    HW119952   5.671   3.414   2.077
 6351SOL    HW219953   5.784   3.312   2.136
 6352SOL     OW19954   2.071   0.577   4.803
 6352SOL    HW119955   2.091   0.515   4.727
 6352SOL    HW219956   2.048   0.667   4.768
 6353SOL     OW19957   3.104   6.146   6.605
 6353SOL    HW119958   3.050   6.217   6.650
 6353SOL    HW219959   3.191   6.186   6.573
 6354SOL     OW19960   4.898   4.638   2.322
 6354SOL    HW119961   4.802   4.616   2.342
 6354SOL    HW219962   4.945   4.659   2.408
 6355SOL     OW19963   2.692   4.950   0.939
 6355SOL    HW119964   2.723   5.000   1.020
 6355SOL    HW219965   2.620   4.886   0.966
 6356SOL     OW19966   5.566   4.037   6.698
 6356SOL    HW119967   5.487   4.005   6.646
 6356SOL    HW219968   5.535   4.094   6.774
 6357SOL     OW19969   5.425   1.653   1.528
 6357SOL    HW119970   5.342   1.675   1.577
 6357SOL    HW219971   5.478   1.585   1.579
 6358SOL     OW19972   1.313   2.755   6.580
 6358SOL    HW119973   1.327   2.719   6.672
 6358SOL    HW219974   1.279   2.849   6.585
 6359SOL     OW19975   5.754   6.080   0.281
 6359SOL    HW119976   5.684   6.107   0.346
 6359SOL    HW219977   5.726   5.996   0.233
 6360SOL     OW19978   0.866   2.342   2.834
 6360SOL    HW119979   0.871   2.274   2.908
 6360SOL    HW219980   0.772   2.346   2.799
 6361SOL     OW19981   0.612   0.543   0.039
 6361SOL    HW119982   0.587   0.505   6.977
 6361SOL    HW219983   0.699   0.504   0.069
 6362SOL     OW19984   1.077   5.493   6.882
 6362SOL    HW119985   1.111   5.563   6.819
 6362SOL    HW219986   0.988   5.521   6.917
 6363SOL     OW19987   3.031   5.352   3.907
 6363SOL    HW119988   3.073   5.317   3.823
 6363SOL    HW219989   2.975   5.281   3.949
 6364SOL     OW19990   2.492   2.535   4.860
 6364SOL    HW119991   2.558   2.579   4.798
 6364SOL    HW219992   2.446   2.606   4.914
 6365SOL     OW19993   5.828   5.092   3.689
 6365SOL    HW119994   5.882   5.069   3.608
 6365SOL    HW219995   5.767   5.016   3.710
 6366SOL     OW19996   5.994   6.692   4.472
 6366SOL    HW119997   6.073   6.637   4.445
 6366SOL    HW219998   5.974   6.758   4.400
 6367SOL     OW19999   2.909   1.870   2.779
 6367SOL    HW120000   2.988   1.930   2.780
 6367SOL    HW220001   2.829   1.920   2.746
 6368SOL     OW20002   4.928   3.159   4.775
 6368SOL    HW120003   4.912   3.245   4.823
 6368SOL    HW220004   5.023   3.132   4.786
 6369SOL     OW20005   3.286   6.160   6.148
 6369SOL    HW120006   3.259   6.161   6.052
 6369SOL    HW220007   3.253   6.076   6.191
 6370SOL     OW20008   5.553   3.684   3.835
 6370SOL    HW120009   5.496   3.714   3.759
 6370SOL    HW220010   5.498   3.633   3.901
 6371SOL     OW20011   5.541   3.873   1.712
 6371SOL    HW120012   5.624   3.877   1.656
 6371SOL    HW220013   5.489   3.958   1.700
 6372SOL     OW20014   6.828   0.699   2.592
 6372SOL    HW120015   6.776   0.721   2.674
 6372SOL    HW220016   6.926   0.708   2.612
 6373SOL     OW20017   5.396   3.672   1.208
 6373SOL    HW120018   5.330   3.608   1.168
 6373SOL    HW220019   5.360   3.765   1.201
 6374SOL     OW20020   4.791   2.966   0.530
 6374SOL    HW120021   4.715   3.029   0.537
 6374SOL    HW220022   4.776   2.888   0.591
 6375SOL     OW20023   6.580   2.763   2.272
 6375SOL    HW120024   6.544   2.792   2.183
 6375SOL    HW220025   6.524   2.689   2.309
 6376SOL     OW20026   3.538   0.807   6.224
 6376SOL    HW120027   3.627   0.851   6.240
 6376SOL    HW220028   3.530   0.783   6.127
 6377SOL     OW20029   7.009   0.574   0.556
 6377SOL    HW120030   6.925   0.521   0.568
 6377SOL    HW220031   0.026   0.548   0.469
 6378SOL     OW20032   5.747   5.320   3.207
 6378SOL    HW120033   5.718   5.275   3.122
 6378SOL    HW220034   5.768   5.416   3.187
 6379SOL     OW20035   3.025   6.141   0.112
 6379SOL    HW120036   2.939   6.118   0.066
 6379SOL    HW220037   3.063   6.059   0.154
 6380SOL     OW20038   1.263   2.956   5.246
 6380SOL    HW120039   1.191   3.008   5.290
 6380SOL    HW220040   1.309   3.013   5.178
 6381SOL     OW20041   4.484   3.074   0.248
 6381SOL    HW120042   4.398   3.063   0.199
 6381SOL    HW220043   4.528   3.159   0.219
 6382SOL     OW20044   2.067   1.635   1.299
 6382SOL    HW120045   2.052   1.643   1.201
 6382SOL    HW220046   2.071   1.727   1.339
 6383SOL     OW20047   1.819   2.168   2.420
 6383SOL    HW120048   1.823   2.214   2.331
 6383SOL    HW220049   1.746   2.208   2.474
 6384SOL     OW20050   6.303   2.493   1.847
 6384SOL    HW120051   6.208   2.462   1.844
 6384SOL    HW220052   6.321   2.557   1.772
 6385SOL     OW20053   0.049   3.159   0.988
 6385SOL    HW120054   0.067   3.237   1.049
 6385SOL    HW220055   0.050   3.074   1.041
 6386SOL     OW20056   1.994   3.402   0.216
 6386SOL    HW120057   2.018   3.311   0.184
 6386SOL    HW220058   1.986   3.464   0.138
 6387SOL     OW20059   6.325   0.439   6.922
 6387SOL    HW120060   6.271   0.479   6.996
 6387SOL    HW220061   6.298   0.344   6.908
 6388SOL     OW20062   6.318   5.564   2.673
 6388SOL    HW120063   6.294   5.470   2.700
 6388SOL    HW220064   6.334   5.567   2.575
 6389SOL     OW20065   1.641   0.740   6.650
 6389SOL    HW120066   1.619   0.832   6.684
 6389SOL    HW220067   1.699   0.748   6.568
 6390SOL     OW20068   6.648   1.138   6.717
 6390SOL    HW120069   6.676   1.232   6.697
 6390SOL    HW220070   6.648   1.085   6.633
 6391SOL     OW20071   1.580   1.842   4.829
 6391SOL    HW120072   1.561   1.916   4.765
 6391SOL    HW220073   1.494   1.801   4.859
 6392SOL     OW20074   3.823   6.112   3.810
 6392SOL    HW120075   3.875   6.045   3.757
 6392SOL    HW220076   3.882   6.190   3.832
 6393SOL     OW20077   6.409   5.520   1.638
 6393SOL    HW120078   6.476   5.452   1.608
 6393SOL    HW220079   6.337   5.530   1.569
 6394SOL     OW20080   1.085   5.244   1.028
 6394SOL    HW120081   1.115   5.337   1.052
 6394SOL    HW220082   1.126   5.179   1.091
 6395SOL     OW20083   1.854   4.206   3.288
 6395SOL    HW120084   1.880   4.115   3.253
 6395SOL    HW220085   1.920   4.274   3.256
 6396SOL     OW20086   0.163   3.796   0.275
 6396SOL    HW120087   0.174   3.874   0.214
 6396SOL    HW220088   0.076   3.751   0.255
 6397SOL     OW20089   5.838   2.070   3.717
 6397SOL    HW120090   5.916   2.106   3.768
 6397SOL    HW220091   5.773   2.027   3.780
 6398SOL     OW20092   1.063   6.968   1.054
 6398SOL    HW120093   1.130   0.004   1.016
 6398SOL    HW220094   1.038   6.899   0.986
 6399SOL     OW20095   2.514   0.698   5.952
 6399SOL    HW120096   2.600   0.681   5.904
 6399SOL    HW220097   2.531   0.751   6.034
 6400SOL     OW20098   1.362   5.562   3.184
 6400SOL    HW120099   1.432   5.572   3.114
 6400SOL    HW220100   1.310   5.647   3.193
 6401SOL     OW20101   3.828   5.721   3.330
 6401SOL    HW120102   3.759   5.779   3.287
 6401SOL    HW220103   3.806   5.709   3.427
 6402SOL     OW20104   2.420   4.583   5.085
 6402SOL    HW120105   2.386   4.505   5.137
 6402SOL    HW220106   2.342   4.634   5.047
 6403SOL     OW20107   5.094   6.383   4.858
 6403SOL    HW120108   5.122   6.338   4.943
 6403SOL    HW220109   5.147   6.466   4.845
 6404SOL     OW20110   4.106   0.516   2.590
 6404SOL    HW120111   4.152   0.444   2.537
 6404SOL    HW220112   4.172   0.561   2.650
 6405SOL     OW20113   5.415   1.355   2.280
 6405SOL    HW120114   5.325   1.331   2.244
 6405SOL    HW220115   5.485   1.298   2.238
 6406SOL     OW20116   1.333   2.864   2.769
 6406SOL    HW120117   1.305   2.886   2.862
 6406SOL    HW220118   1.332   2.948   2.714
 6407SOL     OW20119   2.012   6.077   3.031
 6407SOL    HW120120   1.941   6.095   2.963
 6407SOL    HW220121   2.102   6.092   2.990
 6408SOL     OW20122   6.672   0.633   0.384
 6408SOL    HW120123   6.684   0.544   0.428
 6408SOL    HW220124   6.681   0.706   0.452
 6409SOL     OW20125   6.529   4.665   4.015
 6409SOL    HW120126   6.582   4.688   4.097
 6409SOL    HW220127   6.589   4.619   3.949
 6410SOL     OW20128   3.338   1.858   5.643
 6410SOL    HW120129   3.344   1.949   5.601
 6410SOL    HW220130   3.329   1.867   5.742
 6411SOL     OW20131   0.416   2.132   2.794
 6411SOL    HW120132   0.329   2.155   2.837
 6411SOL    HW220133   0.436   2.035   2.809
 6412SOL     OW20134   2.957   0.815   6.937
 6412SOL    HW120135   2.954   0.723   6.897
 6412SOL    HW220136   2.907   0.816   7.023
 6413SOL     OW20137   4.377   5.053   3.831
 6413SOL    HW120138   4.345   4.992   3.903
 6413SOL    HW220139   4.445   5.116   3.869
 6414SOL     OW20140   1.225   6.788   0.072
 6414SOL    HW120141   1.251   6.884   0.072
 6414SOL    HW220142   1.149   6.774   0.136
 6415SOL     OW20143   1.087   2.543   3.562
 6415SOL    HW120144   1.025   2.622   3.560
 6415SOL    HW220145   1.158   2.555   3.493
 6416SOL     OW20146   2.838   0.667   6.491
 6416SOL    HW120147   2.801   0.607   6.562
 6416SOL    HW220148   2.873   0.751   6.532
 6417SOL     OW20149   4.575   1.588   0.681
 6417SOL    HW120150   4.518   1.565   0.760
 6417SOL    HW220151   4.632   1.667   0.703
 6418SOL     OW20152   4.370   5.016   1.478
 6418SOL    HW120153   4.442   4.953   1.508
 6418SOL    HW220154   4.294   5.013   1.542
 6419SOL     OW20155   0.489   6.637   6.702
 6419SOL    HW120156   0.581   6.676   6.698
 6419SOL    HW220157   0.491   6.548   6.747
 6420SOL     OW20158   2.147   3.476   4.002
 6420SOL    HW120159   2.199   3.417   4.063
 6420SOL    HW220160   2.112   3.554   4.053
 6421SOL     OW20161   4.946   6.932   1.811
 6421SOL    HW120162   5.007   6.985   1.870
 6421SOL    HW220163   4.860   6.982   1.799
 6422SOL     OW20164   6.442   2.497   4.776
 6422SOL    HW120165   6.391   2.559   4.837
 6422SOL    HW220166   6.540   2.512   4.787
 6423SOL     OW20167   2.236   4.347   4.526
 6423SOL    HW120168   2.248   4.267   4.585
 6423SOL    HW220169   2.299   4.342   4.449
 6424SOL     OW20170   6.999   4.348   5.060
 6424SOL    HW120171   0.025   4.292   4.995
 6424SOL    HW220172   0.022   4.433   5.078
 6425SOL     OW20173   0.342   6.129   2.761
 6425SOL    HW120174   0.335   6.151   2.859
 6425SOL    HW220175   0.277   6.185   2.710
 6426SOL     OW20176   4.614   4.569   4.728
 6426SOL    HW120177   4.596   4.530   4.819
 6426SOL    HW220178   4.682   4.512   4.681
 6427SOL     OW20179   2.891   3.502   3.597
 6427SOL    HW120180   2.816   3.447   3.561
 6427SOL    HW220181   2.863   3.598   3.601
 6428SOL     OW20182   5.000   2.690   0.041
 6428SOL    HW120183   5.009   2.728   0.133
 6428SOL    HW220184   5.054   2.745   7.003
 6429SOL     OW20185   2.332   0.675   5.762
 6429SOL    HW120186   2.390   0.707   5.836
 6429SOL    HW220187   2.368   0.589   5.726
 6430SOL     OW20188   6.809   0.474   4.861
 6430SOL    HW120189   6.819   0.433   4.952
 6430SOL    HW220190   6.735   0.541   4.863
 6431SOL     OW20191   4.052   4.839   1.722
 6431SOL    HW120192   4.099   4.810   1.806
 6431SOL    HW220193   3.965   4.882   1.746
 6432SOL     OW20194   4.197   4.399   6.182
 6432SOL    HW120195   4.161   4.388   6.275
 6432SOL    HW220196   4.285   4.447   6.186
 6433SOL     OW20197   2.524   5.660   6.473
 6433SOL    HW120198   2.473   5.745   6.461
 6433SOL    HW220199   2.464   5.589   6.508
 6434SOL     OW20200   3.500   5.515   5.686
 6434SOL    HW120201   3.414   5.465   5.683
 6434SOL    HW220202   3.484   5.611   5.661
 6435SOL     OW20203   5.108   1.050   0.981
 6435SOL    HW120204   5.151   0.993   0.910
 6435SOL    HW220205   5.135   1.016   1.071
 6436SOL     OW20206   0.083   3.631   3.895
 6436SOL    HW120207   0.091   3.624   3.994
 6436SOL    HW220208   7.022   3.592   3.865
 6437SOL     OW20209   0.529   1.298   5.631
 6437SOL    HW120210   0.535   1.288   5.730
 6437SOL    HW220211   0.544   1.393   5.606
 6438SOL     OW20212   0.617   5.709   0.325
 6438SOL    HW120213   0.603   5.805   0.350
 6438SOL    HW220214   0.535   5.673   0.280
 6439SOL     OW20215   5.250   6.949   3.214
 6439SOL    HW120216   5.293   6.946   3.124
 6439SOL    HW220217   5.206   0.012   3.227
 6440SOL     OW20218   2.293   1.537   6.109
 6440SOL    HW120219   2.208   1.485   6.098
 6440SOL    HW220220   2.361   1.505   6.044
 6441SOL     OW20221   0.250   0.943   2.706
 6441SOL    HW120222   0.217   1.037   2.706
 6441SOL    HW220223   0.312   0.929   2.783
 6442SOL     OW20224   2.998   2.818   5.428
 6442SOL    HW120225   2.984   2.738   5.369
 6442SOL    HW220226   3.041   2.789   5.513
 6443SOL     OW20227   4.745   2.479   1.234
 6443SOL    HW120228   4.799   2.561   1.215
 6443SOL    HW220229   4.698   2.450   1.150
 6444SOL     OW20230   0.242   3.292   5.005
 6444SOL    HW120231   0.282   3.254   4.922
 6444SOL    HW220232   0.287   3.252   5.085
 6445SOL     OW20233   3.020   3.904   3.291
 6445SOL    HW120234   2.925   3.901   3.321
 6445SOL    HW220235   3.080   3.905   3.371
 6446SOL     OW20236   2.436   1.881   6.756
 6446SOL    HW120237   2.369   1.839   6.818
 6446SOL    HW220238   2.424   1.980   6.757
 6447SOL     OW20239   6.465   4.449   0.975
 6447SOL    HW120240   6.387   4.462   0.914
 6447SOL    HW220241   6.481   4.533   1.027
 6448SOL     OW20242   4.837   5.237   1.697
 6448SOL    HW120243   4.818   5.330   1.728
 6448SOL    HW220244   4.767   5.175   1.733
 6449SOL     OW20245   2.053   5.831   1.360
 6449SOL    HW120246   2.130   5.776   1.327
 6449SOL    HW220247   1.992   5.774   1.416
 6450SOL     OW20248   0.165   3.782   0.788
 6450SOL    HW120249   0.244   3.799   0.846
 6450SOL    HW220250   0.139   3.686   0.793
 6451SOL     OW20251   3.311   2.414   1.272
 6451SOL    HW120252   3.380   2.345   1.294
 6451SOL    HW220253   3.258   2.437   1.354
 6452SOL     OW20254   5.525   2.811   3.032
 6452SOL    HW120255   5.502   2.904   3.005
 6452SOL    HW220256   5.522   2.752   2.951
 6453SOL     OW20257   3.492   7.001   0.903
 6453SOL    HW120258   3.572   6.951   0.869
 6453SOL    HW220259   3.416   6.990   0.839
 6454SOL     OW20260   6.068   2.776   2.777
 6454SOL    HW120261   5.991   2.833   2.749
 6454SOL    HW220262   6.126   2.828   2.840
 6455SOL     OW20263   6.347   3.676   3.575
 6455SOL    HW120264   6.348   3.579   3.598
 6455SOL    HW220265   6.319   3.729   3.656
 6456SOL     OW20266   6.327   1.495   2.906
 6456SOL    HW120267   6.365   1.570   2.959
 6456SOL    HW220268   6.240   1.465   2.947
 6457SOL     OW20269   4.895   0.247   1.824
 6457SOL    HW120270   4.926   0.338   1.798
 6457SOL    HW220271   4.812   0.255   1.880
 6458SOL     OW20272   1.022   4.976   3.815
 6458SOL    HW120273   0.964   4.896   3.802
 6458SOL    HW220274   1.044   5.016   3.727
 6459SOL     OW20275   6.295   3.076   2.746
 6459SOL    HW120276   6.277   3.040   2.654
 6459SOL    HW220277   6.266   3.171   2.750
 6460SOL     OW20278   7.024   5.830   6.496
 6460SOL    HW120279   7.002   5.867   6.586
 6460SOL    HW220280   7.014   5.902   6.427
 6461SOL     OW20281   2.944   4.945   1.416
 6461SOL    HW120282   2.887   4.877   1.463
 6461SOL    HW220283   2.998   4.995   1.483
 6462SOL     OW20284   1.361   4.031   5.179
 6462SOL    HW120285   1.369   3.949   5.122
 6462SOL    HW220286   1.373   4.007   5.275
 6463SOL     OW20287   4.331   1.195   1.299
 6463SOL    HW120288   4.302   1.275   1.351
 6463SOL    HW220289   4.406   1.219   1.238
 6464SOL     OW20290   0.726   5.640   4.224
 6464SOL    HW120291   0.661   5.576   4.182
 6464SOL    HW220292   0.755   5.707   4.156
 6465SOL     OW20293   4.627   1.978   3.529
 6465SOL    HW120294   4.580   2.065   3.516
 6465SOL    HW220295   4.706   1.993   3.589
 6466SOL     OW20296   0.692   3.440   0.144
 6466SOL    HW120297   0.681   3.371   0.072
 6466SOL    HW220298   0.691   3.395   0.234
 6467SOL     OW20299   3.323   1.164   1.128
 6467SOL    HW120300   3.414   1.142   1.162
 6467SOL    HW220301   3.310   1.263   1.128
 6468SOL     OW20302   3.130   0.258   0.246
 6468SOL    HW120303   3.044   0.299   0.215
 6468SOL    HW220304   3.140   0.271   0.345
 6469SOL     OW20305   3.683   1.546   2.819
 6469SOL    HW120306   3.692   1.625   2.758
 6469SOL    HW220307   3.612   1.565   2.887
 6470SOL     OW20308   6.476   2.324   0.026
 6470SOL    HW120309   6.389   2.348   0.068
 6470SOL    HW220310   6.460   2.282   6.962
 6471SOL     OW20311   0.046   6.525   5.132
 6471SOL    HW120312   0.053   6.428   5.155
 6471SOL    HW220313   6.991   6.540   5.077
 6472SOL     OW20314   6.884   5.747   2.664
 6472SOL    HW120315   6.791   5.774   2.690
 6472SOL    HW220316   6.930   5.705   2.743
 6473SOL     OW20317   2.327   1.067   4.297
 6473SOL    HW120318   2.411   1.013   4.286
 6473SOL    HW220319   2.309   1.116   4.212
 6474SOL     OW20320   3.792   5.969   4.919
 6474SOL    HW120321   3.880   5.953   4.874
 6474SOL    HW220322   3.733   5.890   4.904
 6475SOL     OW20323   5.783   4.743   2.997
 6475SOL    HW120324   5.864   4.726   2.941
 6475SOL    HW220325   5.736   4.656   3.015
 6476SOL     OW20326   4.158   1.347   6.502
 6476SOL    HW120327   4.085   1.415   6.497
 6476SOL    HW220328   4.231   1.372   6.438
 6477SOL     OW20329   6.728   6.175   1.652
 6477SOL    HW120330   6.756   6.177   1.748
 6477SOL    HW220331   6.808   6.184   1.593
 6478SOL     OW20332   3.648   5.993   1.719
 6478SOL    HW120333   3.682   5.960   1.807
 6478SOL    HW220334   3.550   6.013   1.725
 6479SOL     OW20335   3.323   6.487   4.135
 6479SOL    HW120336   3.376   6.425   4.193
 6479SOL    HW220337   3.375   6.571   4.121
 6480SOL     OW20338   3.443   0.964   0.039
 6480SOL    HW120339   3.384   1.044   0.041
 6480SOL    HW220340   3.527   0.983   0.091
 6481SOL     OW20341   3.277   2.538   1.619
 6481SOL    HW120342   3.193   2.589   1.635
 6481SOL    HW220343   3.256   2.441   1.608
 6482SOL     OW20344   6.685   3.476   5.181
 6482SOL    HW120345   6.681   3.380   5.207
 6482SOL    HW220346   6.613   3.526   5.230
 6483SOL     OW20347   1.027   5.646   5.256
 6483SOL    HW120348   1.050   5.640   5.353
 6483SOL    HW220349   1.080   5.580   5.204
 6484SOL     OW20350   2.803   0.820   4.401
 6484SOL    HW120351   2.761   0.775   4.479
 6484SOL    HW220352   2.848   0.752   4.343
 6485SOL     OW20353   2.110   6.985   4.506
 6485SOL    HW120354   2.015   7.013   4.494
 6485SOL    HW220355   2.162   7.007   4.423
 6486SOL     OW20356   1.657   5.263   3.147
 6486SOL    HW120357   1.644   5.221   3.057
 6486SOL    HW220358   1.600   5.344   3.154
 6487SOL     OW20359   0.285   4.363   4.280
 6487SOL    HW120360   0.317   4.457   4.265
 6487SOL    HW220361   0.361   4.307   4.314
 6488SOL     OW20362   4.636   5.339   4.628
 6488SOL    HW120363   4.662   5.396   4.550
 6488SOL    HW220364   4.542   5.308   4.616
 6489SOL     OW20365   4.106   2.855   6.160
 6489SOL    HW120366   4.033   2.886   6.099
 6489SOL    HW220367   4.180   2.921   6.161
 6490SOL     OW20368   1.877   2.178   6.534
 6490SOL    HW120369   1.890   2.236   6.614
 6490SOL    HW220370   1.967   2.158   6.494
 6491SOL     OW20371   1.441   0.574   0.019
 6491SOL    HW120372   1.501   0.495   0.007
 6491SOL    HW220373   1.373   0.575   6.972
 6492SOL     OW20374   3.705   3.834   4.927
 6492SOL    HW120375   3.619   3.819   4.977
 6492SOL    HW220376   3.688   3.828   4.829
 6493SOL     OW20377   1.018   4.417   6.052
 6493SOL    HW120378   1.062   4.401   6.140
 6493SOL    HW220379   0.947   4.348   6.036
 6494SOL     OW20380   6.238   6.810   2.280
 6494SOL    HW120381   6.149   6.841   2.248
 6494SOL    HW220382   6.286   6.762   2.206
 6495SOL     OW20383   0.230   0.001   3.606
 6495SOL    HW120384   0.328   7.013   3.617
 6495SOL    HW220385   0.205   0.092   3.640
 6496SOL     OW20386   5.087   0.447   2.048
 6496SOL    HW120387   5.040   0.359   2.044
 6496SOL    HW220388   5.181   0.434   2.080
 6497SOL     OW20389   6.932   1.593   0.594
 6497SOL    HW120390   6.846   1.621   0.636
 6497SOL    HW220391   6.969   1.669   0.540
 6498SOL     OW20392   1.253   4.171   3.678
 6498SOL    HW120393   1.209   4.099   3.624
 6498SOL    HW220394   1.278   4.135   3.767
 6499SOL     OW20395   5.794   3.922   4.172
 6499SOL    HW120396   5.695   3.913   4.184
 6499SOL    HW220397   5.834   3.830   4.168
 6500SOL     OW20398   1.547   3.679   2.614
 6500SOL    HW120399   1.608   3.642   2.544
 6500SOL    HW220400   1.564   3.777   2.624
 6501SOL     OW20401   6.407   2.029   1.172
 6501SOL    HW120402   6.312   2.058   1.158
 6501SOL    HW220403   6.410   1.930   1.184
 6502SOL     OW20404   6.279   3.800   1.787
 6502SOL    HW120405   6.244   3.834   1.700
 6502SOL    HW220406   6.219   3.728   1.821
 6503SOL     OW20407   6.744   3.330   5.544
 6503SOL    HW120408   6.828   3.363   5.502
 6503SOL    HW220409   6.699   3.266   5.482
 6504SOL     OW20410   4.349   6.093   6.668
 6504SOL    HW120411   4.334   6.099   6.767
 6504SOL    HW220412   4.447   6.092   6.649
 6505SOL     OW20413   5.746   5.492   6.841
 6505SOL    HW120414   5.791   5.418   6.891
 6505SOL    HW220415   5.808   5.527   6.771
 6506SOL     OW20416   0.369   3.210   2.596
 6506SOL    HW120417   0.275   3.221   2.630
 6506SOL    HW220418   0.408   3.299   2.576
 6507SOL     OW20419   3.976   4.458   6.796
 6507SOL    HW120420   4.067   4.422   6.819
 6507SOL    HW220421   3.953   4.434   6.702
 6508SOL     OW20422   1.218   6.575   1.729
 6508SOL    HW120423   1.260   6.502   1.676
 6508SOL    HW220424   1.146   6.618   1.675
 6509SOL     OW20425   3.772   1.594   5.625
 6509SOL    HW120426   3.785   1.537   5.706
 6509SOL    HW220427   3.679   1.631   5.625
 6510SOL     OW20428   4.490   5.956   5.982
 6510SOL    HW120429   4.536   5.970   6.069
 6510SOL    HW220430   4.534   6.013   5.912
 6511SOL     OW20431   3.162   0.830   0.324
 6511SOL    HW120432   3.137   0.895   0.252
 6511SOL    HW220433   3.258   0.804   0.312
 6512SOL     OW20434   3.243   0.653   1.003
 6512SOL    HW120435   3.185   0.672   1.082
 6512SOL    HW220436   3.185   0.637   0.923
 6513SOL     OW20437   2.686   5.462   4.256
 6513SOL    HW120438   2.655   5.504   4.341
 6513SOL    HW220439   2.684   5.529   4.182
 6514SOL     OW20440   5.887   0.404   5.731
 6514SOL    HW120441   5.917   0.308   5.735
 6514SOL    HW220442   5.859   0.434   5.822
 6515SOL     OW20443   2.230   5.197   2.263
 6515SOL    HW120444   2.247   5.263   2.337
 6515SOL    HW220445   2.193   5.113   2.301
 6516SOL     OW20446   6.850   3.488   0.896
 6516SOL    HW120447   6.788   3.534   0.959
 6516SOL    HW220448   6.803   3.410   0.854
 6517SOL     OW20449   6.803   2.962   6.583
 6517SOL    HW120450   6.746   2.889   6.619
 6517SOL    HW220451   6.756   3.050   6.594
 6518SOL     OW20452   1.219   1.617   2.790
 6518SOL    HW120453   1.227   1.679   2.868
 6518SOL    HW220454   1.133   1.566   2.797
 6519SOL     OW20455   1.362   1.795   3.224
 6519SOL    HW120456   1.436   1.802   3.156
 6519SOL    HW220457   1.396   1.825   3.313
 6520SOL     OW20458   0.371   5.648   0.186
 6520SOL    HW120459   0.348   5.654   0.089
 6520SOL    HW220460   0.327   5.723   0.236
 6521SOL     OW20461   1.472   3.028   4.142
 6521SOL    HW120462   1.544   3.022   4.073
 6521SOL    HW220463   1.399   2.964   4.121
 6522SOL     OW20464   2.617   3.893   5.338
 6522SOL    HW120465   2.540   3.924   5.281
 6522SOL    HW220466   2.622   3.793   5.335
 6523SOL     OW20467   5.831   0.690   0.366
 6523SOL    HW120468   5.781   0.685   0.279
 6523SOL    HW220469   5.890   0.610   0.374
 6524SOL     OW20470   2.157   2.451   1.317
 6524SOL    HW120471   2.064   2.484   1.331
 6524SOL    HW220472   2.186   2.471   1.224
 6525SOL     OW20473   1.398   4.799   3.549
 6525SOL    HW120474   1.350   4.803   3.637
 6525SOL    HW220475   1.461   4.877   3.541
 6526SOL     OW20476   0.240   0.306   0.705
 6526SOL    HW120477   0.268   0.368   0.632
 6526SOL    HW220478   0.306   0.231   0.712
 6527SOL     OW20479   0.785   2.669   0.204
 6527SOL    HW120480   0.699   2.618   0.192
 6527SOL    HW220481   0.784   2.715   0.293
 6528SOL     OW20482   6.178   0.872   5.760
 6528SOL    HW120483   6.090   0.850   5.717
 6528SOL    HW220484   6.251   0.818   5.716
 6529SOL     OW20485   6.768   1.276   2.402
 6529SOL    HW120486   6.867   1.282   2.390
 6529SOL    HW220487   6.722   1.321   2.326
 6530SOL     OW20488   0.540   2.570   2.260
 6530SOL    HW120489   0.456   2.621   2.244
 6530SOL    HW220490   0.617   2.634   2.267
 6531SOL     OW20491   3.697   3.277   5.553
 6531SOL    HW120492   3.678   3.305   5.648
 6531SOL    HW220493   3.612   3.283   5.500
 6532SOL     OW20494   1.297   0.539   0.841
 6532SOL    HW120495   1.341   0.529   0.930
 6532SOL    HW220496   1.293   0.636   0.817
 6533SOL     OW20497   4.003   3.704   6.843
 6533SOL    HW120498   3.971   3.746   6.758
 6533SOL    HW220499   4.020   3.776   6.911
 6534SOL     OW20500   6.218   4.830   2.538
 6534SOL    HW120501   6.266   4.884   2.607
 6534SOL    HW220502   6.143   4.883   2.500
 6535SOL     OW20503   6.336   3.339   5.260
 6535SOL    HW120504   6.299   3.247   5.274
 6535SOL    HW220505   6.287   3.403   5.319
 6536SOL     OW20506   0.576   3.472   5.279
 6536SOL    HW120507   0.636   3.424   5.215
 6536SOL    HW220508   0.494   3.418   5.296
 6537SOL     OW20509   5.972   4.699   4.423
 6537SOL    HW120510   5.989   4.674   4.518
 6537SOL    HW220511   5.900   4.641   4.386
 6538SOL     OW20512   2.326   3.547   5.316
 6538SOL    HW120513   2.362   3.612   5.383
 6538SOL    HW220514   2.355   3.455   5.339
 6539SOL     OW20515   6.306   0.642   6.306
 6539SOL    HW120516   6.226   0.695   6.332
 6539SOL    HW220517   6.318   0.564   6.367
 6540SOL     OW20518   4.517   2.578   6.142
 6540SOL    HW120519   4.535   2.483   6.167
 6540SOL    HW220520   4.493   2.582   6.044
 6541SOL     OW20521   5.853   1.162   4.600
 6541SOL    HW120522   5.947   1.131   4.584
 6541SOL    HW220523   5.835   1.161   4.699
 6542SOL     OW20524   1.589   3.475   4.731
 6542SOL    HW120525   1.654   3.548   4.752
 6542SOL    HW220526   1.503   3.516   4.700
 6543SOL     OW20527   3.924   2.104   4.915
 6543SOL    HW120528   3.957   2.099   5.009
 6543SOL    HW220529   3.865   2.185   4.905
 6544SOL     OW20530   1.036   6.784   1.555
 6544SOL    HW120531   1.050   6.881   1.572
 6544SOL    HW220532   1.102   6.753   1.485
 6545SOL     OW20533   4.386   0.210   1.226
 6545SOL    HW120534   4.476   0.180   1.193
 6545SOL    HW220535   4.324   0.219   1.148
 6546SOL     OW20536   5.143   3.983   6.087
 6546SOL    HW120537   5.109   3.900   6.044
 6546SOL    HW220538   5.076   4.056   6.076
 6547SOL     OW20539   5.698   5.788   0.280
 6547SOL    HW120540   5.599   5.771   0.276
 6547SOL    HW220541   5.746   5.701   0.288
 6548SOL     OW20542   0.822   2.493   5.613
 6548SOL    HW120543   0.790   2.531   5.525
 6548SOL    HW220544   0.801   2.558   5.686
 6549SOL     OW20545   5.068   6.690   1.741
 6549SOL    HW120546   5.120   6.690   1.656
 6549SOL    HW220547   5.043   6.784   1.765
 6550SOL     OW20548   6.512   0.017   3.336
 6550SOL    HW120549   6.455   6.985   3.279
 6550SOL    HW220550   6.526   0.105   3.292
 6551SOL     OW20551   3.202   3.346   1.679
 6551SOL    HW120552   3.204   3.446   1.687
 6551SOL    HW220553   3.244   3.319   1.592
 6552SOL     OW20554   2.108   0.396   0.401
 6552SOL    HW120555   2.064   0.310   0.426
 6552SOL    HW220556   2.207   0.385   0.402
 6553SOL     OW20557   0.168   0.812   3.071
 6553SOL    HW120558   0.172   0.889   3.136
 6553SOL    HW220559   0.072   0.790   3.053
 6554SOL     OW20560   3.329   1.104   4.720
 6554SOL    HW120561   3.384   1.075   4.642
 6554SOL    HW220562   3.275   1.027   4.753
 6555SOL     OW20563   6.532   1.908   4.597
 6555SOL    HW120564   6.536   1.952   4.507
 6555SOL    HW220565   6.447   1.857   4.606
 6556SOL     OW20566   5.632   2.960   3.856
 6556SOL    HW120567   5.637   2.997   3.948
 6556SOL    HW220568   5.569   3.015   3.801
 6557SOL     OW20569   1.808   6.613   2.399
 6557SOL    HW120570   1.760   6.559   2.469
 6557SOL    HW220571   1.745   6.679   2.359
 6558SOL     OW20572   5.461   4.906   0.341
 6558SOL    HW120573   5.537   4.863   0.292
 6558SOL    HW220574   5.427   4.984   0.288
 6559SOL     OW20575   6.228   2.796   6.057
 6559SOL    HW120576   6.133   2.822   6.073
 6559SOL    HW220577   6.276   2.870   6.009
 6560SOL     OW20578   4.939   4.812   0.627
 6560SOL    HW120579   4.997   4.779   0.553
 6560SOL    HW220580   4.955   4.910   0.641
 6561SOL     OW20581   3.643   5.114   0.493
 6561SOL    HW120582   3.601   5.034   0.450
 6561SOL    HW220583   3.691   5.167   0.423
 6562SOL     OW20584   6.002   2.536   0.818
 6562SOL    HW120585   6.005   2.442   0.786
 6562SOL    HW220586   6.014   2.538   0.918
 6563SOL     OW20587   5.153   6.888   4.776
 6563SOL    HW120588   5.181   6.981   4.800
 6563SOL    HW220589   5.098   6.890   4.692
 6564SOL     OW20590   0.052   4.080   2.463
 6564SOL    HW120591   0.023   4.092   2.558
 6564SOL    HW220592   0.114   4.002   2.457
 6565SOL     OW20593   5.947   7.025   2.493
 6565SOL    HW120594   5.898   0.081   2.521
 6565SOL    HW220595   5.930   6.951   2.559
 6566SOL     OW20596   4.097   5.989   2.387
 6566SOL    HW120597   4.078   6.034   2.474
 6566SOL    HW220598   4.099   6.057   2.314
 6567SOL     OW20599   4.476   0.719   1.093
 6567SOL    HW120600   4.383   0.753   1.077
 6567SOL    HW220601   4.472   0.638   1.151
 6568SOL     OW20602   3.684   0.838   1.542
 6568SOL    HW120603   3.761   0.843   1.479
 6568SOL    HW220604   3.599   0.855   1.493
 6569SOL     OW20605   1.193   3.455   5.680
 6569SOL    HW120606   1.179   3.551   5.706
 6569SOL    HW220607   1.155   3.439   5.589
 6570SOL     OW20608   3.950   6.784   1.959
 6570SOL    HW120609   3.858   6.771   1.921
 6570SOL    HW220610   4.015   6.800   1.885
 6571SOL     OW20611   2.588   5.018   3.543
 6571SOL    HW120612   2.680   5.024   3.505
 6571SOL    HW220613   2.523   5.003   3.468
 6572SOL     OW20614   0.270   5.899   4.010
 6572SOL    HW120615   0.177   5.885   4.042
 6572SOL    HW220616   0.334   5.876   4.083
 6573SOL     OW20617   2.270   1.213   3.008
 6573SOL    HW120618   2.357   1.195   2.963
 6573SOL    HW220619   2.287   1.255   3.097
 6574SOL     OW20620   2.066   5.961   2.185
 6574SOL    HW120621   2.100   6.044   2.142
 6574SOL    HW220622   2.133   5.928   2.252
 6575SOL     OW20623   0.122   0.224   2.612
 6575SOL    HW120624   0.094   0.310   2.653
 6575SOL    HW220625   0.221   0.222   2.601
 6576SOL     OW20626   3.688   5.642   0.472
 6576SOL    HW120627   3.658   5.646   0.567
 6576SOL    HW220628   3.752   5.566   0.460
 6577SOL     OW20629   2.323   1.969   4.252
 6577SOL    HW120630   2.235   1.926   4.270
 6577SOL    HW220631   2.362   2.004   4.337
 6578SOL     OW20632   1.805   5.203   1.685
 6578SOL    HW120633   1.862   5.153   1.619
 6578SOL    HW220634   1.777   5.140   1.758
 6579SOL     OW20635   0.094   1.166   3.635
 6579SOL    HW120636   0.027   1.223   3.587
 6579SOL    HW220637   0.079   1.174   3.734
 6580SOL     OW20638   0.810   0.235   6.888
 6580SOL    HW120639   0.889   0.213   6.832
 6580SOL    HW220640   0.823   0.200   6.981
 6581SOL     OW20641   1.752   1.879   6.699
 6581SOL    HW120642   1.840   1.900   6.659
 6581SOL    HW220643   1.745   1.780   6.713
 6582SOL     OW20644   6.355   0.733   2.828
 6582SOL    HW120645   6.386   0.662   2.891
 6582SOL    HW220646   6.267   0.768   2.859
 6583SOL     OW20647   4.418   6.580   6.583
 6583SOL    HW120648   4.486   6.581   6.510
 6583SOL    HW220649   4.367   6.667   6.582
 6584SOL     OW20650   3.384   2.360   0.942
 6584SOL    HW120651   3.286   2.365   0.922
 6584SOL    HW220652   3.415   2.447   0.979
 6585SOL     OW20653   6.128   6.984   0.757
 6585SOL    HW120654   6.071   6.960   0.678
 6585SOL    HW220655   6.196   6.912   0.771
 6586SOL     OW20656   5.930   2.207   5.889
 6586SOL    HW120657   5.992   2.271   5.934
 6586SOL    HW220658   5.982   2.151   5.824
 6587SOL     OW20659   1.472   4.030   5.762
 6587SOL    HW120660   1.375   4.055   5.759
 6587SOL    HW220661   1.526   4.111   5.785
 6588SOL     OW20662   0.355   3.245   0.363
 6588SOL    HW120663   0.452   3.235   0.345
 6588SOL    HW220664   0.340   3.258   0.461
 6589SOL     OW20665   6.676   1.020   1.540
 6589SOL    HW120666   6.666   0.944   1.476
 6589SOL    HW220667   6.586   1.056   1.564
 6590SOL     OW20668   0.900   0.745   4.802
 6590SOL    HW120669   0.894   0.646   4.810
 6590SOL    HW220670   0.990   0.771   4.766
 6591SOL     OW20671   5.317   5.122   4.206
 6591SOL    HW120672   5.342   5.109   4.301
 6591SOL    HW220673   5.327   5.035   4.156
 6592SOL     OW20674   4.893   6.589   3.137
 6592SOL    HW120675   4.939   6.672   3.166
 6592SOL    HW220676   4.861   6.598   3.043
 6593SOL     OW20677   2.676   2.362   2.414
 6593SOL    HW120678   2.640   2.369   2.321
 6593SOL    HW220679   2.614   2.409   2.478
 6594SOL     OW20680   4.006   1.587   6.411
 6594SOL    HW120681   3.948   1.667   6.425
 6594SOL    HW220682   4.068   1.602   6.335
 6595SOL     OW20683   1.907   2.194   4.834
 6595SOL    HW120684   1.927   2.097   4.818
 6595SOL    HW220685   1.810   2.211   4.819
 6596SOL     OW20686   5.288   5.632   2.562
 6596SOL    HW120687   5.217   5.693   2.527
 6596SOL    HW220688   5.345   5.683   2.627
 6597SOL     OW20689   1.095   5.162   2.524
 6597SOL    HW120690   1.144   5.075   2.516
 6597SOL    HW220691   0.997   5.147   2.508
 6598SOL     OW20692   1.930   4.668   4.238
 6598SOL    HW120693   1.879   4.713   4.164
 6598SOL    HW220694   2.027   4.668   4.215
 6599SOL     OW20695   5.799   6.335   6.144
 6599SOL    HW120696   5.712   6.381   6.126
 6599SOL    HW220697   5.854   6.336   6.061
 6600SOL     OW20698   4.607   6.893   5.419
 6600SOL    HW120699   4.565   6.919   5.506
 6600SOL    HW220700   4.615   6.974   5.361
 6601SOL     OW20701   1.322   3.109   2.609
 6601SOL    HW120702   1.225   3.129   2.593
 6601SOL    HW220703   1.375   3.134   2.529
 6602SOL     OW20704   2.209   0.270   1.437
 6602SOL    HW120705   2.252   0.196   1.386
 6602SOL    HW220706   2.280   0.329   1.476
 6603SOL     OW20707   0.575   2.705   3.341
 6603SOL    HW120708   0.661   2.735   3.300
 6603SOL    HW220709   0.499   2.757   3.303
 6604SOL     OW20710   2.278   6.792   1.686
 6604SOL    HW120711   2.191   6.836   1.710
 6604SOL    HW220712   2.352   6.835   1.736
 6605SOL     OW20713   6.302   5.187   1.706
 6605SOL    HW120714   6.293   5.242   1.623
 6605SOL    HW220715   6.226   5.123   1.712
 6606SOL     OW20716   1.735   3.432   3.951
 6606SOL    HW120717   1.763   3.398   3.861
 6606SOL    HW220718   1.770   3.372   4.023
 6607SOL     OW20719   5.649   3.918   3.631
 6607SOL    HW120720   5.696   3.925   3.719
 6607SOL    HW220721   5.706   3.958   3.559
 6608SOL     OW20722   6.764   0.103   6.499
 6608SOL    HW120723   6.836   0.079   6.564
 6608SOL    HW220724   6.794   0.180   6.443
 6609SOL     OW20725   4.750   2.030   5.709
 6609SOL    HW120726   4.800   2.027   5.795
 6609SOL    HW220727   4.807   2.074   5.639
 6610SOL     OW20728   2.816   5.764   1.235
 6610SOL    HW120729   2.892   5.778   1.299
 6610SOL    HW220730   2.812   5.668   1.208
 6611SOL     OW20731   5.182   2.179   3.960
 6611SOL    HW120732   5.171   2.142   3.868
 6611SOL    HW220733   5.109   2.145   4.019
 6612SOL     OW20734   5.771   2.100   6.407
 6612SOL    HW120735   5.866   2.069   6.403
 6612SOL    HW220736   5.727   2.085   6.319
 6613SOL     OW20737   5.177   0.396   6.719
 6613SOL    HW120738   5.145   0.422   6.628
 6613SOL    HW220739   5.101   0.357   6.771
 6614SOL     OW20740   4.568   5.872   1.991
 6614SOL    HW120741   4.576   5.910   2.084
 6614SOL    HW220742   4.483   5.819   1.984
 6615SOL     OW20743   2.981   5.733   0.562
 6615SOL    HW120744   2.963   5.696   0.471
 6615SOL    HW220745   2.928   5.682   0.630
 6616SOL     OW20746   4.574   0.604   6.452
 6616SOL    HW120747   4.597   0.606   6.549
 6616SOL    HW220748   4.633   0.539   6.404
 6617SOL     OW20749   3.967   0.724   3.639
 6617SOL    HW120750   3.996   0.630   3.625
 6617SOL    HW220751   4.045   0.780   3.668
 6618SOL     OW20752   0.528   1.857   3.417
 6618SOL    HW120753   0.490   1.862   3.509
 6618SOL    HW220754   0.624   1.830   3.421
 6619SOL     OW20755   4.640   6.055   4.072
 6619SOL    HW120756   4.541   6.059   4.061
 6619SOL    HW220757   4.678   6.147   4.065
 6620SOL     OW20758   0.391   3.694   3.829
 6620SOL    HW120759   0.335   3.624   3.784
 6620SOL    HW220760   0.461   3.726   3.765
 6621SOL     OW20761   4.151   3.381   5.076
 6621SOL    HW120762   4.239   3.334   5.070
 6621SOL    HW220763   4.136   3.433   4.992
 6622SOL     OW20764   6.672   5.846   0.927
 6622SOL    HW120765   6.653   5.803   1.015
 6622SOL    HW220766   6.615   5.927   0.916
 6623SOL     OW20767   3.511   4.746   5.610
 6623SOL    HW120768   3.424   4.711   5.645
 6623SOL    HW220769   3.540   4.692   5.531
 6624SOL     OW20770   0.736   2.407   4.466
 6624SOL    HW120771   0.829   2.441   4.452
 6624SOL    HW220772   0.732   2.310   4.443
 6625SOL     OW20773   6.004   2.905   5.131
 6625SOL    HW120774   6.051   2.951   5.207
 6625SOL    HW220775   5.921   2.861   5.165
 6626SOL     OW20776   2.871   6.995   4.549
 6626SOL    HW120777   2.932   6.917   4.537
 6626SOL    HW220778   2.828   7.018   4.462
 6627SOL     OW20779   1.331   6.056   4.530
 6627SOL    HW120780   1.311   5.963   4.562
 6627SOL    HW220781   1.414   6.055   4.475
 6628SOL     OW20782   4.827   5.409   3.946
 6628SOL    HW120783   4.852   5.481   4.012
 6628SOL    HW220784   4.804   5.451   3.858
 6629SOL     OW20785   5.328   6.260   6.986
 6629SOL    HW120786   5.322   6.286   0.056
 6629SOL    HW220787   5.250   6.297   6.936
 6630SOL     OW20788   2.277   1.670   1.481
 6630SOL    HW120789   2.343   1.597   1.464
 6630SOL    HW220790   2.195   1.655   1.424
 6631SOL     OW20791   1.770   4.841   5.936
 6631SOL    HW120792   1.732   4.862   5.846
 6631SOL    HW220793   1.805   4.925   5.977
 6632SOL     OW20794   1.192   0.148   0.378
 6632SOL    HW120795   1.281   0.122   0.414
 6632SOL    HW220796   1.141   0.198   0.449
 6633SOL     OW20797   3.095   5.625   6.362
 6633SOL    HW120798   3.156   5.641   6.440
 6633SOL    HW220799   3.101   5.530   6.333
 6634SOL     OW20800   5.058   1.676   5.346
 6634SOL    HW120801   5.014   1.613   5.409
 6634SOL    HW220802   5.117   1.738   5.397
 6635SOL     OW20803   5.439   4.483   2.357
 6635SOL    HW120804   5.510   4.461   2.290
 6635SOL    HW220805   5.359   4.520   2.310
 6636SOL     OW20806   3.409   7.025   2.166
 6636SOL    HW120807   3.316   0.024   2.137
 6636SOL    HW220808   3.474   0.032   2.098
 6637SOL     OW20809   1.668   0.888   0.818
 6637SOL    HW120810   1.617   0.806   0.844
 6637SOL    HW220811   1.606   0.955   0.779
 6638SOL     OW20812   3.291   4.059   3.675
 6638SOL    HW120813   3.360   4.000   3.717
 6638SOL    HW220814   3.324   4.153   3.672
 6639SOL     OW20815   4.587   2.738   0.948
 6639SOL    HW120816   4.554   2.648   0.920
 6639SOL    HW220817   4.569   2.751   1.045
 6640SOL     OW20818   0.898   2.871   5.212
 6640SOL    HW120819   0.910   2.900   5.117
 6640SOL    HW220820   0.982   2.826   5.244
 6641SOL     OW20821   3.821   1.947   0.853
 6641SOL    HW120822   3.845   1.997   0.936
 6641SOL    HW220823   3.848   2.001   0.773
 6642SOL     OW20824   1.473   5.594   0.485
 6642SOL    HW120825   1.452   5.673   0.543
 6642SOL    HW220826   1.427   5.604   0.397
 6643SOL     OW20827   5.163   6.568   0.416
 6643SOL    HW120828   5.066   6.593   0.424
 6643SOL    HW220829   5.173   6.470   0.434
 6644SOL     OW20830   1.650   6.364   2.887
 6644SOL    HW120831   1.582   6.436   2.877
 6644SOL    HW220832   1.628   6.309   2.968
 6645SOL     OW20833   6.487   2.985   0.222
 6645SOL    HW120834   6.483   3.084   0.213
 6645SOL    HW220835   6.542   2.947   0.147
 6646SOL     OW20836   4.161   0.438   6.911
 6646SOL    HW120837   4.231   0.478   6.852
 6646SOL    HW220838   4.071   0.463   6.876
 6647SOL     OW20839   4.191   5.035   1.193
 6647SOL    HW120840   4.164   4.938   1.195
 6647SOL    HW220841   4.189   5.072   1.286
 6648SOL     OW20842   2.988   6.558   4.769
 6648SOL    HW120843   3.023   6.465   4.752
 6648SOL    HW220844   2.891   6.553   4.791
 6649SOL     OW20845   5.760   2.520   6.764
 6649SOL    HW120846   5.710   2.461   6.826
 6649SOL    HW220847   5.772   2.474   6.675
 6650SOL     OW20848   3.092   1.029   5.277
 6650SOL    HW120849   3.011   1.032   5.334
 6650SOL    HW220850   3.171   1.004   5.333
 6651SOL     OW20851   0.717   1.572   6.944
 6651SOL    HW120852   0.675   1.485   6.920
 6651SOL    HW220853   0.724   1.629   6.863
 6652SOL     OW20854   1.123   4.740   0.006
 6652SOL    HW120855   1.085   4.787   0.085
 6652SOL    HW220856   1.148   4.646   0.031
 6653SOL     OW20857   5.465   2.773   0.518
 6653SOL    HW120858   5.521   2.824   0.453
 6653SOL    HW220859   5.512   2.688   0.543
 6654SOL     OW20860   0.486   4.591   3.485
 6654SOL    HW120861   0.567   4.619   3.434
 6654SOL    HW220862   0.407   4.644   3.454
 6655SOL     OW20863   6.727   5.468   1.764
 6655SOL    HW120864   6.688   5.560   1.758
 6655SOL    HW220865   6.804   5.469   1.828
 6656SOL     OW20866   3.804   1.143   2.446
 6656SOL    HW120867   3.895   1.186   2.445
 6656SOL    HW220868   3.734   1.214   2.447
 6657SOL     OW20869   5.647   2.742   4.685
 6657SOL    HW120870   5.549   2.735   4.667
 6657SOL    HW220871   5.699   2.701   4.610
 6658SOL     OW20872   5.904   6.545   4.904
 6658SOL    HW120873   5.941   6.602   4.977
 6658SOL    HW220874   5.841   6.598   4.848
 6659SOL     OW20875   1.080   4.796   1.971
 6659SOL    HW120876   1.018   4.739   2.025
 6659SOL    HW220877   1.027   4.848   1.903
 6660SOL     OW20878   0.601   5.389   2.480
 6660SOL    HW120879   0.515   5.340   2.484
 6660SOL    HW220880   0.612   5.445   2.563
 6661SOL     OW20881   3.083   6.427   4.175
 6661SOL    HW120882   3.174   6.465   4.158
 6661SOL    HW220883   3.061   6.359   4.105
 6662SOL     OW20884   2.757   0.085   1.886
 6662SOL    HW120885   2.820   0.103   1.811
 6662SOL    HW220886   2.669   0.053   1.849
 6663SOL     OW20887   1.866   5.081   6.086
 6663SOL    HW120888   1.966   5.087   6.085
 6663SOL    HW220889   1.828   5.167   6.119
 6664SOL     OW20890   2.370   0.760   1.434
 6664SOL    HW120891   2.373   0.767   1.334
 6664SOL    HW220892   2.409   0.842   1.475
 6665SOL     OW20893   2.794   0.412   5.987
 6665SOL    HW120894   2.770   0.329   5.937
 6665SOL    HW220895   2.853   0.389   6.064
 6666SOL     OW20896   6.360   5.636   4.690
 6666SOL    HW120897   6.372   5.608   4.785
 6666SOL    HW220898   6.279   5.590   4.652
 6667SOL     OW20899   6.464   6.463   5.794
 6667SOL    HW120900   6.392   6.525   5.826
 6667SOL    HW220901   6.459   6.377   5.845
 6668SOL     OW20902   6.833   6.471   1.396
 6668SOL    HW120903   6.757   6.432   1.343
 6668SOL    HW220904   6.822   6.570   1.403
 6669SOL     OW20905   2.047   1.468   1.789
 6669SOL    HW120906   2.034   1.377   1.751
 6669SOL    HW220907   1.994   1.476   1.874
 6670SOL     OW20908   3.021   1.781   6.854
 6670SOL    HW120909   3.076   1.698   6.852
 6670SOL    HW220910   2.924   1.756   6.864
 6671SOL     OW20911   5.257   6.818   0.437
 6671SOL    HW120912   5.244   6.852   0.344
 6671SOL    HW220913   5.221   6.725   0.444
 6672SOL     OW20914   1.246   2.526   0.489
 6672SOL    HW120915   1.218   2.436   0.520
 6672SOL    HW220916   1.170   2.571   0.443
 6673SOL     OW20917   5.190   3.328   4.493
 6673SOL    HW120918   5.099   3.292   4.471
 6673SOL    HW220919   5.201   3.418   4.451
 6674SOL     OW20920   0.354   2.937   6.745
 6674SOL    HW120921   0.362   3.027   6.789
 6674SOL    HW220922   0.417   2.932   6.668
 6675SOL     OW20923   4.717   2.767   0.011
 6675SOL    HW120924   4.670   2.852   7.013
 6675SOL    HW220925   4.812   2.771   7.006
 6676SOL     OW20926   1.232   3.858   3.663
 6676SOL    HW120927   1.291   3.912   3.723
 6676SOL    HW220928   1.227   3.764   3.699
 6677SOL     OW20929   0.379   0.968   0.178
 6677SOL    HW120930   0.430   0.929   0.101
 6677SOL    HW220931   0.353   0.895   0.241
 6678SOL     OW20932   1.883   4.720   0.706
 6678SOL    HW120933   1.873   4.724   0.607
 6678SOL    HW220934   1.809   4.771   0.750
 6679SOL     OW20935   2.416   0.863   3.404
 6679SOL    HW120936   2.462   0.924   3.340
 6679SOL    HW220937   2.317   0.864   3.386
 6680SOL     OW20938   5.376   6.521   0.781
 6680SOL    HW120939   5.362   6.469   0.865
 6680SOL    HW220940   5.437   6.471   0.720
 6681SOL     OW20941   4.652   5.489   1.415
 6681SOL    HW120942   4.646   5.427   1.337
 6681SOL    HW220943   4.703   5.444   1.489
 6682SOL     OW20944   3.041   5.526   6.993
 6682SOL    HW120945   3.025   5.428   6.996
 6682SOL    HW220946   3.131   5.544   6.952
 6683SOL     OW20947   5.904   3.643   6.794
 6683SOL    HW120948   5.976   3.700   6.753
 6683SOL    HW220949   5.815   3.672   6.760
 6684SOL     OW20950   3.186   0.127   1.546
 6684SOL    HW120951   3.115   0.163   1.606
 6684SOL    HW220952   3.158   0.139   1.451
 6685SOL     OW20953   3.940   3.381   6.614
 6685SOL    HW120954   3.880   3.438   6.671
 6685SOL    HW220955   4.025   3.430   6.595
 6686SOL     OW20956   5.993   5.461   4.029
 6686SOL    HW120957   6.015   5.558   4.024
 6686SOL    HW220958   6.015   5.417   3.942
 6687SOL     OW20959   6.610   2.621   1.958
 6687SOL    HW120960   6.517   2.585   1.954
 6687SOL    HW220961   6.671   2.561   1.907
 6688SOL     OW20962   3.766   5.148   1.035
 6688SOL    HW120963   3.758   5.168   1.133
 6688SOL    HW220964   3.821   5.219   0.992
 6689SOL     OW20965   3.291   4.823   5.877
 6689SOL    HW120966   3.247   4.903   5.837
 6689SOL    HW220967   3.244   4.740   5.846
 6690SOL     OW20968   0.833   0.292   5.943
 6690SOL    HW120969   0.817   0.215   6.005
 6690SOL    HW220970   0.850   0.375   5.997
 6691SOL     OW20971   1.792   1.577   2.616
 6691SOL    HW120972   1.707   1.527   2.632
 6691SOL    HW220973   1.773   1.660   2.564
 6692SOL     OW20974   4.270   4.588   1.853
 6692SOL    HW120975   4.187   4.568   1.801
 6692SOL    HW220976   4.330   4.508   1.851
 6693SOL     OW20977   4.696   1.450   5.111
 6693SOL    HW120978   4.765   1.391   5.069
 6693SOL    HW220979   4.649   1.503   5.040
 6694SOL     OW20980   3.875   6.005   1.280
 6694SOL    HW120981   3.782   5.997   1.316
 6694SOL    HW220982   3.930   5.928   1.313
 6695SOL     OW20983   2.813   2.252   0.385
 6695SOL    HW120984   2.856   2.331   0.341
 6695SOL    HW220985   2.801   2.179   0.318
 6696SOL     OW20986   3.802   3.983   3.806
 6696SOL    HW120987   3.749   3.907   3.844
 6696SOL    HW220988   3.885   3.996   3.861
 6697SOL     OW20989   4.843   2.078   2.304
 6697SOL    HW120990   4.848   1.995   2.249
 6697SOL    HW220991   4.935   2.104   2.334
 6698SOL     OW20992   3.687   4.303   1.772
 6698SOL    HW120993   3.632   4.248   1.835
 6698SOL    HW220994   3.649   4.396   1.767
 6699SOL     OW20995   1.511   5.034   6.235
 6699SOL    HW120996   1.507   5.005   6.140
 6699SOL    HW220997   1.436   5.097   6.255
 6700SOL     OW20998   5.785   0.290   0.723
 6700SOL    HW120999   5.769   0.228   0.800
 6700SOL    HW221000   5.793   0.237   0.638
 6701SOL     OW21001   5.991   6.721   1.786
 6701SOL    HW121002   5.980   6.821   1.778
 6701SOL    HW221003   6.054   6.700   1.861
 6702SOL     OW21004   2.517   2.125   1.035
 6702SOL    HW121005   2.530   2.222   1.054
 6702SOL    HW221006   2.470   2.082   1.112
 6703SOL     OW21007   1.396   1.889   5.906
 6703SOL    HW121008   1.481   1.848   5.940
 6703SOL    HW221009   1.416   1.943   5.824
 6704SOL     OW21010   3.687   1.680   4.691
 6704SOL    HW121011   3.704   1.771   4.728
 6704SOL    HW221012   3.770   1.625   4.698
 6705SOL     OW21013   6.282   3.666   1.255
 6705SOL    HW121014   6.297   3.759   1.290
 6705SOL    HW221015   6.260   3.670   1.158
 6706SOL     OW21016   0.784   6.372   0.921
 6706SOL    HW121017   0.828   6.287   0.891
 6706SOL    HW221018   0.684   6.361   0.917
 6707SOL     OW21019   6.279   0.598   2.433
 6707SOL    HW121020   6.360   0.540   2.449
 6707SOL    HW221021   6.262   0.606   2.335
 6708SOL     OW21022   6.653   4.527   1.306
 6708SOL    HW121023   6.566   4.487   1.334
 6708SOL    HW221024   6.636   4.601   1.241
 6709SOL     OW21025   1.383   4.572   2.272
 6709SOL    HW121026   1.293   4.533   2.252
 6709SOL    HW221027   1.386   4.667   2.243
 6710SOL     OW21028   3.964   1.319   1.904
 6710SOL    HW121029   3.987   1.408   1.866
 6710SOL    HW221030   3.957   1.252   1.830
 6711SOL     OW21031   4.848   6.132   6.921
 6711SOL    HW121032   4.856   6.081   6.836
 6711SOL    HW221033   4.798   6.076   6.988
 6712SOL     OW21034   6.001   3.884   0.329
 6712SOL    HW121035   5.929   3.843   0.385
 6712SOL    HW221036   6.082   3.827   0.332
 6713SOL     OW21037   1.705   0.618   4.081
 6713SOL    HW121038   1.638   0.682   4.118
 6713SOL    HW221039   1.742   0.562   4.155
 6714SOL     OW21040   5.806   1.237   0.566
 6714SOL    HW121041   5.857   1.321   0.589
 6714SOL    HW221042   5.802   1.178   0.647
 6715SOL     OW21043   1.301   1.035   1.157
 6715SOL    HW121044   1.269   1.035   1.252
 6715SOL    HW221045   1.389   0.987   1.152
 6716SOL     OW21046   6.619   5.522   2.627
 6716SOL    HW121047   6.522   5.508   2.612
 6716SOL    HW221048   6.639   5.519   2.725
 6717SOL     OW21049   3.205   2.769   6.904
 6717SOL    HW121050   3.244   2.684   6.869
 6717SOL    HW221051   3.135   2.802   6.839
 6718SOL     OW21052   3.675   1.174   1.559
 6718SOL    HW121053   3.753   1.124   1.596
 6718SOL    HW221054   3.591   1.127   1.583
 6719SOL     OW21055   2.072   0.365   0.117
 6719SOL    HW121056   1.974   0.367   0.099
 6719SOL    HW221057   2.091   0.405   0.207
 6720SOL     OW21058   2.575   1.203   5.734
 6720SOL    HW121059   2.499   1.147   5.701
 6720SOL    HW221060   2.591   1.278   5.670
 6721SOL     OW21061   0.166   1.005   0.468
 6721SOL    HW121062   0.090   0.981   0.529
 6721SOL    HW221063   0.196   0.923   0.418
 6722SOL     OW21064   6.578   2.878   7.016
 6722SOL    HW121065   6.625   2.821   0.057
 6722SOL    HW221066   6.488   2.839   6.997
 6723SOL     OW21067   1.502   1.697   6.260
 6723SOL    HW121068   1.508   1.639   6.342
 6723SOL    HW221069   1.550   1.652   6.184
 6724SOL     OW21070   2.133   3.092   6.184
 6724SOL    HW121071   2.078   3.071   6.265
 6724SOL    HW221072   2.093   3.169   6.135
 6725SOL     OW21073   5.960   3.052   3.027
 6725SOL    HW121074   5.956   3.050   3.127
 6725SOL    HW221075   6.034   2.992   2.996
 6726SOL     OW21076   0.164   1.285   5.429
 6726SOL    HW121077   0.251   1.258   5.386
 6726SOL    HW221078   0.123   1.206   5.474
 6727SOL     OW21079   1.394   5.067   5.560
 6727SOL    HW121080   1.482   5.093   5.522
 6727SOL    HW221081   1.373   4.972   5.535
 6728SOL     OW21082   4.169   1.997   3.261
 6728SOL    HW121083   4.111   2.074   3.231
 6728SOL    HW221084   4.111   1.917   3.276
 6729SOL     OW21085   5.677   2.212   1.151
 6729SOL    HW121086   5.622   2.290   1.123
 6729SOL    HW221087   5.733   2.181   1.074
 6730SOL     OW21088   1.456   1.236   0.992
 6730SOL    HW121089   1.464   1.180   1.074
 6730SOL    HW221090   1.459   1.177   0.911
 6731SOL     OW21091   2.180   6.455   0.827
 6731SOL    HW121092   2.155   6.373   0.879
 6731SOL    HW221093   2.140   6.535   0.871
 6732SOL     OW21094   5.802   4.218   4.442
 6732SOL    HW121095   5.900   4.212   4.457
 6732SOL    HW221096   5.785   4.265   4.355
 6733SOL     OW21097   3.386   5.954   0.048
 6733SOL    HW121098   3.371   5.867   0.097
 6733SOL    HW221099   3.434   6.018   0.108
 6734SOL     OW21100   5.214   1.783   4.978
 6734SOL    HW121101   5.248   1.721   5.049
 6734SOL    HW221102   5.119   1.761   4.958
 6735SOL     OW21103   6.243   3.285   4.110
 6735SOL    HW121104   6.302   3.328   4.178
 6735SOL    HW221105   6.248   3.185   4.119
 6736SOL     OW21106   3.317   4.482   1.247
 6736SOL    HW121107   3.250   4.418   1.285
 6736SOL    HW221108   3.278   4.574   1.245
 6737SOL     OW21109   0.580   2.720   1.331
 6737SOL    HW121110   0.659   2.695   1.387
 6737SOL    HW221111   0.576   2.819   1.322
 6738SOL     OW21112   1.425   5.810   3.501
 6738SOL    HW121113   1.493   5.836   3.433
 6738SOL    HW221114   1.425   5.711   3.512
 6739SOL     OW21115   6.897   6.956   3.847
 6739SOL    HW121116   6.918   6.962   3.749
 6739SOL    HW221117   6.867   6.863   3.868
 6740SOL     OW21118   6.373   0.173   4.330
 6740SOL    HW121119   6.381   0.075   4.317
 6740SOL    HW221120   6.397   0.220   4.245
 6741SOL     OW21121   4.918   2.028   5.926
 6741SOL    HW121122   4.918   2.109   5.985
 6741SOL    HW221123   5.009   2.016   5.886
 6742SOL     OW21124   5.462   4.986   3.623
 6742SOL    HW121125   5.383   4.967   3.681
 6742SOL    HW221126   5.452   5.077   3.582
 6743SOL     OW21127   3.611   4.397   6.729
 6743SOL    HW121128   3.618   4.491   6.760
 6743SOL    HW221129   3.618   4.335   6.807
 6744SOL     OW21130   6.442   5.704   6.092
 6744SOL    HW121131   6.451   5.754   6.178
 6744SOL    HW221132   6.532   5.690   6.051
 6745SOL     OW21133   0.189   6.320   4.168
 6745SOL    HW121134   0.256   6.252   4.139
 6745SOL    HW221135   0.107   6.274   4.202
 6746SOL     OW21136   1.510   1.514   2.444
 6746SOL    HW121137   1.554   1.603   2.460
 6746SOL    HW221138   1.413   1.520   2.468
 6747SOL     OW21139   0.104   7.020   6.176
 6747SOL    HW121140   0.153   0.027   6.096
 6747SOL    HW221141   0.114   6.921   6.184
 6748SOL     OW21142   3.115   1.638   4.168
 6748SOL    HW121143   3.162   1.573   4.108
 6748SOL    HW221144   3.100   1.596   4.257
 6749SOL     OW21145   3.284   4.048   0.681
 6749SOL    HW121146   3.368   3.994   0.689
 6749SOL    HW221147   3.271   4.074   0.585
 6750SOL     OW21148   2.843   1.258   4.497
 6750SOL    HW121149   2.909   1.187   4.471
 6750SOL    HW221150   2.890   1.346   4.505
 6751SOL     OW21151   4.652   0.581   3.600
 6751SOL    HW121152   4.636   0.487   3.628
 6751SOL    HW221153   4.591   0.642   3.651
 6752SOL     OW21154   1.559   6.635   2.823
 6752SOL    HW121155   1.461   6.634   2.808
 6752SOL    HW221156   1.594   6.729   2.811
 6753SOL     OW21157   3.890   2.224   5.938
 6753SOL    HW121158   3.824   2.286   5.981
 6753SOL    HW221159   3.942   2.273   5.869
 6754SOL     OW21160   6.051   0.560   1.045
 6754SOL    HW121161   6.026   0.483   0.986
 6754SOL    HW221162   5.968   0.604   1.080
 6755SOL     OW21163   3.157   5.033   1.302
 6755SOL    HW121164   3.075   4.980   1.322
 6755SOL    HW221165   3.200   5.062   1.387
 6756SOL     OW21166   2.716   1.430   5.607
 6756SOL    HW121167   2.807   1.401   5.635
 6756SOL    HW221168   2.720   1.526   5.577
 6757SOL     OW21169   3.383   1.440   1.207
 6757SOL    HW121170   3.471   1.472   1.174
 6757SOL    HW221171   3.389   1.422   1.305
 6758SOL     OW21172   4.940   3.172   1.209
 6758SOL    HW121173   4.894   3.167   1.298
 6758SOL    HW221174   5.036   3.198   1.222
 6759SOL     OW21175   6.662   3.060   3.116
 6759SOL    HW121176   6.730   2.996   3.151
 6759SOL    HW221177   6.705   3.122   3.051
 6760SOL     OW21178   5.912   3.316   2.676
 6760SOL    HW121179   5.822   3.296   2.714
 6760SOL    HW221180   5.909   3.403   2.628
 6761SOL     OW21181   5.099   2.580   4.577
 6761SOL    HW121182   5.023   2.516   4.564
 6761SOL    HW221183   5.063   2.670   4.600
 6762SOL     OW21184   0.412   4.840   3.932
 6762SOL    HW121185   0.470   4.824   4.012
 6762SOL    HW221186   0.316   4.842   3.961
 6763SOL     OW21187   5.180   6.056   5.080
 6763SOL    HW121188   5.233   5.998   5.018
 6763SOL    HW221189   5.154   6.003   5.161
 6764SOL     OW21190   1.479   5.573   2.065
 6764SOL    HW121191   1.519   5.481   2.058
 6764SOL    HW221192   1.441   5.586   2.156
 6765SOL     OW21193   6.439   4.293   3.683
 6765SOL    HW121194   6.507   4.328   3.746
 6765SOL    HW221195   6.465   4.201   3.652
 6766SOL     OW21196   4.569   6.525   6.969
 6766SOL    HW121197   4.508   6.483   6.901
 6766SOL    HW221198   4.632   6.456   7.004
 6767SOL     OW21199   3.151   0.667   0.553
 6767SOL    HW121200   3.235   0.690   0.602
 6767SOL    HW221201   3.146   0.719   0.468
 6768SOL     OW21202   1.895   0.935   5.825
 6768SOL    HW121203   1.885   1.032   5.804
 6768SOL    HW221204   1.990   0.916   5.852
 6769SOL     OW21205   3.196   2.356   0.087
 6769SOL    HW121206   3.243   2.302   0.157
 6769SOL    HW221207   3.223   2.324   7.022
 6770SOL     OW21208   6.815   0.687   1.978
 6770SOL    HW121209   6.777   0.717   1.890
 6770SOL    HW221210   6.814   0.764   2.042
 6771SOL     OW21211   4.965   2.419   2.902
 6771SOL    HW121212   5.053   2.457   2.929
 6771SOL    HW221213   4.917   2.386   2.983
 6772SOL     OW21214   3.208   1.137   2.413
 6772SOL    HW121215   3.126   1.110   2.463
 6772SOL    HW221216   3.288   1.096   2.457
 6773SOL     OW21217   6.748   4.454   1.864
 6773SOL    HW121218   6.791   4.469   1.775
 6773SOL    HW221219   6.749   4.357   1.885
 6774SOL     OW21220   0.184   2.751   6.310
 6774SOL    HW121221   0.127   2.828   6.282
 6774SOL    HW221222   0.161   2.725   6.404
 6775SOL     OW21223   2.815   3.322   1.200
 6775SOL    HW121224   2.760   3.394   1.244
 6775SOL    HW221225   2.821   3.340   1.102
 6776SOL     OW21226   4.391   4.614   7.020
 6776SOL    HW121227   4.398   4.645   0.089
 6776SOL    HW221228   4.467   4.552   6.999
 6777SOL     OW21229   3.756   4.257   6.496
 6777SOL    HW121230   3.690   4.182   6.498
 6777SOL    HW221231   3.752   4.308   6.582
 6778SOL     OW21232   0.543   4.140   1.988
 6778SOL    HW121233   0.459   4.093   1.962
 6778SOL    HW221234   0.618   4.111   1.928
 6779SOL     OW21235   6.362   4.343   6.342
 6779SOL    HW121236   6.335   4.439   6.327
 6779SOL    HW221237   6.450   4.340   6.389
 6780SOL     OW21238   0.993   2.207   2.631
 6780SOL    HW121239   0.947   2.254   2.708
 6780SOL    HW221240   0.928   2.145   2.587
 6781SOL     OW21241   5.621   6.869   4.846
 6781SOL    HW121242   5.579   6.781   4.866
 6781SOL    HW221243   5.713   6.872   4.884
 6782SOL     OW21244   0.215   0.529   2.938
 6782SOL    HW121245   0.269   0.555   3.019
 6782SOL    HW221246   0.163   0.608   2.906
 6783SOL     OW21247   0.146   0.133   6.450
 6783SOL    HW121248   0.119   0.083   6.368
 6783SOL    HW221249   0.089   0.104   6.527
 6784SOL     OW21250   3.484   3.991   0.381
 6784SOL    HW121251   3.422   4.068   0.364
 6784SOL    HW221252   3.500   3.982   0.479
 6785SOL     OW21253   5.274   4.713   2.559
 6785SOL    HW121254   5.335   4.676   2.629
 6785SOL    HW221255   5.310   4.691   2.469
 6786SOL     OW21256   1.338   1.749   6.532
 6786SOL    HW121257   1.283   1.665   6.529
 6786SOL    HW221258   1.409   1.745   6.462
 6787SOL     OW21259   1.576   3.589   0.701
 6787SOL    HW121260   1.532   3.527   0.766
 6787SOL    HW221261   1.510   3.656   0.668
 6788SOL     OW21262   2.627   3.976   1.694
 6788SOL    HW121263   2.724   3.992   1.713
 6788SOL    HW221264   2.612   3.879   1.678
 6789SOL     OW21265   0.379   6.871   2.417
 6789SOL    HW121266   0.361   6.797   2.482
 6789SOL    HW221267   0.412   6.952   2.466
 6790SOL     OW21268   1.170   4.177   0.660
 6790SOL    HW121269   1.143   4.088   0.623
 6790SOL    HW221270   1.090   4.221   0.702
 6791SOL     OW21271   3.714   2.521   0.767
 6791SOL    HW121272   3.702   2.620   0.765
 6791SOL    HW221273   3.671   2.484   0.849
 6792SOL     OW21274   6.513   5.907   5.718
 6792SOL    HW121275   6.607   5.874   5.726
 6792SOL    HW221276   6.483   5.944   5.806
 6793SOL     OW21277   0.905   2.375   0.598
 6793SOL    HW121278   0.924   2.473   0.602
 6793SOL    HW221279   0.849   2.354   0.518
 6794SOL     OW21280   5.098   1.099   4.861
 6794SOL    HW121281   5.105   1.118   4.763
 6794SOL    HW221282   5.188   1.075   4.896
 6795SOL     OW21283   2.807   6.139   0.651
 6795SOL    HW121284   2.747   6.219   0.650
 6795SOL    HW221285   2.829   6.115   0.746
 6796SOL     OW21286   6.105   0.906   2.704
 6796SOL    HW121287   6.093   0.894   2.605
 6796SOL    HW221288   6.141   0.997   2.722
 6797SOL     OW21289   4.866   3.224   1.584
 6797SOL    HW121290   4.843   3.273   1.668
 6797SOL    HW221291   4.816   3.137   1.581
 6798SOL     OW21292   5.761   6.057   3.010
 6798SOL    HW121293   5.815   6.113   2.948
 6798SOL    HW221294   5.822   5.999   3.064
 6799SOL     OW21295   6.030   5.712   6.856
 6799SOL    HW121296   6.007   5.682   6.949
 6799SOL    HW221297   6.017   5.811   6.849
 6800SOL     OW21298   2.555   4.543   0.777
 6800SOL    HW121299   2.500   4.511   0.854
 6800SOL    HW221300   2.624   4.475   0.754
 6801SOL     OW21301   1.701   1.260   2.443
 6801SOL    HW121302   1.775   1.311   2.486
 6801SOL    HW221303   1.627   1.323   2.418
 6802SOL     OW21304   2.839   5.614   0.759
 6802SOL    HW121305   2.781   5.695   0.769
 6802SOL    HW221306   2.858   5.575   0.849
 6803SOL     OW21307   4.495   2.361   6.498
 6803SOL    HW121308   4.440   2.432   6.541
 6803SOL    HW221309   4.549   2.314   6.568
 6804SOL     OW21310   2.413   5.064   3.910
 6804SOL    HW121311   2.376   5.117   3.987
 6804SOL    HW221312   2.360   5.083   3.828
 6805SOL     OW21313   5.923   5.891   4.543
 6805SOL    HW121314   5.944   5.793   4.542
 6805SOL    HW221315   5.825   5.904   4.535
 6806SOL     OW21316   5.605   1.407   3.643
 6806SOL    HW121317   5.616   1.338   3.715
 6806SOL    HW221318   5.532   1.380   3.581
 6807SOL     OW21319   2.300   3.574   0.645
 6807SOL    HW121320   2.340   3.572   0.553
 6807SOL    HW221321   2.359   3.626   0.706
 6808SOL     OW21322   0.585   2.860   5.092
 6808SOL    HW121323   0.645   2.796   5.043
 6808SOL    HW221324   0.549   2.816   5.174
 6809SOL     OW21325   1.713   3.809   0.551
 6809SOL    HW121326   1.658   3.726   0.542
 6809SOL    HW221327   1.659   3.880   0.597
 6810SOL     OW21328   1.588   0.466   1.871
 6810SOL    HW121329   1.542   0.553   1.855
 6810SOL    HW221330   1.679   0.468   1.829
 6811SOL     OW21331   4.529   4.053   0.015
 6811SOL    HW121332   4.522   4.009   6.951
 6811SOL    HW221333   4.449   4.112   0.029
 6812SOL     OW21334   3.815   2.972   3.297
 6812SOL    HW121335   3.823   3.071   3.288
 6812SOL    HW221336   3.851   2.944   3.386
 6813SOL     OW21337   4.417   1.749   1.981
 6813SOL    HW121338   4.430   1.796   1.893
 6813SOL    HW221339   4.365   1.666   1.967
 6814SOL     OW21340   3.064   3.059   0.571
 6814SOL    HW121341   2.982   3.003   0.586
 6814SOL    HW221342   3.135   3.032   0.636
 6815SOL     OW21343   2.841   0.104   1.247
 6815SOL    HW121344   2.791   0.179   1.292
 6815SOL    HW221345   2.938   0.128   1.240
 6816SOL     OW21346   0.064   5.515   6.912
 6816SOL    HW121347   6.999   5.499   6.874
 6816SOL    HW221348   0.134   5.484   6.847
 6817SOL     OW21349   6.448   1.866   5.495
 6817SOL    HW121350   6.459   1.783   5.442
 6817SOL    HW221351   6.519   1.932   5.471
 6818SOL     OW21352   2.545   5.904   2.083
 6818SOL    HW121353   2.446   5.895   2.096
 6818SOL    HW221354   2.580   5.823   2.037
 6819SOL     OW21355   4.272   1.321   4.319
 6819SOL    HW121356   4.236   1.386   4.253
 6819SOL    HW221357   4.364   1.349   4.348
 6820SOL     OW21358   1.341   5.108   3.119
 6820SOL    HW121359   1.259   5.088   3.064
 6820SOL    HW221360   1.394   5.024   3.130
 6821SOL     OW21361   2.988   1.931   5.592
 6821SOL    HW121362   2.951   1.935   5.499
 6821SOL    HW221363   3.040   1.846   5.603
 6822SOL     OW21364   5.704   1.766   6.040
 6822SOL    HW121365   5.761   1.687   6.018
 6822SOL    HW221366   5.635   1.778   5.969
 6823SOL     OW21367   4.075   3.277   4.101
 6823SOL    HW121368   4.049   3.185   4.075
 6823SOL    HW221369   4.000   3.320   4.151
 6824SOL     OW21370   0.474   2.871   6.492
 6824SOL    HW121371   0.474   2.772   6.505
 6824SOL    HW221372   0.491   2.892   6.396
 6825SOL     OW21373   5.626   6.685   2.566
 6825SOL    HW121374   5.554   6.684   2.497
 6825SOL    HW221375   5.591   6.726   2.650
 6826SOL     OW21376   2.071   4.172   3.015
 6826SOL    HW121377   2.054   4.269   3.032
 6826SOL    HW221378   2.128   4.162   2.934
 6827SOL     OW21379   4.976   6.063   0.740
 6827SOL    HW121380   4.894   6.101   0.783
 6827SOL    HW221381   4.951   6.017   0.655
 6828SOL     OW21382   2.080   1.884   1.393
 6828SOL    HW121383   2.023   1.966   1.394
 6828SOL    HW221384   2.155   1.895   1.458
 6829SOL     OW21385   4.629   6.620   4.156
 6829SOL    HW121386   4.651   6.674   4.237
 6829SOL    HW221387   4.636   6.678   4.075
 6830SOL     OW21388   6.032   1.143   3.382
 6830SOL    HW121389   5.937   1.151   3.412
 6830SOL    HW221390   6.034   1.123   3.284
 6831SOL     OW21391   0.993   0.060   6.286
 6831SOL    HW121392   1.016   0.033   6.193
 6831SOL    HW221393   0.942   7.013   6.331
 6832SOL     OW21394   2.749   4.458   1.484
 6832SOL    HW121395   2.701   4.525   1.541
 6832SOL    HW221396   2.694   4.436   1.404
 6833SOL     OW21397   4.264   5.076   6.902
 6833SOL    HW121398   4.273   4.976   6.896
 6833SOL    HW221399   4.257   5.102   6.998
 6834SOL     OW21400   4.668   6.997   1.602
 6834SOL    HW121401   4.638   6.958   1.515
 6834SOL    HW221402   4.646   0.068   1.603
 6835SOL     OW21403   4.351   6.731   5.086
 6835SOL    HW121404   4.410   6.681   5.150
 6835SOL    HW221405   4.256   6.706   5.101
 6836SOL     OW21406   3.078   5.963   0.705
 6836SOL    HW121407   3.028   5.885   0.668
 6836SOL    HW221408   3.033   6.048   0.677
 6837SOL     OW21409   1.320   2.902   2.080
 6837SOL    HW121410   1.413   2.889   2.116
 6837SOL    HW221411   1.254   2.859   2.141
 6838SOL     OW21412   1.653   0.265   0.964
 6838SOL    HW121413   1.592   0.201   1.010
 6838SOL    HW221414   1.700   0.218   0.890
 6839SOL     OW21415   5.193   1.111   0.401
 6839SOL    HW121416   5.223   1.042   0.335
 6839SOL    HW221417   5.176   1.067   0.489
 6840SOL     OW21418   2.204   1.939   5.192
 6840SOL    HW121419   2.245   1.946   5.283
 6840SOL    HW221420   2.212   1.845   5.158
 6841SOL     OW21421   5.160   3.427   6.155
 6841SOL    HW121422   5.128   3.440   6.249
 6841SOL    HW221423   5.168   3.516   6.111
 6842SOL     OW21424   2.871   4.618   1.172
 6842SOL    HW121425   2.838   4.594   1.080
 6842SOL    HW221426   2.805   4.678   1.216
 6843SOL     OW21427   5.724   6.879   7.011
 6843SOL    HW121428   5.632   6.893   6.972
 6843SOL    HW221429   5.790   6.935   6.961
 6844SOL     OW21430   5.644   1.222   4.440
 6844SOL    HW121431   5.685   1.277   4.367
 6844SOL    HW221432   5.716   1.178   4.494
 6845SOL     OW21433   6.193   2.933   2.950
 6845SOL    HW121434   6.260   2.977   2.891
 6845SOL    HW221435   6.239   2.896   3.031
 6846SOL     OW21436   3.224   4.303   6.766
 6846SOL    HW121437   3.138   4.315   6.816
 6846SOL    HW221438   3.286   4.379   6.787
 6847SOL     OW21439   6.696   3.603   4.934
 6847SOL    HW121440   6.713   3.536   5.006
 6847SOL    HW221441   6.769   3.672   4.936
 6848SOL     OW21442   5.577   4.109   4.350
 6848SOL    HW121443   5.664   4.137   4.391
 6848SOL    HW221444   5.592   4.029   4.293
 6849SOL     OW21445   3.410   4.435   5.868
 6849SOL    HW121446   3.506   4.450   5.845
 6849SOL    HW221447   3.402   4.355   5.927
 6850SOL     OW21448   4.395   2.343   2.924
 6850SOL    HW121449   4.336   2.347   3.005
 6850SOL    HW221450   4.488   2.316   2.951
 6851SOL     OW21451   1.596   2.829   2.550
 6851SOL    HW121452   1.537   2.748   2.551
 6851SOL    HW221453   1.612   2.860   2.644
 6852SOL     OW21454   2.582   5.554   1.532
 6852SOL    HW121455   2.591   5.637   1.477
 6852SOL    HW221456   2.544   5.480   1.476
 6853SOL     OW21457   5.257   3.167   5.888
 6853SOL    HW121458   5.211   3.237   5.833
 6853SOL    HW221459   5.209   3.156   5.975
 6854SOL     OW21460   5.583   6.740   5.577
 6854SOL    HW121461   5.513   6.808   5.556
 6854SOL    HW221462   5.662   6.754   5.517
 6855SOL     OW21463   4.752   5.578   3.739
 6855SOL    HW121464   4.744   5.507   3.670
 6855SOL    HW221465   4.741   5.668   3.696
 6856SOL     OW21466   0.461   2.567   5.849
 6856SOL    HW121467   0.397   2.520   5.911
 6856SOL    HW221468   0.549   2.576   5.894
 6857SOL     OW21469   1.028   3.627   6.461
 6857SOL    HW121470   0.953   3.570   6.428
 6857SOL    HW221471   1.113   3.600   6.416
 6858SOL     OW21472   3.387   4.490   1.713
 6858SOL    HW121473   3.288   4.494   1.725
 6858SOL    HW221474   3.430   4.564   1.765
 6859SOL     OW21475   0.991   1.324   1.837
 6859SOL    HW121476   1.075   1.278   1.866
 6859SOL    HW221477   1.014   1.411   1.792
 6860SOL     OW21478   6.994   4.894   2.370
 6860SOL    HW121479   7.011   4.832   2.293
 6860SOL    HW221480   0.022   4.977   2.358
 6861SOL     OW21481   4.888   3.283   6.078
 6861SOL    HW121482   4.906   3.185   6.075
 6861SOL    HW221483   4.790   3.299   6.092
 6862SOL     OW21484   0.978   5.311   6.029
 6862SOL    HW121485   0.927   5.302   6.115
 6862SOL    HW221486   0.996   5.220   5.992
 6863SOL     OW21487   0.287   5.885   5.100
 6863SOL    HW121488   0.188   5.877   5.105
 6863SOL    HW221489   0.315   5.903   5.006
 6864SOL     OW21490   1.842   4.443   5.897
 6864SOL    HW121491   1.743   4.426   5.895
 6864SOL    HW221492   1.873   4.465   5.805
 6865SOL     OW21493   2.408   0.709   5.413
 6865SOL    HW121494   2.351   0.669   5.485
 6865SOL    HW221495   2.457   0.789   5.449
 6866SOL     OW21496   6.050   4.199   2.078
 6866SOL    HW121497   6.079   4.272   2.140
 6866SOL    HW221498   6.109   4.199   1.997
 6867SOL     OW21499   2.219   4.307   1.267
 6867SOL    HW121500   2.132   4.356   1.273
 6867SOL    HW221501   2.290   4.359   1.314
 6868SOL     OW21502   2.136   5.783   5.196
 6868SOL    HW121503   2.227   5.747   5.217
 6868SOL    HW221504   2.085   5.714   5.145
 6869SOL     OW21505   3.899   0.179   5.809
 6869SOL    HW121506   3.932   0.257   5.861
 6869SOL    HW221507   3.800   0.171   5.821
 6870SOL     OW21508   1.116   3.507   0.346
 6870SOL    HW121509   1.172   3.430   0.376
 6870SOL    HW221510   1.059   3.478   0.269
 6871SOL     OW21511   0.244   3.886   2.521
 6871SOL    HW121512   0.252   3.793   2.487
 6871SOL    HW221513   0.217   3.884   2.617
 6872SOL     OW21514   1.187   2.475   2.173
 6872SOL    HW121515   1.229   2.434   2.093
 6872SOL    HW221516   1.131   2.406   2.221
 6873SOL     OW21517   1.083   4.020   4.092
 6873SOL    HW121518   1.097   4.003   4.190
 6873SOL    HW221519   1.027   4.102   4.080
 6874SOL     OW21520   6.163   5.645   3.469
 6874SOL    HW121521   6.123   5.572   3.414
 6874SOL    HW221522   6.119   5.732   3.447
 6875SOL     OW21523   1.899   2.524   1.734
 6875SOL    HW121524   1.989   2.564   1.750
 6875SOL    HW221525   1.830   2.596   1.736
 6876SOL     OW21526   3.262   0.272   3.805
 6876SOL    HW121527   3.243   0.369   3.789
 6876SOL    HW221528   3.342   0.264   3.865
 6877SOL     OW21529   2.996   4.638   1.485
 6877SOL    HW121530   3.037   4.664   1.397
 6877SOL    HW221531   2.924   4.572   1.469
 6878SOL     OW21532   2.315   1.608   3.802
 6878SOL    HW121533   2.345   1.513   3.815
 6878SOL    HW221534   2.323   1.657   3.889
 6879SOL     OW21535   1.672   2.580   6.880
 6879SOL    HW121536   1.665   2.493   6.929
 6879SOL    HW221537   1.768   2.600   6.862
 6880SOL     OW21538   1.225   6.045   6.304
 6880SOL    HW121539   1.315   6.068   6.340
 6880SOL    HW221540   1.172   5.998   6.375
 6881SOL     OW21541   1.658   3.833   1.421
 6881SOL    HW121542   1.748   3.849   1.461
 6881SOL    HW221543   1.659   3.861   1.325
 6882SOL     OW21544   2.951   1.414   0.275
 6882SOL    HW121545   2.955   1.494   0.214
 6882SOL    HW221546   2.885   1.348   0.239
 6883SOL     OW21547   5.337   0.287   5.924
 6883SOL    HW121548   5.262   0.339   5.883
 6883SOL    HW221549   5.363   0.329   6.011
 6884SOL     OW21550   1.994   4.485   2.965
 6884SOL    HW121551   1.938   4.568   2.956
 6884SOL    HW221552   1.947   4.408   2.921
 6885SOL     OW21553   4.943   4.850   4.276
 6885SOL    HW121554   4.913   4.941   4.303
 6885SOL    HW221555   4.863   4.791   4.265
 6886SOL     OW21556   6.216   1.247   4.977
 6886SOL    HW121557   6.233   1.229   4.880
 6886SOL    HW221558   6.302   1.250   5.027
 6887SOL     OW21559   4.831   5.586   0.372
 6887SOL    HW121560   4.842   5.530   0.455
 6887SOL    HW221561   4.809   5.680   0.398
 6888SOL     OW21562   5.354   4.424   6.198
 6888SOL    HW121563   5.320   4.516   6.216
 6888SOL    HW221564   5.376   4.379   6.285
 6889SOL     OW21565   1.523   2.528   5.860
 6889SOL    HW121566   1.536   2.624   5.883
 6889SOL    HW221567   1.607   2.491   5.819
 6890SOL     OW21568   3.704   5.922   2.816
 6890SOL    HW121569   3.608   5.913   2.789
 6890SOL    HW221570   3.750   5.834   2.808
 6891SOL     OW21571   2.565   2.774   1.361
 6891SOL    HW121572   2.564   2.849   1.426
 6891SOL    HW221573   2.587   2.689   1.408
 6892SOL     OW21574   3.249   1.490   3.976
 6892SOL    HW121575   3.272   1.401   3.937
 6892SOL    HW221576   3.330   1.528   4.021
 6893SOL     OW21577   6.241   3.580   6.912
 6893SOL    HW121578   6.180   3.512   6.872
 6893SOL    HW221579   6.283   3.542   6.995
 6894SOL     OW21580   5.485   3.968   1.003
 6894SOL    HW121581   5.396   3.973   1.048
 6894SOL    HW221582   5.550   3.919   1.061
 6895SOL     OW21583   1.388   5.786   0.883
 6895SOL    HW121584   1.478   5.758   0.850
 6895SOL    HW221585   1.363   5.873   0.842
 6896SOL     OW21586   3.547   1.753   3.923
 6896SOL    HW121587   3.576   1.657   3.915
 6896SOL    HW221588   3.468   1.768   3.864
 6897SOL     OW21589   4.858   3.962   4.847
 6897SOL    HW121590   4.844   3.907   4.928
 6897SOL    HW221591   4.956   3.971   4.829
 6898SOL     OW21592   3.161   1.188   1.501
 6898SOL    HW121593   3.064   1.166   1.488
 6898SOL    HW221594   3.171   1.284   1.526
 6899SOL     OW21595   5.267   6.008   3.163
 6899SOL    HW121596   5.185   6.012   3.218
 6899SOL    HW221597   5.285   6.097   3.122
 6900SOL     OW21598   6.472   4.976   6.300
 6900SOL    HW121599   6.382   4.950   6.265
 6900SOL    HW221600   6.535   4.899   6.291
 6901SOL     OW21601   4.559   5.271   6.589
 6901SOL    HW121602   4.496   5.278   6.666
 6901SOL    HW221603   4.618   5.352   6.586
 6902SOL     OW21604   6.646   5.646   5.428
 6902SOL    HW121605   6.717   5.670   5.495
 6902SOL    HW221606   6.576   5.717   5.427
 6903SOL     OW21607   3.054   5.069   5.281
 6903SOL    HW121608   3.060   5.093   5.377
 6903SOL    HW221609   2.958   5.066   5.254
 6904SOL     OW21610   0.356   6.320   5.255
 6904SOL    HW121611   0.262   6.296   5.229
 6904SOL    HW221612   0.409   6.237   5.268
 6905SOL     OW21613   5.454   5.445   0.088
 6905SOL    HW121614   5.533   5.403   0.134
 6905SOL    HW221615   5.473   5.453   7.016
 6906SOL     OW21616   3.459   1.993   3.647
 6906SOL    HW121617   3.416   1.922   3.703
 6906SOL    HW221618   3.534   2.034   3.698
 6907SOL     OW21619   6.225   2.084   1.507
 6907SOL    HW121620   6.286   2.010   1.536
 6907SOL    HW221621   6.161   2.050   1.439
 6908SOL     OW21622   2.714   4.415   6.888
 6908SOL    HW121623   2.646   4.484   6.864
 6908SOL    HW221624   2.671   4.324   6.888
 6909SOL     OW21625   4.824   4.965   1.972
 6909SOL    HW121626   4.894   5.032   1.995
 6909SOL    HW221627   4.850   4.875   2.007
 6910SOL     OW21628   1.689   2.843   3.229
 6910SOL    HW121629   1.686   2.764   3.168
 6910SOL    HW221630   1.782   2.880   3.231
 6911SOL     OW21631   3.621   0.224   5.026
 6911SOL    HW121632   3.664   0.200   5.114
 6911SOL    HW221633   3.685   0.279   4.972
 6912SOL     OW21634   2.484   3.128   5.986
 6912SOL    HW121635   2.471   3.216   5.940
 6912SOL    HW221636   2.582   3.109   5.996
 6913SOL     OW21637   5.583   5.994   5.172
 6913SOL    HW121638   5.670   5.997   5.221
 6913SOL    HW221639   5.546   6.086   5.164
 6914SOL     OW21640   5.964   3.936   2.112
 6914SOL    HW121641   6.046   3.886   2.085
 6914SOL    HW221642   5.987   4.032   2.127
 6915SOL     OW21643   0.995   2.685   1.898
 6915SOL    HW121644   1.056   2.607   1.910
 6915SOL    HW221645   1.049   2.769   1.891
 6916SOL     OW21646   5.442   1.222   5.736
 6916SOL    HW121647   5.429   1.150   5.668
 6916SOL    HW221648   5.436   1.183   5.828
 6917SOL     OW21649   5.117   5.755   1.741
 6917SOL    HW121650   5.156   5.826   1.800
 6917SOL    HW221651   5.120   5.667   1.789
 6918SOL     OW21652   0.412   2.946   2.649
 6918SOL    HW121653   0.314   2.940   2.670
 6918SOL    HW221654   0.431   3.034   2.606
 6919SOL     OW21655   6.369   6.593   3.234
 6919SOL    HW121656   6.324   6.523   3.179
 6919SOL    HW221657   6.464   6.566   3.250
 6920SOL     OW21658   4.993   6.944   5.810
 6920SOL    HW121659   4.906   6.906   5.840
 6920SOL    HW221660   5.045   6.875   5.761
 6921SOL     OW21661   4.068   0.208   4.567
 6921SOL    HW121662   4.137   0.262   4.519
 6921SOL    HW221663   4.009   0.163   4.501
 6922SOL     OW21664   1.868   6.034   4.767
 6922SOL    HW121665   1.901   6.036   4.673
 6922SOL    HW221666   1.794   6.102   4.777
 6923SOL     OW21667   6.048   6.233   2.334
 6923SOL    HW121668   6.033   6.137   2.360
 6923SOL    HW221669   6.020   6.246   2.239
 6924SOL     OW21670   2.958   5.751   1.508
 6924SOL    HW121671   2.908   5.694   1.574
 6924SOL    HW221672   2.917   5.842   1.504
 6925SOL     OW21673   4.975   6.041   6.458
 6925SOL    HW121674   5.068   6.005   6.455
 6925SOL    HW221675   4.915   5.983   6.402
 6926SOL     OW21676   2.058   1.653   6.940
 6926SOL    HW121677   1.977   1.690   6.987
 6926SOL    HW221678   2.028   1.586   6.872
 6927SOL     OW21679   3.647   0.958   0.229
 6927SOL    HW121680   3.724   1.021   0.236
 6927SOL    HW221681   3.583   0.975   0.304
 6928SOL     OW21682   5.107   5.608   1.087
 6928SOL    HW121683   5.171   5.546   1.041
 6928SOL    HW221684   5.102   5.694   1.036
 6929SOL     OW21685   5.682   5.406   1.291
 6929SOL    HW121686   5.660   5.405   1.194
 6929SOL    HW221687   5.666   5.498   1.329
 6930SOL     OW21688   0.671   1.322   0.597
 6930SOL    HW121689   0.633   1.236   0.631
 6930SOL    HW221690   0.764   1.333   0.633
 6931SOL     OW21691   2.030   1.819   0.754
 6931SOL    HW121692   1.957   1.827   0.821
 6931SOL    HW221693   2.102   1.886   0.774
 6932SOL     OW21694   4.750   5.117   0.838
 6932SOL    HW121695   4.755   5.054   0.915
 6932SOL    HW221696   4.692   5.078   0.767
 6933SOL     OW21697   3.919   6.590   6.247
 6933SOL    HW121698   3.958   6.649   6.177
 6933SOL    HW221699   3.974   6.595   6.330
 6934SOL     OW21700   4.883   3.567   6.438
 6934SOL    HW121701   4.976   3.549   6.470
 6934SOL    HW221702   4.884   3.587   6.340
 6935SOL     OW21703   4.600   5.617   2.761
 6935SOL    HW121704   4.598   5.563   2.845
 6935SOL    HW221705   4.514   5.605   2.712
 6936SOL     OW21706   0.126   1.869   4.524
 6936SOL    HW121707   0.028   1.872   4.506
 6936SOL    HW221708   0.163   1.962   4.526
 6937SOL     OW21709   5.888   6.122   0.589
 6937SOL    HW121710   5.943   6.203   0.569
 6937SOL    HW221711   5.803   6.126   0.535
 6938SOL     OW21712   0.342   1.399   4.892
 6938SOL    HW121713   0.284   1.319   4.880
 6938SOL    HW221714   0.288   1.473   4.932
 6939SOL     OW21715   6.131   5.267   3.520
 6939SOL    HW121716   6.045   5.236   3.480
 6939SOL    HW221717   6.203   5.266   3.451
 6940SOL     OW21718   4.900   6.848   0.553
 6940SOL    HW121719   4.830   6.850   0.624
 6940SOL    HW221720   4.982   6.895   0.588
 6941SOL     OW21721   2.992   3.763   2.148
 6941SOL    HW121722   2.939   3.699   2.203
 6941SOL    HW221723   3.032   3.715   2.070
 6942SOL     OW21724   6.160   6.572   1.939
 6942SOL    HW121725   6.197   6.548   1.849
 6942SOL    HW221726   6.235   6.582   2.004
 6943SOL     OW21727   4.191   4.927   0.225
 6943SOL    HW121728   4.148   4.936   0.314
 6943SOL    HW221729   4.160   4.842   0.182
 6944SOL     OW21730   1.181   4.880   6.534
 6944SOL    HW121731   1.094   4.921   6.563
 6944SOL    HW221732   1.192   4.895   6.435
 6945SOL     OW21733   6.486   2.393   0.753
 6945SOL    HW121734   6.558   2.327   0.775
 6945SOL    HW221735   6.458   2.441   0.836
 6946SOL     OW21736   3.794   6.215   1.779
 6946SOL    HW121737   3.823   6.218   1.875
 6946SOL    HW221738   3.760   6.123   1.758
 6947SOL     OW21739   4.123   5.393   6.239
 6947SOL    HW121740   4.169   5.315   6.281
 6947SOL    HW221741   4.177   5.426   6.161
 6948SOL     OW21742   6.951   6.747   1.327
 6948SOL    HW121743   6.994   6.762   1.416
 6948SOL    HW221744   7.017   6.706   1.264
 6949SOL     OW21745   2.632   2.402   3.127
 6949SOL    HW121746   2.536   2.414   3.151
 6949SOL    HW221747   2.684   2.379   3.209
 6950SOL     OW21748   1.430   0.150   4.096
 6950SOL    HW121749   1.406   0.232   4.147
 6950SOL    HW221750   1.529   0.149   4.080
 6951SOL     OW21751   6.242   5.562   6.597
 6951SOL    HW121752   6.301   5.482   6.581
 6951SOL    HW221753   6.161   5.533   6.648
 6952SOL     OW21754   2.823   4.870   3.425
 6952SOL    HW121755   2.782   4.795   3.374
 6952SOL    HW221756   2.909   4.840   3.466
 6953SOL     OW21757   5.235   7.000   0.625
 6953SOL    HW121758   5.247   6.937   0.548
 6953SOL    HW221759   5.267   0.065   0.598
 6954SOL     OW21760   6.859   3.627   1.254
 6954SOL    HW121761   6.903   3.559   1.195
 6954SOL    HW221762   6.768   3.647   1.220
 6955SOL     OW21763   5.126   0.267   2.524
 6955SOL    HW121764   5.051   0.317   2.480
 6955SOL    HW221765   5.174   0.327   2.587
 6956SOL     OW21766   6.060   5.687   2.691
 6956SOL    HW121767   6.156   5.658   2.690
 6956SOL    HW221768   6.006   5.622   2.744
 6957SOL     OW21769   5.071   5.665   6.868
 6957SOL    HW121770   5.035   5.609   6.794
 6957SOL    HW221771   5.001   5.728   6.900
 6958SOL     OW21772   3.410   3.672   3.990
 6958SOL    HW121773   3.318   3.635   3.998
 6958SOL    HW221774   3.469   3.606   3.944
 6959SOL     OW21775   1.576   3.932   2.737
 6959SOL    HW121776   1.630   3.895   2.813
 6959SOL    HW221777   1.591   4.031   2.731
 6960SOL     OW21778   1.633   4.605   0.928
 6960SOL    HW121779   1.671   4.694   0.905
 6960SOL    HW221780   1.538   4.615   0.958
 6961SOL     OW21781   4.912   1.111   4.589
 6961SOL    HW121782   4.826   1.076   4.551
 6961SOL    HW221783   4.979   1.036   4.593
 6962SOL     OW21784   3.468   6.613   0.445
 6962SOL    HW121785   3.405   6.614   0.367
 6962SOL    HW221786   3.435   6.675   0.516
 6963SOL     OW21787   5.307   5.772   6.788
 6963SOL    HW121788   5.347   5.827   6.861
 6963SOL    HW221789   5.236   5.712   6.825
 6964SOL     OW21790   3.077   0.361   5.701
 6964SOL    HW121791   3.082   0.295   5.776
 6964SOL    HW221792   2.990   0.351   5.653
 6965SOL     OW21793   1.319   2.159   6.628
 6965SOL    HW121794   1.335   2.225   6.554
 6965SOL    HW221795   1.373   2.077   6.612
 6966SOL     OW21796   1.532   0.844   2.070
 6966SOL    HW121797   1.570   0.764   2.024
 6966SOL    HW221798   1.470   0.892   2.008
 6967SOL     OW21799   3.781   1.429   5.866
 6967SOL    HW121800   3.797   1.331   5.853
 6967SOL    HW221801   3.691   1.443   5.905
 6968SOL     OW21802   2.907   0.351   2.921
 6968SOL    HW121803   2.813   0.373   2.948
 6968SOL    HW221804   2.935   0.411   2.846
 6969SOL     OW21805   2.979   2.130   1.035
 6969SOL    HW121806   2.988   2.033   1.058
 6969SOL    HW221807   2.889   2.147   0.994
 6970SOL     OW21808   3.524   4.981   5.954
 6970SOL    HW121809   3.598   4.964   6.020
 6970SOL    HW221810   3.467   4.899   5.947
 6971SOL     OW21811   5.370   4.618   1.427
 6971SOL    HW121812   5.274   4.643   1.441
 6971SOL    HW221813   5.404   4.568   1.507
 6972SOL     OW21814   5.248   3.629   2.836
 6972SOL    HW121815   5.212   3.664   2.923
 6972SOL    HW221816   5.178   3.638   2.765
 6973SOL     OW21817   1.196   2.374   2.905
 6973SOL    HW121818   1.123   2.403   2.844
 6973SOL    HW221819   1.280   2.362   2.852
 6974SOL     OW21820   3.024   3.960   2.375
 6974SOL    HW121821   2.938   3.917   2.347
 6974SOL    HW221822   3.032   3.957   2.474
 6975SOL     OW21823   2.540   5.595   4.466
 6975SOL    HW121824   2.547   5.516   4.527
 6975SOL    HW221825   2.566   5.678   4.515
 6976SOL     OW21826   4.938   4.293   5.378
 6976SOL    HW121827   4.937   4.218   5.445
 6976SOL    HW221828   4.929   4.255   5.286
 6977SOL     OW21829   4.203   4.163   1.677
 6977SOL    HW121830   4.201   4.073   1.721
 6977SOL    HW221831   4.112   4.204   1.682
 6978SOL     OW21832   5.476   3.000   1.130
 6978SOL    HW121833   5.530   2.929   1.084
 6978SOL    HW221834   5.441   2.964   1.217
 6979SOL     OW21835   1.251   3.328   1.367
 6979SOL    HW121836   1.339   3.352   1.407
 6979SOL    HW221837   1.223   3.398   1.302
 6980SOL     OW21838   1.311   0.960   3.472
 6980SOL    HW121839   1.366   1.022   3.416
 6980SOL    HW221840   1.215   0.971   3.449
 6981SOL     OW21841   3.419   3.307   6.575
 6981SOL    HW121842   3.333   3.356   6.560
 6981SOL    HW221843   3.434   3.242   6.500
 6982SOL     OW21844   0.707   1.236   3.600
 6982SOL    HW121845   0.683   1.302   3.529
 6982SOL    HW221846   0.803   1.247   3.623
 6983SOL     OW21847   4.730   1.351   5.380
 6983SOL    HW121848   4.745   1.392   5.290
 6983SOL    HW221849   4.808   1.293   5.404
 6984SOL     OW21850   1.744   2.171   2.811
 6984SOL    HW121851   1.669   2.162   2.745
 6984SOL    HW221852   1.831   2.152   2.766
 6985SOL     OW21853   6.375   4.538   0.294
 6985SOL    HW121854   6.378   4.467   0.223
 6985SOL    HW221855   6.468   4.562   0.321
 6986SOL     OW21856   3.757   6.536   6.532
 6986SOL    HW121857   3.789   6.456   6.582
 6986SOL    HW221858   3.699   6.507   6.456
 6987SOL     OW21859   0.033   1.737   5.501
 6987SOL    HW121860   7.003   1.674   5.554
 6987SOL    HW221861   0.114   1.689   5.467
 6988SOL     OW21862   2.427   0.429   6.042
 6988SOL    HW121863   2.372   0.494   6.095
 6988SOL    HW221864   2.491   0.479   5.984
 6989SOL     OW21865   6.507   4.524   1.968
 6989SOL    HW121866   6.601   4.515   1.935
 6989SOL    HW221867   6.464   4.434   1.971
 6990SOL     OW21868   3.962   3.046   1.818
 6990SOL    HW121869   4.042   2.998   1.782
 6990SOL    HW221870   3.992   3.132   1.861
 6991SOL     OW21871   4.944   4.550   3.539
 6991SOL    HW121872   5.038   4.553   3.573
 6991SOL    HW221873   4.902   4.463   3.565
 6992SOL     OW21874   0.021   6.635   0.542
 6992SOL    HW121875   6.963   6.581   0.545
 6992SOL    HW221876   0.005   6.724   0.585
 6993SOL     OW21877   6.151   0.497   1.527
 6993SOL    HW121878   6.151   0.492   1.427
 6993SOL    HW221879   6.074   0.446   1.564
 6994SOL     OW21880   1.373   0.087   3.519
 6994SOL    HW121881   1.462   0.077   3.565
 6994SOL    HW221882   1.387   0.127   3.429
 6995SOL     OW21883   0.757   3.803   0.329
 6995SOL    HW121884   0.723   3.842   0.415
 6995SOL    HW221885   0.682   3.803   0.262
 6996SOL     OW21886   1.228   0.545   6.805
 6996SOL    HW121887   1.165   0.600   6.859
 6996SOL    HW221888   1.265   0.600   6.730
 6997SOL     OW21889   0.026   4.711   5.342
 6997SOL    HW121890   0.120   4.680   5.354
 6997SOL    HW221891   6.997   4.684   5.421
 6998SOL     OW21892   0.554   1.506   1.528
 6998SOL    HW121893   0.466   1.462   1.549
 6998SOL    HW221894   0.604   1.522   1.613
 6999SOL     OW21895   0.190   2.382   6.493
 6999SOL    HW121896   0.124   2.353   6.424
 6999SOL    HW221897   0.172   2.477   6.519
 7000SOL     OW21898   5.879   0.220   2.645
 7000SOL    HW121899   5.978   0.210   2.655
 7000SOL    HW221900   5.853   0.315   2.662
 7001SOL     OW21901   0.850   1.822   4.726
 7001SOL    HW121902   0.847   1.820   4.826
 7001SOL    HW221903   0.792   1.749   4.689
 7002SOL     OW21904   1.036   5.415   3.855
 7002SOL    HW121905   1.089   5.420   3.940
 7002SOL    HW221906   1.084   5.356   3.790
 7003SOL     OW21907   5.781   4.477   1.093
 7003SOL    HW121908   5.686   4.488   1.123
 7003SOL    HW221909   5.788   4.397   1.034
 7004SOL     OW21910   1.470   5.849   0.586
 7004SOL    HW121911   1.439   5.925   0.644
 7004SOL    HW221912   1.460   5.875   0.490
 7005SOL     OW21913   0.885   0.051   6.605
 7005SOL    HW121914   0.877   6.987   6.647
 7005SOL    HW221915   0.980   0.070   6.583
 7006SOL     OW21916   6.582   6.429   3.289
 7006SOL    HW121917   6.565   6.335   3.262
 7006SOL    HW221918   6.633   6.430   3.375
 7007SOL     OW21919   4.417   0.309   5.609
 7007SOL    HW121920   4.475   0.307   5.528
 7007SOL    HW221921   4.474   0.319   5.691
 7008SOL     OW21922   6.816   4.378   3.623
 7008SOL    HW121923   6.868   4.304   3.665
 7008SOL    HW221924   6.740   4.340   3.570
 7009SOL     OW21925   4.278   6.591   2.135
 7009SOL    HW121926   4.183   6.601   2.162
 7009SOL    HW221927   4.283   6.547   2.046
 7010SOL     OW21928   5.789   3.971   2.718
 7010SOL    HW121929   5.757   3.924   2.635
 7010SOL    HW221930   5.880   4.010   2.700
 7011SOL     OW21931   3.958   6.881   0.765
 7011SOL    HW121932   3.884   6.922   0.713
 7011SOL    HW221933   3.926   6.858   0.857
 7012SOL     OW21934   1.424   3.084   0.907
 7012SOL    HW121935   1.465   3.099   0.997
 7012SOL    HW221936   1.328   3.059   0.919
 7013SOL     OW21937   2.299   1.123   6.651
 7013SOL    HW121938   2.275   1.026   6.659
 7013SOL    HW221939   2.219   1.178   6.675
 7014SOL     OW21940   6.074   3.472   1.187
 7014SOL    HW121941   6.070   3.399   1.254
 7014SOL    HW221942   6.118   3.552   1.227
 7015SOL     OW21943   5.851   4.641   2.547
 7015SOL    HW121944   5.796   4.570   2.503
 7015SOL    HW221945   5.907   4.688   2.478
 7016SOL     OW21946   3.436   4.976   1.227
 7016SOL    HW121947   3.452   5.075   1.228
 7016SOL    HW221948   3.353   4.956   1.279
 7017SOL     OW21949   3.733   5.093   3.319
 7017SOL    HW121950   3.660   5.026   3.311
 7017SOL    HW221951   3.813   5.063   3.267
 7018SOL     OW21952   5.355   3.399   4.106
 7018SOL    HW121953   5.292   3.338   4.057
 7018SOL    HW221954   5.351   3.490   4.066
 7019SOL     OW21955   4.618   5.200   2.364
 7019SOL    HW121956   4.629   5.221   2.461
 7019SOL    HW221957   4.674   5.262   2.310
 7020SOL     OW21958   0.634   3.604   6.704
 7020SOL    HW121959   0.656   3.506   6.700
 7020SOL    HW221960   0.693   3.654   6.640
 7021SOL     OW21961   0.890   2.783   4.667
 7021SOL    HW121962   0.830   2.851   4.711
 7021SOL    HW221963   0.970   2.829   4.630
 7022SOL     OW21964   4.254   0.551   0.271
 7022SOL    HW121965   4.255   0.651   0.273
 7022SOL    HW221966   4.162   0.519   0.247
 7023SOL     OW21967   0.490   2.240   1.848
 7023SOL    HW121968   0.495   2.330   1.892
 7023SOL    HW221969   0.526   2.246   1.755
 7024SOL     OW21970   3.633   2.899   3.935
 7024SOL    HW121971   3.571   2.820   3.936
 7024SOL    HW221972   3.712   2.880   3.994
 7025SOL     OW21973   3.502   0.181   0.021
 7025SOL    HW121974   3.597   0.148   0.021
 7025SOL    HW221975   3.499   0.274   0.058
 7026SOL     OW21976   3.424   1.509   1.519
 7026SOL    HW121977   3.495   1.463   1.571
 7026SOL    HW221978   3.444   1.606   1.513
 7027SOL     OW21979   2.466   5.814   3.519
 7027SOL    HW121980   2.435   5.883   3.453
 7027SOL    HW221981   2.402   5.811   3.596
 7028SOL     OW21982   2.389   0.538   3.510
 7028SOL    HW121983   2.397   0.577   3.419
 7028SOL    HW221984   2.298   0.557   3.547
 7029SOL     OW21985   2.815   3.675   5.901
 7029SOL    HW121986   2.840   3.674   5.998
 7029SOL    HW221987   2.893   3.647   5.846
 7030SOL     OW21988   0.853   2.123   4.761
 7030SOL    HW121989   0.850   2.024   4.752
 7030SOL    HW221990   0.779   2.164   4.708
 7031SOL     OW21991   4.558   6.076   0.340
 7031SOL    HW121992   4.618   6.143   0.383
 7031SOL    HW221993   4.464   6.109   0.341
 7032SOL     OW21994   4.278   0.655   4.633
 7032SOL    HW121995   4.217   0.708   4.693
 7032SOL    HW221996   4.367   0.700   4.629
 7033SOL     OW21997   1.679   2.768   4.403
 7033SOL    HW121998   1.768   2.725   4.391
 7033SOL    HW221999   1.617   2.738   4.330
 7034SOL     OW22000   6.450   2.445   3.469
 7034SOL    HW122001   6.357   2.408   3.467
 7034SOL    HW222002   6.447   2.545   3.474
 7035SOL     OW22003   1.758   0.100   1.876
 7035SOL    HW122004   1.844   0.093   1.927
 7035SOL    HW222005   1.690   0.149   1.931
 7036SOL     OW22006   0.301   1.843   2.210
 7036SOL    HW122007   0.287   1.747   2.236
 7036SOL    HW222008   0.303   1.900   2.292
 7037SOL     OW22009   0.396   0.597   5.534
 7037SOL    HW122010   0.316   0.638   5.490
 7037SOL    HW222011   0.392   0.613   5.632
 7038SOL     OW22012   2.974   4.374   5.542
 7038SOL    HW122013   2.922   4.459   5.533
 7038SOL    HW222014   2.932   4.316   5.612
 7039SOL     OW22015   0.738   5.213   3.724
 7039SOL    HW122016   0.644   5.180   3.732
 7039SOL    HW222017   0.793   5.144   3.677
 7040SOL     OW22018   4.559   2.247   5.019
 7040SOL    HW122019   4.548   2.282   4.926
 7040SOL    HW222020   4.604   2.158   5.016
 7041SOL     OW22021   1.167   1.567   3.681
 7041SOL    HW122022   1.148   1.663   3.660
 7041SOL    HW222023   1.264   1.549   3.666
 7042SOL     OW22024   4.522   6.075   5.057
 7042SOL    HW122025   4.570   6.061   5.144
 7042SOL    HW222026   4.519   5.988   5.007
 7043SOL     OW22027   2.497   4.444   4.070
 7043SOL    HW122028   2.452   4.389   3.999
 7043SOL    HW222029   2.554   4.514   4.027
 7044SOL     OW22030   4.747   6.845   4.762
 7044SOL    HW122031   4.711   6.830   4.854
 7044SOL    HW222032   4.689   6.911   4.714
 7045SOL     OW22033   6.236   5.304   2.656
 7045SOL    HW122034   6.180   5.285   2.575
 7045SOL    HW222035   6.196   5.259   2.736
 7046SOL     OW22036   3.250   2.138   4.360
 7046SOL    HW122037   3.152   2.152   4.375
 7046SOL    HW222038   3.299   2.141   4.447
 7047SOL     OW22039   0.516   0.771   1.491
 7047SOL    HW122040   0.468   0.702   1.437
 7047SOL    HW222041   0.536   0.735   1.582
 7048SOL     OW22042   6.138   6.283   4.865
 7048SOL    HW122043   6.182   6.326   4.786
 7048SOL    HW222044   6.099   6.195   4.836
 7049SOL     OW22045   3.927   1.497   2.274
 7049SOL    HW122046   4.027   1.504   2.267
 7049SOL    HW222047   3.894   1.430   2.207
 7050SOL     OW22048   3.543   5.016   0.935
 7050SOL    HW122049   3.624   5.062   0.971
 7050SOL    HW222050   3.498   4.966   1.008
 7051SOL     OW22051   0.214   0.148   1.604
 7051SOL    HW122052   0.139   0.142   1.537
 7051SOL    HW222053   0.187   0.098   1.686
 7052SOL     OW22054   5.372   6.745   3.316
 7052SOL    HW122055   5.329   6.828   3.281
 7052SOL    HW222056   5.302   6.686   3.356
 7053SOL     OW22057   1.443   3.516   3.967
 7053SOL    HW122058   1.519   3.521   3.903
 7053SOL    HW222059   1.462   3.447   4.037
 7054SOL     OW22060   0.387   0.375   1.167
 7054SOL    HW122061   0.329   0.390   1.087
 7054SOL    HW222062   0.397   0.277   1.183
 7055SOL     OW22063   2.070   0.434   6.857
 7055SOL    HW122064   2.079   0.409   6.953
 7055SOL    HW222065   2.126   0.372   6.801
 7056SOL     OW22066   6.609   5.825   1.199
 7056SOL    HW122067   6.517   5.791   1.218
 7056SOL    HW222068   6.608   5.925   1.194
 7057SOL     OW22069   3.168   5.175   4.237
 7057SOL    HW122070   3.121   5.109   4.178
 7057SOL    HW222071   3.101   5.224   4.292
 7058SOL     OW22072   5.209   2.021   6.633
 7058SOL    HW122073   5.244   2.006   6.726
 7058SOL    HW222074   5.248   2.106   6.597
 7059SOL     OW22075   2.040   1.621   4.590
 7059SOL    HW122076   2.032   1.644   4.493
 7059SOL    HW222077   1.985   1.685   4.644
 7060SOL     OW22078   3.377   6.824   2.557
 7060SOL    HW122079   3.381   6.924   2.563
 7060SOL    HW222080   3.300   6.797   2.499
 7061SOL     OW22081   1.358   1.898   2.528
 7061SOL    HW122082   1.278   1.933   2.578
 7061SOL    HW222083   1.353   1.927   2.433
 7062SOL     OW22084   4.283   2.099   4.329
 7062SOL    HW122085   4.187   2.092   4.356
 7062SOL    HW222086   4.325   2.176   4.376
 7063SOL     OW22087   0.415   6.671   2.666
 7063SOL    HW122088   0.381   6.612   2.594
 7063SOL    HW222089   0.487   6.624   2.717
 7064SOL     OW22090   5.068   1.467   5.806
 7064SOL    HW122091   5.158   1.462   5.848
 7064SOL    HW222092   5.052   1.561   5.774
 7065SOL     OW22093   3.288   4.456   5.416
 7065SOL    HW122094   3.245   4.366   5.410
 7065SOL    HW222095   3.376   4.454   5.368
 7066SOL     OW22096   4.821   0.677   6.913
 7066SOL    HW122097   4.824   0.763   6.862
 7066SOL    HW222098   4.824   0.695   7.011
 7067SOL     OW22099   1.633   3.433   6.985
 7067SOL    HW122100   1.587   3.455   0.045
 7067SOL    HW222101   1.680   3.514   6.951
 7068SOL     OW22102   5.714   4.344   4.191
 7068SOL    HW122103   5.617   4.321   4.200
 7068SOL    HW222104   5.739   4.343   4.094
 7069SOL     OW22105   6.139   1.393   5.817
 7069SOL    HW122106   6.177   1.418   5.906
 7069SOL    HW222107   6.073   1.320   5.828
 7070SOL     OW22108   0.229   6.432   4.932
 7070SOL    HW122109   0.177   6.489   4.995
 7070SOL    HW222110   0.225   6.336   4.962
 7071SOL     OW22111   5.479   6.423   6.616
 7071SOL    HW122112   5.481   6.385   6.708
 7071SOL    HW222113   5.419   6.367   6.558
 7072SOL     OW22114   1.192   4.257   6.857
 7072SOL    HW122115   1.260   4.325   6.829
 7072SOL    HW222116   1.123   4.247   6.785
 7073SOL     OW22117   4.175   0.454   3.370
 7073SOL    HW122118   4.237   0.376   3.377
 7073SOL    HW222119   4.200   0.510   3.291
 7074SOL     OW22120   6.697   3.305   3.492
 7074SOL    HW122121   6.740   3.381   3.541
 7074SOL    HW222122   6.728   3.304   3.397
 7075SOL     OW22123   3.023   4.836   5.060
 7075SOL    HW122124   2.996   4.741   5.073
 7075SOL    HW222125   3.040   4.878   5.149
 7076SOL     OW22126   5.881   3.166   1.761
 7076SOL    HW122127   5.927   3.227   1.824
 7076SOL    HW222128   5.886   3.072   1.795
 7077SOL     OW22129   2.933   4.937   2.521
 7077SOL    HW122130   2.960   4.981   2.607
 7077SOL    HW222131   2.999   4.865   2.499
 7078SOL     OW22132   5.667   6.793   0.549
 7078SOL    HW122133   5.642   6.696   0.547
 7078SOL    HW222134   5.763   6.802   0.577
 7079SOL     OW22135   1.195   6.928   3.726
 7079SOL    HW122136   1.273   6.866   3.732
 7079SOL    HW222137   1.226   7.018   3.695
 7080SOL     OW22138   4.189   1.960   4.823
 7080SOL    HW122139   4.177   1.897   4.746
 7080SOL    HW222140   4.106   1.961   4.878
 7081SOL     OW22141   1.418   0.906   6.921
 7081SOL    HW122142   1.396   0.834   6.986
 7081SOL    HW222143   1.515   0.903   6.898
 7082SOL     OW22144   6.775   3.676   1.729
 7082SOL    HW122145   6.680   3.696   1.705
 7082SOL    HW222146   6.787   3.686   1.828
 7083SOL     OW22147   6.930   2.338   2.300
 7083SOL    HW122148   6.891   2.418   2.254
 7083SOL    HW222149   0.003   2.346   2.303
 7084SOL     OW22150   0.283   5.592   6.305
 7084SOL    HW122151   0.298   5.651   6.226
 7084SOL    HW222152   0.216   5.521   6.282
 7085SOL     OW22153   6.995   2.696   2.423
 7085SOL    HW122154   0.060   2.682   2.461
 7085SOL    HW222155   6.992   2.658   2.330
 7086SOL     OW22156   5.927   0.632   0.022
 7086SOL    HW122157   5.917   0.719   7.000
 7086SOL    HW222158   6.016   0.629   0.067
 7087SOL     OW22159   5.354   3.391   2.620
 7087SOL    HW122160   5.311   3.331   2.553
 7087SOL    HW222161   5.304   3.477   2.624
 7088SOL     OW22162   5.968   1.340   4.980
 7088SOL    HW122163   5.918   1.390   4.909
 7088SOL    HW222164   6.061   1.321   4.949
 7089SOL     OW22165   3.994   5.745   2.533
 7089SOL    HW122166   4.014   5.822   2.473
 7089SOL    HW222167   4.063   5.740   2.606
 7090SOL     OW22168   3.586   1.319   0.980
 7090SOL    HW122169   3.608   1.390   0.914
 7090SOL    HW222170   3.588   1.357   1.073
 7091SOL     OW22171   0.859   0.148   0.399
 7091SOL    HW122172   0.775   0.191   0.433
 7091SOL    HW222173   0.931   0.156   0.468
 7092SOL     OW22174   3.939   2.143   6.669
 7092SOL    HW122175   3.881   2.189   6.603
 7092SOL    HW222176   3.989   2.211   6.723
 7093SOL     OW22177   3.676   3.832   1.223
 7093SOL    HW122178   3.678   3.888   1.306
 7093SOL    HW222179   3.604   3.865   1.162
 7094SOL     OW22180   1.955   6.666   6.025
 7094SOL    HW122181   1.924   6.586   6.077
 7094SOL    HW222182   2.029   6.711   6.074
 7095SOL     OW22183   3.381   4.874   5.265
 7095SOL    HW122184   3.377   4.962   5.312
 7095SOL    HW222185   3.294   4.826   5.276
 7096SOL     OW22186   6.658   0.807   1.152
 7096SOL    HW122187   6.717   0.868   1.206
 7096SOL    HW222188   6.650   0.843   1.059
 7097SOL     OW22189   5.385   6.936   1.877
 7097SOL    HW122190   5.386   6.859   1.813
 7097SOL    HW222191   5.350   6.905   1.966
 7098SOL     OW22192   1.800   0.068   4.511
 7098SOL    HW122193   1.761   0.092   4.600
 7098SOL    HW222194   1.750   7.017   4.472
 7099SOL     OW22195   3.508   2.103   4.211
 7099SOL    HW122196   3.470   2.093   4.119
 7099SOL    HW222197   3.436   2.134   4.274
 7100SOL     OW22198   0.752   3.529   0.557
 7100SOL    HW122199   0.772   3.454   0.620
 7100SOL    HW222200   0.778   3.616   0.599
 7101SOL     OW22201   2.263   6.172   5.458
 7101SOL    HW122202   2.197   6.118   5.405
 7101SOL    HW222203   2.267   6.265   5.422
 7102SOL     OW22204   5.044   1.250   1.317
 7102SOL    HW122205   5.103   1.305   1.258
 7102SOL    HW222206   4.968   1.213   1.263
 7103SOL     OW22207   4.986   5.195   2.073
 7103SOL    HW122208   4.970   5.193   2.172
 7103SOL    HW222209   4.927   5.263   2.031
 7104SOL     OW22210   5.497   3.088   3.009
 7104SOL    HW122211   5.534   3.113   3.098
 7104SOL    HW222212   5.471   3.171   2.959
 7105SOL     OW22213   3.120   4.004   3.974
 7105SOL    HW122214   3.194   4.066   4.002
 7105SOL    HW222215   3.120   3.996   3.874
 7106SOL     OW22216   3.391   2.863   1.234
 7106SOL    HW122217   3.372   2.833   1.328
 7106SOL    HW222218   3.362   2.791   1.170
 7107SOL     OW22219   4.436   0.089   6.840
 7107SOL    HW122220   4.398   0.133   6.921
 7107SOL    HW222221   4.435   7.016   6.852
 7108SOL     OW22222   2.713   6.362   2.953
 7108SOL    HW122223   2.750   6.297   3.020
 7108SOL    HW222224   2.688   6.447   3.000
 7109SOL     OW22225   1.458   0.583   6.447
 7109SOL    HW122226   1.499   0.580   6.356
 7109SOL    HW222227   1.520   0.628   6.511
 7110SOL     OW22228   3.030   6.770   4.567
 7110SOL    HW122229   3.122   6.767   4.528
 7110SOL    HW222230   3.015   6.687   4.621
 7111SOL     OW22231   1.326   0.876   4.103
 7111SOL    HW122232   1.266   0.833   4.036
 7111SOL    HW222233   1.303   0.973   4.112
 7112SOL     OW22234   1.946   4.398   4.558
 7112SOL    HW122235   1.936   4.496   4.541
 7112SOL    HW222236   2.042   4.373   4.555
 7113SOL     OW22237   2.685   4.796   5.231
 7113SOL    HW122238   2.738   4.730   5.178
 7113SOL    HW222239   2.659   4.755   5.319
 7114SOL     OW22240   4.667   5.348   1.178
 7114SOL    HW122241   4.691   5.252   1.195
 7114SOL    HW222242   4.747   5.395   1.138
 7115SOL     OW22243   5.875   4.331   6.607
 7115SOL    HW122244   5.933   4.276   6.668
 7115SOL    HW222245   5.931   4.373   6.536
 7116SOL     OW22246   6.573   3.929   3.960
 7116SOL    HW122247   6.519   3.858   4.005
 7116SOL    HW222248   6.613   3.989   4.030
 7117SOL     OW22249   6.202   6.837   3.595
 7117SOL    HW122250   6.103   6.849   3.599
 7117SOL    HW222251   6.223   6.743   3.566
 7118SOL     OW22252   4.128   4.551   5.453
 7118SOL    HW122253   4.193   4.524   5.524
 7118SOL    HW222254   4.091   4.470   5.409
 7119SOL     OW22255   4.928   0.552   4.965
 7119SOL    HW122256   4.991   0.512   5.030
 7119SOL    HW222257   4.866   0.615   5.012
 7120SOL     OW22258   5.117   1.486   1.169
 7120SOL    HW122259   5.130   1.451   1.076
 7120SOL    HW222260   5.112   1.586   1.165
 7121SOL     OW22261   1.008   6.262   3.651
 7121SOL    HW122262   0.988   6.268   3.748
 7121SOL    HW222263   1.022   6.167   3.625
 7122SOL     OW22264   2.796   6.890   5.587
 7122SOL    HW122265   2.856   6.969   5.577
 7122SOL    HW222266   2.778   6.850   5.497
 7123SOL     OW22267   6.355   5.014   4.898
 7123SOL    HW122268   6.286   5.084   4.880
 7123SOL    HW222269   6.403   4.991   4.813
 7124SOL     OW22270   1.190   2.687   1.670
 7124SOL    HW122271   1.219   2.616   1.605
 7124SOL    HW222272   1.090   2.696   1.666
 7125SOL     OW22273   0.785   0.373   1.853
 7125SOL    HW122274   0.794   0.276   1.876
 7125SOL    HW222275   0.876   0.410   1.833
 7126SOL     OW22276   4.156   6.291   1.339
 7126SOL    HW122277   4.110   6.268   1.253
 7126SOL    HW222278   4.094   6.274   1.416
 7127SOL     OW22279   3.458   6.123   5.292
 7127SOL    HW122280   3.411   6.098   5.376
 7127SOL    HW222281   3.439   6.220   5.272
 7128SOL     OW22282   3.298   4.869   6.175
 7128SOL    HW122283   3.247   4.784   6.186
 7128SOL    HW222284   3.339   4.872   6.083
 7129SOL     OW22285   0.616   1.659   1.317
 7129SOL    HW122286   0.704   1.635   1.276
 7129SOL    HW222287   0.596   1.595   1.391
 7130SOL     OW22288   2.747   6.974   4.293
 7130SOL    HW122289   2.816   6.970   4.221
 7130SOL    HW222290   2.656   6.971   4.252
 7131SOL     OW22291   3.744   0.628   2.836
 7131SOL    HW122292   3.780   0.598   2.748
 7131SOL    HW222293   3.644   0.622   2.835
 7132SOL     OW22294   5.319   3.734   6.748
 7132SOL    HW122295   5.320   3.802   6.674
 7132SOL    HW222296   5.330   3.643   6.710
 7133SOL     OW22297   3.428   5.789   3.522
 7133SOL    HW122298   3.365   5.761   3.450
 7133SOL    HW222299   3.459   5.709   3.574
 7134SOL     OW22300   5.974   5.500   1.820
 7134SOL    HW122301   5.896   5.558   1.843
 7134SOL    HW222302   6.048   5.556   1.785
 7135SOL     OW22303   2.021   3.377   1.980
 7135SOL    HW122304   1.950   3.414   1.919
 7135SOL    HW222305   2.107   3.426   1.965
 7136SOL     OW22306   2.844   1.810   1.882
 7136SOL    HW122307   2.820   1.848   1.793
 7136SOL    HW222308   2.927   1.854   1.916
 7137SOL     OW22309   2.951   2.062   1.460
 7137SOL    HW122310   2.898   2.145   1.475
 7137SOL    HW222311   2.985   2.028   1.548
 7138SOL     OW22312   1.684   1.607   0.785
 7138SOL    HW122313   1.724   1.687   0.830
 7138SOL    HW222314   1.686   1.529   0.849
 7139SOL     OW22315   5.417   5.637   2.106
 7139SOL    HW122316   5.375   5.708   2.050
 7139SOL    HW222317   5.455   5.678   2.189
 7140SOL     OW22318   6.476   3.682   0.817
 7140SOL    HW122319   6.434   3.609   0.763
 7140SOL    HW222320   6.442   3.771   0.787
 7141SOL     OW22321   4.181   6.894   1.040
 7141SOL    HW122322   4.083   6.900   1.023
 7141SOL    HW222323   4.201   6.922   1.134
 7142SOL     OW22324   3.413   0.744   4.186
 7142SOL    HW122325   3.343   0.675   4.175
 7142SOL    HW222326   3.392   0.802   4.265
 7143SOL     OW22327   2.627   4.983   6.323
 7143SOL    HW122328   2.642   4.889   6.292
 7143SOL    HW222329   2.714   5.026   6.344
 7144SOL     OW22330   6.906   0.989   4.332
 7144SOL    HW122331   6.932   1.064   4.271
 7144SOL    HW222332   6.813   1.004   4.365
 7145SOL     OW22333   4.904   1.853   0.255
 7145SOL    HW122334   4.857   1.934   0.291
 7145SOL    HW222335   4.837   1.781   0.239
 7146SOL     OW22336   2.221   1.296   5.136
 7146SOL    HW122337   2.138   1.242   5.126
 7146SOL    HW222338   2.283   1.277   5.060
 7147SOL     OW22339   5.393   4.642   2.770
 7147SOL    HW122340   5.412   4.547   2.792
 7147SOL    HW222341   5.353   4.688   2.850
 7148SOL     OW22342   6.372   6.061   1.991
 7148SOL    HW122343   6.452   6.086   2.045
 7148SOL    HW222344   6.320   5.991   2.039
 7149SOL     OW22345   0.055   4.603   4.368
 7149SOL    HW122346   0.133   4.593   4.306
 7149SOL    HW222347   0.027   4.513   4.401
 7150SOL     OW22348   3.992   3.511   0.104
 7150SOL    HW122349   3.965   3.417   0.082
 7150SOL    HW222350   3.911   3.567   0.121
 7151SOL     OW22351   3.989   0.094   1.283
 7151SOL    HW122352   4.033   0.181   1.303
 7151SOL    HW222353   3.890   0.105   1.286
 7152SOL     OW22354   0.180   0.796   6.533
 7152SOL    HW122355   0.112   0.730   6.564
 7152SOL    HW222356   0.249   0.749   6.477
 7153SOL     OW22357   4.434   6.273   1.412
 7153SOL    HW122358   4.443   6.231   1.502
 7153SOL    HW222359   4.341   6.309   1.401
 7154SOL     OW22360   4.076   1.212   2.446
 7154SOL    HW122361   4.095   1.145   2.374
 7154SOL    HW222362   4.155   1.217   2.508
 7155SOL     OW22363   3.424   1.989   2.482
 7155SOL    HW122364   3.509   2.042   2.487
 7155SOL    HW222365   3.380   2.006   2.394
 7156SOL     OW22366   5.842   3.603   1.242
 7156SOL    HW122367   5.916   3.551   1.201
 7156SOL    HW222368   5.774   3.540   1.280
 7157SOL     OW22369   6.235   4.100   6.374
 7157SOL    HW122370   6.241   4.052   6.287
 7157SOL    HW222371   6.287   4.186   6.368
 7158SOL     OW22372   5.292   6.611   3.983
 7158SOL    HW122373   5.217   6.632   3.920
 7158SOL    HW222374   5.264   6.633   4.076
 7159SOL     OW22375   0.225   5.290   4.251
 7159SOL    HW122376   0.162   5.363   4.275
 7159SOL    HW222377   0.315   5.308   4.291
 7160SOL     OW22378   5.368   6.919   2.960
 7160SOL    HW122379   5.356   6.822   2.982
 7160SOL    HW222380   5.313   6.942   2.880
 7161SOL     OW22381   3.995   3.232   3.451
 7161SOL    HW122382   3.985   3.148   3.503
 7161SOL    HW222383   3.946   3.306   3.497
 7162SOL     OW22384   0.183   5.487   1.972
 7162SOL    HW122385   0.089   5.497   2.005
 7162SOL    HW222386   0.233   5.572   1.989
 7163SOL     OW22387   1.101   1.510   2.110
 7163SOL    HW122388   1.059   1.483   2.023
 7163SOL    HW222389   1.181   1.567   2.092
 7164SOL     OW22390   1.360   1.271   6.033
 7164SOL    HW122391   1.424   1.223   6.093
 7164SOL    HW222392   1.299   1.328   6.089
 7165SOL     OW22393   5.830   0.192   0.109
 7165SOL    HW122394   5.742   0.162   0.146
 7165SOL    HW222395   5.815   0.271   0.049
 7166SOL     OW22396   5.076   6.548   6.243
 7166SOL    HW122397   5.024   6.616   6.191
 7166SOL    HW222398   5.056   6.557   6.340
 7167SOL     OW22399   6.032   1.736   4.948
 7167SOL    HW122400   5.944   1.743   4.996
 7167SOL    HW222401   6.050   1.821   4.898
 7168SOL     OW22402   2.397   1.133   2.237
 7168SOL    HW122403   2.361   1.079   2.314
 7168SOL    HW222404   2.345   1.112   2.155
 7169SOL     OW22405   1.795   4.083   5.756
 7169SOL    HW122406   1.759   4.120   5.671
 7169SOL    HW222407   1.857   4.007   5.735
 7170SOL     OW22408   4.223   0.624   1.824
 7170SOL    HW122409   4.189   0.654   1.735
 7170SOL    HW222410   4.230   0.703   1.885
 7171SOL     OW22411   5.624   4.945   0.825
 7171SOL    HW122412   5.667   4.993   0.749
 7171SOL    HW222413   5.672   4.858   0.841
 7172SOL     OW22414   1.644   1.085   4.441
 7172SOL    HW122415   1.680   1.079   4.348
 7172SOL    HW222416   1.570   1.152   4.444
 7173SOL     OW22417   5.524   5.705   6.629
 7173SOL    HW122418   5.615   5.746   6.620
 7173SOL    HW222419   5.461   5.773   6.665
 7174SOL     OW22420   6.182   4.387   1.009
 7174SOL    HW122421   6.281   4.369   1.001
 7174SOL    HW222422   6.143   4.325   1.076
 7175SOL     OW22423   6.054   3.970   5.219
 7175SOL    HW122424   6.053   3.915   5.135
 7175SOL    HW222425   6.146   4.007   5.233
 7176SOL     OW22426   0.370   1.469   4.311
 7176SOL    HW122427   0.293   1.532   4.320
 7176SOL    HW222428   0.403   1.443   4.402
 7177SOL     OW22429   2.108   5.230   5.208
 7177SOL    HW122430   2.128   5.162   5.279
 7177SOL    HW222431   2.024   5.279   5.231
 7178SOL     OW22432   0.745   0.634   5.221
 7178SOL    HW122433   0.786   0.583   5.297
 7178SOL    HW222434   0.699   0.715   5.257
 7179SOL     OW22435   3.202   5.744   6.589
 7179SOL    HW122436   3.113   5.788   6.591
 7179SOL    HW222437   3.247   5.753   6.678
 7180SOL     OW22438   1.175   4.897   1.441
 7180SOL    HW122439   1.241   4.971   1.430
 7180SOL    HW222440   1.173   4.869   1.537
 7181SOL     OW22441   2.171   1.695   5.762
 7181SOL    HW122442   2.239   1.627   5.734
 7181SOL    HW222443   2.102   1.705   5.691
 7182SOL     OW22444   0.794   3.259   3.901
 7182SOL    HW122445   0.852   3.199   3.956
 7182SOL    HW222446   0.849   3.333   3.863
 7183SOL     OW22447   1.358   6.358   1.595
 7183SOL    HW122448   1.408   6.308   1.525
 7183SOL    HW222449   1.329   6.294   1.666
 7184SOL     OW22450   6.763   0.156   3.626
 7184SOL    HW122451   6.844   0.205   3.655
 7184SOL    HW222452   6.786   0.060   3.607
 7185SOL     OW22453   4.727   0.752   5.024
 7185SOL    HW122454   4.711   0.793   5.114
 7185SOL    HW222455   4.751   0.824   4.959
 7186SOL     OW22456   0.297   0.327   0.141
 7186SOL    HW122457   0.245   0.254   0.185
 7186SOL    HW222458   0.291   0.317   0.041
 7187SOL     OW22459   3.385   3.024   5.088
 7187SOL    HW122460   3.469   3.064   5.124
 7187SOL    HW222461   3.408   2.951   5.023
 7188SOL     OW22462   4.298   5.162   0.161
 7188SOL    HW122463   4.241   5.082   0.180
 7188SOL    HW222464   4.323   5.206   0.248
 7189SOL     OW22465   6.324   2.469   5.315
 7189SOL    HW122466   6.320   2.404   5.239
 7189SOL    HW222467   6.391   2.437   5.383
 7190SOL     OW22468   5.892   5.557   1.438
 7190SOL    HW122469   5.904   5.474   1.493
 7190SOL    HW222470   5.809   5.604   1.467
 7191SOL     OW22471   0.716   4.097   3.355
 7191SOL    HW122472   0.744   4.093   3.451
 7191SOL    HW222473   0.675   4.009   3.329
 7192SOL     OW22474   1.718   5.215   6.802
 7192SOL    HW122475   1.667   5.129   6.812
 7192SOL    HW222476   1.798   5.200   6.744
 7193SOL     OW22477   2.809   2.323   2.737
 7193SOL    HW122478   2.762   2.410   2.749
 7193SOL    HW222479   2.781   2.281   2.650
 7194SOL     OW22480   2.797   2.736   6.653
 7194SOL    HW122481   2.745   2.671   6.709
 7194SOL    HW222482   2.842   2.802   6.713
 7195SOL     OW22483   0.412   3.544   6.863
 7195SOL    HW122484   0.399   3.588   6.952
 7195SOL    HW222485   0.507   3.559   6.833
 7196SOL     OW22486   3.271   4.043   2.275
 7196SOL    HW122487   3.178   4.032   2.309
 7196SOL    HW222488   3.273   4.116   2.206
 7197SOL     OW22489   1.491   3.614   5.577
 7197SOL    HW122490   1.553   3.680   5.618
 7197SOL    HW222491   1.526   3.521   5.593
 7198SOL     OW22492   6.699   0.823   0.569
 7198SOL    HW122493   6.777   0.848   0.627
 7198SOL    HW222494   6.614   0.845   0.617
 7199SOL     OW22495   0.873   1.000   2.436
 7199SOL    HW122496   0.781   0.961   2.441
 7199SOL    HW222497   0.870   1.096   2.462
 7200SOL     OW22498   2.389   2.325   0.363
 7200SOL    HW122499   2.417   2.394   0.431
 7200SOL    HW222500   2.313   2.361   0.309
 7201SOL     OW22501   5.962   5.808   4.173
 7201SOL    HW122502   5.991   5.878   4.107
 7201SOL    HW222503   6.041   5.756   4.203
 7202SOL     OW22504   5.183   6.569   5.811
 7202SOL    HW122505   5.194   6.654   5.862
 7202SOL    HW222506   5.138   6.501   5.870
 7203SOL     OW22507   0.177   1.485   2.057
 7203SOL    HW122508   0.250   1.489   2.125
 7203SOL    HW222509   0.142   1.392   2.051
 7204SOL     OW22510   0.144   1.598   0.995
 7204SOL    HW122511   0.222   1.540   0.972
 7204SOL    HW222512   0.162   1.645   1.082
 7205SOL     OW22513   2.012   2.371   5.380
 7205SOL    HW122514   2.076   2.307   5.337
 7205SOL    HW222515   1.991   2.445   5.315
 7206SOL     OW22516   1.775   2.105   0.944
 7206SOL    HW122517   1.756   2.125   0.848
 7206SOL    HW222518   1.798   2.189   0.992
 7207SOL     OW22519   2.327   2.479   3.963
 7207SOL    HW122520   2.417   2.434   3.963
 7207SOL    HW222521   2.256   2.412   3.941
 7208SOL     OW22522   3.958   0.768   4.507
 7208SOL    HW122523   4.003   0.810   4.587
 7208SOL    HW222524   4.028   0.735   4.444
 7209SOL     OW22525   2.252   2.550   2.334
 7209SOL    HW122526   2.349   2.532   2.351
 7209SOL    HW222527   2.232   2.535   2.237
 7210SOL     OW22528   2.442   1.710   2.864
 7210SOL    HW122529   2.401   1.735   2.952
 7210SOL    HW222530   2.503   1.783   2.834
 7211SOL     OW22531   3.411   6.087   5.025
 7211SOL    HW122532   3.444   6.075   5.118
 7211SOL    HW222533   3.317   6.121   5.027
 7212SOL     OW22534   5.831   5.123   5.968
 7212SOL    HW122535   5.749   5.179   5.979
 7212SOL    HW222536   5.913   5.178   5.986
 7213SOL     OW22537   4.010   0.404   0.394
 7213SOL    HW122538   3.991   0.308   0.377
 7213SOL    HW222539   3.924   0.451   0.417
 7214SOL     OW22540   0.646   0.800   6.294
 7214SOL    HW122541   0.669   0.760   6.205
 7214SOL    HW222542   0.551   0.778   6.317
 7215SOL     OW22543   0.496   2.739   2.976
 7215SOL    HW122544   0.494   2.819   3.035
 7215SOL    HW222545   0.505   2.767   2.881
 7216SOL     OW22546   3.179   6.439   3.123
 7216SOL    HW122547   3.270   6.456   3.161
 7216SOL    HW222548   3.145   6.523   3.080
 7217SOL     OW22549   1.478   4.297   3.991
 7217SOL    HW122550   1.573   4.268   3.973
 7217SOL    HW222551   1.416   4.240   3.937
 7218SOL     OW22552   6.678   3.231   4.424
 7218SOL    HW122553   6.615   3.153   4.416
 7218SOL    HW222554   6.690   3.255   4.520
 7219SOL     OW22555   3.085   6.863   1.495
 7219SOL    HW122556   3.122   6.934   1.555
 7219SOL    HW222557   3.160   6.817   1.448
 7220SOL     OW22558   6.703   3.971   4.663
 7220SOL    HW122559   6.787   4.013   4.698
 7220SOL    HW222560   6.625   3.998   4.720
 7221SOL     OW22561   3.098   6.300   4.810
 7221SOL    HW122562   3.045   6.239   4.750
 7221SOL    HW222563   3.136   6.247   4.886
 7222SOL     OW22564   6.266   6.356   3.569
 7222SOL    HW122565   6.330   6.279   3.582
 7222SOL    HW222566   6.192   6.327   3.509
 7223SOL     OW22567   2.393   1.896   0.162
 7223SOL    HW122568   2.341   1.902   0.077
 7223SOL    HW222569   2.446   1.980   0.175
 7224SOL     OW22570   4.782   2.339   3.730
 7224SOL    HW122571   4.744   2.282   3.803
 7224SOL    HW222572   4.729   2.326   3.646
 7225SOL     OW22573   1.840   6.935   0.776
 7225SOL    HW122574   1.810   6.871   0.846
 7225SOL    HW222575   1.874   6.884   0.697
 7226SOL     OW22576   6.065   1.085   0.452
 7226SOL    HW122577   6.122   1.149   0.401
 7226SOL    HW222578   5.981   1.132   0.481
 7227SOL     OW22579   2.636   0.459   2.358
 7227SOL    HW122580   2.616   0.553   2.330
 7227SOL    HW222581   2.710   0.423   2.302
 7228SOL     OW22582   0.775   2.120   2.466
 7228SOL    HW122583   0.714   2.060   2.517
 7228SOL    HW222584   0.793   2.081   2.375
 7229SOL     OW22585   6.592   0.156   4.520
 7229SOL    HW122586   6.670   0.095   4.535
 7229SOL    HW222587   6.578   0.170   4.422
 7230SOL     OW22588   2.828   5.140   3.959
 7230SOL    HW122589   2.753   5.177   4.014
 7230SOL    HW222590   2.872   5.064   4.008
 7231SOL     OW22591   4.115   1.145   0.032
 7231SOL    HW122592   4.134   1.138   0.129
 7231SOL    HW222593   4.017   1.162   0.018
 7232SOL     OW22594   5.191   6.948   2.714
 7232SOL    HW122595   5.124   6.995   2.657
 7232SOL    HW222596   5.281   6.951   2.670
 7233SOL     OW22597   5.972   2.078   6.198
 7233SOL    HW122598   6.027   2.014   6.144
 7233SOL    HW222599   5.905   2.122   6.138
 7234SOL     OW22600   4.863   3.818   3.321
 7234SOL    HW122601   4.862   3.736   3.264
 7234SOL    HW222602   4.956   3.831   3.358
 7235SOL     OW22603   6.164   5.667   1.738
 7235SOL    HW122604   6.200   5.700   1.825
 7235SOL    HW222605   6.232   5.610   1.692
 7236SOL     OW22606   2.039   2.692   2.996
 7236SOL    HW122607   2.029   2.785   3.031
 7236SOL    HW222608   2.134   2.675   2.972
 7237SOL     OW22609   5.480   0.203   6.792
 7237SOL    HW122610   5.486   0.285   6.849
 7237SOL    HW222611   5.561   0.147   6.805
 7238SOL     OW22612   4.946   2.787   6.767
 7238SOL    HW122613   4.994   2.874   6.773
 7238SOL    HW222614   5.001   2.716   6.812
 7239SOL     OW22615   0.400   3.353   2.140
 7239SOL    HW122616   0.366   3.373   2.048
 7239SOL    HW222617   0.462   3.275   2.136
 7240SOL     OW22618   6.737   1.466   5.915
 7240SOL    HW122619   6.680   1.498   5.840
 7240SOL    HW222620   6.742   1.537   5.986
 7241SOL     OW22621   2.269   0.860   0.721
 7241SOL    HW122622   2.241   0.884   0.814
 7241SOL    HW222623   2.286   0.762   0.715
 7242SOL     OW22624   0.474   6.059   5.212
 7242SOL    HW122625   0.550   6.004   5.178
 7242SOL    HW222626   0.388   6.010   5.198
 7243SOL     OW22627   0.092   3.457   6.189
 7243SOL    HW122628   0.028   3.521   6.231
 7243SOL    HW222629   0.124   3.494   6.102
 7244SOL     OW22630   0.189   6.461   0.201
 7244SOL    HW122631   0.272   6.410   0.181
 7244SOL    HW222632   0.212   6.546   0.249
 7245SOL     OW22633   1.611   2.174   6.725
 7245SOL    HW122634   1.707   2.160   6.701
 7245SOL    HW222635   1.554   2.111   6.672
 7246SOL     OW22636   3.017   0.703   4.733
 7246SOL    HW122637   3.007   0.639   4.657
 7246SOL    HW222638   3.076   0.779   4.705
 7247SOL     OW22639   3.219   2.447   5.554
 7247SOL    HW122640   3.235   2.381   5.481
 7247SOL    HW222641   3.142   2.506   5.530
 7248SOL     OW22642   2.916   0.639   4.246
 7248SOL    HW122643   2.887   0.669   4.155
 7248SOL    HW222644   2.931   0.541   4.247
 7249SOL     OW22645   4.301   4.654   2.110
 7249SOL    HW122646   4.398   4.678   2.114
 7249SOL    HW222647   4.286   4.582   2.043
 7250SOL     OW22648   5.249   4.717   6.220
 7250SOL    HW122649   5.232   4.753   6.128
 7250SOL    HW222650   5.341   4.741   6.249
 7251SOL     OW22651   0.919   6.591   6.175
 7251SOL    HW122652   0.939   6.497   6.202
 7251SOL    HW222653   0.829   6.594   6.131
 7252SOL     OW22654   3.070   4.036   2.076
 7252SOL    HW122655   3.028   3.966   2.133
 7252SOL    HW222656   3.007   4.112   2.065
 7253SOL     OW22657   1.707   6.761   6.074
 7253SOL    HW122658   1.786   6.736   6.017
 7253SOL    HW222659   1.629   6.703   6.050
 7254SOL     OW22660   5.590   4.603   3.652
 7254SOL    HW122661   5.648   4.684   3.658
 7254SOL    HW222662   5.623   4.534   3.718
 7255SOL     OW22663   5.029   3.387   6.764
 7255SOL    HW122664   5.048   3.390   6.862
 7255SOL    HW222665   5.003   3.294   6.739
 7256SOL     OW22666   3.708   6.563   5.599
 7256SOL    HW122667   3.731   6.480   5.549
 7256SOL    HW222668   3.609   6.565   5.617
 7257SOL     OW22669   6.947   1.913   5.227
 7257SOL    HW122670   6.899   1.988   5.180
 7257SOL    HW222671   6.971   1.942   5.319
 7258SOL     OW22672   5.551   2.277   1.690
 7258SOL    HW122673   5.635   2.222   1.688
 7258SOL    HW222674   5.572   2.370   1.660
 7259SOL     OW22675   1.323   3.519   2.716
 7259SOL    HW122676   1.399   3.572   2.678
 7259SOL    HW222677   1.238   3.571   2.704
 7260SOL     OW22678   4.905   2.480   0.953
 7260SOL    HW122679   4.917   2.572   0.991
 7260SOL    HW222680   4.951   2.413   1.011
 7261SOL     OW22681   0.165   4.063   0.944
 7261SOL    HW122682   0.156   3.965   0.923
 7261SOL    HW222683   0.080   4.096   0.985
 7262SOL     OW22684   5.570   1.216   6.314
 7262SOL    HW122685   5.485   1.266   6.334
 7262SOL    HW222686   5.643   1.281   6.296
 7263SOL     OW22687   0.273   7.003   0.140
 7263SOL    HW122688   0.197   0.021   0.187
 7263SOL    HW222689   0.357   7.017   0.193
 7264SOL     OW22690   5.733   0.947   1.021
 7264SOL    HW122691   5.646   0.994   1.029
 7264SOL    HW222692   5.722   0.850   1.042
 7265SOL     OW22693   5.838   5.434   4.505
 7265SOL    HW122694   5.813   5.494   4.429
 7265SOL    HW222695   5.899   5.362   4.472
 7266SOL     OW22696   6.936   0.344   3.416
 7266SOL    HW122697   6.944   0.326   3.514
 7266SOL    HW222698   0.002   0.346   3.376
 7267SOL     OW22699   6.475   6.472   4.777
 7267SOL    HW122700   6.504   6.385   4.817
 7267SOL    HW222701   6.434   6.455   4.687
 7268SOL     OW22702   0.054   5.340   4.546
 7268SOL    HW122703   7.000   5.378   4.498
 7268SOL    HW222704   0.128   5.407   4.542
 7269SOL     OW22705   2.090   6.180   5.849
 7269SOL    HW122706   1.995   6.161   5.822
 7269SOL    HW222707   2.105   6.279   5.850
 7270SOL     OW22708   6.973   1.980   4.133
 7270SOL    HW122709   7.008   2.020   4.048
 7270SOL    HW222710   6.874   1.970   4.127
 7271SOL     OW22711   1.681   5.285   3.817
 7271SOL    HW122712   1.739   5.344   3.760
 7271SOL    HW222713   1.708   5.189   3.804
 7272SOL     OW22714   6.594   6.036   2.142
 7272SOL    HW122715   6.564   5.945   2.170
 7272SOL    HW222716   6.689   6.050   2.167
 7273SOL     OW22717   5.106   3.406   6.407
 7273SOL    HW122718   5.169   3.399   6.484
 7273SOL    HW222719   5.069   3.315   6.386
 7274SOL     OW22720   0.301   3.995   6.863
 7274SOL    HW122721   0.383   3.971   6.811
 7274SOL    HW222722   0.262   3.911   6.903
 7275SOL     OW22723   0.329   6.442   2.935
 7275SOL    HW122724   0.314   6.344   2.945
 7275SOL    HW222725   0.251   6.484   2.889
 7276SOL     OW22726   5.292   6.948   3.807
 7276SOL    HW122727   5.377   6.895   3.821
 7276SOL    HW222728   5.232   6.899   3.744
 7277SOL     OW22729   5.028   0.208   5.792
 7277SOL    HW122730   5.107   0.231   5.736
 7277SOL    HW222731   5.003   0.112   5.777
 7278SOL     OW22732   3.103   3.862   1.607
 7278SOL    HW122733   3.128   3.891   1.699
 7278SOL    HW222734   3.008   3.887   1.589
 7279SOL     OW22735   4.170   6.402   0.059
 7279SOL    HW122736   4.173   6.437   0.153
 7279SOL    HW222737   4.256   6.355   0.040
 7280SOL     OW22738   5.925   6.883   4.706
 7280SOL    HW122739   5.872   6.880   4.791
 7280SOL    HW222740   5.905   6.801   4.651
 7281SOL     OW22741   2.991   1.633   0.108
 7281SOL    HW122742   3.031   1.710   0.158
 7281SOL    HW222743   2.902   1.659   0.073
 7282SOL     OW22744   6.328   4.985   2.713
 7282SOL    HW122745   6.380   4.946   2.790
 7282SOL    HW222746   6.250   5.036   2.749
 7283SOL     OW22747   3.178   1.365   3.507
 7283SOL    HW122748   3.165   1.372   3.408
 7283SOL    HW222749   3.092   1.384   3.553
 7284SOL     OW22750   0.352   3.346   5.337
 7284SOL    HW122751   0.372   3.314   5.430
 7284SOL    HW222752   0.282   3.418   5.340
 7285SOL     OW22753   5.068   3.889   2.284
 7285SOL    HW122754   5.120   3.827   2.226
 7285SOL    HW222755   5.131   3.955   2.326
 7286SOL     OW22756   3.091   1.878   0.922
 7286SOL    HW122757   3.097   1.816   0.845
 7286SOL    HW222758   3.033   1.838   0.993
 7287SOL     OW22759   0.311   2.181   6.606
 7287SOL    HW122760   0.388   2.218   6.658
 7287SOL    HW222761   0.272   2.253   6.549
 7288SOL     OW22762   3.762   0.618   6.443
 7288SOL    HW122763   3.686   0.683   6.444
 7288SOL    HW222764   3.834   0.652   6.382
 7289SOL     OW22765   6.430   1.581   3.190
 7289SOL    HW122766   6.364   1.511   3.215
 7289SOL    HW222767   6.522   1.548   3.207
 7290SOL     OW22768   2.904   6.206   5.324
 7290SOL    HW122769   2.836   6.154   5.377
 7290SOL    HW222770   2.967   6.252   5.387
 7291SOL     OW22771   1.866   0.100   1.639
 7291SOL    HW122772   1.854   0.176   1.575
 7291SOL    HW222773   1.812   0.117   1.721
 7292SOL     OW22774   2.301   0.586   4.484
 7292SOL    HW122775   2.263   0.659   4.427
 7292SOL    HW222776   2.334   0.624   4.570
 7293SOL     OW22777   1.556   1.453   5.131
 7293SOL    HW122778   1.626   1.415   5.192
 7293SOL    HW222779   1.589   1.450   5.037
 7294SOL     OW22780   2.904   5.311   0.691
 7294SOL    HW122781   2.973   5.266   0.748
 7294SOL    HW222782   2.890   5.405   0.722
 7295SOL     OW22783   1.052   2.950   0.650
 7295SOL    HW122784   1.074   2.934   0.554
 7295SOL    HW222785   1.002   3.036   0.660
 7296SOL     OW22786   2.794   5.016   1.189
 7296SOL    HW122787   2.874   4.999   1.246
 7296SOL    HW222788   2.713   5.021   1.246
 7297SOL     OW22789   3.716   5.769   1.379
 7297SOL    HW122790   3.806   5.726   1.373
 7297SOL    HW222791   3.727   5.865   1.406
 7298SOL     OW22792   4.859   4.340   5.878
 7298SOL    HW122793   4.959   4.342   5.888
 7298SOL    HW222794   4.829   4.420   5.826
 7299SOL     OW22795   0.256   1.630   0.179
 7299SOL    HW122796   0.322   1.639   0.254
 7299SOL    HW222797   0.305   1.627   0.092
 7300SOL     OW22798   6.029   5.602   2.204
 7300SOL    HW122799   5.943   5.618   2.155
 7300SOL    HW222800   6.033   5.661   2.284
 7301SOL     OW22801   6.130   0.792   4.322
 7301SOL    HW122802   6.067   0.752   4.390
 7301SOL    HW222803   6.090   0.785   4.231
 7302SOL     OW22804   0.704   1.405   6.256
 7302SOL    HW122805   0.683   1.502   6.251
 7302SOL    HW222806   0.621   1.353   6.276
 7303SOL     OW22807   4.950   0.536   6.577
 7303SOL    HW122808   4.877   0.491   6.629
 7303SOL    HW222809   4.952   0.633   6.599
 7304SOL     OW22810   3.889   4.114   0.171
 7304SOL    HW122811   3.910   4.128   0.268
 7304SOL    HW222812   3.797   4.074   0.163
 7305SOL     OW22813   4.742   1.831   0.725
 7305SOL    HW122814   4.820   1.841   0.663
 7305SOL    HW222815   4.671   1.897   0.701
 7306SOL     OW22816   5.210   3.243   1.276
 7306SOL    HW122817   5.305   3.273   1.260
 7306SOL    HW222818   5.211   3.156   1.325
 7307SOL     OW22819   3.144   0.395   1.725
 7307SOL    HW122820   3.216   0.393   1.656
 7307SOL    HW222821   3.182   0.366   1.813
 7308SOL     OW22822   6.720   4.059   5.683
 7308SOL    HW122823   6.778   4.110   5.746
 7308SOL    HW222824   6.678   3.982   5.731
 7309SOL     OW22825   5.444   5.909   0.518
 7309SOL    HW122826   5.421   5.904   0.615
 7309SOL    HW222827   5.374   5.863   0.464
 7310SOL     OW22828   2.105   3.871   1.629
 7310SOL    HW122829   2.136   3.780   1.658
 7310SOL    HW222830   2.132   3.939   1.697
 7311SOL     OW22831   3.562   2.020   2.088
 7311SOL    HW122832   3.627   2.091   2.060
 7311SOL    HW222833   3.470   2.048   2.062
 7312SOL     OW22834   0.171   3.273   5.829
 7312SOL    HW122835   0.202   3.366   5.847
 7312SOL    HW222836   0.171   3.257   5.730
 7313SOL     OW22837   4.257   2.133   6.220
 7313SOL    HW122838   4.309   2.094   6.296
 7313SOL    HW222839   4.320   2.155   6.146
 7314SOL     OW22840   6.471   3.398   5.669
 7314SOL    HW122841   6.562   3.393   5.630
 7314SOL    HW222842   6.477   3.389   5.769
 7315SOL     OW22843   6.816   0.093   2.862
 7315SOL    HW122844   6.825   7.023   2.889
 7315SOL    HW222845   6.846   0.104   2.767
 7316SOL     OW22846   3.200   3.450   6.547
 7316SOL    HW122847   3.209   3.549   6.555
 7316SOL    HW222848   3.135   3.428   6.474
 7317SOL     OW22849   4.776   1.098   2.286
 7317SOL    HW122850   4.730   1.186   2.273
 7317SOL    HW222851   4.724   1.043   2.351
 7318SOL     OW22852   0.983   1.911   0.444
 7318SOL    HW122853   0.897   1.899   0.494
 7318SOL    HW222854   0.979   1.862   0.358
 7319SOL     OW22855   6.101   3.752   6.152
 7319SOL    HW122856   6.173   3.692   6.187
 7319SOL    HW222857   6.050   3.705   6.081
 7320SOL     OW22858   6.346   3.378   1.730
 7320SOL    HW122859   6.323   3.419   1.819
 7320SOL    HW222860   6.294   3.424   1.658
 7321SOL     OW22861   3.169   6.366   5.252
 7321SOL    HW122862   3.115   6.434   5.202
 7321SOL    HW222863   3.129   6.352   5.343
 7322SOL     OW22864   0.297   2.553   2.807
 7322SOL    HW122865   0.364   2.597   2.748
 7322SOL    HW222866   0.342   2.486   2.866
 7323SOL     OW22867   2.077   2.306   1.603
 7323SOL    HW122868   2.029   2.351   1.528
 7323SOL    HW222869   2.096   2.372   1.675
 7324SOL     OW22870   5.226   6.320   2.550
 7324SOL    HW122871   5.154   6.285   2.490
 7324SOL    HW222872   5.194   6.405   2.594
 7325SOL     OW22873   4.060   7.017   6.839
 7325SOL    HW122874   3.994   6.974   6.900
 7325SOL    HW222875   4.028   7.011   6.745
 7326SOL     OW22876   2.394   6.650   5.543
 7326SOL    HW122877   2.435   6.649   5.634
 7326SOL    HW222878   2.366   6.743   5.520
 7327SOL     OW22879   6.765   2.994   5.306
 7327SOL    HW122880   6.722   2.956   5.224
 7327SOL    HW222881   6.710   2.970   5.386
 7328SOL     OW22882   3.533   0.496   6.239
 7328SOL    HW122883   3.517   0.528   6.146
 7328SOL    HW222884   3.630   0.474   6.250
 7329SOL     OW22885   4.426   3.785   1.652
 7329SOL    HW122886   4.504   3.847   1.656
 7329SOL    HW222887   4.403   3.766   1.557
 7330SOL     OW22888   2.952   2.066   6.934
 7330SOL    HW122889   2.916   2.140   6.878
 7330SOL    HW222890   2.942   1.979   6.886
 7331SOL     OW22891   5.349   6.774   1.635
 7331SOL    HW122892   5.282   6.754   1.563
 7331SOL    HW222893   5.441   6.751   1.602
 7332SOL     OW22894   2.213   6.083   0.272
 7332SOL    HW122895   2.117   6.103   0.252
 7332SOL    HW222896   2.221   5.991   0.310
 7333SOL     OW22897   0.142   3.273   3.853
 7333SOL    HW122898   0.196   3.191   3.838
 7333SOL    HW222899   0.045   3.251   3.850
 7334SOL     OW22900   3.901   6.415   0.043
 7334SOL    HW122901   4.000   6.417   0.052
 7334SOL    HW222902   3.865   6.333   0.089
 7335SOL     OW22903   1.947   2.830   2.734
 7335SOL    HW122904   1.907   2.745   2.769
 7335SOL    HW222905   1.930   2.837   2.636
 7336SOL     OW22906   1.637   5.977   3.057
 7336SOL    HW122907   1.717   6.019   3.014
 7336SOL    HW222908   1.562   5.971   2.991
 7337SOL     OW22909   0.276   2.703   2.233
 7337SOL    HW122910   0.228   2.713   2.146
 7337SOL    HW222911   0.309   2.792   2.263
 7338SOL     OW22912   6.257   2.685   1.243
 7338SOL    HW122913   6.192   2.737   1.299
 7338SOL    HW222914   6.338   2.664   1.298
 7339SOL     OW22915   4.954   6.134   3.671
 7339SOL    HW122916   4.870   6.088   3.640
 7339SOL    HW222917   5.004   6.073   3.732
 7340SOL     OW22918   1.245   0.666   0.178
 7340SOL    HW122919   1.248   0.686   0.276
 7340SOL    HW222920   1.329   0.617   0.152
 7341SOL     OW22921   6.822   2.731   6.850
 7341SOL    HW122922   6.905   2.674   6.852
 7341SOL    HW222923   6.749   2.682   6.803
 7342SOL     OW22924   6.415   1.085   1.555
 7342SOL    HW122925   6.405   1.128   1.645
 7342SOL    HW222926   6.382   1.147   1.484
 7343SOL     OW22927   4.333   2.867   7.008
 7343SOL    HW122928   4.424   2.899   6.984
 7343SOL    HW222929   4.286   2.936   0.037
 7344SOL     OW22930   1.140   6.708   6.047
 7344SOL    HW122931   1.079   6.674   6.118
 7344SOL    HW222932   1.092   6.710   5.959
 7345SOL     OW22933   3.583   3.390   5.783
 7345SOL    HW122934   3.592   3.422   5.878
 7345SOL    HW222935   3.604   3.465   5.721
 7346SOL     OW22936   4.412   6.276   2.605
 7346SOL    HW122937   4.426   6.234   2.515
 7346SOL    HW222938   4.340   6.345   2.599
 7347SOL     OW22939   0.553   1.719   0.448
 7347SOL    HW122940   0.558   1.697   0.351
 7347SOL    HW222941   0.508   1.645   0.497
 7348SOL     OW22942   1.210   3.587   3.830
 7348SOL    HW122943   1.142   3.652   3.866
 7348SOL    HW222944   1.296   3.599   3.879
 7349SOL     OW22945   4.123   0.050   1.940
 7349SOL    HW122946   4.069   0.119   1.988
 7349SOL    HW222947   4.194   0.015   2.001
 7350SOL     OW22948   2.448   1.732   5.516
 7350SOL    HW122949   2.458   1.795   5.593
 7350SOL    HW222950   2.350   1.714   5.501
 7351SOL     OW22951   5.551   5.320   3.404
 7351SOL    HW122952   5.619   5.331   3.331
 7351SOL    HW222953   5.472   5.379   3.385
 7352SOL     OW22954   1.341   1.969   2.930
 7352SOL    HW122955   1.439   1.951   2.939
 7352SOL    HW222956   1.290   1.885   2.949
 7353SOL     OW22957   0.314   0.312   6.906
 7353SOL    HW122958   0.395   0.368   6.887
 7353SOL    HW222959   0.313   0.234   6.843
 7354SOL     OW22960   1.531   0.906   4.614
 7354SOL    HW122961   1.576   0.904   4.704
 7354SOL    HW222962   1.590   0.950   4.547
 7355SOL     OW22963   0.277   1.931   6.694
 7355SOL    HW122964   0.281   2.024   6.656
 7355SOL    HW222965   0.270   1.936   6.793
 7356SOL     OW22966   3.705   4.240   6.202
 7356SOL    HW122967   3.654   4.224   6.287
 7356SOL    HW222968   3.782   4.176   6.197
 7357SOL     OW22969   3.191   6.127   2.062
 7357SOL    HW122970   3.259   6.198   2.042
 7357SOL    HW222971   3.117   6.132   1.995
 7358SOL     OW22972   6.298   3.298   2.309
 7358SOL    HW122973   6.295   3.310   2.408
 7358SOL    HW222974   6.374   3.238   2.285
 7359SOL     OW22975   4.432   2.564   5.848
 7359SOL    HW122976   4.375   2.619   5.788
 7359SOL    HW222977   4.517   2.540   5.801
 7360SOL     OW22978   2.280   3.600   5.690
 7360SOL    HW122979   2.219   3.649   5.627
 7360SOL    HW222980   2.358   3.564   5.640
 7361SOL     OW22981   5.442   0.896   2.808
 7361SOL    HW122982   5.382   0.906   2.728
 7361SOL    HW222983   5.444   0.982   2.859
 7362SOL     OW22984   3.183   5.937   6.322
 7362SOL    HW122985   3.123   5.865   6.286
 7362SOL    HW222986   3.171   5.943   6.421
 7363SOL     OW22987   4.444   0.888   1.551
 7363SOL    HW122988   4.512   0.945   1.504
 7363SOL    HW222989   4.399   0.829   1.485
 7364SOL     OW22990   4.649   0.212   1.944
 7364SOL    HW122991   4.559   0.255   1.940
 7364SOL    HW222992   4.680   0.189   1.852
 7365SOL     OW22993   0.196   6.098   2.223
 7365SOL    HW122994   0.139   6.164   2.273
 7365SOL    HW222995   0.147   6.012   2.215
 7366SOL     OW22996   2.149   6.564   5.206
 7366SOL    HW122997   2.067   6.563   5.148
 7366SOL    HW222998   2.187   6.657   5.208
 7367SOL     OW22999   3.899   2.361   0.406
 7367SOL    HW123000   3.869   2.408   0.323
 7367SOL    HW223001   3.939   2.273   0.381
 7368SOL     OW23002   3.706   2.886   2.855
 7368SOL    HW123003   3.698   2.876   2.954
 7368SOL    HW223004   3.615   2.886   2.814
 7369SOL     OW23005   3.364   2.607   1.084
 7369SOL    HW123006   3.275   2.624   1.042
 7369SOL    HW223007   3.353   2.540   1.158
 7370SOL     OW23008   2.687   2.155   5.661
 7370SOL    HW123009   2.751   2.195   5.596
 7370SOL    HW223010   2.696   2.056   5.660
 7371SOL     OW23011   3.088   6.942   3.964
 7371SOL    HW123012   3.112   6.976   3.873
 7371SOL    HW223013   3.000   6.895   3.960
 7372SOL     OW23014   4.234   6.397   4.778
 7372SOL    HW123015   4.189   6.410   4.866
 7372SOL    HW223016   4.333   6.406   4.789
 7373SOL     OW23017   5.782   1.827   5.036
 7373SOL    HW123018   5.810   1.880   5.116
 7373SOL    HW223019   5.700   1.775   5.057
 7374SOL     OW23020   1.578   1.958   4.584
 7374SOL    HW123021   1.544   2.040   4.540
 7374SOL    HW223022   1.535   1.877   4.543
 7375SOL     OW23023   2.252   2.870   1.893
 7375SOL    HW123024   2.224   2.911   1.980
 7375SOL    HW223025   2.191   2.901   1.820
 7376SOL     OW23026   1.122   3.081   1.395
 7376SOL    HW123027   1.170   3.168   1.403
 7376SOL    HW223028   1.081   3.057   1.483
 7377SOL     OW23029   3.909   5.367   0.934
 7377SOL    HW123030   3.905   5.466   0.948
 7377SOL    HW223031   3.902   5.347   0.836
 7378SOL     OW23032   1.292   6.810   4.602
 7378SOL    HW123033   1.211   6.763   4.636
 7378SOL    HW223034   1.277   6.841   4.508
 7379SOL     OW23035   2.622   0.120   2.115
 7379SOL    HW123036   2.548   0.053   2.106
 7379SOL    HW223037   2.682   0.114   2.035
 7380SOL     OW23038   6.493   4.016   3.621
 7380SOL    HW123039   6.450   3.935   3.580
 7380SOL    HW223040   6.560   3.986   3.690
 7381SOL     OW23041   4.105   2.610   0.902
 7381SOL    HW123042   4.090   2.668   0.822
 7381SOL    HW223043   4.048   2.643   0.977
 7382SOL     OW23044   6.689   1.848   5.897
 7382SOL    HW123045   6.737   1.934   5.911
 7382SOL    HW223046   6.599   1.865   5.857
 7383SOL     OW23047   2.093   5.919   1.897
 7383SOL    HW123048   2.061   5.864   1.974
 7383SOL    HW223049   2.040   5.897   1.816
 7384SOL     OW23050   6.561   6.961   1.443
 7384SOL    HW123051   6.597   7.002   1.359
 7384SOL    HW223052   6.528   6.868   1.423
 7385SOL     OW23053   3.052   5.099   2.724
 7385SOL    HW123054   3.006   5.117   2.811
 7385SOL    HW223055   3.068   5.186   2.676
 7386SOL     OW23056   6.467   2.876   6.425
 7386SOL    HW123057   6.547   2.820   6.448
 7386SOL    HW223058   6.442   2.932   6.503
 7387SOL     OW23059   6.393   5.381   5.847
 7387SOL    HW123060   6.416   5.476   5.824
 7387SOL    HW223061   6.333   5.343   5.777
 7388SOL     OW23062   1.096   5.057   2.948
 7388SOL    HW123063   1.048   5.106   2.875
 7388SOL    HW223064   1.058   4.965   2.957
 7389SOL     OW23065   6.984   3.592   0.243
 7389SOL    HW123066   6.938   3.641   0.169
 7389SOL    HW223067   6.926   3.517   0.274
 7390SOL     OW23068   2.547   2.063   2.186
 7390SOL    HW123069   2.482   2.005   2.137
 7390SOL    HW223070   2.640   2.031   2.168
 7391SOL     OW23071   4.051   3.471   2.988
 7391SOL    HW123072   3.984   3.418   2.935
 7391SOL    HW223073   4.084   3.416   3.064
 7392SOL     OW23074   3.324   6.283   0.045
 7392SOL    HW123075   3.268   6.201   0.060
 7392SOL    HW223076   3.275   6.346   7.012
 7393SOL     OW23077   6.727   4.394   3.228
 7393SOL    HW123078   6.700   4.313   3.281
 7393SOL    HW223079   6.749   4.469   3.291
 7394SOL     OW23080   2.103   3.034   6.506
 7394SOL    HW123081   2.054   2.959   6.462
 7394SOL    HW223082   2.194   3.042   6.466
 7395SOL     OW23083   2.233   3.402   1.413
 7395SOL    HW123084   2.298   3.365   1.479
 7395SOL    HW223085   2.172   3.329   1.382
 7396SOL     OW23086   2.267   6.122   1.647
 7396SOL    HW123087   2.351   6.176   1.635
 7396SOL    HW223088   2.291   6.027   1.666
 7397SOL     OW23089   4.894   3.277   4.471
 7397SOL    HW123090   4.824   3.345   4.448
 7397SOL    HW223091   4.875   3.239   4.562
 7398SOL     OW23092   1.150   4.675   3.179
 7398SOL    HW123093   1.117   4.585   3.208
 7398SOL    HW223094   1.250   4.680   3.192
 7399SOL     OW23095   6.726   2.897   4.548
 7399SOL    HW123096   6.637   2.874   4.587
 7399SOL    HW223097   6.719   2.901   4.449
 7400SOL     OW23098   4.962   1.985   5.284
 7400SOL    HW123099   5.007   1.897   5.294
 7400SOL    HW223100   4.982   2.023   5.193
 7401SOL     OW23101   1.854   2.887   3.633
 7401SOL    HW123102   1.942   2.874   3.588
 7401SOL    HW223103   1.782   2.844   3.577
 7402SOL     OW23104   2.700   5.059   5.550
 7402SOL    HW123105   2.605   5.088   5.534
 7402SOL    HW223106   2.701   4.981   5.612
 7403SOL     OW23107   1.889   2.979   2.986
 7403SOL    HW123108   1.959   2.947   2.922
 7403SOL    HW223109   1.927   2.983   3.078
 7404SOL     OW23110   3.283   4.215   1.626
 7404SOL    HW123111   3.335   4.142   1.670
 7404SOL    HW223112   3.268   4.290   1.691
 7405SOL     OW23113   2.968   5.311   5.039
 7405SOL    HW123114   3.015   5.364   4.968
 7405SOL    HW223115   2.994   5.214   5.030
 7406SOL     OW23116   0.984   1.643   5.170
 7406SOL    HW123117   0.915   1.637   5.098
 7406SOL    HW223118   1.039   1.560   5.171
 7407SOL     OW23119   0.982   6.248   6.763
 7407SOL    HW123120   0.935   6.184   6.703
 7407SOL    HW223121   1.074   6.213   6.784
 7408SOL     OW23122   3.234   4.193   5.578
 7408SOL    HW123123   3.141   4.232   5.574
 7408SOL    HW223124   3.297   4.262   5.613
 7409SOL     OW23125   5.251   4.336   6.964
 7409SOL    HW123126   5.349   4.321   6.973
 7409SOL    HW223127   5.215   4.279   6.891
 7410SOL     OW23128   0.362   0.489   0.543
 7410SOL    HW123129   0.395   0.578   0.574
 7410SOL    HW223130   0.384   0.478   0.446
 7411SOL     OW23131   1.553   1.643   5.910
 7411SOL    HW123132   1.642   1.598   5.919
 7411SOL    HW223133   1.525   1.642   5.814
 7412SOL     OW23134   4.461   6.707   0.292
 7412SOL    HW123135   4.511   6.793   0.280
 7412SOL    HW223136   4.411   6.685   0.208
 7413SOL     OW23137   4.817   4.313   3.222
 7413SOL    HW123138   4.736   4.362   3.256
 7413SOL    HW223139   4.851   4.359   3.140
 7414SOL     OW23140   2.094   2.418   4.332
 7414SOL    HW123141   2.105   2.357   4.411
 7414SOL    HW223142   2.028   2.377   4.268
 7415SOL     OW23143   2.938   6.458   6.399
 7415SOL    HW123144   2.901   6.365   6.390
 7415SOL    HW223145   2.901   6.500   6.482
 7416SOL     OW23146   1.132   1.301   2.597
 7416SOL    HW123147   1.065   1.342   2.660
 7416SOL    HW223148   1.097   1.308   2.504
 7417SOL     OW23149   1.458   2.282   2.842
 7417SOL    HW123150   1.513   2.246   2.917
 7417SOL    HW223151   1.469   2.224   2.761
 7418SOL     OW23152   1.939   4.831   0.014
 7418SOL    HW123153   1.943   4.747   0.068
 7418SOL    HW223154   1.938   4.808   6.942
 7419SOL     OW23155   6.034   3.634   3.875
 7419SOL    HW123156   5.943   3.645   3.835
 7419SOL    HW223157   6.056   3.537   3.881
 7420SOL     OW23158   6.809   6.177   1.918
 7420SOL    HW123159   6.780   6.083   1.935
 7420SOL    HW223160   6.795   6.232   2.000
 7421SOL     OW23161   4.314   3.784   1.393
 7421SOL    HW123162   4.343   3.837   1.314
 7421SOL    HW223163   4.216   3.768   1.389
 7422SOL     OW23164   6.265   3.562   2.313
 7422SOL    HW123165   6.223   3.594   2.398
 7422SOL    HW223166   6.256   3.463   2.307
 7423SOL     OW23167   5.627   1.788   5.408
 7423SOL    HW123168   5.571   1.871   5.417
 7423SOL    HW223169   5.591   1.718   5.469
 7424SOL     OW23170   6.425   1.271   5.183
 7424SOL    HW123171   6.480   1.189   5.169
 7424SOL    HW223172   6.486   1.349   5.201
 7425SOL     OW23173   5.270   6.907   0.157
 7425SOL    HW123174   5.317   6.931   0.072
 7425SOL    HW223175   5.200   6.838   0.138
 7426SOL     OW23176   3.413   2.227   5.765
 7426SOL    HW123177   3.444   2.256   5.674
 7426SOL    HW223178   3.315   2.209   5.762
 7427SOL     OW23179   3.613   1.526   3.654
 7427SOL    HW123180   3.514   1.528   3.647
 7427SOL    HW223181   3.640   1.507   3.748
 7428SOL     OW23182   4.091   6.436   5.804
 7428SOL    HW123183   4.068   6.359   5.745
 7428SOL    HW223184   4.026   6.441   5.879
 7429SOL     OW23185   1.454   6.554   3.678
 7429SOL    HW123186   1.425   6.459   3.686
 7429SOL    HW223187   1.398   6.601   3.610
 7430SOL     OW23188   6.787   4.219   1.999
 7430SOL    HW123189   6.878   4.256   2.019
 7430SOL    HW223190   6.743   4.192   2.085
 7431SOL     OW23191   2.420   2.747   4.331
 7431SOL    HW123192   2.371   2.665   4.302
 7431SOL    HW223193   2.454   2.735   4.425
 7432SOL     OW23194   2.086   0.599   3.641
 7432SOL    HW123195   2.046   0.690   3.654
 7432SOL    HW223196   2.153   0.582   3.714
 7433SOL     OW23197   2.715   0.161   6.827
 7433SOL    HW123198   2.779   0.145   6.902
 7433SOL    HW223199   2.676   0.252   6.834
 7434SOL     OW23200   4.843   6.086   6.194
 7434SOL    HW123201   4.798   6.055   6.110
 7434SOL    HW223202   4.903   6.163   6.173
 7435SOL     OW23203   4.667   6.131   1.927
 7435SOL    HW123204   4.618   6.207   1.970
 7435SOL    HW223205   4.630   6.044   1.960
 7436SOL     OW23206   4.538   4.400   6.270
 7436SOL    HW123207   4.505   4.317   6.225
 7436SOL    HW223208   4.543   4.474   6.203
 7437SOL     OW23209   2.870   5.521   1.641
 7437SOL    HW123210   2.784   5.521   1.590
 7437SOL    HW223211   2.927   5.446   1.608
 7438SOL     OW23212   1.869   0.828   0.602
 7438SOL    HW123213   1.879   0.739   0.558
 7438SOL    HW223214   1.773   0.842   0.628
 7439SOL     OW23215   1.641   5.203   5.247
 7439SOL    HW123216   1.711   5.270   5.275
 7439SOL    HW223217   1.681   5.111   5.251
 7440SOL     OW23218   5.637   3.135   4.108
 7440SOL    HW123219   5.606   3.181   4.191
 7440SOL    HW223220   5.697   3.059   4.133
 7441SOL     OW23221   5.890   6.522   3.195
 7441SOL    HW123222   5.895   6.515   3.096
 7441SOL    HW223223   5.874   6.432   3.235
 7442SOL     OW23224   6.075   0.797   6.366
 7442SOL    HW123225   6.089   0.895   6.349
 7442SOL    HW223226   5.980   0.782   6.394
 7443SOL     OW23227   6.926   5.525   1.954
 7443SOL    HW123228   6.944   5.604   1.896
 7443SOL    HW223229   6.856   5.548   2.021
 7444SOL     OW23230   6.733   0.813   6.207
 7444SOL    HW123231   6.748   0.786   6.112
 7444SOL    HW223232   6.642   0.853   6.217
 7445SOL     OW23233   3.733   6.831   1.480
 7445SOL    HW123234   3.660   6.860   1.542
 7445SOL    HW223235   3.715   6.864   1.388
 7446SOL     OW23236   5.189   2.757   0.463
 7446SOL    HW123237   5.130   2.713   0.531
 7446SOL    HW223238   5.285   2.739   0.485
 7447SOL     OW23239   6.833   4.450   0.142
 7447SOL    HW123240   6.764   4.414   0.080
 7447SOL    HW223241   6.792   4.521   0.200
 7448SOL     OW23242   5.483   6.273   6.128
 7448SOL    HW123243   5.510   6.369   6.132
 7448SOL    HW223244   5.497   6.238   6.036
 7449SOL     OW23245   0.499   5.200   0.024
 7449SOL    HW123246   0.449   5.199   0.111
 7449SOL    HW223247   0.439   5.235   6.978
 7450SOL     OW23248   5.525   1.741   5.825
 7450SOL    HW123249   5.515   1.809   5.753
 7450SOL    HW223250   5.563   1.657   5.786
 7451SOL     OW23251   5.630   5.614   2.582
 7451SOL    HW123252   5.597   5.519   2.581
 7451SOL    HW223253   5.600   5.658   2.667
 7452SOL     OW23254   6.246   6.318   4.483
 7452SOL    HW123255   6.262   6.231   4.437
 7452SOL    HW223256   6.148   6.336   4.488
 7453SOL     OW23257   5.030   5.665   6.439
 7453SOL    HW123258   4.945   5.690   6.392
 7453SOL    HW223259   5.054   5.738   6.503
 7454SOL     OW23260   3.434   1.501   0.386
 7454SOL    HW123261   3.446   1.585   0.333
 7454SOL    HW223262   3.412   1.524   0.480
 7455SOL     OW23263   6.023   3.120   2.510
 7455SOL    HW123264   5.956   3.048   2.529
 7455SOL    HW223265   6.001   3.201   2.564
 7456SOL     OW23266   2.486   2.329   5.043
 7456SOL    HW123267   2.426   2.399   5.081
 7456SOL    HW223268   2.575   2.370   5.022
 7457SOL     OW23269   2.419   0.083   4.065
 7457SOL    HW123270   2.486   0.156   4.075
 7457SOL    HW223271   2.366   0.098   3.981
 7458SOL     OW23272   1.184   0.129   4.996
 7458SOL    HW123273   1.090   0.152   4.973
 7458SOL    HW223274   1.238   0.118   4.912
 7459SOL     OW23275   6.328   1.309   2.238
 7459SOL    HW123276   6.355   1.230   2.293
 7459SOL    HW223277   6.230   1.325   2.249
 7460SOL     OW23278   1.553   7.002   0.103
 7460SOL    HW123279   1.523   6.999   0.198
 7460SOL    HW223280   1.537   0.067   0.066
 7461SOL     OW23281   6.877   6.207   5.422
 7461SOL    HW123282   6.826   6.169   5.345
 7461SOL    HW223283   6.938   6.137   5.459
 7462SOL     OW23284   0.936   5.606   0.915
 7462SOL    HW123285   0.841   5.583   0.895
 7462SOL    HW223286   0.981   5.530   0.962
 7463SOL     OW23287   3.560   4.489   0.858
 7463SOL    HW123288   3.581   4.519   0.765
 7463SOL    HW223289   3.468   4.449   0.860
 7464SOL     OW23290   0.398   5.862   4.795
 7464SOL    HW123291   0.497   5.851   4.805
 7464SOL    HW223292   0.352   5.775   4.813
 7465SOL     OW23293   2.587   5.379   0.339
 7465SOL    HW123294   2.491   5.350   0.337
 7465SOL    HW223295   2.600   5.445   0.413
 7466SOL     OW23296   0.484   0.651   5.807
 7466SOL    HW123297   0.575   0.611   5.804
 7466SOL    HW223298   0.489   0.743   5.844
 7467SOL     OW23299   0.460   2.633   6.205
 7467SOL    HW123300   0.438   2.547   6.160
 7467SOL    HW223301   0.377   2.685   6.222
 7468SOL     OW23302   5.776   3.095   4.562
 7468SOL    HW123303   5.779   3.152   4.644
 7468SOL    HW223304   5.779   3.153   4.481
 7469SOL     OW23305   6.687   2.212   0.161
 7469SOL    HW123306   6.619   2.251   0.099
 7469SOL    HW223307   6.680   2.256   0.251
 7470SOL     OW23308   5.769   4.033   3.428
 7470SOL    HW123309   5.822   4.118   3.430
 7470SOL    HW223310   5.722   4.025   3.340
 7471SOL     OW23311   5.341   5.800   6.025
 7471SOL    HW123312   5.254   5.846   6.043
 7471SOL    HW223313   5.416   5.864   6.041
 7472SOL     OW23314   6.692   0.603   5.554
 7472SOL    HW123315   6.712   0.700   5.542
 7472SOL    HW223316   6.777   0.552   5.560
 7473SOL     OW23317   4.600   6.835   3.964
 7473SOL    HW123318   4.500   6.826   3.960
 7473SOL    HW223319   4.626   6.871   4.054
 7474SOL     OW23320   6.014   2.095   6.984
 7474SOL    HW123321   6.070   2.132   6.910
 7474SOL    HW223322   5.924   2.071   6.949
 7475SOL     OW23323   4.586   2.147   2.188
 7475SOL    HW123324   4.570   2.245   2.174
 7475SOL    HW223325   4.679   2.133   2.224
 7476SOL     OW23326   2.132   2.422   2.714
 7476SOL    HW123327   2.115   2.443   2.618
 7476SOL    HW223328   2.158   2.506   2.763
 7477SOL     OW23329   0.764   3.359   4.674
 7477SOL    HW123330   0.815   3.297   4.733
 7477SOL    HW223331   0.713   3.424   4.730
 7478SOL     OW23332   5.715   2.890   5.150
 7478SOL    HW123333   5.628   2.887   5.102
 7478SOL    HW223334   5.698   2.904   5.248
 7479SOL     OW23335   5.463   3.022   6.821
 7479SOL    HW123336   5.399   3.076   6.876
 7479SOL    HW223337   5.456   2.925   6.847
 7480SOL     OW23338   2.326   5.575   2.890
 7480SOL    HW123339   2.310   5.592   2.987
 7480SOL    HW223340   2.242   5.545   2.847
 7481SOL     OW23341   6.098   4.430   6.418
 7481SOL    HW123342   6.087   4.514   6.364
 7481SOL    HW223343   6.046   4.356   6.375
 7482SOL     OW23344   4.163   2.206   2.701
 7482SOL    HW123345   4.224   2.131   2.725
 7482SOL    HW223346   4.218   2.287   2.680
 7483SOL     OW23347   4.806   1.884   4.330
 7483SOL    HW123348   4.742   1.960   4.323
 7483SOL    HW223349   4.900   1.919   4.335
 7484SOL     OW23350   1.933   5.398   4.674
 7484SOL    HW123351   1.969   5.485   4.640
 7484SOL    HW223352   1.834   5.394   4.656
 7485SOL     OW23353   2.625   0.237   3.979
 7485SOL    HW123354   2.653   0.330   3.956
 7485SOL    HW223355   2.705   0.177   3.973
 7486SOL     OW23356   0.539   6.126   0.258
 7486SOL    HW123357   0.533   6.077   0.345
 7486SOL    HW223358   0.463   6.100   0.199
 7487SOL     OW23359   4.569   0.888   3.417
 7487SOL    HW123360   4.529   0.956   3.356
 7487SOL    HW223361   4.634   0.832   3.366
 7488SOL     OW23362   1.353   6.189   4.057
 7488SOL    HW123363   1.395   6.210   4.146
 7488SOL    HW223364   1.256   6.214   4.060
 7489SOL     OW23365   6.204   3.833   0.035
 7489SOL    HW123366   6.105   3.817   0.043
 7489SOL    HW223367   6.239   3.781   6.983
 7490SOL     OW23368   1.558   2.131   2.626
 7490SOL    HW123369   1.508   2.045   2.614
 7490SOL    HW223370   1.564   2.179   2.539
 7491SOL     OW23371   4.855   3.072   0.869
 7491SOL    HW123372   4.844   3.012   0.790
 7491SOL    HW223373   4.780   3.056   0.933
 7492SOL     OW23374   1.677   0.989   4.148
 7492SOL    HW123375   1.773   0.985   4.176
 7492SOL    HW223376   1.627   0.913   4.189
 7493SOL     OW23377   6.548   3.652   5.590
 7493SOL    HW123378   6.559   3.645   5.491
 7493SOL    HW223379   6.506   3.567   5.625
 7494SOL     OW23380   5.658   0.619   3.531
 7494SOL    HW123381   5.571   0.657   3.562
 7494SOL    HW223382   5.681   0.540   3.587
 7495SOL     OW23383   2.111   3.078   4.755
 7495SOL    HW123384   2.147   3.000   4.705
 7495SOL    HW223385   2.155   3.084   4.845
 7496SOL     OW23386   6.090   3.357   3.868
 7496SOL    HW123387   6.132   3.312   3.789
 7496SOL    HW223388   6.150   3.348   3.947
 7497SOL     OW23389   1.382   6.433   1.209
 7497SOL    HW123390   1.386   6.384   1.122
 7497SOL    HW223391   1.429   6.520   1.200
 7498SOL     OW23392   2.991   0.722   3.551
 7498SOL    HW123393   3.002   0.820   3.571
 7498SOL    HW223394   2.953   0.676   3.631
 7499SOL     OW23395   4.301   2.042   4.009
 7499SOL    HW123396   4.229   2.071   3.945
 7499SOL    HW223397   4.273   2.064   4.102
 7500SOL     OW23398   3.710   6.610   3.660
 7500SOL    HW123399   3.619   6.617   3.701
 7500SOL    HW223400   3.765   6.689   3.686
 7501SOL     OW23401   5.869   2.846   3.758
 7501SOL    HW123402   5.847   2.837   3.661
 7501SOL    HW223403   5.789   2.881   3.807
 7502SOL     OW23404   3.909   0.419   4.296
 7502SOL    HW123405   3.972   0.472   4.354
 7502SOL    HW223406   3.946   0.416   4.203
 7503SOL     OW23407   1.842   5.921   0.865
 7503SOL    HW123408   1.920   5.866   0.894
 7503SOL    HW223409   1.868   5.979   0.788
 7504SOL     OW23410   0.426   6.314   2.309
 7504SOL    HW123411   0.467   6.226   2.333
 7504SOL    HW223412   0.341   6.299   2.258
 7505SOL     OW23413   0.359   1.843   5.404
 7505SOL    HW123414   0.454   1.830   5.376
 7505SOL    HW223415   0.357   1.891   5.492
 7506SOL     OW23416   3.062   1.924   3.144
 7506SOL    HW123417   3.088   1.832   3.116
 7506SOL    HW223418   3.081   1.988   3.070
 7507SOL     OW23419   6.525   3.749   4.814
 7507SOL    HW123420   6.575   3.679   4.864
 7507SOL    HW223421   6.534   3.733   4.716
 7508SOL     OW23422   1.777   5.876   0.295
 7508SOL    HW123423   1.784   5.781   0.326
 7508SOL    HW223424   1.727   5.879   0.209
 7509SOL     OW23425   5.095   4.417   0.186
 7509SOL    HW123426   5.159   4.396   0.112
 7509SOL    HW223427   5.143   4.417   0.274
 7510SOL     OW23428   4.124   3.495   3.931
 7510SOL    HW123429   4.132   3.417   3.993
 7510SOL    HW223430   4.101   3.462   3.839
 7511SOL     OW23431   3.307   5.500   2.938
 7511SOL    HW123432   3.321   5.599   2.930
 7511SOL    HW223433   3.374   5.453   2.880
 7512SOL     OW23434   2.723   0.537   6.302
 7512SOL    HW123435   2.798   0.484   6.262
 7512SOL    HW223436   2.758   0.595   6.376
 7513SOL     OW23437   2.089   2.556   3.621
 7513SOL    HW123438   2.047   2.543   3.532
 7513SOL    HW223439   2.018   2.572   3.690
 7514SOL     OW23440   1.873   4.427   3.699
 7514SOL    HW123441   1.965   4.466   3.695
 7514SOL    HW223442   1.880   4.328   3.716
 7515SOL     OW23443   6.442   4.266   5.236
 7515SOL    HW123444   6.517   4.213   5.276
 7515SOL    HW223445   6.421   4.344   5.295
 7516SOL     OW23446   1.503   5.487   6.293
 7516SOL    HW123447   1.456   5.562   6.247
 7516SOL    HW223448   1.437   5.414   6.314
 7517SOL     OW23449   1.310   2.649   6.831
 7517SOL    HW123450   1.364   2.566   6.835
 7517SOL    HW223451   1.213   2.626   6.824
 7518SOL     OW23452   4.950   3.026   3.999
 7518SOL    HW123453   4.923   3.099   3.936
 7518SOL    HW223454   4.875   2.961   4.008
 7519SOL     OW23455   4.828   0.454   4.725
 7519SOL    HW123456   4.847   0.489   4.817
 7519SOL    HW223457   4.774   0.371   4.731
 7520SOL     OW23458   1.628   1.496   2.206
 7520SOL    HW123459   1.602   1.412   2.159
 7520SOL    HW223460   1.580   1.502   2.293
 7521SOL     OW23461   5.354   1.826   4.523
 7521SOL    HW123462   5.317   1.919   4.515
 7521SOL    HW223463   5.401   1.816   4.611
 7522SOL     OW23464   1.083   6.308   4.107
 7522SOL    HW123465   0.984   6.322   4.111
 7522SOL    HW223466   1.118   6.345   4.021
 7523SOL     OW23467   5.296   0.635   6.039
 7523SOL    HW123468   5.327   0.546   6.070
 7523SOL    HW223469   5.373   0.698   6.035
 7524SOL     OW23470   6.883   2.669   4.542
 7524SOL    HW123471   6.853   2.760   4.513
 7524SOL    HW223472   6.906   2.615   4.461
 7525SOL     OW23473   4.322   6.668   0.018
 7525SOL    HW123474   4.241   6.635   6.995
 7525SOL    HW223475   4.404   6.623   7.008
 7526SOL     OW23476   2.172   3.267   1.739
 7526SOL    HW123477   2.226   3.342   1.777
 7526SOL    HW223478   2.085   3.259   1.788
 7527SOL     OW23479   3.825   6.121   4.110
 7527SOL    HW123480   3.793   6.080   4.024
 7527SOL    HW223481   3.748   6.131   4.173
 7528SOL     OW23482   5.369   2.047   0.200
 7528SOL    HW123483   5.380   2.138   0.159
 7528SOL    HW223484   5.279   2.010   0.176
 7529SOL     OW23485   5.975   1.629   3.305
 7529SOL    HW123486   5.971   1.675   3.217
 7529SOL    HW223487   5.883   1.617   3.341
 7530SOL     OW23488   0.030   1.563   2.425
 7530SOL    HW123489   0.046   1.467   2.404
 7530SOL    HW223490   6.974   1.594   2.376
 7531SOL     OW23491   4.825   2.412   3.147
 7531SOL    HW123492   4.781   2.498   3.120
 7531SOL    HW223493   4.917   2.431   3.180
 7532SOL     OW23494   4.600   6.108   6.573
 7532SOL    HW123495   4.689   6.077   6.606
 7532SOL    HW223496   4.564   6.043   6.506
 7533SOL     OW23497   4.455   2.833   1.750
 7533SOL    HW123498   4.502   2.745   1.756
 7533SOL    HW223499   4.503   2.901   1.805
 7534SOL     OW23500   5.000   6.719   4.446
 7534SOL    HW123501   5.029   6.811   4.472
 7534SOL    HW223502   4.951   6.677   4.523
 7535SOL     OW23503   1.415   6.484   4.752
 7535SOL    HW123504   1.439   6.542   4.674
 7535SOL    HW223505   1.326   6.442   4.735
 7536SOL     OW23506   5.343   6.098   3.884
 7536SOL    HW123507   5.329   6.087   3.785
 7536SOL    HW223508   5.254   6.115   3.928
 7537SOL     OW23509   2.164   5.404   2.087
 7537SOL    HW123510   2.239   5.397   2.021
 7537SOL    HW223511   2.177   5.337   2.160
 7538SOL     OW23512   1.048   3.045   1.656
 7538SOL    HW123513   1.068   3.015   1.749
 7538SOL    HW223514   0.958   3.089   1.653
 7539SOL     OW23515   1.160   5.305   3.664
 7539SOL    HW123516   1.257   5.280   3.663
 7539SOL    HW223517   1.110   5.248   3.600
 7540SOL     OW23518   4.869   5.837   4.450
 7540SOL    HW123519   4.950   5.872   4.402
 7540SOL    HW223520   4.896   5.760   4.508
 7541SOL     OW23521   0.750   4.033   6.523
 7541SOL    HW123522   0.690   3.996   6.451
 7541SOL    HW223523   0.798   3.957   6.567
 7542SOL     OW23524   6.236   6.052   5.444
 7542SOL    HW123525   6.251   6.059   5.542
 7542SOL    HW223526   6.209   5.958   5.421
 7543SOL     OW23527   2.789   0.393   5.177
 7543SOL    HW123528   2.735   0.448   5.112
 7543SOL    HW223529   2.852   0.453   5.227
 7544SOL     OW23530   0.141   2.287   4.494
 7544SOL    HW123531   0.076   2.348   4.448
 7544SOL    HW223532   0.131   2.297   4.593
 7545SOL     OW23533   0.125   5.604   6.526
 7545SOL    HW123534   0.072   5.688   6.510
 7545SOL    HW223535   0.203   5.602   6.463
 7546SOL     OW23536   3.954   2.571   1.565
 7546SOL    HW123537   3.919   2.654   1.609
 7546SOL    HW223538   3.905   2.491   1.600
 7547SOL     OW23539   4.566   0.519   1.764
 7547SOL    HW123540   4.605   0.527   1.672
 7547SOL    HW223541   4.544   0.610   1.799
 7548SOL     OW23542   4.414   2.247   6.967
 7548SOL    HW123543   4.407   2.338   7.009
 7548SOL    HW223544   4.397   2.177   0.010
 7549SOL     OW23545   3.989   2.659   6.002
 7549SOL    HW123546   3.946   2.728   5.943
 7549SOL    HW223547   4.035   2.705   6.078
 7550SOL     OW23548   1.923   4.171   3.791
 7550SOL    HW123549   1.963   4.141   3.705
 7550SOL    HW223550   1.995   4.203   3.853
 7551SOL     OW23551   5.211   2.182   5.573
 7551SOL    HW123552   5.206   2.222   5.481
 7551SOL    HW223553   5.262   2.244   5.633
 7552SOL     OW23554   1.686   6.145   4.189
 7552SOL    HW123555   1.621   6.214   4.219
 7552SOL    HW223556   1.777   6.167   4.223
 7553SOL     OW23557   5.654   5.998   5.764
 7553SOL    HW123558   5.589   5.922   5.765
 7553SOL    HW223559   5.716   5.989   5.686
 7554SOL     OW23560   5.620   1.267   0.355
 7554SOL    HW123561   5.668   1.237   0.437
 7554SOL    HW223562   5.658   1.219   0.275
 7555SOL     OW23563   2.884   6.718   6.280
 7555SOL    HW123564   2.920   6.627   6.298
 7555SOL    HW223565   2.959   6.785   6.281
 7556SOL     OW23566   1.342   1.239   0.410
 7556SOL    HW123567   1.434   1.267   0.439
 7556SOL    HW223568   1.338   1.237   0.310
 7557SOL     OW23569   4.891   0.439   0.381
 7557SOL    HW123570   4.863   0.346   0.358
 7557SOL    HW223571   4.828   0.477   0.448
 7558SOL     OW23572   1.785   2.546   4.048
 7558SOL    HW123573   1.708   2.582   3.995
 7558SOL    HW223574   1.839   2.623   4.083
 7559SOL     OW23575   3.757   2.151   5.314
 7559SOL    HW123576   3.840   2.123   5.265
 7559SOL    HW223577   3.695   2.073   5.321
 7560SOL     OW23578   6.288   7.005   6.459
 7560SOL    HW123579   6.244   6.939   6.520
 7560SOL    HW223580   6.387   7.002   6.473
 7561SOL     OW23581   5.271   2.382   5.786
 7561SOL    HW123582   5.267   2.438   5.703
 7561SOL    HW223583   5.348   2.412   5.843
 7562SOL     OW23584   1.070   4.921   4.880
 7562SOL    HW123585   1.153   4.947   4.929
 7562SOL    HW223586   1.029   4.840   4.923
 7563SOL     OW23587   3.326   6.416   2.880
 7563SOL    HW123588   3.243   6.405   2.934
 7563SOL    HW223589   3.375   6.329   2.876
 7564SOL     OW23590   4.446   0.571   5.075
 7564SOL    HW123591   4.510   0.617   5.013
 7564SOL    HW223592   4.366   0.541   5.023
 7565SOL     OW23593   5.765   3.938   6.028
 7565SOL    HW123594   5.823   4.012   5.993
 7565SOL    HW223595   5.686   3.977   6.075
 7566SOL     OW23596   5.448   4.917   2.400
 7566SOL    HW123597   5.513   4.850   2.437
 7566SOL    HW223598   5.359   4.903   2.442
 7567SOL     OW23599   0.744   1.592   4.621
 7567SOL    HW123600   0.664   1.540   4.653
 7567SOL    HW223601   0.803   1.533   4.566
 7568SOL     OW23602   5.879   5.711   2.470
 7568SOL    HW123603   5.960   5.685   2.524
 7568SOL    HW223604   5.798   5.666   2.507
 7569SOL     OW23605   3.889   4.695   6.710
 7569SOL    HW123606   3.832   4.686   6.629
 7569SOL    HW223607   3.925   4.606   6.736
 7570SOL     OW23608   0.128   2.934   3.186
 7570SOL    HW123609   0.180   2.967   3.265
 7570SOL    HW223610   0.171   2.852   3.150
 7571SOL     OW23611   5.438   3.337   2.916
 7571SOL    HW123612   5.467   3.416   2.970
 7571SOL    HW223613   5.387   3.367   2.836
 7572SOL     OW23614   4.611   6.335   2.943
 7572SOL    HW123615   4.698   6.286   2.951
 7572SOL    HW223616   4.603   6.372   2.851
 7573SOL     OW23617   6.239   0.519   5.887
 7573SOL    HW123618   6.240   0.492   5.790
 7573SOL    HW223619   6.333   0.527   5.920
 7574SOL     OW23620   6.123   0.947   3.943
 7574SOL    HW123621   6.162   0.924   3.854
 7574SOL    HW223622   6.028   0.976   3.932
 7575SOL     OW23623   6.003   6.515   0.903
 7575SOL    HW123624   6.023   6.505   1.000
 7575SOL    HW223625   5.905   6.534   0.891
 7576SOL     OW23626   5.148   2.790   1.182
 7576SOL    HW123627   5.050   2.771   1.176
 7576SOL    HW223628   5.170   2.870   1.125
 7577SOL     OW23629   0.103   0.170   0.286
 7577SOL    HW123630   0.105   0.134   0.379
 7577SOL    HW223631   0.031   0.239   0.279
 7578SOL     OW23632   0.809   5.195   2.520
 7578SOL    HW123633   0.767   5.277   2.483
 7578SOL    HW223634   0.789   5.189   2.618
 7579SOL     OW23635   6.668   2.131   1.596
 7579SOL    HW123636   6.636   2.042   1.563
 7579SOL    HW223637   6.614   2.158   1.675
 7580SOL     OW23638   1.935   4.468   3.236
 7580SOL    HW123639   1.939   4.492   3.139
 7580SOL    HW223640   1.861   4.518   3.281
 7581SOL     OW23641   0.646   1.398   1.091
 7581SOL    HW123642   0.686   1.463   1.156
 7581SOL    HW223643   0.654   1.433   0.998
 7582SOL     OW23644   4.418   1.510   3.950
 7582SOL    HW123645   4.457   1.510   3.858
 7582SOL    HW223646   4.339   1.571   3.952
 7583SOL     OW23647   5.272   3.649   3.641
 7583SOL    HW123648   5.239   3.738   3.673
 7583SOL    HW223649   5.363   3.659   3.602
 7584SOL     OW23650   1.145   0.356   2.648
 7584SOL    HW123651   1.045   0.355   2.641
 7584SOL    HW223652   1.177   0.272   2.691
 7585SOL     OW23653   0.988   1.944   6.643
 7585SOL    HW123654   1.074   1.975   6.601
 7585SOL    HW223655   1.004   1.923   6.739
 7586SOL     OW23656   1.412   0.862   2.295
 7586SOL    HW123657   1.376   0.955   2.283
 7586SOL    HW223658   1.470   0.838   2.218
 7587SOL     OW23659   3.407   0.949   0.571
 7587SOL    HW123660   3.391   0.986   0.480
 7587SOL    HW223661   3.501   0.916   0.578
 7588SOL     OW23662   1.318   2.726   4.390
 7588SOL    HW123663   1.408   2.724   4.348
 7588SOL    HW223664   1.326   2.730   4.489
 7589SOL     OW23665   0.571   1.013   2.814
 7589SOL    HW123666   0.516   0.953   2.872
 7589SOL    HW223667   0.514   1.085   2.775
 7590SOL     OW23668   0.040   1.352   6.982
 7590SOL    HW123669   0.075   1.432   6.934
 7590SOL    HW223670   0.112   1.284   6.990
 7591SOL     OW23671   4.711   2.784   6.652
 7591SOL    HW123672   4.687   2.722   6.577
 7591SOL    HW223673   4.803   2.764   6.684
 7592SOL     OW23674   6.184   4.719   4.865
 7592SOL    HW123675   6.284   4.719   4.861
 7592SOL    HW223676   6.155   4.781   4.938
 7593SOL     OW23677   6.482   2.256   5.878
 7593SOL    HW123678   6.457   2.172   5.830
 7593SOL    HW223679   6.467   2.244   5.976
 7594SOL     OW23680   0.211   4.557   0.908
 7594SOL    HW123681   0.210   4.468   0.862
 7594SOL    HW223682   0.296   4.567   0.959
 7595SOL     OW23683   6.602   2.993   6.076
 7595SOL    HW123684   6.686   3.042   6.056
 7595SOL    HW223685   6.618   2.895   6.071
 7596SOL     OW23686   2.899   0.191   5.326
 7596SOL    HW123687   2.898   0.101   5.284
 7596SOL    HW223688   2.854   0.257   5.266
 7597SOL     OW23689   2.271   6.280   2.924
 7597SOL    HW123690   2.311   6.362   2.884
 7597SOL    HW223691   2.271   6.288   3.024
 7598SOL     OW23692   6.079   0.639   2.634
 7598SOL    HW123693   6.151   0.630   2.565
 7598SOL    HW223694   6.087   0.728   2.679
 7599SOL     OW23695   4.300   3.291   0.779
 7599SOL    HW123696   4.306   3.363   0.847
 7599SOL    HW223697   4.314   3.202   0.823
 7600SOL     OW23698   1.452   1.069   3.735
 7600SOL    HW123699   1.387   0.993   3.737
 7600SOL    HW223700   1.542   1.035   3.707
 7601SOL     OW23701   3.677   5.434   1.941
 7601SOL    HW123702   3.730   5.494   2.002
 7601SOL    HW223703   3.669   5.343   1.982
 7602SOL     OW23704   0.527   2.567   0.194
 7602SOL    HW123705   0.460   2.565   0.269
 7602SOL    HW223706   0.510   2.646   0.136
 7603SOL     OW23707   2.554   0.204   6.078
 7603SOL    HW123708   2.494   0.125   6.067
 7603SOL    HW223709   2.499   0.288   6.077
 7604SOL     OW23710   1.467   2.254   5.103
 7604SOL    HW123711   1.392   2.313   5.131
 7604SOL    HW223712   1.442   2.158   5.118
 7605SOL     OW23713   1.417   0.322   6.750
 7605SOL    HW123714   1.438   0.313   6.653
 7605SOL    HW223715   1.331   0.374   6.761
 7606SOL     OW23716   6.152   1.574   4.369
 7606SOL    HW123717   6.127   1.560   4.273
 7606SOL    HW223718   6.189   1.666   4.380
 7607SOL     OW23719   3.031   6.682   0.237
 7607SOL    HW123720   2.979   6.647   0.160
 7607SOL    HW223721   3.016   6.781   0.246
 7608SOL     OW23722   5.626   2.346   6.219
 7608SOL    HW123723   5.551   2.285   6.246
 7608SOL    HW223724   5.623   2.429   6.275
 7609SOL     OW23725   0.314   3.035   3.882
 7609SOL    HW123726   0.409   3.012   3.902
 7609SOL    HW223727   0.255   2.957   3.905
 7610SOL     OW23728   3.349   5.421   6.689
 7610SOL    HW123729   3.438   5.435   6.645
 7610SOL    HW223730   3.333   5.324   6.701
 7611SOL     OW23731   4.562   3.369   1.088
 7611SOL    HW123732   4.598   3.448   1.039
 7611SOL    HW223733   4.530   3.397   1.179
 7612SOL     OW23734   3.827   2.056   2.890
 7612SOL    HW123735   3.780   2.081   2.975
 7612SOL    HW223736   3.920   2.026   2.912
 7613SOL     OW23737   1.361   2.015   2.283
 7613SOL    HW123738   1.409   2.097   2.251
 7613SOL    HW223739   1.319   1.969   2.205
 7614SOL     OW23740   4.950   3.294   0.600
 7614SOL    HW123741   5.006   3.216   0.572
 7614SOL    HW223742   4.949   3.300   0.700
 7615SOL     OW23743   5.484   3.908   5.662
 7615SOL    HW123744   5.416   3.977   5.636
 7615SOL    HW223745   5.518   3.861   5.581
 7616SOL     OW23746   5.944   0.096   3.396
 7616SOL    HW123747   6.036   0.133   3.391
 7616SOL    HW223748   5.880   0.169   3.418
 7617SOL     OW23749   4.898   4.844   3.131
 7617SOL    HW123750   4.819   4.905   3.136
 7617SOL    HW223751   4.924   4.817   3.224
 7618SOL     OW23752   2.218   2.388   0.133
 7618SOL    HW123753   2.276   2.369   0.053
 7618SOL    HW223754   2.192   2.485   0.133
 7619SOL     OW23755   0.272   2.558   4.547
 7619SOL    HW123756   0.288   2.473   4.497
 7619SOL    HW223757   0.262   2.538   4.644
 7620SOL     OW23758   3.643   3.924   0.610
 7620SOL    HW123759   3.720   3.901   0.550
 7620SOL    HW223760   3.661   3.887   0.701
 7621SOL     OW23761   0.127   5.893   0.778
 7621SOL    HW123762   0.213   5.874   0.825
 7621SOL    HW223763   0.051   5.872   0.839
 7622SOL     OW23764   4.176   4.334   0.317
 7622SOL    HW123765   4.201   4.421   0.359
 7622SOL    HW223766   4.242   4.311   0.246
 7623SOL     OW23767   4.292   4.610   1.503
 7623SOL    HW123768   4.230   4.568   1.569
 7623SOL    HW223769   4.374   4.643   1.549
 7624SOL     OW23770   0.173   2.409   2.276
 7624SOL    HW123771   0.239   2.336   2.291
 7624SOL    HW223772   0.183   2.478   2.348
 7625SOL     OW23773   5.430   1.579   0.298
 7625SOL    HW123774   5.481   1.642   0.356
 7625SOL    HW223775   5.426   1.489   0.341
 7626SOL     OW23776   6.330   0.871   6.078
 7626SOL    HW123777   6.265   0.829   6.141
 7626SOL    HW223778   6.365   0.802   6.015
 7627SOL     OW23779   3.638   1.964   0.062
 7627SOL    HW123780   3.716   1.929   0.114
 7627SOL    HW223781   3.670   2.033   7.023
 7628SOL     OW23782   3.670   2.799   0.705
 7628SOL    HW123783   3.748   2.860   0.719
 7628SOL    HW223784   3.586   2.845   0.734
 7629SOL     OW23785   5.922   3.286   3.597
 7629SOL    HW123786   5.873   3.359   3.549
 7629SOL    HW223787   5.983   3.326   3.665
 7630SOL     OW23788   1.321   0.101   5.242
 7630SOL    HW123789   1.256   0.125   5.169
 7630SOL    HW223790   1.314   0.168   5.316
 7631SOL     OW23791   1.931   6.737   4.999
 7631SOL    HW123792   2.011   6.708   4.946
 7631SOL    HW223793   1.850   6.692   4.961
 7632SOL     OW23794   4.419   5.238   1.305
 7632SOL    HW123795   4.474   5.201   1.230
 7632SOL    HW223796   4.407   5.167   1.375
 7633SOL     OW23797   5.709   6.961   1.520
 7633SOL    HW123798   5.663   6.880   1.556
 7633SOL    HW223799   5.802   6.937   1.493
 7634SOL     OW23800   1.386   1.671   0.923
 7634SOL    HW123801   1.446   1.641   0.996
 7634SOL    HW223802   1.395   1.770   0.912
 7635SOL     OW23803   2.848   5.138   4.460
 7635SOL    HW123804   2.756   5.100   4.450
 7635SOL    HW223805   2.914   5.063   4.463
 7636SOL     OW23806   0.616   4.480   4.534
 7636SOL    HW123807   0.670   4.542   4.477
 7636SOL    HW223808   0.573   4.410   4.477
 7637SOL     OW23809   0.308   6.150   3.979
 7637SOL    HW123810   0.282   6.175   3.885
 7637SOL    HW223811   0.294   6.051   3.992
 7638SOL     OW23812   0.807   5.462   2.052
 7638SOL    HW123813   0.903   5.435   2.062
 7638SOL    HW223814   0.781   5.521   2.129
 7639SOL     OW23815   0.064   1.021   6.943
 7639SOL    HW123816   0.133   1.079   6.986
 7639SOL    HW223817   0.000   0.988   7.012
 7640SOL     OW23818   3.396   1.435   6.931
 7640SOL    HW123819   3.457   1.480   6.997
 7640SOL    HW223820   3.448   1.365   6.882
 7641SOL     OW23821   6.780   3.859   2.725
 7641SOL    HW123822   6.856   3.889   2.783
 7641SOL    HW223823   6.789   3.762   2.706
 7642SOL     OW23824   5.666   1.127   2.964
 7642SOL    HW123825   5.685   1.066   3.041
 7642SOL    HW223826   5.572   1.161   2.971
 7643SOL     OW23827   5.189   2.202   2.964
 7643SOL    HW123828   5.272   2.147   2.955
 7643SOL    HW223829   5.212   2.299   2.955
 7644SOL     OW23830   4.896   3.220   2.378
 7644SOL    HW123831   4.800   3.204   2.353
 7644SOL    HW223832   4.949   3.137   2.359
 7645SOL     OW23833   3.198   3.978   5.937
 7645SOL    HW123834   3.206   3.943   5.843
 7645SOL    HW223835   3.102   3.985   5.962
 7646SOL     OW23836   1.434   2.643   2.858
 7646SOL    HW123837   1.420   2.739   2.837
 7646SOL    HW223838   1.515   2.609   2.809
 7647SOL     OW23839   0.090   2.872   4.309
 7647SOL    HW123840   0.085   2.963   4.351
 7647SOL    HW223841   7.025   2.843   4.280
 7648SOL     OW23842   1.860   2.287   3.223
 7648SOL    HW123843   1.838   2.192   3.196
 7648SOL    HW223844   1.846   2.298   3.321
 7649SOL     OW23845   0.206   1.159   4.844
 7649SOL    HW123846   0.213   1.079   4.905
 7649SOL    HW223847   0.110   1.183   4.832
 7650SOL     OW23848   4.221   0.849   1.154
 7650SOL    HW123849   4.132   0.806   1.138
 7650SOL    HW223850   4.252   0.826   1.246
 7651SOL     OW23851   2.427   5.085   4.666
 7651SOL    HW123852   2.384   5.163   4.621
 7651SOL    HW223853   2.513   5.064   4.620
 7652SOL     OW23854   6.142   2.116   4.641
 7652SOL    HW123855   6.075   2.189   4.650
 7652SOL    HW223856   6.100   2.039   4.592
 7653SOL     OW23857   1.068   1.468   6.751
 7653SOL    HW123858   1.002   1.541   6.768
 7653SOL    HW223859   1.028   1.401   6.688
 7654SOL     OW23860   5.848   3.347   4.889
 7654SOL    HW123861   5.770   3.330   4.827
 7654SOL    HW223862   5.904   3.264   4.895
 7655SOL     OW23863   3.337   0.515   3.514
 7655SOL    HW123864   3.378   0.596   3.473
 7655SOL    HW223865   3.309   0.452   3.442
 7656SOL     OW23866   6.236   3.993   6.104
 7656SOL    HW123867   6.179   3.912   6.119
 7656SOL    HW223868   6.246   4.009   6.006
 7657SOL     OW23869   1.431   3.952   4.750
 7657SOL    HW123870   1.349   3.896   4.734
 7657SOL    HW223871   1.482   3.915   4.828
 7658SOL     OW23872   2.770   1.093   0.497
 7658SOL    HW123873   2.750   1.046   0.583
 7658SOL    HW223874   2.725   1.182   0.497
 7659SOL     OW23875   4.458   4.108   5.700
 7659SOL    HW123876   4.376   4.111   5.642
 7659SOL    HW223877   4.438   4.058   5.784
 7660SOL     OW23878   6.604   5.322   4.943
 7660SOL    HW123879   6.668   5.259   4.987
 7660SOL    HW223880   6.573   5.282   4.857
 7661SOL     OW23881   4.671   2.093   6.181
 7661SOL    HW123882   4.688   2.063   6.275
 7661SOL    HW223883   4.630   2.018   6.129
 7662SOL     OW23884   1.175   2.005   2.699
 7662SOL    HW123885   1.231   2.025   2.779
 7662SOL    HW223886   1.130   2.089   2.667
 7663SOL     OW23887   5.554   5.715   5.528
 7663SOL    HW123888   5.518   5.791   5.474
 7663SOL    HW223889   5.535   5.731   5.625
 7664SOL     OW23890   4.330   1.108   2.928
 7664SOL    HW123891   4.319   1.042   2.853
 7664SOL    HW223892   4.262   1.180   2.920
 7665SOL     OW23893   5.349   2.644   3.356
 7665SOL    HW123894   5.299   2.575   3.407
 7665SOL    HW223895   5.299   2.664   3.271
 7666SOL     OW23896   6.116   5.690   3.952
 7666SOL    HW123897   6.118   5.787   3.928
 7666SOL    HW223898   6.117   5.635   3.868
 7667SOL     OW23899   4.926   6.936   2.293
 7667SOL    HW123900   4.974   6.985   2.366
 7667SOL    HW223901   4.827   6.937   2.312
 7668SOL     OW23902   2.581   5.066   1.327
 7668SOL    HW123903   2.539   5.100   1.243
 7668SOL    HW223904   2.510   5.051   1.396
 7669SOL     OW23905   3.572   6.966   5.977
 7669SOL    HW123906   3.665   6.978   6.013
 7669SOL    HW223907   3.576   6.944   5.880
 7670SOL     OW23908   0.827   6.901   0.178
 7670SOL    HW123909   0.776   6.961   0.117
 7670SOL    HW223910   0.794   6.807   0.169
 7671SOL     OW23911   5.493   6.661   2.322
 7671SOL    HW123912   5.529   6.711   2.243
 7671SOL    HW223913   5.435   6.586   2.290
 7672SOL     OW23914   6.268   4.596   2.921
 7672SOL    HW123915   6.213   4.679   2.914
 7672SOL    HW223916   6.281   4.573   3.018
 7673SOL     OW23917   1.139   5.467   2.910
 7673SOL    HW123918   1.151   5.412   2.993
 7673SOL    HW223919   1.193   5.551   2.917
 7674SOL     OW23920   4.042   0.821   4.756
 7674SOL    HW123921   3.956   0.791   4.798
 7674SOL    HW223922   4.074   0.904   4.801
 7675SOL     OW23923   3.416   6.577   3.711
 7675SOL    HW123924   3.408   6.530   3.623
 7675SOL    HW223925   3.392   6.514   3.785
 7676SOL     OW23926   3.200   3.007   6.006
 7676SOL    HW123927   3.131   2.980   6.072
 7676SOL    HW223928   3.207   3.107   6.003
 7677SOL     OW23929   6.720   4.882   1.337
 7677SOL    HW123930   6.788   4.850   1.402
 7677SOL    HW223931   6.632   4.838   1.356
 7678SOL     OW23932   1.406   2.236   5.413
 7678SOL    HW123933   1.365   2.268   5.499
 7678SOL    HW223934   1.390   2.138   5.402
 7679SOL     OW23935   2.161   5.063   5.412
 7679SOL    HW123936   2.117   5.083   5.500
 7679SOL    HW223937   2.165   4.964   5.399
 7680SOL     OW23938   1.299   0.319   5.420
 7680SOL    HW123939   1.318   0.396   5.482
 7680SOL    HW223940   1.231   0.347   5.352
 7681SOL     OW23941   3.089   2.504   6.277
 7681SOL    HW123942   3.157   2.557   6.226
 7681SOL    HW223943   3.099   2.524   6.375
 7682SOL     OW23944   3.013   1.633   2.690
 7682SOL    HW123945   2.975   1.721   2.718
 7682SOL    HW223946   2.984   1.562   2.754
 7683SOL     OW23947   0.322   0.978   4.661
 7683SOL    HW123948   0.269   1.040   4.718
 7683SOL    HW223949   0.261   0.933   4.595
 7684SOL     OW23950   4.003   2.118   1.713
 7684SOL    HW123951   4.049   2.082   1.632
 7684SOL    HW223952   3.964   2.043   1.766
 7685SOL     OW23953   3.831   1.088   6.973
 7685SOL    HW123954   3.737   1.110   6.998
 7685SOL    HW223955   3.851   0.993   6.996
 7686SOL     OW23956   4.614   0.220   4.790
 7686SOL    HW123957   4.561   0.137   4.808
 7686SOL    HW223958   4.552   0.293   4.762
 7687SOL     OW23959   5.065   5.552   4.746
 7687SOL    HW123960   5.145   5.512   4.791
 7687SOL    HW223961   5.075   5.651   4.743
 7688SOL     OW23962   0.095   5.286   5.883
 7688SOL    HW123963   7.025   5.283   5.856
 7688SOL    HW223964   0.102   5.269   5.981
 7689SOL     OW23965   4.907   0.548   1.881
 7689SOL    HW123966   4.842   0.611   1.924
 7689SOL    HW223967   4.988   0.538   1.940
 7690SOL     OW23968   5.394   4.665   0.443
 7690SOL    HW123969   5.402   4.758   0.407
 7690SOL    HW223970   5.485   4.633   0.471
 7691SOL     OW23971   4.395   4.850   2.513
 7691SOL    HW123972   4.323   4.792   2.476
 7691SOL    HW223973   4.463   4.793   2.560
 7692SOL     OW23974   0.796   6.421   1.313
 7692SOL    HW123975   0.886   6.384   1.333
 7692SOL    HW223976   0.805   6.515   1.280
 7693SOL     OW23977   3.049   0.836   0.777
 7693SOL    HW123978   3.058   0.862   0.681
 7693SOL    HW223979   3.103   0.898   0.834
 7694SOL     OW23980   5.865   2.834   4.438
 7694SOL    HW123981   5.833   2.740   4.450
 7694SOL    HW223982   5.880   2.875   4.528
 7695SOL     OW23983   6.460   6.968   2.946
 7695SOL    HW123984   6.370   6.939   2.914
 7695SOL    HW223985   6.463   6.961   3.046
 7696SOL     OW23986   0.361   2.052   6.360
 7696SOL    HW123987   0.334   2.085   6.451
 7696SOL    HW223988   0.301   2.091   6.291
 7697SOL     OW23989   3.714   6.930   2.858
 7697SOL    HW123990   3.763   6.844   2.869
 7697SOL    HW223991   3.778   7.006   2.868
 7698SOL     OW23992   6.119   2.561   6.809
 7698SOL    HW123993   6.212   2.549   6.773
 7698SOL    HW223994   6.070   2.628   6.752
 7699SOL     OW23995   2.701   5.605   0.134
 7699SOL    HW123996   2.709   5.564   0.044
 7699SOL    HW223997   2.751   5.550   0.201
 7700SOL     OW23998   4.868   5.643   2.929
 7700SOL    HW123999   4.860   5.679   3.022
 7700SOL    HW224000   4.777   5.638   2.888
 7701SOL     OW24001   0.234   2.196   6.149
 7701SOL    HW124002   0.295   2.137   6.096
 7701SOL    HW224003   0.139   2.169   6.131
 7702SOL     OW24004   4.686   0.018   5.887
 7702SOL    HW124005   4.590   7.023   5.906
 7702SOL    HW224006   4.707   0.110   5.920
 7703SOL     OW24007   6.434   0.376   4.997
 7703SOL    HW124008   6.470   0.384   4.904
 7703SOL    HW224009   6.336   0.392   4.996
 7704SOL     OW24010   6.855   1.263   4.220
 7704SOL    HW124011   6.901   1.335   4.272
 7704SOL    HW224012   6.903   1.247   4.134
 7705SOL     OW24013   2.604   4.967   0.384
 7705SOL    HW124014   2.614   5.053   0.333
 7705SOL    HW224015   2.569   4.896   0.323
 7706SOL     OW24016   3.634   2.890   3.122
 7706SOL    HW124017   3.586   2.812   3.162
 7706SOL    HW224018   3.702   2.924   3.186
 7707SOL     OW24019   6.826   5.749   0.115
 7707SOL    HW124020   6.763   5.708   0.050
 7707SOL    HW224021   6.807   5.714   0.207
 7708SOL     OW24022   1.775   0.246   4.280
 7708SOL    HW124023   1.776   0.221   4.377
 7708SOL    HW224024   1.826   0.331   4.266
 7709SOL     OW24025   6.654   4.936   0.970
 7709SOL    HW124026   6.629   5.029   0.998
 7709SOL    HW224027   6.726   4.941   0.901
 7710SOL     OW24028   1.647   2.862   0.863
 7710SOL    HW124029   1.669   2.767   0.884
 7710SOL    HW224030   1.548   2.876   0.874
 7711SOL     OW24031   6.397   4.887   5.520
 7711SOL    HW124032   6.429   4.859   5.430
 7711SOL    HW224033   6.474   4.886   5.584
 7712SOL     OW24034   6.637   4.481   6.460
 7712SOL    HW124035   6.662   4.474   6.364
 7712SOL    HW224036   6.549   4.529   6.469
 7713SOL     OW24037   1.789   4.388   1.020
 7713SOL    HW124038   1.723   4.454   0.983
 7713SOL    HW224039   1.787   4.393   1.120
 7714SOL     OW24040   6.724   0.296   4.277
 7714SOL    HW124041   6.658   0.356   4.231
 7714SOL    HW224042   6.715   0.203   4.243
 7715SOL     OW24043   2.028   2.826   6.374
 7715SOL    HW124044   2.115   2.776   6.375
 7715SOL    HW224045   1.959   2.772   6.326
 7716SOL     OW24046   0.663   5.488   6.701
 7716SOL    HW124047   0.597   5.420   6.734
 7716SOL    HW224048   0.755   5.450   6.702
 7717SOL     OW24049   1.129   2.193   5.956
 7717SOL    HW124050   1.172   2.115   6.000
 7717SOL    HW224051   1.199   2.258   5.927
 7718SOL     OW24052   1.018   3.688   2.571
 7718SOL    HW124053   1.026   3.630   2.652
 7718SOL    HW224054   0.928   3.731   2.570
 7719SOL     OW24055   1.481   4.264   5.074
 7719SOL    HW124056   1.482   4.178   5.125
 7719SOL    HW224057   1.566   4.272   5.021
 7720SOL     OW24058   6.374   2.090   6.364
 7720SOL    HW124059   6.363   1.992   6.347
 7720SOL    HW224060   6.287   2.128   6.394
 7721SOL     OW24061   1.440   0.644   2.505
 7721SOL    HW124062   1.449   0.713   2.578
 7721SOL    HW224063   1.487   0.677   2.423
 7722SOL     OW24064   2.099   4.970   4.032
 7722SOL    HW124065   2.056   4.988   4.121
 7722SOL    HW224066   2.073   5.043   3.968
 7723SOL     OW24067   4.860   3.053   6.642
 7723SOL    HW124068   4.798   2.980   6.668
 7723SOL    HW224069   4.906   3.088   6.724
 7724SOL     OW24070   3.293   4.004   1.302
 7724SOL    HW124071   3.231   4.040   1.371
 7724SOL    HW224072   3.267   4.040   1.212
 7725SOL     OW24073   5.654   2.622   2.653
 7725SOL    HW124074   5.710   2.653   2.576
 7725SOL    HW224075   5.703   2.551   2.704
 7726SOL     OW24076   0.745   3.172   6.216
 7726SOL    HW124077   0.680   3.110   6.259
 7726SOL    HW224078   0.800   3.122   6.149
 7727SOL     OW24079   4.905   2.416   2.058
 7727SOL    HW124080   4.826   2.365   2.026
 7727SOL    HW224081   4.936   2.477   1.985
 7728SOL     OW24082   2.241   2.987   5.307
 7728SOL    HW124083   2.313   2.992   5.238
 7728SOL    HW224084   2.276   2.939   5.388
 7729SOL     OW24085   6.431   1.757   2.444
 7729SOL    HW124086   6.370   1.829   2.411
 7729SOL    HW224087   6.522   1.795   2.459
 7730SOL     OW24088   5.687   4.811   5.685
 7730SOL    HW124089   5.615   4.780   5.622
 7730SOL    HW224090   5.662   4.786   5.778
 7731SOL     OW24091   6.051   0.043   0.440
 7731SOL    HW124092   5.963   0.083   0.465
 7731SOL    HW224093   6.122   0.076   0.503
 7732SOL     OW24094   4.537   0.265   6.656
 7732SOL    HW124095   4.500   0.205   6.727
 7732SOL    HW224096   4.464   0.322   6.619
 7733SOL     OW24097   6.886   5.760   2.981
 7733SOL    HW124098   6.836   5.846   2.976
 7733SOL    HW224099   6.947   5.762   3.060
 7734SOL     OW24100   2.462   4.854   5.544
 7734SOL    HW124101   2.450   4.902   5.457
 7734SOL    HW224102   2.513   4.770   5.528
 7735SOL     OW24103   6.315   6.069   0.407
 7735SOL    HW124104   6.373   6.017   0.344
 7735SOL    HW224105   6.248   6.121   0.354
 7736SOL     OW24106   2.676   3.131   0.689
 7736SOL    HW124107   2.619   3.188   0.631
 7736SOL    HW224108   2.661   3.154   0.785
 7737SOL     OW24109   4.179   5.369   1.306
 7737SOL    HW124110   4.108   5.308   1.341
 7737SOL    HW224111   4.268   5.327   1.318
 7738SOL     OW24112   2.733   6.120   6.688
 7738SOL    HW124113   2.716   6.034   6.640
 7738SOL    HW224114   2.650   6.149   6.735
 7739SOL     OW24115   1.311   2.561   1.916
 7739SOL    HW124116   1.375   2.618   1.968
 7739SOL    HW224117   1.282   2.609   1.834
 7740SOL     OW24118   1.694   0.775   2.832
 7740SOL    HW124119   1.651   0.701   2.883
 7740SOL    HW224120   1.781   0.799   2.875
 7741SOL     OW24121   2.046   4.754   5.720
 7741SOL    HW124122   2.117   4.731   5.654
 7741SOL    HW224123   2.035   4.854   5.723
 7742SOL     OW24124   4.255   1.726   4.006
 7742SOL    HW124125   4.308   1.807   3.982
 7742SOL    HW224126   4.239   1.725   4.105
 7743SOL     OW24127   5.315   1.048   6.414
 7743SOL    HW124128   5.225   1.064   6.374
 7743SOL    HW224129   5.350   1.133   6.453
 7744SOL     OW24130   0.748   5.703   5.260
 7744SOL    HW124131   0.677   5.635   5.280
 7744SOL    HW224132   0.837   5.659   5.259
 7745SOL     OW24133   2.031   6.166   6.979
 7745SOL    HW124134   1.990   6.183   0.043
 7745SOL    HW224135   2.115   6.112   6.990
 7746SOL     OW24136   0.933   6.143   0.782
 7746SOL    HW124137   1.006   6.183   0.837
 7746SOL    HW224138   0.920   6.048   0.807
 7747SOL     OW24139   6.685   6.272   0.610
 7747SOL    HW124140   6.730   6.261   0.698
 7747SOL    HW224141   6.626   6.193   0.593
 7748SOL     OW24142   3.843   2.881   5.390
 7748SOL    HW124143   3.745   2.883   5.409
 7748SOL    HW224144   3.871   2.786   5.373
 7749SOL     OW24145   3.871   3.477   3.504
 7749SOL    HW124146   3.949   3.523   3.463
 7749SOL    HW224147   3.824   3.539   3.567
 7750SOL     OW24148   5.447   5.090   6.203
 7750SOL    HW124149   5.439   5.045   6.114
 7750SOL    HW224150   5.420   5.186   6.195
 7751SOL     OW24151   0.083   1.584   3.520
 7751SOL    HW124152   0.157   1.544   3.574
 7751SOL    HW224153   7.021   1.548   3.552
 7752SOL     OW24154   5.479   5.220   5.169
 7752SOL    HW124155   5.480   5.195   5.073
 7752SOL    HW224156   5.552   5.287   5.187
 7753SOL     OW24157   2.507   0.322   4.858
 7753SOL    HW124158   2.575   0.274   4.913
 7753SOL    HW224159   2.415   0.300   4.892
 7754SOL     OW24160   5.768   0.671   0.956
 7754SOL    HW124161   5.758   0.640   0.861
 7754SOL    HW224162   5.845   0.734   0.963
 7755SOL     OW24163   0.279   6.353   5.801
 7755SOL    HW124164   0.290   6.352   5.900
 7755SOL    HW224165   0.333   6.427   5.762
 7756SOL     OW24166   2.509   5.359   2.354
 7756SOL    HW124167   2.570   5.423   2.309
 7756SOL    HW224168   2.522   5.365   2.453
 7757SOL     OW24169   4.899   6.212   5.285
 7757SOL    HW124170   4.969   6.154   5.327
 7757SOL    HW224171   4.875   6.286   5.348
 7758SOL     OW24172   1.684   2.731   6.344
 7758SOL    HW124173   1.767   2.677   6.341
 7758SOL    HW224174   1.607   2.673   6.373
 7759SOL     OW24175   1.758   0.529   4.568
 7759SOL    HW124176   1.682   0.474   4.603
 7759SOL    HW224177   1.799   0.582   4.642
 7760SOL     OW24178   5.645   3.060   2.081
 7760SOL    HW124179   5.585   3.040   2.004
 7760SOL    HW224180   5.691   3.148   2.067
 7761SOL     OW24181   3.147   6.913   5.959
 7761SOL    HW124182   3.205   6.833   5.978
 7761SOL    HW224183   3.099   6.939   6.042
 7762SOL     OW24184   4.094   0.859   6.585
 7762SOL    HW124185   4.126   0.884   6.676
 7762SOL    HW224186   4.100   0.939   6.525
 7763SOL     OW24187   1.393   1.953   0.667
 7763SOL    HW124188   1.419   1.966   0.763
 7763SOL    HW224189   1.297   1.975   0.656
 7764SOL     OW24190   3.848   3.306   2.499
 7764SOL    HW124191   3.779   3.265   2.559
 7764SOL    HW224192   3.887   3.387   2.544
 7765SOL     OW24193   6.464   3.423   3.934
 7765SOL    HW124194   6.519   3.415   4.018
 7765SOL    HW224195   6.381   3.368   3.943
 7766SOL     OW24196   5.852   1.757   0.079
 7766SOL    HW124197   5.811   1.668   0.102
 7766SOL    HW224198   5.951   1.752   0.093
 7767SOL     OW24199   3.877   6.239   3.386
 7767SOL    HW124200   3.906   6.246   3.291
 7767SOL    HW224201   3.903   6.149   3.422
 7768SOL     OW24202   3.299   4.986   2.761
 7768SOL    HW124203   3.322   4.952   2.852
 7768SOL    HW224204   3.207   5.024   2.761
 7769SOL     OW24205   4.509   1.922   1.769
 7769SOL    HW124206   4.607   1.945   1.774
 7769SOL    HW224207   4.458   1.981   1.831
 7770SOL     OW24208   2.742   4.874   1.926
 7770SOL    HW124209   2.769   4.781   1.954
 7770SOL    HW224210   2.821   4.935   1.936
 7771SOL     OW24211   2.639   2.016   4.445
 7771SOL    HW124212   2.545   2.038   4.472
 7771SOL    HW224213   2.687   2.101   4.421
 7772SOL     OW24214   5.151   1.288   3.450
 7772SOL    HW124215   5.118   1.201   3.412
 7772SOL    HW224216   5.074   1.341   3.484
 7773SOL     OW24217   3.863   4.620   6.420
 7773SOL    HW124218   3.940   4.573   6.463
 7773SOL    HW224219   3.831   4.567   6.341
 7774SOL     OW24220   5.728   1.305   5.721
 7774SOL    HW124221   5.737   1.273   5.627
 7774SOL    HW224222   5.636   1.340   5.736
 7775SOL     OW24223   3.271   6.338   3.587
 7775SOL    HW124224   3.219   6.344   3.672
 7775SOL    HW224225   3.215   6.370   3.510
 7776SOL     OW24226   3.231   3.261   5.983
 7776SOL    HW124227   3.251   3.267   5.885
 7776SOL    HW224228   3.315   3.277   6.035
 7777SOL     OW24229   2.344   1.498   5.714
 7777SOL    HW124230   2.383   1.451   5.793
 7777SOL    HW224231   2.394   1.470   5.632
 7778SOL     OW24232   5.812   0.161   0.492
 7778SOL    HW124233   5.787   0.228   0.422
 7778SOL    HW224234   5.731   0.113   0.524
 7779SOL     OW24235   3.320   2.868   0.437
 7779SOL    HW124236   3.338   2.872   0.338
 7779SOL    HW224237   3.275   2.782   0.459
 7780SOL     OW24238   0.964   6.147   4.378
 7780SOL    HW124239   0.944   6.155   4.476
 7780SOL    HW224240   1.056   6.181   4.360
 7781SOL     OW24241   1.742   4.034   6.032
 7781SOL    HW124242   1.782   4.047   5.941
 7781SOL    HW224243   1.780   3.952   6.074
 7782SOL     OW24244   1.991   4.223   5.997
 7782SOL    HW124245   1.934   4.298   5.963
 7782SOL    HW224246   1.952   4.136   5.968
 7783SOL     OW24247   2.645   6.811   6.314
 7783SOL    HW124248   2.741   6.786   6.323
 7783SOL    HW224249   2.623   6.885   6.378
 7784SOL     OW24250   1.004   3.403   0.105
 7784SOL    HW124251   1.090   3.445   0.075
 7784SOL    HW224252   1.014   3.304   0.104
 7785SOL     OW24253   2.332   6.611   4.137
 7785SOL    HW124254   2.417   6.579   4.096
 7785SOL    HW224255   2.296   6.689   4.086
 7786SOL     OW24256   3.169   4.675   5.265
 7786SOL    HW124257   3.224   4.622   5.330
 7786SOL    HW224258   3.087   4.622   5.240
 7787SOL     OW24259   2.332   2.518   5.141
 7787SOL    HW124260   2.351   2.613   5.117
 7787SOL    HW224261   2.237   2.497   5.117
 7788SOL     OW24262   1.445   1.860   1.765
 7788SOL    HW124263   1.484   1.841   1.856
 7788SOL    HW224264   1.419   1.956   1.759
 7789SOL     OW24265   2.212   6.941   1.136
 7789SOL    HW124266   2.226   6.842   1.128
 7789SOL    HW224267   2.253   6.987   1.057
 7790SOL     OW24268   6.355   4.231   3.083
 7790SOL    HW124269   6.379   4.328   3.080
 7790SOL    HW224270   6.351   4.201   3.179
 7791SOL     OW24271   2.594   6.025   4.578
 7791SOL    HW124272   2.672   6.075   4.614
 7791SOL    HW224273   2.599   5.930   4.606
 7792SOL     OW24274   1.723   5.176   6.412
 7792SOL    HW124275   1.735   5.130   6.323
 7792SOL    HW224276   1.689   5.269   6.397
 7793SOL     OW24277   2.018   1.445   5.289
 7793SOL    HW124278   2.103   1.402   5.317
 7793SOL    HW224279   2.027   1.478   5.194
 7794SOL     OW24280   5.199   4.931   4.460
 7794SOL    HW124281   5.267   4.859   4.472
 7794SOL    HW224282   5.148   4.915   4.376
 7795SOL     OW24283   2.030   4.023   5.439
 7795SOL    HW124284   1.958   3.957   5.457
 7795SOL    HW224285   2.064   4.012   5.345
 7796SOL     OW24286   3.626   4.162   3.497
 7796SOL    HW124287   3.605   4.186   3.402
 7796SOL    HW224288   3.725   4.147   3.507
 7797SOL     OW24289   6.967   5.479   3.572
 7797SOL    HW124290   6.969   5.538   3.491
 7797SOL    HW224291   0.020   5.499   3.629
 7798SOL     OW24292   2.651   5.214   6.966
 7798SOL    HW124293   2.704   5.190   0.022
 7798SOL    HW224294   2.682   5.303   6.932
 7799SOL     OW24295   6.605   5.713   1.769
 7799SOL    HW124296   6.587   5.749   1.861
 7799SOL    HW224297   6.520   5.675   1.731
 7800SOL     OW24298   0.647   4.298   1.547
 7800SOL    HW124299   0.567   4.339   1.502
 7800SOL    HW224300   0.711   4.370   1.574
 7801SOL     OW24301   2.422   1.734   0.958
 7801SOL    HW124302   2.414   1.643   0.919
 7801SOL    HW224303   2.486   1.788   0.903
 7802SOL     OW24304   5.958   2.729   1.419
 7802SOL    HW124305   5.892   2.777   1.361
 7802SOL    HW224306   6.038   2.787   1.434
 7803SOL     OW24307   4.438   3.346   5.555
 7803SOL    HW124308   4.479   3.357   5.464
 7803SOL    HW224309   4.392   3.258   5.560
 7804SOL     OW24310   6.179   1.247   4.022
 7804SOL    HW124311   6.161   1.257   3.924
 7804SOL    HW224312   6.093   1.231   4.070
 7805SOL     OW24313   5.566   2.442   1.088
 7805SOL    HW124314   5.611   2.473   1.005
 7805SOL    HW224315   5.476   2.485   1.096
 7806SOL     OW24316   5.451   3.048   6.172
 7806SOL    HW124317   5.356   3.019   6.159
 7806SOL    HW224318   5.474   3.120   6.107
 7807SOL     OW24319   6.951   4.833   6.577
 7807SOL    HW124320   6.852   4.825   6.587
 7807SOL    HW224321   6.973   4.893   6.501
 7808SOL     OW24322   0.660   2.579   4.658
 7808SOL    HW124323   0.684   2.500   4.601
 7808SOL    HW224324   0.736   2.644   4.658
 7809SOL     OW24325   2.135   5.448   4.959
 7809SOL    HW124326   2.134   5.397   4.873
 7809SOL    HW224327   2.218   5.426   5.010
 7810SOL     OW24328   3.074   0.891   5.735
 7810SOL    HW124329   3.095   0.812   5.793
 7810SOL    HW224330   2.989   0.874   5.686
 7811SOL     OW24331   6.274   4.484   4.314
 7811SOL    HW124332   6.217   4.440   4.384
 7811SOL    HW224333   6.338   4.547   4.358
 7812SOL     OW24334   1.508   1.820   3.973
 7812SOL    HW124335   1.424   1.790   4.018
 7812SOL    HW224336   1.580   1.753   3.989
 7813SOL     OW24337   4.952   2.752   6.226
 7813SOL    HW124338   5.046   2.719   6.230
 7813SOL    HW224339   4.889   2.674   6.232
 7814SOL     OW24340   0.127   2.469   3.214
 7814SOL    HW124341   0.088   2.482   3.305
 7814SOL    HW224342   0.199   2.400   3.218
 7815SOL     OW24343   5.388   1.470   6.778
 7815SOL    HW124344   5.380   1.488   6.680
 7815SOL    HW224345   5.310   1.510   6.826
 7816SOL     OW24346   1.048   3.194   6.015
 7816SOL    HW124347   1.031   3.282   5.971
 7816SOL    HW224348   0.969   3.134   5.999
 7817SOL     OW24349   6.159   3.769   4.520
 7817SOL    HW124350   6.067   3.795   4.489
 7817SOL    HW224351   6.218   3.754   4.440
 7818SOL     OW24352   5.592   0.354   1.700
 7818SOL    HW124353   5.565   0.446   1.730
 7818SOL    HW224354   5.691   0.348   1.696
 7819SOL     OW24355   0.183   3.179   1.399
 7819SOL    HW124356   0.279   3.176   1.371
 7819SOL    HW224357   0.174   3.140   1.490
 7820SOL     OW24358   1.655   2.229   4.756
 7820SOL    HW124359   1.593   2.164   4.713
 7820SOL    HW224360   1.607   2.314   4.776
 7821SOL     OW24361   4.345   6.000   1.302
 7821SOL    HW124362   4.367   6.090   1.340
 7821SOL    HW224363   4.426   5.941   1.306
 7822SOL     OW24364   0.203   0.049   5.278
 7822SOL    HW124365   0.142   6.997   5.287
 7822SOL    HW224366   0.269   0.048   5.354
 7823SOL     OW24367   2.216   4.132   4.698
 7823SOL    HW124368   2.195   4.196   4.773
 7823SOL    HW224369   2.225   4.040   4.735
 7824SOL     OW24370   6.824   2.461   4.929
 7824SOL    HW124371   6.770   2.414   4.998
 7824SOL    HW224372   6.910   2.492   4.969
 7825SOL     OW24373   2.561   3.107   6.957
 7825SOL    HW124374   2.501   3.037   6.919
 7825SOL    HW224375   2.646   3.110   6.905
 7826SOL     OW24376   6.926   1.521   0.250
 7826SOL    HW124377   6.935   1.422   0.261
 7826SOL    HW224378   6.997   1.566   0.304
 7827SOL     OW24379   0.514   5.794   2.526
 7827SOL    HW124380   0.465   5.715   2.491
 7827SOL    HW224381   0.510   5.794   2.626
 7828SOL     OW24382   6.775   4.043   6.914
 7828SOL    HW124383   6.852   4.046   6.849
 7828SOL    HW224384   6.723   3.959   6.899
 7829SOL     OW24385   3.468   3.130   1.292
 7829SOL    HW124386   3.568   3.128   1.286
 7829SOL    HW224387   3.433   3.038   1.274
 7830SOL     OW24388   3.574   5.602   5.343
 7830SOL    HW124389   3.618   5.521   5.303
 7830SOL    HW224390   3.576   5.677   5.276
 7831SOL     OW24391   1.904   1.237   1.009
 7831SOL    HW124392   1.867   1.145   1.004
 7831SOL    HW224393   1.877   1.289   0.928
 7832SOL     OW24394   4.769   0.471   4.346
 7832SOL    HW124395   4.685   0.525   4.354
 7832SOL    HW224396   4.846   0.532   4.324
 7833SOL     OW24397   1.284   0.409   4.165
 7833SOL    HW124398   1.287   0.457   4.252
 7833SOL    HW224399   1.321   0.468   4.093
 7834SOL     OW24400   6.635   1.686   3.887
 7834SOL    HW124401   6.691   1.654   3.811
 7834SOL    HW224402   6.689   1.689   3.970
 7835SOL     OW24403   4.162   1.837   5.370
 7835SOL    HW124404   4.154   1.936   5.357
 7835SOL    HW224405   4.080   1.803   5.415
 7836SOL     OW24406   3.978   4.059   5.217
 7836SOL    HW124407   3.954   4.023   5.126
 7836SOL    HW224408   4.014   3.985   5.273
 7837SOL     OW24409   5.526   6.407   0.589
 7837SOL    HW124410   5.625   6.417   0.596
 7837SOL    HW224411   5.489   6.480   0.532
 7838SOL     OW24412   5.031   4.826   1.233
 7838SOL    HW124413   5.044   4.844   1.330
 7838SOL    HW224414   5.116   4.849   1.184
 7839SOL     OW24415   5.913   4.153   5.022
 7839SOL    HW124416   5.923   4.104   5.109
 7839SOL    HW224417   5.885   4.247   5.040
 7840SOL     OW24418   0.369   4.183   3.734
 7840SOL    HW124419   0.446   4.120   3.729
 7840SOL    HW224420   0.381   4.256   3.667
 7841SOL     OW24421   4.855   2.190   6.493
 7841SOL    HW124422   4.812   2.109   6.453
 7841SOL    HW224423   4.787   2.240   6.547
 7842SOL     OW24424   2.354   2.248   2.323
 7842SOL    HW124425   2.428   2.182   2.310
 7842SOL    HW224426   2.384   2.339   2.292
 7843SOL     OW24427   6.722   0.004   4.232
 7843SOL    HW124428   6.704   7.019   4.134
 7843SOL    HW224429   6.683   6.953   4.282
 7844SOL     OW24430   3.457   0.523   2.356
 7844SOL    HW124431   3.555   0.502   2.360
 7844SOL    HW224432   3.444   0.622   2.350
 7845SOL     OW24433   5.356   2.112   1.371
 7845SOL    HW124434   5.277   2.051   1.379
 7845SOL    HW224435   5.344   2.190   1.431
 7846SOL     OW24436   1.684   2.630   0.326
 7846SOL    HW124437   1.653   2.554   0.382
 7846SOL    HW224438   1.633   2.713   0.350
 7847SOL     OW24439   6.194   1.742   3.447
 7847SOL    HW124440   6.235   1.807   3.383
 7847SOL    HW224441   6.109   1.707   3.409
 7848SOL     OW24442   3.143   4.719   1.237
 7848SOL    HW124443   3.052   4.693   1.204
 7848SOL    HW224444   3.184   4.784   1.173
 7849SOL     OW24445   5.768   3.455   5.268
 7849SOL    HW124446   5.845   3.400   5.238
 7849SOL    HW224447   5.755   3.443   5.367
 7850SOL     OW24448   6.662   1.415   3.234
 7850SOL    HW124449   6.634   1.381   3.144
 7850SOL    HW224450   6.716   1.498   3.223
 7851SOL     OW24451   0.849   3.328   1.819
 7851SOL    HW124452   0.846   3.428   1.812
 7851SOL    HW224453   0.936   3.301   1.860
 7852SOL     OW24454   3.039   0.979   0.515
 7852SOL    HW124455   2.944   1.002   0.496
 7852SOL    HW224456   3.070   0.910   0.450
 7853SOL     OW24457   4.476   3.118   1.641
 7853SOL    HW124458   4.540   3.082   1.709
 7853SOL    HW224459   4.480   3.218   1.642
 7854SOL     OW24460   4.605   2.237   5.812
 7854SOL    HW124461   4.672   2.172   5.774
 7854SOL    HW224462   4.537   2.188   5.865
 7855SOL     OW24463   5.014   6.504   4.270
 7855SOL    HW124464   5.023   6.414   4.314
 7855SOL    HW224465   4.973   6.568   4.334
 7856SOL     OW24466   1.844   4.520   5.043
 7856SOL    HW124467   1.877   4.519   4.949
 7856SOL    HW224468   1.756   4.568   5.047
 7857SOL     OW24469   4.980   4.107   0.334
 7857SOL    HW124470   4.924   4.036   0.375
 7857SOL    HW224471   4.935   4.143   0.252
 7858SOL     OW24472   0.245   5.623   4.842
 7858SOL    HW124473   0.329   5.583   4.880
 7858SOL    HW224474   0.166   5.590   4.894
 7859SOL     OW24475   5.080   3.087   6.427
 7859SOL    HW124476   4.997   3.063   6.477
 7859SOL    HW224477   5.146   3.128   6.490
 7860SOL     OW24478   3.670   1.296   4.377
 7860SOL    HW124479   3.669   1.197   4.387
 7860SOL    HW224480   3.581   1.333   4.405
 7861SOL     OW24481   2.637   5.682   1.957
 7861SOL    HW124482   2.610   5.619   2.030
 7861SOL    HW224483   2.614   5.643   1.868
 7862SOL     OW24484   2.938   5.440   2.191
 7862SOL    HW124485   2.940   5.455   2.092
 7862SOL    HW224486   2.940   5.342   2.210
 7863SOL     OW24487   6.963   4.163   3.325
 7863SOL    HW124488   0.013   4.102   3.303
 7863SOL    HW224489   6.998   4.245   3.370
 7864SOL     OW24490   1.986   6.208   6.716
 7864SOL    HW124491   1.927   6.289   6.715
 7864SOL    HW224492   2.028   6.199   6.806
 7865SOL     OW24493   5.913   6.198   3.804
 7865SOL    HW124494   5.900   6.141   3.884
 7865SOL    HW224495   5.964   6.280   3.829
 7866SOL     OW24496   2.089   0.535   5.467
 7866SOL    HW124497   2.018   0.586   5.515
 7866SOL    HW224498   2.144   0.483   5.532
 7867SOL     OW24499   5.491   6.796   3.875
 7867SOL    HW124500   5.443   6.741   3.943
 7867SOL    HW224501   5.580   6.824   3.911
 7868SOL     OW24502   3.856   6.105   0.699
 7868SOL    HW124503   3.773   6.131   0.649
 7868SOL    HW224504   3.934   6.155   0.663
 7869SOL     OW24505   5.161   4.848   5.592
 7869SOL    HW124506   5.120   4.919   5.535
 7869SOL    HW224507   5.261   4.854   5.587
 7870SOL     OW24508   4.657   0.368   5.478
 7870SOL    HW124509   4.693   0.412   5.560
 7870SOL    HW224510   4.683   0.272   5.478
 7871SOL     OW24511   5.145   1.025   2.159
 7871SOL    HW124512   5.198   1.063   2.083
 7871SOL    HW224513   5.135   1.094   2.231
 7872SOL     OW24514   1.648   5.084   2.924
 7872SOL    HW124515   1.601   5.095   2.837
 7872SOL    HW224516   1.588   5.037   2.989
 7873SOL     OW24517   6.562   1.160   1.007
 7873SOL    HW124518   6.564   1.146   1.106
 7873SOL    HW224519   6.614   1.243   0.984
 7874SOL     OW24520   5.567   2.731   0.845
 7874SOL    HW124521   5.617   2.748   0.930
 7874SOL    HW224522   5.473   2.704   0.865
 7875SOL     OW24523   3.802   3.554   6.744
 7875SOL    HW124524   3.865   3.617   6.790
 7875SOL    HW224525   3.771   3.596   6.658
 7876SOL     OW24526   1.267   0.456   2.426
 7876SOL    HW124527   1.307   0.535   2.473
 7876SOL    HW224528   1.193   0.418   2.482
 7877SOL     OW24529   5.647   1.375   2.663
 7877SOL    HW124530   5.725   1.433   2.684
 7877SOL    HW224531   5.675   1.279   2.667
 7878SOL     OW24532   4.884   3.635   3.660
 7878SOL    HW124533   4.924   3.601   3.575
 7878SOL    HW224534   4.868   3.558   3.723
 7879SOL     OW24535   3.086   5.299   3.625
 7879SOL    HW124536   3.098   5.311   3.526
 7879SOL    HW224537   3.026   5.222   3.642
 7880SOL     OW24538   2.414   4.030   1.191
 7880SOL    HW124539   2.354   4.031   1.270
 7880SOL    HW224540   2.401   4.114   1.138
 7881SOL     OW24541   5.312   4.112   4.435
 7881SOL    HW124542   5.299   4.200   4.479
 7881SOL    HW224543   5.407   4.102   4.406
 7882SOL     OW24544   2.880   3.926   1.451
 7882SOL    HW124545   2.841   3.834   1.442
 7882SOL    HW224546   2.823   3.990   1.400
 7883SOL     OW24547   1.038   0.691   5.151
 7883SOL    HW124548   0.941   0.686   5.173
 7883SOL    HW224549   1.065   0.609   5.101
 7884SOL     OW24550   0.311   3.345   4.085
 7884SOL    HW124551   0.301   3.336   3.986
 7884SOL    HW224552   0.387   3.287   4.116
 7885SOL     OW24553   6.296   5.660   0.964
 7885SOL    HW124554   6.303   5.571   0.918
 7885SOL    HW224555   6.315   5.733   0.898
 7886SOL     OW24556   4.499   5.499   0.631
 7886SOL    HW124557   4.520   5.554   0.712
 7886SOL    HW224558   4.552   5.414   0.635
 7887SOL     OW24559   4.038   1.681   6.710
 7887SOL    HW124560   3.941   1.661   6.707
 7887SOL    HW224561   4.066   1.728   6.626
 7888SOL     OW24562   5.060   0.415   4.115
 7888SOL    HW124563   5.008   0.488   4.160
 7888SOL    HW224564   5.052   0.425   4.016
 7889SOL     OW24565   0.642   6.280   1.968
 7889SOL    HW124566   0.623   6.351   1.901
 7889SOL    HW224567   0.558   6.228   1.986
 7890SOL     OW24568   2.129   3.995   2.198
 7890SOL    HW124569   2.171   4.003   2.288
 7890SOL    HW224570   2.129   3.900   2.169
 7891SOL     OW24571   2.783   4.723   2.276
 7891SOL    HW124572   2.797   4.687   2.184
 7891SOL    HW224573   2.872   4.744   2.317
 7892SOL     OW24574   1.920   2.699   5.408
 7892SOL    HW124575   1.856   2.643   5.356
 7892SOL    HW224576   1.906   2.684   5.506
 7893SOL     OW24577   5.933   6.655   1.345
 7893SOL    HW124578   5.834   6.639   1.334
 7893SOL    HW224579   5.950   6.752   1.359
 7894SOL     OW24580   2.215   6.370   2.376
 7894SOL    HW124581   2.196   6.366   2.474
 7894SOL    HW224582   2.212   6.278   2.337
 7895SOL     OW24583   6.322   0.888   5.013
 7895SOL    HW124584   6.226   0.861   5.012
 7895SOL    HW224585   6.345   0.924   5.104
 7896SOL     OW24586   4.853   3.689   5.543
 7896SOL    HW124587   4.759   3.671   5.572
 7896SOL    HW224588   4.876   3.630   5.465
 7897SOL     OW24589   2.360   4.033   6.555
 7897SOL    HW124590   2.276   4.087   6.565
 7897SOL    HW224591   2.366   3.998   6.462
 7898SOL     OW24592   5.029   2.409   3.745
 7898SOL    HW124593   5.077   2.339   3.798
 7898SOL    HW224594   4.934   2.380   3.732
 7899SOL     OW24595   6.261   2.397   2.130
 7899SOL    HW124596   6.264   2.443   2.042
 7899SOL    HW224597   6.166   2.375   2.153
 7900SOL     OW24598   1.196   5.225   1.483
 7900SOL    HW124599   1.219   5.321   1.467
 7900SOL    HW224600   1.280   5.171   1.494
 7901SOL     OW24601   5.914   6.927   6.058
 7901SOL    HW124602   5.816   6.922   6.040
 7901SOL    HW224603   5.963   6.868   5.994
 7902SOL     OW24604   4.375   4.693   1.238
 7902SOL    HW124605   4.279   4.717   1.227
 7902SOL    HW224606   4.391   4.660   1.331
 7903SOL     OW24607   6.441   1.939   0.307
 7903SOL    HW124608   6.430   1.891   0.394
 7903SOL    HW224609   6.362   1.998   0.291
 7904SOL     OW24610   0.070   0.741   2.621
 7904SOL    HW124611   0.049   0.800   2.543
 7904SOL    HW224612   0.132   0.788   2.683
 7905SOL     OW24613   3.922   1.693   1.221
 7905SOL    HW124614   3.905   1.650   1.133
 7905SOL    HW224615   4.021   1.706   1.233
 7906SOL     OW24616   6.289   5.786   6.763
 7906SOL    HW124617   6.315   5.711   6.702
 7906SOL    HW224618   6.212   5.756   6.821
 7907SOL     OW24619   6.411   2.244   4.101
 7907SOL    HW124620   6.353   2.168   4.128
 7907SOL    HW224621   6.456   2.223   4.014
 7908SOL     OW24622   0.765   1.105   3.023
 7908SOL    HW124623   0.708   1.156   3.088
 7908SOL    HW224624   0.713   1.088   2.939
 7909SOL     OW24625   4.798   4.061   4.571
 7909SOL    HW124626   4.790   4.160   4.584
 7909SOL    HW224627   4.792   4.016   4.659
 7910SOL     OW24628   4.327   3.075   6.166
 7910SOL    HW124629   4.391   3.003   6.140
 7910SOL    HW224630   4.279   3.108   6.085
 7911SOL     OW24631   0.073   4.976   0.307
 7911SOL    HW124632   0.033   5.067   0.317
 7911SOL    HW224633   0.052   4.922   0.388
 7912SOL     OW24634   6.066   5.107   6.391
 7912SOL    HW124635   6.012   5.070   6.315
 7912SOL    HW224636   6.006   5.156   6.454
 7913SOL     OW24637   6.927   5.218   6.565
 7913SOL    HW124638   6.852   5.163   6.600
 7913SOL    HW224639   6.899   5.264   6.480
 7914SOL     OW24640   6.192   4.968   1.175
 7914SOL    HW124641   6.242   4.970   1.262
 7914SOL    HW224642   6.095   4.955   1.193
 7915SOL     OW24643   4.883   1.888   3.089
 7915SOL    HW124644   4.827   1.925   3.015
 7915SOL    HW224645   4.919   1.798   3.063
 7916SOL     OW24646   5.452   3.326   5.480
 7916SOL    HW124647   5.485   3.418   5.502
 7916SOL    HW224648   5.454   3.269   5.562
 7917SOL     OW24649   4.031   3.892   4.385
 7917SOL    HW124650   4.085   3.853   4.311
 7917SOL    HW224651   4.021   3.991   4.370
 7918SOL     OW24652   6.220   1.408   1.545
 7918SOL    HW124653   6.160   1.488   1.544
 7918SOL    HW224654   6.178   1.335   1.599
 7919SOL     OW24655   6.011   4.161   2.578
 7919SOL    HW124656   6.050   4.197   2.493
 7919SOL    HW224657   5.981   4.236   2.636
 7920SOL     OW24658   0.527   4.737   1.573
 7920SOL    HW124659   0.597   4.724   1.503
 7920SOL    HW224660   0.453   4.672   1.560
 7921SOL     OW24661   2.867   6.571   1.380
 7921SOL    HW124662   2.864   6.521   1.467
 7921SOL    HW224663   2.841   6.667   1.396
 7922SOL     OW24664   6.856   5.134   7.018
 7922SOL    HW124665   6.859   5.106   6.922
 7922SOL    HW224666   6.787   5.206   0.004
 7923SOL     OW24667   1.801   1.203   2.805
 7923SOL    HW124668   1.742   1.273   2.844
 7923SOL    HW224669   1.896   1.235   2.806
 7924SOL     OW24670   2.992   6.610   3.723
 7924SOL    HW124671   2.927   6.534   3.718
 7924SOL    HW224672   2.961   6.677   3.790
 7925SOL     OW24673   6.223   1.477   6.061
 7925SOL    HW124674   6.309   1.521   6.090
 7925SOL    HW224675   6.170   1.452   6.141
 7926SOL     OW24676   3.365   0.816   3.415
 7926SOL    HW124677   3.267   0.839   3.418
 7926SOL    HW224678   3.407   0.863   3.337
 7927SOL     OW24679   4.248   5.259   5.340
 7927SOL    HW124680   4.172   5.244   5.404
 7927SOL    HW224681   4.284   5.351   5.352
 7928SOL     OW24682   2.045   4.843   3.156
 7928SOL    HW124683   2.064   4.783   3.234
 7928SOL    HW224684   2.131   4.863   3.108
 7929SOL     OW24685   3.858   3.817   4.582
 7929SOL    HW124686   3.766   3.808   4.546
 7929SOL    HW224687   3.919   3.849   4.509
 7930SOL     OW24688   4.432   5.123   3.221
 7930SOL    HW124689   4.412   5.190   3.292
 7930SOL    HW224690   4.527   5.135   3.190
 7931SOL     OW24691   2.243   2.699   6.714
 7931SOL    HW124692   2.184   2.757   6.770
 7931SOL    HW224693   2.307   2.757   6.663
 7932SOL     OW24694   2.655   0.402   6.896
 7932SOL    HW124695   2.621   0.493   6.921
 7932SOL    HW224696   2.669   0.348   6.979
 7933SOL     OW24697   0.156   6.469   6.952
 7933SOL    HW124698   0.170   6.480   0.025
 7933SOL    HW224699   0.153   6.559   6.909
 7934SOL     OW24700   2.482   3.710   0.158
 7934SOL    HW124701   2.413   3.734   0.090
 7934SOL    HW224702   2.569   3.752   0.134
 7935SOL     OW24703   4.974   5.804   0.862
 7935SOL    HW124704   4.976   5.768   0.769
 7935SOL    HW224705   4.979   5.904   0.860
 7936SOL     OW24706   4.031   6.227   3.099
 7936SOL    HW124707   3.981   6.183   3.024
 7936SOL    HW224708   4.069   6.314   3.067
 7937SOL     OW24709   5.952   6.458   5.473
 7937SOL    HW124710   6.012   6.498   5.542
 7937SOL    HW224711   5.969   6.502   5.384
 7938SOL     OW24712   3.799   5.100   4.649
 7938SOL    HW124713   3.848   5.065   4.729
 7938SOL    HW224714   3.844   5.183   4.616
 7939SOL     OW24715   1.296   1.354   5.473
 7939SOL    HW124716   1.304   1.336   5.571
 7939SOL    HW224717   1.204   1.330   5.442
 7940SOL     OW24718   2.008   5.332   1.397
 7940SOL    HW124719   1.966   5.248   1.432
 7940SOL    HW224720   2.060   5.376   1.471
 7941SOL     OW24721   0.369   1.135   0.854
 7941SOL    HW124722   0.448   1.125   0.794
 7941SOL    HW224723   0.321   1.048   0.861
 7942SOL     OW24724   0.166   6.657   1.934
 7942SOL    HW124725   0.067   6.644   1.947
 7942SOL    HW224726   0.199   6.723   2.002
 7943SOL     OW24727   5.510   1.996   1.186
 7943SOL    HW124728   5.445   2.041   1.247
 7943SOL    HW224729   5.584   2.059   1.162
 7944SOL     OW24730   7.009   3.356   1.482
 7944SOL    HW124731   7.026   3.452   1.503
 7944SOL    HW224732   0.069   3.307   1.479
 7945SOL     OW24733   5.026   7.005   2.934
 7945SOL    HW124734   5.055   0.023   3.019
 7945SOL    HW224735   5.095   7.018   2.863
 7946SOL     OW24736   1.344   2.347   5.911
 7946SOL    HW124737   1.387   2.280   5.971
 7946SOL    HW224738   1.408   2.423   5.896
 7947SOL     OW24739   3.626   2.834   6.580
 7947SOL    HW124740   3.719   2.854   6.548
 7947SOL    HW224741   3.564   2.907   6.550
 7948SOL     OW24742   0.081   0.122   0.576
 7948SOL    HW124743   0.165   0.069   0.566
 7948SOL    HW224744   0.098   0.202   0.634
 7949SOL     OW24745   5.323   4.771   4.024
 7949SOL    HW124746   5.286   4.805   3.938
 7949SOL    HW224747   5.423   4.774   4.021
 7950SOL     OW24748   4.050   4.968   3.156
 7950SOL    HW124749   4.034   4.984   3.254
 7950SOL    HW224750   4.133   4.914   3.144
 7951SOL     OW24751   2.823   3.649   0.963
 7951SOL    HW124752   2.845   3.695   1.049
 7951SOL    HW224753   2.865   3.558   0.964
 7952SOL     OW24754   6.641   2.713   6.579
 7952SOL    HW124755   6.564   2.655   6.607
 7952SOL    HW224756   6.716   2.655   6.548
 7953SOL     OW24757   2.199   2.851   2.703
 7953SOL    HW124758   2.103   2.827   2.720
 7953SOL    HW224759   2.216   2.944   2.735
 7954SOL     OW24760   4.291   5.183   5.057
 7954SOL    HW124761   4.274   5.197   5.154
 7954SOL    HW224762   4.322   5.269   5.016
 7955SOL     OW24763   6.829   6.464   6.908
 7955SOL    HW124764   6.845   6.559   6.936
 7955SOL    HW224765   6.896   6.404   6.952
 7956SOL     OW24766   0.037   5.925   3.620
 7956SOL    HW124767   0.100   5.889   3.690
 7956SOL    HW224768   0.089   5.952   3.539
 7957SOL     OW24769   1.205   2.137   0.149
 7957SOL    HW124770   1.167   2.149   0.057
 7957SOL    HW224771   1.135   2.158   0.217
 7958SOL     OW24772   3.794   5.810   4.285
 7958SOL    HW124773   3.802   5.790   4.187
 7958SOL    HW224774   3.797   5.725   4.336
 7959SOL     OW24775   5.658   4.554   0.208
 7959SOL    HW124776   5.675   4.652   0.195
 7959SOL    HW224777   5.651   4.534   0.305
 7960SOL     OW24778   3.188   1.536   0.992
 7960SOL    HW124779   3.252   1.539   1.068
 7960SOL    HW224780   3.230   1.488   0.915
 7961SOL     OW24781   1.314   6.502   6.084
 7961SOL    HW124782   1.263   6.583   6.056
 7961SOL    HW224783   1.306   6.489   6.182
 7962SOL     OW24784   2.121   1.148   0.862
 7962SOL    HW124785   2.071   1.193   0.936
 7962SOL    HW224786   2.161   1.217   0.802
 7963SOL     OW24787   0.439   1.024   5.461
 7963SOL    HW124788   0.420   1.110   5.414
 7963SOL    HW224789   0.518   1.036   5.522
 7964SOL     OW24790   5.331   4.529   3.667
 7964SOL    HW124791   5.309   4.435   3.640
 7964SOL    HW224792   5.421   4.553   3.632
 7965SOL     OW24793   4.391   2.280   0.293
 7965SOL    HW124794   4.479   2.311   0.257
 7965SOL    HW224795   4.369   2.331   0.377
 7966SOL     OW24796   1.085   4.399   4.776
 7966SOL    HW124797   1.082   4.479   4.716
 7966SOL    HW224798   1.181   4.376   4.796
 7967SOL     OW24799   3.015   5.702   2.909
 7967SOL    HW124800   2.996   5.685   3.006
 7967SOL    HW224801   2.964   5.636   2.854
 7968SOL     OW24802   2.560   2.259   3.683
 7968SOL    HW124803   2.513   2.338   3.642
 7968SOL    HW224804   2.492   2.198   3.724
 7969SOL     OW24805   4.120   0.272   2.833
 7969SOL    HW124806   4.176   0.211   2.888
 7969SOL    HW224807   4.168   0.359   2.820
 7970SOL     OW24808   6.760   3.528   2.974
 7970SOL    HW124809   6.734   3.557   2.882
 7970SOL    HW224810   6.706   3.579   3.041
 7971SOL     OW24811   2.558   0.598   1.972
 7971SOL    HW124812   2.509   0.673   2.015
 7971SOL    HW224813   2.656   0.611   1.983
 7972SOL     OW24814   0.090   4.204   1.277
 7972SOL    HW124815   0.123   4.145   1.351
 7972SOL    HW224816   0.037   4.280   1.316
 7973SOL     OW24817   5.153   3.441   3.786
 7973SOL    HW124818   5.212   3.506   3.739
 7973SOL    HW224819   5.159   3.351   3.742
 7974SOL     OW24820   5.389   0.373   4.064
 7974SOL    HW124821   5.395   0.467   4.098
 7974SOL    HW224822   5.300   0.334   4.089
 7975SOL     OW24823   4.104   0.542   4.442
 7975SOL    HW124824   4.176   0.480   4.411
 7975SOL    HW224825   4.133   0.587   4.526
 7976SOL     OW24826   0.701   6.880   5.432
 7976SOL    HW124827   0.688   6.943   5.509
 7976SOL    HW224828   0.668   6.923   5.348
 7977SOL     OW24829   5.244   5.914   2.855
 7977SOL    HW124830   5.276   5.988   2.914
 7977SOL    HW224831   5.158   5.940   2.812
 7978SOL     OW24832   4.443   3.434   6.199
 7978SOL    HW124833   4.509   3.509   6.209
 7978SOL    HW224834   4.433   3.412   6.102
 7979SOL     OW24835   3.303   0.650   4.858
 7979SOL    HW124836   3.346   0.675   4.945
 7979SOL    HW224837   3.253   0.564   4.869
 7980SOL     OW24838   3.526   6.091   0.210
 7980SOL    HW124839   3.489   6.158   0.274
 7980SOL    HW224840   3.564   6.013   0.261
 7981SOL     OW24841   0.840   4.838   2.453
 7981SOL    HW124842   0.814   4.840   2.356
 7981SOL    HW224843   0.828   4.745   2.489
 7982SOL     OW24844   6.520   2.554   0.514
 7982SOL    HW124845   6.458   2.630   0.493
 7982SOL    HW224846   6.509   2.527   0.609
 7983SOL     OW24847   5.101   1.792   2.705
 7983SOL    HW124848   5.033   1.724   2.733
 7983SOL    HW224849   5.079   1.881   2.745
 7984SOL     OW24850   1.080   2.104   1.761
 7984SOL    HW124851   1.177   2.117   1.784
 7984SOL    HW224852   1.026   2.179   1.801
 7985SOL     OW24853   0.953   0.574   2.209
 7985SOL    HW124854   0.891   0.585   2.286
 7985SOL    HW224855   1.048   0.579   2.241
 7986SOL     OW24856   4.271   1.208   6.696
 7986SOL    HW124857   4.248   1.259   6.614
 7986SOL    HW224858   4.253   1.265   6.777
 7987SOL     OW24859   0.407   3.049   5.596
 7987SOL    HW124860   0.464   2.979   5.639
 7987SOL    HW224861   0.372   3.014   5.509
 7988SOL     OW24862   2.901   2.235   4.628
 7988SOL    HW124863   2.868   2.149   4.666
 7988SOL    HW224864   2.855   2.311   4.673
 7989SOL     OW24865   3.737   2.433   5.332
 7989SOL    HW124866   3.637   2.441   5.333
 7989SOL    HW224867   3.763   2.337   5.324
 7990SOL     OW24868   1.022   2.758   4.227
 7990SOL    HW124869   1.096   2.726   4.167
 7990SOL    HW224870   1.054   2.836   4.281
 7991SOL     OW24871   0.388   2.798   5.927
 7991SOL    HW124872   0.404   2.706   5.890
 7991SOL    HW224873   0.296   2.828   5.901
 7992SOL     OW24874   1.466   6.796   1.005
 7992SOL    HW124875   1.460   6.771   1.101
 7992SOL    HW224876   1.434   6.720   0.948
 7993SOL     OW24877   2.034   5.817   6.859
 7993SOL    HW124878   1.976   5.792   6.937
 7993SOL    HW224879   1.979   5.823   6.776
 7994SOL     OW24880   4.658   0.920   4.023
 7994SOL    HW124881   4.615   0.833   4.001
 7994SOL    HW224882   4.588   0.985   4.054
 7995SOL     OW24883   3.992   5.550   3.951
 7995SOL    HW124884   4.086   5.563   3.921
 7995SOL    HW224885   3.990   5.482   4.025
 7996SOL     OW24886   3.267   6.713   4.394
 7996SOL    HW124887   3.321   6.714   4.310
 7996SOL    HW224888   3.234   6.620   4.411
 7997SOL     OW24889   6.382   1.757   1.151
 7997SOL    HW124890   6.451   1.688   1.172
 7997SOL    HW224891   6.328   1.728   1.072
 7998SOL     OW24892   5.109   4.754   0.405
 7998SOL    HW124893   5.059   4.695   0.342
 7998SOL    HW224894   5.202   4.720   0.416
 7999SOL     OW24895   1.051   7.014   5.536
 7999SOL    HW124896   1.059   6.948   5.462
 7999SOL    HW224897   1.142   0.015   5.567
 8000SOL     OW24898   6.069   0.346   6.310
 8000SOL    HW124899   6.004   0.390   6.371
 8000SOL    HW224900   6.061   0.385   6.218
 8001SOL     OW24901   1.901   6.420   1.634
 8001SOL    HW124902   1.830   6.350   1.629
 8001SOL    HW224903   1.984   6.381   1.672
 8002SOL     OW24904   0.160   3.545   4.985
 8002SOL    HW124905   0.214   3.462   4.997
 8002SOL    HW224906   0.208   3.607   4.923
 8003SOL     OW24907   2.906   5.167   2.986
 8003SOL    HW124908   2.827   5.228   2.982
 8003SOL    HW224909   2.918   5.135   3.080
 8004SOL     OW24910   2.322   4.340   3.151
 8004SOL    HW124911   2.321   4.369   3.056
 8004SOL    HW224912   2.412   4.305   3.175
 8005SOL     OW24913   2.718   1.009   2.192
 8005SOL    HW124914   2.633   1.054   2.166
 8005SOL    HW224915   2.780   1.075   2.233
 8006SOL     OW24916   2.639   5.853   0.056
 8006SOL    HW124917   2.677   5.769   0.096
 8006SOL    HW224918   2.713   5.905   0.014
 8007SOL     OW24919   1.054   6.921   3.953
 8007SOL    HW124920   1.101   6.918   3.865
 8007SOL    HW224921   1.073   7.007   3.999
 8008SOL     OW24922   5.585   6.066   6.686
 8008SOL    HW124923   5.487   6.078   6.671
 8008SOL    HW224924   5.635   6.134   6.633
 8009SOL     OW24925   6.853   0.281   3.074
 8009SOL    HW124926   6.854   0.379   3.051
 8009SOL    HW224927   6.832   0.228   2.992
 8010SOL     OW24928   2.614   2.083   6.570
 8010SOL    HW124929   2.673   2.126   6.501
 8010SOL    HW224930   2.524   2.125   6.568
 8011SOL     OW24931   2.757   2.074   0.878
 8011SOL    HW124932   2.722   2.081   0.784
 8011SOL    HW224933   2.686   2.036   0.937
 8012SOL     OW24934   1.494   6.682   1.281
 8012SOL    HW124935   1.458   6.672   1.373
 8012SOL    HW224936   1.581   6.633   1.273
 8013SOL     OW24937   6.073   4.427   4.090
 8013SOL    HW124938   6.130   4.441   4.171
 8013SOL    HW224939   6.132   4.403   4.012
 8014SOL     OW24940   1.890   5.784   6.606
 8014SOL    HW124941   1.879   5.711   6.539
 8014SOL    HW224942   1.917   5.868   6.560
 8015SOL     OW24943   2.873   2.710   0.786
 8015SOL    HW124944   2.958   2.731   0.834
 8015SOL    HW224945   2.832   2.795   0.752
 8016SOL     OW24946   4.602   0.332   0.614
 8016SOL    HW124947   4.530   0.393   0.582
 8016SOL    HW224948   4.651   0.374   0.690
 8017SOL     OW24949   0.337   4.131   5.620
 8017SOL    HW124950   0.282   4.050   5.638
 8017SOL    HW224951   0.316   4.167   5.529
 8018SOL     OW24952   4.958   1.468   5.529
 8018SOL    HW124953   4.977   1.466   5.627
 8018SOL    HW224954   4.874   1.418   5.510
 8019SOL     OW24955   1.705   4.866   0.846
 8019SOL    HW124956   1.620   4.919   0.835
 8019SOL    HW224957   1.783   4.925   0.829
 8020SOL     OW24958   5.745   5.839   6.569
 8020SOL    HW124959   5.692   5.924   6.570
 8020SOL    HW224960   5.782   5.823   6.477
 8021SOL     OW24961   0.767   1.525   1.712
 8021SOL    HW124962   0.848   1.520   1.771
 8021SOL    HW224963   0.784   1.474   1.628
 8022SOL     OW24964   4.570   0.241   3.142
 8022SOL    HW124965   4.668   0.254   3.156
 8022SOL    HW224966   4.554   0.156   3.094
 8023SOL     OW24967   6.487   6.208   3.036
 8023SOL    HW124968   6.457   6.122   2.993
 8023SOL    HW224969   6.454   6.210   3.131
 8024SOL     OW24970   4.112   5.791   6.337
 8024SOL    HW124971   4.046   5.724   6.370
 8024SOL    HW224972   4.187   5.800   6.403
 8025SOL     OW24973   3.532   6.457   6.392
 8025SOL    HW124974   3.484   6.441   6.478
 8025SOL    HW224975   3.469   6.495   6.325
 8026SOL     OW24976   0.811   3.363   6.805
 8026SOL    HW124977   0.881   3.355   6.734
 8026SOL    HW224978   0.832   3.442   6.863
 8027SOL     OW24979   4.765   1.971   4.966
 8027SOL    HW124980   4.746   1.973   4.868
 8027SOL    HW224981   4.731   1.885   5.005
 8028SOL     OW24982   4.544   5.339   6.253
 8028SOL    HW124983   4.630   5.385   6.274
 8028SOL    HW224984   4.548   5.303   6.160
 8029SOL     OW24985   4.698   3.901   6.669
 8029SOL    HW124986   4.685   3.957   6.587
 8029SOL    HW224987   4.653   3.813   6.656
 8030SOL     OW24988   5.429   4.860   5.511
 8030SOL    HW124989   5.495   4.900   5.447
 8030SOL    HW224990   5.379   4.786   5.466
 8031SOL     OW24991   4.954   5.254   2.346
 8031SOL    HW124992   4.904   5.256   2.433
 8031SOL    HW224993   5.037   5.199   2.357
 8032SOL     OW24994   6.366   3.709   5.043
 8032SOL    HW124995   6.417   3.723   4.958
 8032SOL    HW224996   6.278   3.665   5.022
 8033SOL     OW24997   5.341   2.316   0.055
 8033SOL    HW124998   5.259   2.311   7.024
 8033SOL    HW224999   5.349   2.407   0.096
 8034SOL     OW25000   5.738   6.875   5.248
 8034SOL    HW125001   5.745   6.961   5.298
 8034SOL    HW225002   5.642   6.857   5.226
 8035SOL     OW25003   5.850   5.938   5.580
 8035SOL    HW125004   5.851   5.969   5.484
 8035SOL    HW225005   5.943   5.941   5.617
 8036SOL     OW25006   2.243   3.588   1.637
 8036SOL    HW125007   2.177   3.523   1.599
 8036SOL    HW225008   2.250   3.573   1.736
 8037SOL     OW25009   2.206   2.985   1.067
 8037SOL    HW125010   2.250   2.918   1.126
 8037SOL    HW225011   2.195   3.072   1.116
 8038SOL     OW25012   6.300   1.832   3.216
 8038SOL    HW125013   6.339   1.740   3.218
 8038SOL    HW225014   6.369   1.897   3.185
 8039SOL     OW25015   2.198   6.935   2.907
 8039SOL    HW125016   2.217   6.838   2.924
 8039SOL    HW225017   2.209   6.954   2.809
 8040SOL     OW25018   0.369   5.783   1.170
 8040SOL    HW125019   0.369   5.880   1.148
 8040SOL    HW225020   0.445   5.763   1.232
 8041SOL     OW25021   3.557   1.132   1.287
 8041SOL    HW125022   3.603   1.167   1.368
 8041SOL    HW225023   3.544   1.034   1.296
 8042SOL     OW25024   3.733   2.943   1.937
 8042SOL    HW125025   3.809   2.994   1.896
 8042SOL    HW225026   3.731   2.960   2.035
 8043SOL     OW25027   2.639   0.728   0.826
 8043SOL    HW125028   2.677   0.649   0.778
 8043SOL    HW225029   2.543   0.712   0.847
 8044SOL     OW25030   3.120   2.926   1.453
 8044SOL    HW125031   3.078   2.906   1.541
 8044SOL    HW225032   3.215   2.895   1.453
 8045SOL     OW25033   5.906   1.489   2.735
 8045SOL    HW125034   5.917   1.589   2.741
 8045SOL    HW225035   5.969   1.453   2.667
 8046SOL     OW25036   5.316   4.620   5.420
 8046SOL    HW125037   5.217   4.639   5.418
 8046SOL    HW225038   5.331   4.527   5.453
 8047SOL     OW25039   3.000   5.824   4.625
 8047SOL    HW125040   3.084   5.816   4.679
 8047SOL    HW225041   2.992   5.746   4.563
 8048SOL     OW25042   5.953   0.747   5.632
 8048SOL    HW125043   5.967   0.652   5.660
 8048SOL    HW225044   5.871   0.783   5.677
 8049SOL     OW25045   0.586   0.226   0.995
 8049SOL    HW125046   0.557   0.297   1.060
 8049SOL    HW225047   0.651   0.164   1.041
 8050SOL     OW25048   1.508   3.190   1.143
 8050SOL    HW125049   1.606   3.173   1.137
 8050SOL    HW225050   1.488   3.241   1.227
 8051SOL     OW25051   4.707   0.583   3.005
 8051SOL    HW125052   4.608   0.577   3.016
 8051SOL    HW225053   4.750   0.507   3.055
 8052SOL     OW25054   3.222   1.662   2.204
 8052SOL    HW125055   3.155   1.646   2.131
 8052SOL    HW225056   3.181   1.642   2.292
 8053SOL     OW25057   3.961   3.740   3.151
 8053SOL    HW125058   3.861   3.748   3.158
 8053SOL    HW225059   3.985   3.697   3.064
 8054SOL     OW25060   4.524   6.448   4.778
 8054SOL    HW125061   4.580   6.390   4.719
 8054SOL    HW225062   4.555   6.440   4.873
 8055SOL     OW25063   0.559   6.997   5.910
 8055SOL    HW125064   0.616   6.946   5.975
 8055SOL    HW225065   0.549   0.065   5.941
 8056SOL     OW25066   4.576   1.740   3.013
 8056SOL    HW125067   4.481   1.712   3.002
 8056SOL    HW225068   4.580   1.834   3.047
 8057SOL     OW25069   2.932   0.475   2.663
 8057SOL    HW125070   2.835   0.474   2.636
 8057SOL    HW225071   2.986   0.429   2.593
 8058SOL     OW25072   2.733   0.126   2.598
 8058SOL    HW125073   2.655   0.187   2.583
 8058SOL    HW225074   2.787   0.120   2.514
 8059SOL     OW25075   3.795   2.139   4.611
 8059SOL    HW125076   3.768   2.134   4.514
 8059SOL    HW225077   3.888   2.176   4.617
 8060SOL     OW25078   0.146   1.269   4.350
 8060SOL    HW125079   0.219   1.278   4.419
 8060SOL    HW225080   0.101   1.357   4.338
 8061SOL     OW25081   6.695   5.546   3.007
 8061SOL    HW125082   6.742   5.633   3.017
 8061SOL    HW225083   6.604   5.562   2.969
 8062SOL     OW25084   1.459   4.198   4.607
 8062SOL    HW125085   1.456   4.196   4.507
 8062SOL    HW225086   1.460   4.105   4.642
 8063SOL     OW25087   2.645   3.705   6.861
 8063SOL    HW125088   2.677   3.736   6.950
 8063SOL    HW225089   2.722   3.697   6.798
 8064SOL     OW25090   0.246   4.016   0.114
 8064SOL    HW125091   0.283   4.031   0.022
 8064SOL    HW225092   0.226   4.105   0.157
 8065SOL     OW25093   4.332   6.831   4.654
 8065SOL    HW125094   4.246   6.869   4.618
 8065SOL    HW225095   4.327   6.731   4.651
 8066SOL     OW25096   1.896   1.296   0.090
 8066SOL    HW125097   1.989   1.270   0.066
 8066SOL    HW225098   1.895   1.334   0.183
 8067SOL     OW25099   4.201   2.941   1.690
 8067SOL    HW125100   4.160   2.921   1.601
 8067SOL    HW225101   4.296   2.910   1.690
 8068SOL     OW25102   6.974   5.082   4.870
 8068SOL    HW125103   0.037   5.039   4.886
 8068SOL    HW225104   6.985   5.163   4.813
 8069SOL     OW25105   2.032   6.328   1.383
 8069SOL    HW125106   2.036   6.233   1.414
 8069SOL    HW225107   1.990   6.385   1.454
 8070SOL     OW25108   3.353   6.044   1.771
 8070SOL    HW125109   3.289   5.975   1.805
 8070SOL    HW225110   3.302   6.119   1.730
 8071SOL     OW25111   4.237   6.428   5.284
 8071SOL    HW125112   4.203   6.336   5.263
 8071SOL    HW225113   4.334   6.424   5.309
 8072SOL     OW25114   4.662   1.337   0.576
 8072SOL    HW125115   4.591   1.285   0.623
 8072SOL    HW225116   4.640   1.435   0.578
 8073SOL     OW25117   4.808   6.789   5.941
 8073SOL    HW125118   4.749   6.870   5.933
 8073SOL    HW225119   4.844   6.783   6.034
 8074SOL     OW25120   3.156   3.440   0.802
 8074SOL    HW125121   3.222   3.508   0.833
 8074SOL    HW225122   3.073   3.485   0.770
 8075SOL     OW25123   6.682   1.301   1.810
 8075SOL    HW125124   6.727   1.373   1.863
 8075SOL    HW225125   6.736   1.217   1.815
 8076SOL     OW25126   5.418   2.335   5.254
 8076SOL    HW125127   5.396   2.374   5.344
 8076SOL    HW225128   5.490   2.390   5.211
 8077SOL     OW25129   1.282   0.007   1.595
 8077SOL    HW125130   1.291   7.023   1.496
 8077SOL    HW225131   1.334   6.960   1.640
 8078SOL     OW25132   6.836   2.003   0.680
 8078SOL    HW125133   6.931   2.018   0.708
 8078SOL    HW225134   6.813   1.906   0.690
 8079SOL     OW25135   6.689   2.102   2.998
 8079SOL    HW125136   6.762   2.051   3.044
 8079SOL    HW225137   6.715   2.198   2.990
 8080SOL     OW25138   2.465   3.927   0.649
 8080SOL    HW125139   2.479   3.906   0.553
 8080SOL    HW225140   2.379   3.885   0.681
 8081SOL     OW25141   5.720   0.806   5.295
 8081SOL    HW125142   5.669   0.816   5.380
 8081SOL    HW225143   5.818   0.811   5.314
 8082SOL     OW25144   6.214   2.306   3.486
 8082SOL    HW125145   6.255   2.231   3.433
 8082SOL    HW225146   6.123   2.325   3.450
 8083SOL     OW25147   5.040   2.956   2.635
 8083SOL    HW125148   4.989   2.882   2.680
 8083SOL    HW225149   5.043   2.939   2.537
 8084SOL     OW25150   6.407   6.127   1.693
 8084SOL    HW125151   6.398   6.144   1.791
 8084SOL    HW225152   6.493   6.167   1.661
 8085SOL     OW25153   5.280   0.198   1.146
 8085SOL    HW125154   5.243   0.158   1.230
 8085SOL    HW225155   5.246   0.292   1.136
 8086SOL     OW25156   4.312   0.332   4.459
 8086SOL    HW125157   4.363   0.411   4.493
 8086SOL    HW225158   4.375   0.255   4.448
 8087SOL     OW25159   2.706   2.340   0.864
 8087SOL    HW125160   2.725   2.358   0.767
 8087SOL    HW225161   2.706   2.241   0.880
 8088SOL     OW25162   5.896   1.067   2.281
 8088SOL    HW125163   5.901   1.063   2.181
 8088SOL    HW225164   5.802   1.084   2.310
 8089SOL     OW25165   5.057   3.024   0.525
 8089SOL    HW125166   5.120   2.947   0.513
 8089SOL    HW225167   4.963   2.988   0.530
 8090SOL     OW25168   5.403   1.587   6.533
 8090SOL    HW125169   5.333   1.651   6.566
 8090SOL    HW225170   5.480   1.638   6.494
 8091SOL     OW25171   3.345   4.509   6.861
 8091SOL    HW125172   3.424   4.558   6.824
 8091SOL    HW225173   3.261   4.548   6.824
 8092SOL     OW25174   1.380   1.723   4.974
 8092SOL    HW125175   1.291   1.688   5.004
 8092SOL    HW225176   1.446   1.714   5.049
 8093SOL     OW25177   5.494   5.403   1.627
 8093SOL    HW125178   5.451   5.360   1.548
 8093SOL    HW225179   5.548   5.336   1.677
 8094SOL     OW25180   1.350   4.426   6.641
 8094SOL    HW125181   1.267   4.478   6.621
 8094SOL    HW225182   1.408   4.480   6.702
 8095SOL     OW25183   5.999   3.449   4.156
 8095SOL    HW125184   6.080   3.410   4.201
 8095SOL    HW225185   5.975   3.393   4.078
 8096SOL     OW25186   3.085   5.542   2.400
 8096SOL    HW125187   3.029   5.508   2.324
 8096SOL    HW225188   3.171   5.579   2.364
 8097SOL     OW25189   5.287   0.287   3.241
 8097SOL    HW125190   5.379   0.249   3.231
 8097SOL    HW225191   5.285   0.380   3.205
 8098SOL     OW25192   2.433   5.819   4.002
 8098SOL    HW125193   2.468   5.806   4.094
 8098SOL    HW225194   2.334   5.830   4.005
 8099SOL     OW25195   5.250   0.182   4.562
 8099SOL    HW125196   5.291   0.195   4.652
 8099SOL    HW225197   5.321   0.179   4.492
 8100SOL     OW25198   6.812   6.770   0.262
 8100SOL    HW125199   6.790   6.673   0.258
 8100SOL    HW225200   6.755   6.815   0.331
 8101SOL     OW25201   1.554   0.353   4.655
 8101SOL    HW125202   1.485   0.323   4.590
 8101SOL    HW225203   1.552   0.295   4.736
 8102SOL     OW25204   0.443   4.979   6.035
 8102SOL    HW125205   0.387   4.927   6.099
 8102SOL    HW225206   0.436   5.077   6.056
 8103SOL     OW25207   3.726   1.323   2.103
 8103SOL    HW125208   3.800   1.315   2.035
 8103SOL    HW225209   3.662   1.394   2.074
 8104SOL     OW25210   3.215   6.673   5.595
 8104SOL    HW125211   3.299   6.625   5.567
 8104SOL    HW225212   3.173   6.716   5.515
 8105SOL     OW25213   2.806   2.260   3.851
 8105SOL    HW125214   2.726   2.253   3.791
 8105SOL    HW225215   2.887   2.225   3.804
 8106SOL     OW25216   1.449   3.961   3.132
 8106SOL    HW125217   1.408   3.951   3.041
 8106SOL    HW225218   1.377   3.970   3.201
 8107SOL     OW25219   1.936   6.425   5.808
 8107SOL    HW125220   2.026   6.464   5.823
 8107SOL    HW225221   1.909   6.439   5.712
 8108SOL     OW25222   0.110   3.734   4.494
 8108SOL    HW125223   0.030   3.680   4.522
 8108SOL    HW225224   0.151   3.777   4.574
 8109SOL     OW25225   2.075   4.302   5.436
 8109SOL    HW125226   2.065   4.203   5.447
 8109SOL    HW225227   2.020   4.333   5.358
 8110SOL     OW25228   2.135   6.968   0.610
 8110SOL    HW125229   2.174   6.996   0.522
 8110SOL    HW225230   2.062   0.005   0.636
 8111SOL     OW25231   2.777   6.124   4.790
 8111SOL    HW125232   2.866   6.119   4.744
 8111SOL    HW225233   2.778   6.062   4.869
 8112SOL     OW25234   3.248   0.541   5.548
 8112SOL    HW125235   3.197   0.531   5.462
 8112SOL    HW225236   3.203   0.486   5.619
 8113SOL     OW25237   3.417   2.225   0.265
 8113SOL    HW125238   3.515   2.237   0.245
 8113SOL    HW225239   3.397   2.260   0.356
 8114SOL     OW25240   2.152   3.079   2.413
 8114SOL    HW125241   2.200   2.992   2.415
 8114SOL    HW225242   2.109   3.092   2.324
 8115SOL     OW25243   3.129   1.456   1.616
 8115SOL    HW125244   3.041   1.484   1.576
 8115SOL    HW225245   3.203   1.505   1.570
 8116SOL     OW25246   6.131   6.739   5.500
 8116SOL    HW125247   6.112   6.793   5.418
 8116SOL    HW225248   6.087   6.782   5.578
 8117SOL     OW25249   1.258   1.763   4.100
 8117SOL    HW125250   1.283   1.681   4.049
 8117SOL    HW225251   1.191   1.740   4.171
 8118SOL     OW25252   1.298   4.193   5.531
 8118SOL    HW125253   1.391   4.229   5.535
 8118SOL    HW225254   1.246   4.226   5.609
 8119SOL     OW25255   0.464   5.406   3.741
 8119SOL    HW125256   0.435   5.310   3.746
 8119SOL    HW225257   0.455   5.448   3.832
 8120SOL     OW25258   4.257   4.542   0.462
 8120SOL    HW125259   4.316   4.506   0.534
 8120SOL    HW225260   4.179   4.588   0.504
 8121SOL     OW25261   0.156   7.021   2.802
 8121SOL    HW125262   0.209   0.018   2.884
 8121SOL    HW225263   0.128   0.079   2.756
 8122SOL     OW25264   0.556   6.048   1.668
 8122SOL    HW125265   0.487   5.979   1.646
 8122SOL    HW225266   0.516   6.139   1.659
 8123SOL     OW25267   0.894   6.839   6.334
 8123SOL    HW125268   0.849   6.803   6.416
 8123SOL    HW225269   0.919   6.762   6.274
 8124SOL     OW25270   1.420   5.518   1.158
 8124SOL    HW125271   1.471   5.603   1.143
 8124SOL    HW225272   1.443   5.481   1.248
 8125SOL     OW25273   6.224   4.359   2.726
 8125SOL    HW125274   6.187   4.411   2.649
 8125SOL    HW225275   6.257   4.422   2.796
 8126SOL     OW25276   5.975   4.291   3.033
 8126SOL    HW125277   5.965   4.295   2.933
 8126SOL    HW225278   6.027   4.209   3.057
 8127SOL     OW25279   2.334   5.064   0.560
 8127SOL    HW125280   2.291   5.092   0.474
 8127SOL    HW225281   2.278   5.097   0.636
 8128SOL     OW25282   3.265   2.709   6.194
 8128SOL    HW125283   3.307   2.739   6.109
 8128SOL    HW225284   3.197   2.776   6.224
 8129SOL     OW25285   5.297   0.615   6.543
 8129SOL    HW125286   5.333   0.691   6.490
 8129SOL    HW225287   5.372   0.557   6.574
 8130SOL     OW25288   1.016   5.336   6.596
 8130SOL    HW125289   0.939   5.272   6.596
 8130SOL    HW225290   1.012   5.394   6.515
 8131SOL     OW25291   3.490   0.273   0.361
 8131SOL    HW125292   3.475   0.306   0.267
 8131SOL    HW225293   3.501   0.351   0.422
 8132SOL     OW25294   5.999   5.229   4.439
 8132SOL    HW125295   5.985   5.223   4.341
 8132SOL    HW225296   6.021   5.138   4.475
 8133SOL     OW25297   2.701   5.231   3.275
 8133SOL    HW125298   2.611   5.263   3.305
 8133SOL    HW225299   2.772   5.292   3.311
 8134SOL     OW25300   2.293   2.550   4.226
 8134SOL    HW125301   2.310   2.528   4.130
 8134SOL    HW225302   2.252   2.470   4.272
 8135SOL     OW25303   3.573   5.252   2.316
 8135SOL    HW125304   3.596   5.174   2.375
 8135SOL    HW225305   3.493   5.229   2.260
 8136SOL     OW25306   4.012   5.543   2.321
 8136SOL    HW125307   3.990   5.586   2.409
 8136SOL    HW225308   3.982   5.448   2.323
 8137SOL     OW25309   1.906   3.604   5.297
 8137SOL    HW125310   1.987   3.603   5.238
 8137SOL    HW225311   1.823   3.606   5.240
 8138SOL     OW25312   5.473   1.786   2.071
 8138SOL    HW125313   5.554   1.766   2.016
 8138SOL    HW225314   5.392   1.780   2.013
 8139SOL     OW25315   1.128   2.864   3.337
 8139SOL    HW125316   1.030   2.853   3.319
 8139SOL    HW225317   1.145   2.953   3.378
 8140SOL     OW25318   4.552   0.322   0.162
 8140SOL    HW125319   4.546   0.403   0.220
 8140SOL    HW225320   4.464   0.308   0.116
 8141SOL     OW25321   4.872   0.964   6.105
 8141SOL    HW125322   4.831   0.919   6.185
 8141SOL    HW225323   4.971   0.966   6.115
 8142SOL     OW25324   1.933   6.099   0.204
 8142SOL    HW125325   1.896   6.010   0.231
 8142SOL    HW225326   1.880   6.172   0.248
 8143SOL     OW25327   5.152   4.169   0.537
 8143SOL    HW125328   5.121   4.146   0.445
 8143SOL    HW225329   5.073   4.194   0.593
 8144SOL     OW25330   0.522   5.249   6.076
 8144SOL    HW125331   0.522   5.293   6.166
 8144SOL    HW225332   0.552   5.315   6.007
 8145SOL     OW25333   5.868   5.575   0.332
 8145SOL    HW125334   5.914   5.533   0.410
 8145SOL    HW225335   5.932   5.581   0.255
 8146SOL     OW25336   5.871   0.181   4.297
 8146SOL    HW125337   5.968   0.192   4.318
 8146SOL    HW225338   5.817   0.237   4.361
 8147SOL     OW25339   1.133   0.633   6.043
 8147SOL    HW125340   1.223   0.636   5.999
 8147SOL    HW225341   1.145   0.625   6.142
 8148SOL     OW25342   3.991   4.304   6.332
 8148SOL    HW125343   3.953   4.295   6.240
 8148SOL    HW225344   3.926   4.267   6.399
 8149SOL     OW25345   1.062   0.088   4.569
 8149SOL    HW125346   1.111   0.003   4.554
 8149SOL    HW225347   1.089   0.129   4.656
 8150SOL     OW25348   0.989   3.337   1.048
 8150SOL    HW125349   1.071   3.282   1.065
 8150SOL    HW225350   0.923   3.283   0.997
 8151SOL     OW25351   5.958   4.520   3.760
 8151SOL    HW125352   6.011   4.563   3.833
 8151SOL    HW225353   5.973   4.571   3.675
 8152SOL     OW25354   4.442   1.790   3.542
 8152SOL    HW125355   4.422   1.775   3.445
 8152SOL    HW225356   4.514   1.859   3.550
 8153SOL     OW25357   0.493   1.327   3.795
 8153SOL    HW125358   0.560   1.287   3.733
 8153SOL    HW225359   0.495   1.278   3.882
 8154SOL     OW25360   2.316   1.754   3.400
 8154SOL    HW125361   2.247   1.692   3.437
 8154SOL    HW225362   2.275   1.813   3.330
 8155SOL     OW25363   1.483   4.315   2.142
 8155SOL    HW125364   1.457   4.224   2.173
 8155SOL    HW225365   1.442   4.384   2.202
 8156SOL     OW25366   6.232   5.247   1.160
 8156SOL    HW125367   6.132   5.255   1.153
 8156SOL    HW225368   6.257   5.150   1.166
 8157SOL     OW25369   6.311   2.685   6.295
 8157SOL    HW125370   6.287   2.708   6.200
 8157SOL    HW225371   6.358   2.762   6.337
 8158SOL     OW25372   5.990   4.656   5.965
 8158SOL    HW125373   6.054   4.609   5.905
 8158SOL    HW225374   5.965   4.745   5.926
 8159SOL     OW25375   3.778   5.882   5.931
 8159SOL    HW125376   3.684   5.871   5.898
 8159SOL    HW225377   3.782   5.956   5.997
 8160SOL     OW25378   5.479   1.833   2.961
 8160SOL    HW125379   5.567   1.829   3.010
 8160SOL    HW225380   5.478   1.913   2.901
 8161SOL     OW25381   5.739   3.210   0.322
 8161SOL    HW125382   5.693   3.298   0.328
 8161SOL    HW225383   5.727   3.172   0.231
 8162SOL     OW25384   0.342   5.047   6.667
 8162SOL    HW125385   0.275   5.120   6.654
 8162SOL    HW225386   0.366   5.008   6.578
 8163SOL     OW25387   4.451   4.534   5.427
 8163SOL    HW125388   4.521   4.473   5.390
 8163SOL    HW225389   4.419   4.499   5.515
 8164SOL     OW25390   5.617   0.680   6.968
 8164SOL    HW125391   5.682   0.714   6.900
 8164SOL    HW225392   5.524   0.683   6.931
 8165SOL     OW25393   6.361   2.466   6.152
 8165SOL    HW125394   6.346   2.550   6.204
 8165SOL    HW225395   6.342   2.483   6.055
 8166SOL     OW25396   1.408   2.038   4.361
 8166SOL    HW125397   1.488   2.059   4.305
 8166SOL    HW225398   1.390   1.940   4.359
 8167SOL     OW25399   6.444   1.256   4.095
 8167SOL    HW125400   6.364   1.197   4.085
 8167SOL    HW225401   6.489   1.267   4.007
 8168SOL     OW25402   2.397   0.773   1.100
 8168SOL    HW125403   2.415   0.720   1.017
 8168SOL    HW225404   2.326   0.841   1.082
 8169SOL     OW25405   5.129   2.401   0.806
 8169SOL    HW125406   5.171   2.311   0.819
 8169SOL    HW225407   5.036   2.401   0.845
 8170SOL     OW25408   6.536   4.136   2.147
 8170SOL    HW125409   6.595   4.068   2.192
 8170SOL    HW225410   6.513   4.104   2.055
 8171SOL     OW25411   1.667   1.470   7.017
 8171SOL    HW125412   1.707   1.388   0.032
 8171SOL    HW225413   1.571   1.452   6.995
 8172SOL     OW25414   0.843   2.336   1.776
 8172SOL    HW125415   0.882   2.338   1.868
 8172SOL    HW225416   0.774   2.408   1.768
 8173SOL     OW25417   5.521   2.064   2.203
 8173SOL    HW125418   5.502   1.975   2.244
 8173SOL    HW225419   5.590   2.053   2.131
 8174SOL     OW25420   1.408   5.946   2.848
 8174SOL    HW125421   1.486   5.907   2.799
 8174SOL    HW225422   1.345   5.989   2.783
 8175SOL     OW25423   1.281   2.494   4.252
 8175SOL    HW125424   1.190   2.479   4.213
 8175SOL    HW225425   1.281   2.577   4.307
 8176SOL     OW25426   1.754   4.491   1.506
 8176SOL    HW125427   1.782   4.439   1.588
 8176SOL    HW225428   1.668   4.455   1.472
 8177SOL     OW25429   3.411   1.275   2.887
 8177SOL    HW125430   3.434   1.299   2.793
 8177SOL    HW225431   3.391   1.178   2.893
 8178SOL     OW25432   2.553   6.766   0.701
 8178SOL    HW125433   2.539   6.768   0.800
 8178SOL    HW225434   2.649   6.748   0.681
 8179SOL     OW25435   5.314   0.929   3.902
 8179SOL    HW125436   5.252   0.856   3.871
 8179SOL    HW225437   5.317   0.930   4.002
 8180SOL     OW25438   5.782   6.480   6.839
 8180SOL    HW125439   5.798   6.552   6.771
 8180SOL    HW225440   5.687   6.450   6.834
 8181SOL     OW25441   1.062   0.819   1.109
 8181SOL    HW125442   1.114   0.899   1.079
 8181SOL    HW225443   0.973   0.848   1.144
 8182SOL     OW25444   3.085   3.625   4.923
 8182SOL    HW125445   3.014   3.556   4.908
 8182SOL    HW225446   3.048   3.716   4.904
 8183SOL     OW25447   6.479   0.784   4.816
 8183SOL    HW125448   6.560   0.762   4.872
 8183SOL    HW225449   6.416   0.839   4.870
 8184SOL     OW25450   0.772   6.793   6.794
 8184SOL    HW125451   0.708   6.860   6.832
 8184SOL    HW225452   0.847   6.779   6.857
 8185SOL     OW25453   1.063   0.280   0.569
 8185SOL    HW125454   0.990   0.332   0.611
 8185SOL    HW225455   1.148   0.333   0.571
 8186SOL     OW25456   1.548   5.400   6.729
 8186SOL    HW125457   1.453   5.368   6.728
 8186SOL    HW225458   1.606   5.330   6.770
 8187SOL     OW25459   1.844   1.679   5.266
 8187SOL    HW125460   1.910   1.613   5.302
 8187SOL    HW225461   1.892   1.762   5.238
 8188SOL     OW25462   4.028   2.021   3.901
 8188SOL    HW125463   3.987   2.073   3.826
 8188SOL    HW225464   3.959   1.960   3.940
 8189SOL     OW25465   4.630   4.596   3.801
 8189SOL    HW125466   4.719   4.636   3.825
 8189SOL    HW225467   4.584   4.655   3.734
 8190SOL     OW25468   5.478   3.594   3.032
 8190SOL    HW125469   5.411   3.644   2.979
 8190SOL    HW225470   5.569   3.605   2.991
 8191SOL     OW25471   4.369   4.849   1.797
 8191SOL    HW125472   4.318   4.764   1.808
 8191SOL    HW225473   4.465   4.834   1.819
 8192SOL     OW25474   1.796   5.024   3.526
 8192SOL    HW125475   1.780   5.021   3.427
 8192SOL    HW225476   1.708   5.033   3.573
 8193SOL     OW25477   7.021   5.367   4.811
 8193SOL    HW125478   0.020   5.357   4.715
 8193SOL    HW225479   6.948   5.435   4.819
 8194SOL     OW25480   4.265   6.988   1.293
 8194SOL    HW125481   4.284   0.059   1.276
 8194SOL    HW225482   4.172   6.979   1.330
 8195SOL     OW25483   5.948   6.599   3.694
 8195SOL    HW125484   5.894   6.526   3.652
 8195SOL    HW225485   6.024   6.559   3.745
 8196SOL     OW25486   5.012   1.228   0.248
 8196SOL    HW125487   4.994   1.148   0.191
 8196SOL    HW225488   5.076   1.202   0.321
 8197SOL     OW25489   4.522   1.554   1.224
 8197SOL    HW125490   4.622   1.552   1.229
 8197SOL    HW225491   4.491   1.650   1.225
 8198SOL     OW25492   2.661   0.422   1.694
 8198SOL    HW125493   2.668   0.331   1.733
 8198SOL    HW225494   2.678   0.491   1.765
 8199SOL     OW25495   5.137   2.741   5.862
 8199SOL    HW125496   5.119   2.839   5.856
 8199SOL    HW225497   5.050   2.691   5.855
 8200SOL     OW25498   5.520   4.150   1.310
 8200SOL    HW125499   5.514   4.249   1.298
 8200SOL    HW225500   5.428   4.112   1.318
 8201SOL     OW25501   0.607   0.810   5.373
 8201SOL    HW125502   0.558   0.763   5.446
 8201SOL    HW225503   0.582   0.906   5.372
 8202SOL     OW25504   0.022   6.358   2.059
 8202SOL    HW125505   6.950   6.355   2.080
 8202SOL    HW225506   0.048   6.275   2.011
 8203SOL     OW25507   1.716   2.759   0.096
 8203SOL    HW125508   1.706   2.701   0.176
 8203SOL    HW225509   1.682   2.711   0.015
 8204SOL     OW25510   4.672   3.541   0.715
 8204SOL    HW125511   4.591   3.493   0.683
 8204SOL    HW225512   4.658   3.572   0.809
 8205SOL     OW25513   0.770   2.797   0.449
 8205SOL    HW125514   0.801   2.889   0.428
 8205SOL    HW225515   0.690   2.801   0.509
 8206SOL     OW25516   4.413   1.315   0.001
 8206SOL    HW125517   4.370   1.226   0.009
 8206SOL    HW225518   4.343   1.386   0.004
 8207SOL     OW25519   3.505   3.045   4.315
 8207SOL    HW125520   3.539   3.137   4.331
 8207SOL    HW225521   3.555   3.004   4.239
 8208SOL     OW25522   0.969   1.019   6.994
 8208SOL    HW125523   0.942   1.057   0.057
 8208SOL    HW225524   0.924   1.070   6.921
 8209SOL     OW25525   0.274   0.775   5.165
 8209SOL    HW125526   0.299   0.766   5.261
 8209SOL    HW225527   0.356   0.770   5.109
 8210SOL     OW25528   1.890   2.929   0.013
 8210SOL    HW125529   1.833   2.993   6.988
 8210SOL    HW225530   1.832   2.867   0.066
 8211SOL     OW25531   3.573   4.013   1.387
 8211SOL    HW125532   3.623   4.097   1.367
 8211SOL    HW225533   3.475   4.029   1.379
 8212SOL     OW25534   1.585   2.408   3.219
 8212SOL    HW125535   1.619   2.330   3.167
 8212SOL    HW225536   1.511   2.453   3.168
 8213SOL     OW25537   0.416   5.097   2.195
 8213SOL    HW125538   0.370   5.016   2.159
 8213SOL    HW225539   0.515   5.083   2.194
 8214SOL     OW25540   5.675   4.783   3.277
 8214SOL    HW125541   5.666   4.776   3.177
 8214SOL    HW225542   5.598   4.833   3.314
 8215SOL     OW25543   3.437   5.300   4.644
 8215SOL    HW125544   3.465   5.313   4.739
 8215SOL    HW225545   3.405   5.206   4.631
 8216SOL     OW25546   5.241   5.373   4.160
 8216SOL    HW125547   5.235   5.382   4.061
 8216SOL    HW225548   5.260   5.277   4.184
 8217SOL     OW25549   1.889   5.060   0.777
 8217SOL    HW125550   1.914   5.069   0.873
 8217SOL    HW225551   1.818   5.126   0.755
 8218SOL     OW25552   0.581   2.120   0.099
 8218SOL    HW125553   0.571   2.219   0.091
 8218SOL    HW225554   0.538   2.089   0.184
 8219SOL     OW25555   4.667   2.378   0.989
 8219SOL    HW125556   4.616   2.396   0.905
 8219SOL    HW225557   4.764   2.394   0.974
 8220SOL     OW25558   3.899   3.275   2.875
 8220SOL    HW125559   3.928   3.185   2.845
 8220SOL    HW225560   3.844   3.267   2.959
 8221SOL     OW25561   4.629   5.919   4.329
 8221SOL    HW125562   4.715   5.888   4.370
 8221SOL    HW225563   4.648   5.989   4.261
 8222SOL     OW25564   5.216   1.651   2.196
 8222SOL    HW125565   5.137   1.669   2.254
 8222SOL    HW225566   5.206   1.700   2.109
 8223SOL     OW25567   0.346   4.483   5.718
 8223SOL    HW125568   0.422   4.462   5.780
 8223SOL    HW225569   0.382   4.506   5.628
 8224SOL     OW25570   1.268   2.628   3.336
 8224SOL    HW125571   1.310   2.592   3.253
 8224SOL    HW225572   1.212   2.708   3.313
 8225SOL     OW25573   4.707   0.948   0.068
 8225SOL    HW125574   4.788   0.974   0.122
 8225SOL    HW225575   4.625   0.986   0.111
 8226SOL     OW25576   5.319   0.144   1.720
 8226SOL    HW125577   5.377   0.225   1.729
 8226SOL    HW225578   5.363   0.066   1.764
 8227SOL     OW25579   0.312   2.432   3.998
 8227SOL    HW125580   0.351   2.344   4.022
 8227SOL    HW225581   0.278   2.478   4.080
 8228SOL     OW25582   0.192   2.761   5.539
 8228SOL    HW125583   0.112   2.748   5.598
 8228SOL    HW225584   0.175   2.836   5.476
 8229SOL     OW25585   3.266   5.230   0.453
 8229SOL    HW125586   3.168   5.219   0.472
 8229SOL    HW225587   3.293   5.324   0.472
 8230SOL     OW25588   5.285   6.799   5.473
 8230SOL    HW125589   5.323   6.879   5.521
 8230SOL    HW225590   5.212   6.758   5.528
 8231SOL     OW25591   4.415   5.876   1.711
 8231SOL    HW125592   4.429   5.830   1.798
 8231SOL    HW225593   4.345   5.828   1.658
 8232SOL     OW25594   4.442   1.587   0.423
 8232SOL    HW125595   4.381   1.662   0.400
 8232SOL    HW225596   4.494   1.610   0.506
 8233SOL     OW25597   0.755   5.474   6.232
 8233SOL    HW125598   0.749   5.397   6.169
 8233SOL    HW225599   0.839   5.465   6.286
 8234SOL     OW25600   2.636   2.946   0.124
 8234SOL    HW125601   2.588   2.979   0.206
 8234SOL    HW225602   2.604   2.998   0.045
 8235SOL     OW25603   2.334   2.930   0.606
 8235SOL    HW125604   2.268   2.985   0.554
 8235SOL    HW225605   2.353   2.975   0.693
 8236SOL     OW25606   6.837   3.767   6.806
 8236SOL    HW125607   6.781   3.744   6.726
 8236SOL    HW225608   6.908   3.832   6.780
 8237SOL     OW25609   4.952   6.302   4.613
 8237SOL    HW125610   5.015   6.271   4.542
 8237SOL    HW225611   5.003   6.314   4.699
 8238SOL     OW25612   1.702   4.128   0.470
 8238SOL    HW125613   1.654   4.069   0.534
 8238SOL    HW225614   1.672   4.110   0.377
 8239SOL     OW25615   6.205   2.057   5.878
 8239SOL    HW125616   6.118   2.014   5.903
 8239SOL    HW225617   6.273   1.987   5.859
 8240SOL     OW25618   3.824   3.649   2.553
 8240SOL    HW125619   3.910   3.670   2.506
 8240SOL    HW225620   3.839   3.578   2.622
 8241SOL     OW25621   3.063   6.595   0.510
 8241SOL    HW125622   3.075   6.643   0.423
 8241SOL    HW225623   3.145   6.605   0.566
 8242SOL     OW25624   1.192   4.542   5.878
 8242SOL    HW125625   1.117   4.500   5.929
 8242SOL    HW225626   1.181   4.523   5.780
 8243SOL     OW25627   0.630   3.231   6.613
 8243SOL    HW125628   0.531   3.245   6.611
 8243SOL    HW225629   0.668   3.273   6.696
 8244SOL     OW25630   0.898   6.740   3.666
 8244SOL    HW125631   0.993   6.770   3.673
 8244SOL    HW225632   0.837   6.820   3.673
 8245SOL     OW25633   3.926   1.421   2.625
 8245SOL    HW125634   3.828   1.437   2.631
 8245SOL    HW225635   3.945   1.354   2.553
 8246SOL     OW25636   6.672   4.325   5.844
 8246SOL    HW125637   6.721   4.390   5.901
 8246SOL    HW225638   6.597   4.371   5.796
 8247SOL     OW25639   0.862   1.546   1.211
 8247SOL    HW125640   0.915   1.499   1.141
 8247SOL    HW225641   0.922   1.605   1.265
 8248SOL     OW25642   6.315   4.750   3.650
 8248SOL    HW125643   6.282   4.841   3.626
 8248SOL    HW225644   6.300   4.733   3.747
 8249SOL     OW25645   1.814   4.184   4.633
 8249SOL    HW125646   1.833   4.116   4.563
 8249SOL    HW225647   1.856   4.272   4.607
 8250SOL     OW25648   3.425   4.054   2.738
 8250SOL    HW125649   3.396   4.003   2.657
 8250SOL    HW225650   3.345   4.079   2.793
 8251SOL     OW25651   5.806   2.386   4.942
 8251SOL    HW125652   5.754   2.323   4.886
 8251SOL    HW225653   5.754   2.471   4.955
 8252SOL     OW25654   2.948   3.504   6.901
 8252SOL    HW125655   2.917   3.562   6.826
 8252SOL    HW225656   2.870   3.462   6.946
 8253SOL     OW25657   3.608   3.112   5.303
 8253SOL    HW125658   3.664   3.151   5.229
 8253SOL    HW225659   3.586   3.184   5.369
 8254SOL     OW25660   4.305   4.799   4.548
 8254SOL    HW125661   4.367   4.863   4.592
 8254SOL    HW225662   4.355   4.716   4.522
 8255SOL     OW25663   3.557   6.234   4.645
 8255SOL    HW125664   3.522   6.309   4.588
 8255SOL    HW225665   3.651   6.253   4.671
 8256SOL     OW25666   6.217   0.227   3.319
 8256SOL    HW125667   6.198   0.129   3.313
 8256SOL    HW225668   6.308   0.245   3.281
 8257SOL     OW25669   6.393   4.497   3.149
 8257SOL    HW125670   6.492   4.515   3.143
 8257SOL    HW225671   6.363   4.510   3.244
 8258SOL     OW25672   4.853   1.615   0.888
 8258SOL    HW125673   4.791   1.537   0.880
 8258SOL    HW225674   4.822   1.687   0.826
 8259SOL     OW25675   4.143   1.545   3.837
 8259SOL    HW125676   4.183   1.557   3.746
 8259SOL    HW225677   4.166   1.624   3.894
 8260SOL     OW25678   2.737   0.322   1.408
 8260SOL    HW125679   2.717   0.351   1.502
 8260SOL    HW225680   2.777   0.398   1.358
 8261SOL     OW25681   5.544   1.355   1.631
 8261SOL    HW125682   5.617   1.309   1.581
 8261SOL    HW225683   5.547   1.330   1.728
 8262SOL     OW25684   0.669   2.234   0.962
 8262SOL    HW125685   0.714   2.308   0.911
 8262SOL    HW225686   0.632   2.167   0.898
 8263SOL     OW25687   0.319   2.587   0.367
 8263SOL    HW125688   0.319   2.591   0.467
 8263SOL    HW225689   0.228   2.562   0.335
 8264SOL     OW25690   1.435   5.915   2.496
 8264SOL    HW125691   1.453   6.007   2.462
 8264SOL    HW225692   1.499   5.850   2.453
 8265SOL     OW25693   1.453   6.857   1.702
 8265SOL    HW125694   1.440   6.761   1.675
 8265SOL    HW225695   1.476   6.861   1.799
 8266SOL     OW25696   2.120   0.177   2.940
 8266SOL    HW125697   2.127   0.078   2.927
 8266SOL    HW225698   2.186   0.223   2.880
 8267SOL     OW25699   2.348   3.637   1.314
 8267SOL    HW125700   2.292   3.632   1.231
 8267SOL    HW225701   2.313   3.572   1.381
 8268SOL     OW25702   2.113   6.544   6.390
 8268SOL    HW125703   2.035   6.602   6.366
 8268SOL    HW225704   2.106   6.458   6.340
 8269SOL     OW25705   5.773   1.480   1.215
 8269SOL    HW125706   5.825   1.540   1.154
 8269SOL    HW225707   5.696   1.440   1.164
 8270SOL     OW25708   2.472   6.955   4.769
 8270SOL    HW125709   2.564   6.919   4.759
 8270SOL    HW225710   2.466   0.018   4.723
 8271SOL     OW25711   6.905   0.561   2.220
 8271SOL    HW125712   7.003   0.539   2.216
 8271SOL    HW225713   6.872   0.581   2.128
 8272SOL     OW25714   4.925   0.787   1.319
 8272SOL    HW125715   4.931   0.786   1.419
 8272SOL    HW225716   5.004   0.835   1.281
 8273SOL     OW25717   1.614   6.126   0.936
 8273SOL    HW125718   1.670   6.201   0.899
 8273SOL    HW225719   1.664   6.081   1.010
 8274SOL     OW25720   4.700   4.669   3.428
 8274SOL    HW125721   4.610   4.628   3.415
 8274SOL    HW225722   4.755   4.614   3.491
 8275SOL     OW25723   4.648   1.600   6.289
 8275SOL    HW125724   4.643   1.664   6.366
 8275SOL    HW225725   4.708   1.637   6.219
 8276SOL     OW25726   1.210   2.201   3.791
 8276SOL    HW125727   1.242   2.221   3.698
 8276SOL    HW225728   1.268   2.130   3.831
 8277SOL     OW25729   0.436   0.904   6.943
 8277SOL    HW125730   0.364   0.835   6.945
 8277SOL    HW225731   0.462   0.921   6.848
 8278SOL     OW25732   2.664   2.396   6.490
 8278SOL    HW125733   2.751   2.377   6.537
 8278SOL    HW225734   2.679   2.463   6.417
 8279SOL     OW25735   0.852   0.241   4.456
 8279SOL    HW125736   0.909   0.168   4.492
 8279SOL    HW225737   0.814   0.213   4.368
 8280SOL     OW25738   2.692   3.112   0.362
 8280SOL    HW125739   2.720   3.016   0.374
 8280SOL    HW225740   2.592   3.117   0.357
 8281SOL     OW25741   1.227   5.492   1.443
 8281SOL    HW125742   1.196   5.554   1.371
 8281SOL    HW225743   1.304   5.535   1.492
 8282SOL     OW25744   5.703   3.608   6.468
 8282SOL    HW125745   5.660   3.618   6.558
 8282SOL    HW225746   5.720   3.698   6.429
 8283SOL     OW25747   1.145   4.617   6.583
 8283SOL    HW125748   1.167   4.713   6.565
 8283SOL    HW225749   1.092   4.611   6.667
 8284SOL     OW25750   0.500   3.604   1.637
 8284SOL    HW125751   0.539   3.660   1.563
 8284SOL    HW225752   0.483   3.662   1.717
 8285SOL     OW25753   3.919   3.371   5.252
 8285SOL    HW125754   3.906   3.273   5.262
 8285SOL    HW225755   3.978   3.389   5.173
 8286SOL     OW25756   5.527   3.295   6.619
 8286SOL    HW125757   5.619   3.271   6.648
 8286SOL    HW225758   5.513   3.268   6.523
 8287SOL     OW25759   1.626   5.394   4.608
 8287SOL    HW125760   1.563   5.319   4.587
 8287SOL    HW225761   1.635   5.452   4.527
 8288SOL     OW25762   3.041   1.993   2.426
 8288SOL    HW125763   3.001   2.079   2.394
 8288SOL    HW225764   3.098   1.954   2.354
 8289SOL     OW25765   0.480   0.021   1.412
 8289SOL    HW125766   0.456   0.049   1.505
 8289SOL    HW225767   0.405   0.045   1.350
 8290SOL     OW25768   6.432   1.637   6.806
 8290SOL    HW125769   6.470   1.587   6.883
 8290SOL    HW225770   6.489   1.622   6.725
 8291SOL     OW25771   5.133   6.803   6.762
 8291SOL    HW125772   5.129   6.781   6.860
 8291SOL    HW225773   5.164   6.723   6.711
 8292SOL     OW25774   2.242   6.652   0.258
 8292SOL    HW125775   2.189   6.567   0.262
 8292SOL    HW225776   2.295   6.662   0.343
 8293SOL     OW25777   3.635   0.037   0.327
 8293SOL    HW125778   3.601   0.130   0.335
 8293SOL    HW225779   3.557   7.000   0.322
 8294SOL     OW25780   5.841   4.358   5.290
 8294SOL    HW125781   5.833   4.371   5.389
 8294SOL    HW225782   5.783   4.281   5.262
 8295SOL     OW25783   5.204   5.192   1.887
 8295SOL    HW125784   5.147   5.173   1.967
 8295SOL    HW225785   5.299   5.204   1.916
 8296SOL     OW25786   1.912   6.703   6.355
 8296SOL    HW125787   1.944   6.796   6.336
 8296SOL    HW225788   1.829   6.685   6.303
 8297SOL     OW25789   6.412   2.742   2.615
 8297SOL    HW125790   6.339   2.793   2.569
 8297SOL    HW225791   6.392   2.644   2.609
 8298SOL     OW25792   5.984   1.962   1.414
 8298SOL    HW125793   5.906   1.902   1.401
 8298SOL    HW225794   6.017   1.954   1.508
 8299SOL     OW25795   0.045   2.774   2.040
 8299SOL    HW125796   6.984   2.819   2.018
 8299SOL    HW225797   0.120   2.834   2.013
 8300SOL     OW25798   1.010   5.653   5.893
 8300SOL    HW125799   0.979   5.598   5.815
 8300SOL    HW225800   1.105   5.682   5.878
 8301SOL     OW25801   3.860   1.415   1.364
 8301SOL    HW125802   3.954   1.441   1.341
 8301SOL    HW225803   3.840   1.441   1.458
 8302SOL     OW25804   6.085   5.835   5.306
 8302SOL    HW125805   5.996   5.797   5.333
 8302SOL    HW225806   6.089   5.845   5.207
 8303SOL     OW25807   6.723   0.443   3.942
 8303SOL    HW125808   6.648   0.377   3.953
 8303SOL    HW225809   6.802   0.412   3.995
 8304SOL     OW25810   1.148   3.534   6.815
 8304SOL    HW125811   1.172   3.629   6.795
 8304SOL    HW225812   1.072   3.531   6.880
 8305SOL     OW25813   3.611   5.031   4.456
 8305SOL    HW125814   3.670   4.993   4.386
 8305SOL    HW225815   3.666   5.071   4.529
 8306SOL     OW25816   0.482   2.945   4.864
 8306SOL    HW125817   0.474   2.853   4.825
 8306SOL    HW225818   0.496   2.939   4.963
 8307SOL     OW25819   4.410   5.149   1.776
 8307SOL    HW125820   4.441   5.231   1.728
 8307SOL    HW225821   4.489   5.097   1.807
 8308SOL     OW25822   4.779   6.076   1.326
 8308SOL    HW125823   4.716   6.149   1.352
 8308SOL    HW225824   4.728   5.992   1.309
 8309SOL     OW25825   6.055   5.584   3.721
 8309SOL    HW125826   6.042   5.489   3.748
 8309SOL    HW225827   6.117   5.589   3.643
 8310SOL     OW25828   1.346   4.384   0.984
 8310SOL    HW125829   1.363   4.341   0.895
 8310SOL    HW225830   1.301   4.472   0.971
 8311SOL     OW25831   0.391   1.216   5.289
 8311SOL    HW125832   0.373   1.149   5.217
 8311SOL    HW225833   0.437   1.296   5.250
 8312SOL     OW25834   4.450   6.140   1.647
 8312SOL    HW125835   4.380   6.197   1.690
 8312SOL    HW225836   4.444   6.047   1.683
 8313SOL     OW25837   3.924   0.892   2.446
 8313SOL    HW125838   3.894   0.987   2.435
 8313SOL    HW225839   3.942   0.852   2.356
 8314SOL     OW25840   4.978   6.511   0.802
 8314SOL    HW125841   5.060   6.566   0.787
 8314SOL    HW225842   4.907   6.568   0.843
 8315SOL     OW25843   4.049   3.229   0.653
 8315SOL    HW125844   4.135   3.252   0.699
 8315SOL    HW225845   4.011   3.147   0.694
 8316SOL     OW25846   0.583   2.878   1.596
 8316SOL    HW125847   0.537   2.789   1.601
 8316SOL    HW225848   0.661   2.878   1.658
 8317SOL     OW25849   2.044   3.143   2.142
 8317SOL    HW125850   1.982   3.087   2.087
 8317SOL    HW225851   2.089   3.210   2.084
 8318SOL     OW25852   4.677   1.673   4.467
 8318SOL    HW125853   4.746   1.710   4.404
 8318SOL    HW225854   4.586   1.703   4.438
 8319SOL     OW25855   2.779   2.141   5.930
 8319SOL    HW125856   2.757   2.226   5.977
 8319SOL    HW225857   2.789   2.159   5.832
 8320SOL     OW25858   3.786   4.835   1.489
 8320SOL    HW125859   3.816   4.872   1.401
 8320SOL    HW225860   3.688   4.815   1.486
 8321SOL     OW25861   6.926   1.263   6.752
 8321SOL    HW125862   6.967   1.255   6.843
 8321SOL    HW225863   6.860   1.338   6.752
 8322SOL     OW25864   0.441   0.032   0.353
 8322SOL    HW125865   0.503   0.107   0.374
 8322SOL    HW225866   0.427   7.002   0.435
 8323SOL     OW25867   0.177   6.754   2.752
 8323SOL    HW125868   0.175   6.847   2.787
 8323SOL    HW225869   0.271   6.726   2.733
 8324SOL     OW25870   6.577   0.323   2.321
 8324SOL    HW125871   6.495   0.345   2.268
 8324SOL    HW225872   6.624   0.408   2.346
 8325SOL     OW25873   3.460   3.336   4.444
 8325SOL    HW125874   3.554   3.365   4.462
 8325SOL    HW225875   3.418   3.399   4.379
 8326SOL     OW25876   4.505   3.192   5.321
 8326SOL    HW125877   4.513   3.292   5.324
 8326SOL    HW225878   4.409   3.167   5.317
 8327SOL     OW25879   5.397   2.167   6.255
 8327SOL    HW125880   5.339   2.178   6.335
 8327SOL    HW225881   5.453   2.084   6.265
 8328SOL     OW25882   2.332   4.208   6.241
 8328SOL    HW125883   2.340   4.294   6.291
 8328SOL    HW225884   2.333   4.227   6.143
 8329SOL     OW25885   0.474   3.884   5.954
 8329SOL    HW125886   0.465   3.920   5.861
 8329SOL    HW225887   0.434   3.950   6.019
 8330SOL     OW25888   1.816   0.438   0.073
 8330SOL    HW125889   1.782   0.443   7.006
 8330SOL    HW225890   1.751   0.388   0.130
 8331SOL     OW25891   2.862   0.372   0.580
 8331SOL    HW125892   2.824   0.450   0.629
 8331SOL    HW225893   2.960   0.387   0.564
 8332SOL     OW25894   4.995   4.673   2.559
 8332SOL    HW125895   5.092   4.665   2.584
 8332SOL    HW225896   4.940   4.674   2.642
 8333SOL     OW25897   0.349   6.035   0.095
 8333SOL    HW125898   0.342   5.964   0.024
 8333SOL    HW225899   0.272   6.027   0.157
 8334SOL     OW25900   5.752   1.608   3.489
 8334SOL    HW125901   5.693   1.662   3.429
 8334SOL    HW225902   5.696   1.557   3.554
 8335SOL     OW25903   6.501   5.437   5.458
 8335SOL    HW125904   6.526   5.533   5.451
 8335SOL    HW225905   6.427   5.416   5.394
 8336SOL     OW25906   0.386   0.947   1.636
 8336SOL    HW125907   0.324   1.022   1.610
 8336SOL    HW225908   0.426   0.908   1.553
 8337SOL     OW25909   1.335   6.718   3.524
 8337SOL    HW125910   1.404   6.777   3.481
 8337SOL    HW225911   1.255   6.711   3.465
 8338SOL     OW25912   1.922   4.689   2.015
 8338SOL    HW125913   1.976   4.727   2.090
 8338SOL    HW225914   1.851   4.629   2.052
 8339SOL     OW25915   5.793   1.398   1.475
 8339SOL    HW125916   5.824   1.471   1.536
 8339SOL    HW225917   5.774   1.436   1.385
 8340SOL     OW25918   5.052   3.982   0.996
 8340SOL    HW125919   5.074   4.071   0.955
 8340SOL    HW225920   4.960   3.985   1.034
 8341SOL     OW25921   2.423   6.251   0.420
 8341SOL    HW125922   2.391   6.193   0.345
 8341SOL    HW225923   2.465   6.194   0.491
 8342SOL     OW25924   3.405   0.129   1.734
 8342SOL    HW125925   3.440   0.153   1.644
 8342SOL    HW225926   3.305   0.131   1.733
 8343SOL     OW25927   1.579   4.809   6.364
 8343SOL    HW125928   1.562   4.748   6.287
 8343SOL    HW225929   1.565   4.904   6.335
 8344SOL     OW25930   4.819   6.744   5.470
 8344SOL    HW125931   4.780   6.663   5.427
 8344SOL    HW225932   4.749   6.815   5.477
 8345SOL     OW25933   5.295   2.051   3.301
 8345SOL    HW125934   5.206   2.048   3.346
 8345SOL    HW225935   5.322   2.147   3.286
 8346SOL     OW25936   2.811   4.852   0.172
 8346SOL    HW125937   2.876   4.825   0.102
 8346SOL    HW225938   2.744   4.779   0.186
 8347SOL     OW25939   3.147   6.838   5.128
 8347SOL    HW125940   3.209   6.913   5.104
 8347SOL    HW225941   3.174   6.801   5.217
 8348SOL     OW25942   1.655   6.929   1.504
 8348SOL    HW125943   1.706   7.008   1.539
 8348SOL    HW225944   1.584   6.904   1.570
 8349SOL     OW25945   5.833   4.932   1.473
 8349SOL    HW125946   5.746   4.883   1.476
 8349SOL    HW225947   5.816   5.030   1.468
 8350SOL     OW25948   4.584   0.911   4.828
 8350SOL    HW125949   4.573   0.977   4.902
 8350SOL    HW225950   4.677   0.919   4.790
 8351SOL     OW25951   4.143   5.001   4.793
 8351SOL    HW125952   4.173   4.913   4.831
 8351SOL    HW225953   4.213   5.070   4.811
 8352SOL     OW25954   6.719   0.181   2.112
 8352SOL    HW125955   6.730   0.238   2.031
 8352SOL    HW225956   6.663   0.229   2.179
 8353SOL     OW25957   5.735   3.805   2.156
 8353SOL    HW125958   5.823   3.849   2.136
 8353SOL    HW225959   5.750   3.728   2.218
 8354SOL     OW25960   3.472   0.869   6.782
 8354SOL    HW125961   3.456   0.859   6.880
 8354SOL    HW225962   3.567   0.897   6.767
 8355SOL     OW25963   3.233   0.563   6.620
 8355SOL    HW125964   3.222   0.660   6.641
 8355SOL    HW225965   3.230   0.550   6.521
 8356SOL     OW25966   1.194   6.595   0.609
 8356SOL    HW125967   1.241   6.550   0.533
 8356SOL    HW225968   1.107   6.632   0.578
 8357SOL     OW25969   3.708   6.381   6.186
 8357SOL    HW125970   3.638   6.404   6.254
 8357SOL    HW225971   3.779   6.452   6.186
 8358SOL     OW25972   1.974   2.895   5.015
 8358SOL    HW125973   1.876   2.882   5.000
 8358SOL    HW225974   2.002   2.848   5.099
 8359SOL     OW25975   3.566   6.289   4.273
 8359SOL    HW125976   3.571   6.194   4.303
 8359SOL    HW225977   3.568   6.350   4.353
 8360SOL     OW25978   3.602   6.664   2.547
 8360SOL    HW125979   3.599   6.573   2.588
 8360SOL    HW225980   3.515   6.711   2.562
 8361SOL     OW25981   1.454   1.212   1.747
 8361SOL    HW125982   1.498   1.285   1.695
 8361SOL    HW225983   1.402   1.253   1.823
 8362SOL     OW25984   2.507   2.131   0.215
 8362SOL    HW125985   2.574   2.187   0.167
 8362SOL    HW225986   2.456   2.188   0.279
 8363SOL     OW25987   1.077   2.721   0.378
 8363SOL    HW125988   1.101   2.818   0.370
 8363SOL    HW225989   1.019   2.695   0.301
 8364SOL     OW25990   0.091   3.587   3.444
 8364SOL    HW125991   0.116   3.540   3.359
 8364SOL    HW225992   0.163   3.650   3.470
 8365SOL     OW25993   1.364   4.072   1.596
 8365SOL    HW125994   1.384   3.974   1.593
 8365SOL    HW225995   1.337   4.103   1.505
 8366SOL     OW25996   4.358   5.906   2.363
 8366SOL    HW125997   4.268   5.937   2.392
 8366SOL    HW225998   4.361   5.806   2.360
 8367SOL     OW25999   3.978   5.918   4.444
 8367SOL    HW126000   3.905   5.899   4.378
 8367SOL    HW226001   3.939   5.921   4.536
 8368SOL     OW26002   3.338   6.448   6.002
 8368SOL    HW126003   3.271   6.407   6.063
 8368SOL    HW226004   3.408   6.381   5.979
 8369SOL     OW26005   1.760   1.328   6.451
 8369SOL    HW126006   1.835   1.262   6.450
 8369SOL    HW226007   1.791   1.415   6.411
 8370SOL     OW26008   3.181   2.027   6.073
 8370SOL    HW126009   3.206   2.121   6.051
 8370SOL    HW226010   3.093   2.005   6.031
 8371SOL     OW26011   1.773   4.089   1.118
 8371SOL    HW126012   1.778   4.147   1.036
 8371SOL    HW226013   1.772   3.993   1.091
 8372SOL     OW26014   1.111   6.263   2.573
 8372SOL    HW126015   1.013   6.252   2.563
 8372SOL    HW226016   1.130   6.338   2.637
 8373SOL     OW26017   0.697   0.416   4.985
 8373SOL    HW126018   0.628   0.348   5.011
 8373SOL    HW226019   0.707   0.484   5.058
 8374SOL     OW26020   6.766   0.705   6.711
 8374SOL    HW126021   6.771   0.803   6.692
 8374SOL    HW226022   6.843   0.658   6.668
 8375SOL     OW26023   3.486   5.874   5.897
 8375SOL    HW126024   3.498   5.835   5.989
 8375SOL    HW226025   3.410   5.827   5.852
 8376SOL     OW26026   2.242   0.292   4.570
 8376SOL    HW126027   2.317   0.277   4.635
 8376SOL    HW226028   2.280   0.298   4.477
 8377SOL     OW26029   5.781   5.702   2.099
 8377SOL    HW126030   5.762   5.787   2.148
 8377SOL    HW226031   5.758   5.713   2.002
 8378SOL     OW26032   4.528   4.461   2.883
 8378SOL    HW126033   4.605   4.406   2.852
 8378SOL    HW226034   4.529   4.467   2.983
 8379SOL     OW26035   6.686   3.002   1.099
 8379SOL    HW126036   6.677   3.102   1.090
 8379SOL    HW226037   6.644   2.973   1.185
 8380SOL     OW26038   6.430   0.880   2.100
 8380SOL    HW126039   6.491   0.892   2.022
 8380SOL    HW226040   6.483   0.864   2.183
 8381SOL     OW26041   0.700   4.523   4.991
 8381SOL    HW126042   0.751   4.439   4.972
 8381SOL    HW226043   0.656   4.555   4.907
 8382SOL     OW26044   1.263   1.347   1.947
 8382SOL    HW126045   1.276   1.445   1.951
 8382SOL    HW226046   1.200   1.318   2.020
 8383SOL     OW26047   2.510   2.077   6.288
 8383SOL    HW126048   2.517   2.010   6.361
 8383SOL    HW226049   2.586   2.142   6.296
 8384SOL     OW26050   0.301   6.962   0.616
 8384SOL    HW126051   0.370   6.891   0.608
 8384SOL    HW226052   0.310   7.008   0.704
 8385SOL     OW26053   6.085   2.722   1.873
 8385SOL    HW126054   6.083   2.623   1.862
 8385SOL    HW226055   6.179   2.752   1.887
 8386SOL     OW26056   0.943   4.013   2.692
 8386SOL    HW126057   0.850   4.042   2.671
 8386SOL    HW226058   0.991   4.086   2.741
 8387SOL     OW26059   1.093   1.440   1.108
 8387SOL    HW126060   1.103   1.351   1.064
 8387SOL    HW226061   1.183   1.479   1.125
 8388SOL     OW26062   1.908   5.942   1.662
 8388SOL    HW126063   1.891   5.855   1.616
 8388SOL    HW226064   1.961   6.001   1.602
 8389SOL     OW26065   5.119   3.634   2.154
 8389SOL    HW126066   5.045   3.670   2.096
 8389SOL    HW226067   5.085   3.555   2.205
 8390SOL     OW26068   3.811   1.471   6.238
 8390SOL    HW126069   3.889   1.487   6.299
 8390SOL    HW226070   3.774   1.559   6.210
 8391SOL     OW26071   5.716   6.481   0.877
 8391SOL    HW126072   5.671   6.566   0.849
 8391SOL    HW226073   5.679   6.451   0.965
 8392SOL     OW26074   6.234   3.809   3.819
 8392SOL    HW126075   6.154   3.758   3.851
 8392SOL    HW226076   6.209   3.905   3.806
 8393SOL     OW26077   5.595   0.416   2.695
 8393SOL    HW126078   5.523   0.474   2.657
 8393SOL    HW226079   5.679   0.470   2.705
 8394SOL     OW26080   6.032   3.504   1.654
 8394SOL    HW126081   6.055   3.450   1.574
 8394SOL    HW226082   5.986   3.447   1.722
 8395SOL     OW26083   2.647   6.875   6.046
 8395SOL    HW126084   2.703   6.838   5.972
 8395SOL    HW226085   2.689   6.854   6.134
 8396SOL     OW26086   4.252   4.725   3.388
 8396SOL    HW126087   4.222   4.805   3.441
 8396SOL    HW226088   4.216   4.731   3.295
 8397SOL     OW26089   0.737   1.458   3.353
 8397SOL    HW126090   0.821   1.450   3.300
 8397SOL    HW226091   0.744   1.536   3.415
 8398SOL     OW26092   5.176   1.740   6.591
 8398SOL    HW126093   5.191   1.837   6.612
 8398SOL    HW226094   5.106   1.731   6.520
 8399SOL     OW26095   6.396   6.336   6.839
 8399SOL    HW126096   6.374   6.373   6.929
 8399SOL    HW226097   6.490   6.304   6.838
 8400SOL     OW26098   1.747   2.270   4.228
 8400SOL    HW126099   1.670   2.326   4.197
 8400SOL    HW226100   1.833   2.308   4.192
 8401SOL     OW26101   2.099   0.861   5.441
 8401SOL    HW126102   2.002   0.849   5.420
 8401SOL    HW226103   2.129   0.790   5.504
 8402SOL     OW26104   5.023   1.004   6.348
 8402SOL    HW126105   5.018   0.958   6.437
 8402SOL    HW226106   4.999   1.101   6.360
 8403SOL     OW26107   0.358   3.984   4.448
 8403SOL    HW126108   0.289   3.957   4.381
 8403SOL    HW226109   0.337   3.941   4.536
 8404SOL     OW26110   3.027   1.122   5.848
 8404SOL    HW126111   2.928   1.129   5.851
 8404SOL    HW226112   3.054   1.029   5.821
 8405SOL     OW26113   4.232   1.650   6.219
 8405SOL    HW126114   4.251   1.617   6.127
 8405SOL    HW226115   4.180   1.735   6.214
 8406SOL     OW26116   4.793   0.421   0.790
 8406SOL    HW126117   4.770   0.495   0.854
 8406SOL    HW226118   4.880   0.380   0.817
 8407SOL     OW26119   4.754   5.867   3.931
 8407SOL    HW126120   4.709   5.918   4.004
 8407SOL    HW226121   4.715   5.892   3.843
 8408SOL     OW26122   5.227   5.796   0.427
 8408SOL    HW126123   5.186   5.708   0.404
 8408SOL    HW226124   5.155   5.859   0.459
 8409SOL     OW26125   4.565   2.556   1.830
 8409SOL    HW126126   4.488   2.500   1.800
 8409SOL    HW226127   4.649   2.502   1.830
 8410SOL     OW26128   6.086   1.655   1.561
 8410SOL    HW126129   6.119   1.703   1.642
 8410SOL    HW226130   6.119   1.701   1.479
 8411SOL     OW26131   0.145   6.279   1.147
 8411SOL    HW126132   0.137   6.235   1.236
 8411SOL    HW226133   0.217   6.348   1.151
 8412SOL     OW26134   3.972   2.751   1.097
 8412SOL    HW126135   3.879   2.784   1.110
 8412SOL    HW226136   4.035   2.828   1.093
 8413SOL     OW26137   4.025   6.078   6.546
 8413SOL    HW126138   3.948   6.038   6.495
 8413SOL    HW226139   4.090   6.005   6.569
 8414SOL     OW26140   2.027   1.499   2.522
 8414SOL    HW126141   2.099   1.545   2.573
 8414SOL    HW226142   1.938   1.535   2.551
 8415SOL     OW26143   2.839   6.781   3.887
 8415SOL    HW126144   2.799   6.846   3.821
 8415SOL    HW226145   2.766   6.739   3.941
 8416SOL     OW26146   6.288   1.667   5.050
 8416SOL    HW126147   6.297   1.583   4.996
 8416SOL    HW226148   6.191   1.693   5.055
 8417SOL     OW26149   1.965   3.033   5.625
 8417SOL    HW126150   1.952   3.012   5.528
 8417SOL    HW226151   2.058   3.068   5.640
 8418SOL     OW26152   0.843   5.837   2.340
 8418SOL    HW126153   0.894   5.917   2.306
 8418SOL    HW226154   0.762   5.823   2.284
 8419SOL     OW26155   6.165   1.395   3.318
 8419SOL    HW126156   6.133   1.313   3.365
 8419SOL    HW226157   6.106   1.472   3.344
 8420SOL     OW26158   3.337   6.754   2.114
 8420SOL    HW126159   3.238   6.739   2.110
 8420SOL    HW226160   3.355   6.846   2.148
 8421SOL     OW26161   2.927   6.309   6.727
 8421SOL    HW126162   2.871   6.233   6.696
 8421SOL    HW226163   2.884   6.395   6.701
 8422SOL     OW26164   4.470   2.383   2.044
 8422SOL    HW126165   4.417   2.357   2.125
 8422SOL    HW226166   4.409   2.427   1.978
 8423SOL     OW26167   4.360   4.352   5.881
 8423SOL    HW126168   4.291   4.305   5.936
 8423SOL    HW226169   4.451   4.321   5.909
 8424SOL     OW26170   1.974   1.339   3.683
 8424SOL    HW126171   2.014   1.403   3.618
 8424SOL    HW226172   2.007   1.247   3.663
 8425SOL     OW26173   3.430   3.789   4.263
 8425SOL    HW126174   3.347   3.834   4.230
 8425SOL    HW226175   3.498   3.786   4.190
 8426SOL     OW26176   3.713   3.144   2.666
 8426SOL    HW126177   3.645   3.087   2.621
 8426SOL    HW226178   3.776   3.087   2.719
 8427SOL     OW26179   3.101   3.670   3.210
 8427SOL    HW126180   3.071   3.758   3.246
 8427SOL    HW226181   3.120   3.679   3.112
 8428SOL     OW26182   0.334   0.596   1.384
 8428SOL    HW126183   0.327   0.529   1.458
 8428SOL    HW226184   0.374   0.554   1.304
 8429SOL     OW26185   2.109   5.814   5.926
 8429SOL    HW126186   2.192   5.828   5.872
 8429SOL    HW226187   2.118   5.728   5.977
 8430SOL     OW26188   3.957   4.839   4.081
 8430SOL    HW126189   4.026   4.786   4.129
 8430SOL    HW226190   3.986   4.857   3.987
 8431SOL     OW26191   2.979   3.882   6.768
 8431SOL    HW126192   2.968   3.970   6.722
 8431SOL    HW226193   2.902   3.823   6.745
 8432SOL     OW26194   6.649   5.364   6.037
 8432SOL    HW126195   6.638   5.290   6.103
 8432SOL    HW226196   6.559   5.395   6.006
 8433SOL     OW26197   4.353   2.519   0.986
 8433SOL    HW126198   4.384   2.538   1.079
 8433SOL    HW226199   4.259   2.551   0.975
 8434SOL     OW26200   2.339   5.401   5.202
 8434SOL    HW126201   2.261   5.338   5.202
 8434SOL    HW226202   2.424   5.349   5.198
 8435SOL     OW26203   5.274   0.552   3.176
 8435SOL    HW126204   5.240   0.625   3.234
 8435SOL    HW226205   5.335   0.590   3.107
 8436SOL     OW26206   2.450   6.308   3.913
 8436SOL    HW126207   2.434   6.227   3.857
 8436SOL    HW226208   2.549   6.322   3.924
 8437SOL     OW26209   1.776   3.008   2.304
 8437SOL    HW126210   1.713   3.039   2.233
 8437SOL    HW226211   1.862   3.059   2.296
 8438SOL     OW26212   2.149   3.867   3.000
 8438SOL    HW126213   2.112   3.959   3.016
 8438SOL    HW226214   2.166   3.822   3.088
 8439SOL     OW26215   6.433   5.331   3.792
 8439SOL    HW126216   6.520   5.282   3.788
 8439SOL    HW226217   6.421   5.385   3.708
 8440SOL     OW26218   2.447   1.812   3.665
 8440SOL    HW126219   2.407   1.821   3.574
 8440SOL    HW226220   2.405   1.736   3.713
 8441SOL     OW26221   5.290   5.395   4.882
 8441SOL    HW126222   5.354   5.459   4.924
 8441SOL    HW226223   5.340   5.320   4.840
 8442SOL     OW26224   3.580   0.658   5.494
 8442SOL    HW126225   3.679   0.659   5.477
 8442SOL    HW226226   3.557   0.581   5.553
 8443SOL     OW26227   1.942   5.209   3.948
 8443SOL    HW126228   1.909   5.229   4.040
 8443SOL    HW226229   2.000   5.284   3.916
 8444SOL     OW26230   3.692   6.452   3.447
 8444SOL    HW126231   3.757   6.377   3.453
 8444SOL    HW226232   3.701   6.510   3.529
 8445SOL     OW26233   2.333   0.569   6.907
 8445SOL    HW126234   2.236   0.546   6.911
 8445SOL    HW226235   2.372   0.565   6.999
 8446SOL     OW26236   0.439   6.200   4.973
 8446SOL    HW126237   0.458   6.179   5.069
 8446SOL    HW226238   0.513   6.256   4.936
 8447SOL     OW26239   3.637   1.375   2.400
 8447SOL    HW126240   3.638   1.354   2.302
 8447SOL    HW226241   3.678   1.464   2.416
 8448SOL     OW26242   5.039   5.974   3.861
 8448SOL    HW126243   4.949   5.933   3.876
 8448SOL    HW226244   5.110   5.907   3.886
 8449SOL     OW26245   1.016   3.158   3.706
 8449SOL    HW126246   0.975   3.068   3.689
 8449SOL    HW226247   1.103   3.147   3.755
 8450SOL     OW26248   0.321   0.793   0.372
 8450SOL    HW126249   0.399   0.837   0.416
 8450SOL    HW226250   0.340   0.696   0.359
 8451SOL     OW26251   3.351   0.722   0.729
 8451SOL    HW126252   3.364   0.706   0.827
 8451SOL    HW226253   3.357   0.820   0.710
 8452SOL     OW26254   4.913   2.245   4.275
 8452SOL    HW126255   4.936   2.342   4.282
 8452SOL    HW226256   4.988   2.190   4.312
 8453SOL     OW26257   0.465   5.336   6.800
 8453SOL    HW126258   0.381   5.392   6.795
 8453SOL    HW226259   0.442   5.241   6.780
 8454SOL     OW26260   0.453   4.589   0.389
 8454SOL    HW126261   0.405   4.676   0.377
 8454SOL    HW226262   0.430   4.551   0.479
 8455SOL     OW26263   0.399   0.844   2.940
 8455SOL    HW126264   0.461   0.767   2.954
 8455SOL    HW226265   0.309   0.821   2.976
 8456SOL     OW26266   5.011   0.521   3.582
 8456SOL    HW126267   5.093   0.501   3.528
 8456SOL    HW226268   4.963   0.599   3.541
 8457SOL     OW26269   6.714   6.608   4.691
 8457SOL    HW126270   6.749   6.578   4.602
 8457SOL    HW226271   6.631   6.558   4.714
 8458SOL     OW26272   0.681   0.508   0.433
 8458SOL    HW126273   0.749   0.505   0.505
 8458SOL    HW226274   0.611   0.576   0.454
 8459SOL     OW26275   1.628   5.836   3.307
 8459SOL    HW126276   1.622   5.883   3.219
 8459SOL    HW226277   1.721   5.802   3.320
 8460SOL     OW26278   4.281   3.911   5.406
 8460SOL    HW126279   4.252   4.006   5.397
 8460SOL    HW226280   4.372   3.900   5.368
 8461SOL     OW26281   0.055   2.503   5.038
 8461SOL    HW126282   0.125   2.489   5.109
 8461SOL    HW226283   0.031   2.600   5.034
 8462SOL     OW26284   3.136   1.721   1.295
 8462SOL    HW126285   3.065   1.658   1.329
 8462SOL    HW226286   3.224   1.675   1.297
 8463SOL     OW26287   6.047   7.012   2.045
 8463SOL    HW126288   6.015   6.945   2.112
 8463SOL    HW226289   6.140   0.015   2.068
 8464SOL     OW26290   5.861   3.493   4.583
 8464SOL    HW126291   5.919   3.426   4.539
 8464SOL    HW226292   5.884   3.499   4.680
 8465SOL     OW26293   1.594   1.859   0.271
 8465SOL    HW126294   1.542   1.823   0.349
 8465SOL    HW226295   1.536   1.922   0.219
 8466SOL     OW26296   1.205   5.498   4.086
 8466SOL    HW126297   1.128   5.553   4.119
 8466SOL    HW226298   1.287   5.521   4.139
 8467SOL     OW26299   2.426   5.984   1.286
 8467SOL    HW126300   2.359   6.045   1.244
 8467SOL    HW226301   2.456   6.023   1.374
 8468SOL     OW26302   3.650   2.334   0.163
 8468SOL    HW126303   3.733   2.329   0.107
 8468SOL    HW226304   3.581   2.390   0.117
 8469SOL     OW26305   3.158   3.150   0.010
 8469SOL    HW126306   3.072   3.180   0.051
 8469SOL    HW226307   3.231   3.155   0.079
 8470SOL     OW26308   1.981   2.685   0.986
 8470SOL    HW126309   2.009   2.752   0.918
 8470SOL    HW226310   1.905   2.631   0.950
 8471SOL     OW26311   2.450   0.674   4.173
 8471SOL    HW126312   2.490   0.584   4.193
 8471SOL    HW226313   2.410   0.673   4.082
 8472SOL     OW26314   0.383   6.900   4.358
 8472SOL    HW126315   0.431   6.826   4.406
 8472SOL    HW226316   0.436   6.929   4.279
 8473SOL     OW26317   0.199   5.823   0.298
 8473SOL    HW126318   0.156   5.820   0.388
 8473SOL    HW226319   0.149   5.763   0.235
 8474SOL     OW26320   3.181   2.856   2.073
 8474SOL    HW126321   3.171   2.786   2.144
 8474SOL    HW226322   3.277   2.881   2.063
 8475SOL     OW26323   5.647   1.843   2.344
 8475SOL    HW126324   5.598   1.804   2.266
 8475SOL    HW226325   5.636   1.783   2.423
 8476SOL     OW26326   5.958   6.870   2.257
 8476SOL    HW126327   5.911   6.945   2.304
 8476SOL    HW226328   5.915   6.783   2.281
 8477SOL     OW26329   2.761   6.772   1.090
 8477SOL    HW126330   2.832   6.732   1.032
 8477SOL    HW226331   2.803   6.812   1.171
 8478SOL     OW26332   1.909   0.680   5.618
 8478SOL    HW126333   1.831   0.665   5.557
 8478SOL    HW226334   1.885   0.747   5.688
 8479SOL     OW26335   5.925   1.161   0.138
 8479SOL    HW126336   6.008   1.112   0.167
 8479SOL    HW226337   5.947   1.258   0.124
 8480SOL     OW26338   2.967   0.546   0.996
 8480SOL    HW126339   2.896   0.597   0.948
 8480SOL    HW226340   2.985   0.590   1.084
 8481SOL     OW26341   4.524   1.461   4.812
 8481SOL    HW126342   4.567   1.372   4.825
 8481SOL    HW226343   4.425   1.452   4.824
 8482SOL     OW26344   1.943   0.079   2.260
 8482SOL    HW126345   1.914   0.175   2.267
 8482SOL    HW226346   1.945   0.053   2.163
 8483SOL     OW26347   3.297   5.690   2.280
 8483SOL    HW126348   3.263   5.784   2.292
 8483SOL    HW226349   3.352   5.664   2.359
 8484SOL     OW26350   0.240   4.711   3.356
 8484SOL    HW126351   0.170   4.658   3.308
 8484SOL    HW226352   0.249   4.801   3.312
 8485SOL     OW26353   1.911   3.823   0.763
 8485SOL    HW126354   1.885   3.919   0.759
 8485SOL    HW226355   1.883   3.777   0.679
 8486SOL     OW26356   5.385   1.091   2.446
 8486SOL    HW126357   5.422   0.999   2.433
 8486SOL    HW226358   5.297   1.086   2.493
 8487SOL     OW26359   5.204   0.037   0.898
 8487SOL    HW126360   5.245   0.052   0.808
 8487SOL    HW226361   5.263   0.077   0.969
 8488SOL     OW26362   5.425   4.772   4.469
 8488SOL    HW126363   5.452   4.812   4.381
 8488SOL    HW226364   5.505   4.763   4.528
 8489SOL     OW26365   5.692   5.179   1.472
 8489SOL    HW126366   5.611   5.134   1.509
 8489SOL    HW226367   5.664   5.254   1.412
 8490SOL     OW26368   4.446   5.499   3.231
 8490SOL    HW126369   4.408   5.425   3.286
 8490SOL    HW226370   4.530   5.533   3.273
 8491SOL     OW26371   2.289   0.525   2.192
 8491SOL    HW126372   2.292   0.484   2.283
 8491SOL    HW226373   2.332   0.464   2.125
 8492SOL     OW26374   5.154   3.480   5.454
 8492SOL    HW126375   5.238   3.450   5.409
 8492SOL    HW226376   5.083   3.497   5.385
 8493SOL     OW26377   3.749   1.602   0.192
 8493SOL    HW126378   3.804   1.570   0.270
 8493SOL    HW226379   3.657   1.626   0.224
 8494SOL     OW26380   2.628   5.733   6.804
 8494SOL    HW126381   2.641   5.797   6.879
 8494SOL    HW226382   2.586   5.649   6.838
 8495SOL     OW26383   6.458   3.229   0.393
 8495SOL    HW126384   6.375   3.198   0.440
 8495SOL    HW226385   6.505   3.296   0.450
 8496SOL     OW26386   0.408   1.925   3.721
 8496SOL    HW126387   0.470   1.961   3.791
 8496SOL    HW226388   0.323   1.895   3.764
 8497SOL     OW26389   5.101   5.886   4.671
 8497SOL    HW126390   5.110   5.858   4.767
 8497SOL    HW226391   5.049   5.971   4.667
 8498SOL     OW26392   0.305   0.405   1.587
 8498SOL    HW126393   0.401   0.412   1.613
 8498SOL    HW226394   0.272   0.312   1.607
 8499SOL     OW26395   3.112   5.002   6.417
 8499SOL    HW126396   3.022   5.045   6.417
 8499SOL    HW226397   3.111   4.921   6.357
 8500SOL     OW26398   2.595   7.017   5.762
 8500SOL    HW126399   2.618   6.976   5.674
 8500SOL    HW226400   2.616   6.952   5.835
 8501SOL     OW26401   1.728   3.146   6.943
 8501SOL    HW126402   1.727   3.124   6.846
 8501SOL    HW226403   1.705   3.243   6.955
 8502SOL     OW26404   0.624   5.747   1.475
 8502SOL    HW126405   0.604   5.650   1.462
 8502SOL    HW226406   0.611   5.771   1.572
 8503SOL     OW26407   1.477   5.074   3.521
 8503SOL    HW126408   1.466   5.116   3.611
 8503SOL    HW226409   1.454   5.141   3.450
 8504SOL     OW26410   1.875   6.307   3.728
 8504SOL    HW126411   1.843   6.282   3.637
 8504SOL    HW226412   1.974   6.313   3.728
 8505SOL     OW26413   5.435   4.156   3.338
 8505SOL    HW126414   5.368   4.230   3.333
 8505SOL    HW226415   5.415   4.099   3.417
 8506SOL     OW26416   0.854   6.346   0.174
 8506SOL    HW126417   0.840   6.356   0.272
 8506SOL    HW226418   0.813   6.259   0.144
 8507SOL     OW26419   2.369   1.083   5.627
 8507SOL    HW126420   2.286   1.092   5.683
 8507SOL    HW226421   2.345   1.089   5.530
 8508SOL     OW26422   6.463   2.680   5.227
 8508SOL    HW126423   6.407   2.706   5.148
 8508SOL    HW226424   6.419   2.605   5.276
 8509SOL     OW26425   6.193   1.048   4.362
 8509SOL    HW126426   6.175   0.952   4.344
 8509SOL    HW226427   6.121   1.104   4.321
 8510SOL     OW26428   6.304   5.839   3.289
 8510SOL    HW126429   6.250   5.875   3.365
 8510SOL    HW226430   6.401   5.854   3.306
 8511SOL     OW26431   5.935   4.219   0.993
 8511SOL    HW126432   5.991   4.198   1.074
 8511SOL    HW226433   5.991   4.264   0.924
 8512SOL     OW26434   4.125   2.321   0.164
 8512SOL    HW126435   4.070   2.404   0.171
 8512SOL    HW226436   4.217   2.339   0.198
 8513SOL     OW26437   4.794   3.901   0.389
 8513SOL    HW126438   4.847   3.832   0.340
 8513SOL    HW226439   4.766   3.865   0.477
 8514SOL     OW26440   2.693   1.902   3.678
 8514SOL    HW126441   2.727   1.886   3.771
 8514SOL    HW226442   2.595   1.884   3.675
 8515SOL     OW26443   0.220   1.360   6.673
 8515SOL    HW126444   0.297   1.301   6.697
 8515SOL    HW226445   0.174   1.323   6.592
 8516SOL     OW26446   6.028   2.582   2.552
 8516SOL    HW126447   6.026   2.623   2.644
 8516SOL    HW226448   6.083   2.499   2.554
 8517SOL     OW26449   1.880   3.092   6.328
 8517SOL    HW126450   1.938   3.040   6.390
 8517SOL    HW226451   1.812   3.031   6.286
 8518SOL     OW26452   4.851   4.093   5.983
 8518SOL    HW126453   4.854   4.113   6.081
 8518SOL    HW226454   4.865   4.178   5.932
 8519SOL     OW26455   1.149   4.648   0.629
 8519SOL    HW126456   1.233   4.697   0.653
 8519SOL    HW226457   1.086   4.650   0.707
 8520SOL     OW26458   3.469   3.801   5.128
 8520SOL    HW126459   3.480   3.704   5.149
 8520SOL    HW226460   3.495   3.855   5.208
 8521SOL     OW26461   2.208   6.454   5.948
 8521SOL    HW126462   2.197   6.411   6.038
 8521SOL    HW226463   2.250   6.544   5.959
 8522SOL     OW26464   1.398   0.535   1.106
 8522SOL    HW126465   1.326   0.523   1.174
 8522SOL    HW226466   1.486   0.505   1.145
 8523SOL     OW26467   2.694   0.172   6.480
 8523SOL    HW126468   2.628   0.117   6.531
 8523SOL    HW226469   2.766   0.204   6.542
 8524SOL     OW26470   0.970   4.674   4.947
 8524SOL    HW126471   0.978   4.666   5.046
 8524SOL    HW226472   0.917   4.598   4.911
 8525SOL     OW26473   5.811   4.716   0.849
 8525SOL    HW126474   5.741   4.645   0.860
 8525SOL    HW226475   5.899   4.680   0.881
 8526SOL     OW26476   3.276   6.559   0.983
 8526SOL    HW126477   3.219   6.640   0.997
 8526SOL    HW226478   3.244   6.485   1.042
 8527SOL     OW26479   3.104   0.339   6.781
 8527SOL    HW126480   3.170   0.382   6.719
 8527SOL    HW226481   3.154   0.294   6.855
 8528SOL     OW26482   4.812   1.634   1.185
 8528SOL    HW126483   4.889   1.645   1.247
 8528SOL    HW226484   4.844   1.627   1.091
 8529SOL     OW26485   1.096   6.366   0.091
 8529SOL    HW126486   1.113   6.423   0.011
 8529SOL    HW226487   1.000   6.369   0.115
 8530SOL     OW26488   2.862   3.520   3.990
 8530SOL    HW126489   2.909   3.573   4.060
 8530SOL    HW226490   2.763   3.537   3.996
 8531SOL     OW26491   6.971   5.341   3.324
 8531SOL    HW126492   0.023   5.301   3.276
 8531SOL    HW226493   6.984   5.331   3.423
 8532SOL     OW26494   3.438   6.730   4.154
 8532SOL    HW126495   3.537   6.719   4.157
 8532SOL    HW226496   3.416   6.822   4.121
 8533SOL     OW26497   0.742   6.098   0.060
 8533SOL    HW126498   0.664   6.106   0.122
 8533SOL    HW226499   0.709   6.072   6.995
 8534SOL     OW26500   4.741   2.795   3.647
 8534SOL    HW126501   4.838   2.797   3.668
 8534SOL    HW226502   4.716   2.876   3.594
 8535SOL     OW26503   6.101   1.064   4.644
 8535SOL    HW126504   6.092   0.971   4.679
 8535SOL    HW226505   6.132   1.060   4.549
 8536SOL     OW26506   1.081   2.363   4.995
 8536SOL    HW126507   1.069   2.329   4.902
 8536SOL    HW226508   1.033   2.303   5.059
 8537SOL     OW26509   6.516   1.356   3.467
 8537SOL    HW126510   6.598   1.363   3.410
 8537SOL    HW226511   6.441   1.318   3.413
 8538SOL     OW26512   1.828   1.696   0.075
 8538SOL    HW126513   1.780   1.626   0.022
 8538SOL    HW226514   1.766   1.773   0.092
 8539SOL     OW26515   6.320   2.166   2.425
 8539SOL    HW126516   6.363   2.171   2.335
 8539SOL    HW226517   6.389   2.142   2.493
 8540SOL     OW26518   5.159   0.030   6.645
 8540SOL    HW126519   5.129   0.116   6.685
 8540SOL    HW226520   5.139   6.981   6.708
 8541SOL     OW26521   2.776   1.789   3.972
 8541SOL    HW126522   2.866   1.831   3.960
 8541SOL    HW226523   2.730   1.830   4.050
 8542SOL     OW26524   3.222   5.176   6.150
 8542SOL    HW126525   3.278   5.199   6.070
 8542SOL    HW226526   3.279   5.134   6.221
 8543SOL     OW26527   1.880   2.042   0.377
 8543SOL    HW126528   1.829   2.010   0.457
 8543SOL    HW226529   1.959   1.983   0.362
 8544SOL     OW26530   5.363   2.768   4.333
 8544SOL    HW126531   5.284   2.818   4.297
 8544SOL    HW226532   5.348   2.670   4.325
 8545SOL     OW26533   5.065   6.277   6.573
 8545SOL    HW126534   5.143   6.297   6.514
 8545SOL    HW226535   5.017   6.196   6.540
 8546SOL     OW26536   6.049   1.905   3.150
 8546SOL    HW126537   6.031   1.840   3.076
 8546SOL    HW226538   6.144   1.898   3.179
 8547SOL     OW26539   1.396   5.702   6.095
 8547SOL    HW126540   1.321   5.680   6.157
 8547SOL    HW226541   1.407   5.802   6.089
 8548SOL     OW26542   6.003   2.004   5.536
 8548SOL    HW126543   6.044   1.916   5.559
 8548SOL    HW226544   5.999   2.014   5.437
 8549SOL     OW26545   6.843   4.233   4.071
 8549SOL    HW126546   6.887   4.161   4.125
 8549SOL    HW226547   6.750   4.247   4.105
 8550SOL     OW26548   2.010   4.557   0.039
 8550SOL    HW126549   2.067   4.490   0.086
 8550SOL    HW226550   1.970   4.516   6.983
 8551SOL     OW26551   3.450   4.484   6.504
 8551SOL    HW126552   3.355   4.460   6.487
 8551SOL    HW226553   3.505   4.401   6.511
 8552SOL     OW26554   3.034   5.663   3.182
 8552SOL    HW126555   2.968   5.630   3.250
 8552SOL    HW226556   3.110   5.598   3.176
 8553SOL     OW26557   5.389   6.322   0.240
 8553SOL    HW126558   5.364   6.297   0.334
 8553SOL    HW226559   5.487   6.341   0.235
 8554SOL     OW26560   0.195   4.129   0.489
 8554SOL    HW126561   0.256   4.054   0.515
 8554SOL    HW226562   0.244   4.192   0.428
 8555SOL     OW26563   1.290   0.508   2.822
 8555SOL    HW126564   1.221   0.442   2.794
 8555SOL    HW226565   1.261   0.600   2.797
 8556SOL     OW26566   0.752   0.454   3.089
 8556SOL    HW126567   0.848   0.468   3.065
 8556SOL    HW226568   0.736   0.358   3.108
 8557SOL     OW26569   6.299   0.074   2.104
 8557SOL    HW126570   6.362   0.058   2.180
 8557SOL    HW226571   6.298   0.172   2.082
 8558SOL     OW26572   1.858   5.807   2.584
 8558SOL    HW126573   1.820   5.727   2.537
 8558SOL    HW226574   1.883   5.876   2.517
 8559SOL     OW26575   0.709   0.987   2.088
 8559SOL    HW126576   0.794   1.039   2.082
 8559SOL    HW226577   0.663   0.988   1.999
 8560SOL     OW26578   6.954   0.891   0.626
 8560SOL    HW126579   6.933   0.925   0.718
 8560SOL    HW226580   7.008   0.807   0.633
 8561SOL     OW26581   4.523   6.054   2.212
 8561SOL    HW126582   4.456   6.013   2.274
 8561SOL    HW226583   4.517   6.154   2.219
 8562SOL     OW26584   4.664   6.278   4.613
 8562SOL    HW126585   4.764   6.280   4.609
 8562SOL    HW226586   4.631   6.190   4.580
 8563SOL     OW26587   3.050   3.168   6.719
 8563SOL    HW126588   3.020   3.189   6.626
 8563SOL    HW226589   3.150   3.164   6.721
 8564SOL     OW26590   1.349   0.657   3.244
 8564SOL    HW126591   1.296   0.591   3.298
 8564SOL    HW226592   1.294   0.738   3.227
 8565SOL     OW26593   4.006   6.931   1.493
 8565SOL    HW126594   3.996   6.992   1.414
 8565SOL    HW226595   3.919   6.885   1.510
 8566SOL     OW26596   1.564   2.139   3.119
 8566SOL    HW126597   1.586   2.056   3.067
 8566SOL    HW226598   1.466   2.139   3.141
 8567SOL     OW26599   5.885   1.130   1.418
 8567SOL    HW126600   5.932   1.092   1.337
 8567SOL    HW226601   5.864   1.226   1.402
 8568SOL     OW26602   4.979   1.557   0.047
 8568SOL    HW126603   4.932   1.475   0.079
 8568SOL    HW226604   5.011   1.610   0.126
 8569SOL     OW26605   5.008   0.954   5.140
 8569SOL    HW126606   4.934   0.940   5.206
 8569SOL    HW226607   4.996   0.891   5.063
 8570SOL     OW26608   1.585   4.605   6.145
 8570SOL    HW126609   1.649   4.556   6.205
 8570SOL    HW226610   1.566   4.550   6.064
 8571SOL     OW26611   0.054   5.010   5.292
 8571SOL    HW126612   0.036   4.912   5.302
 8571SOL    HW226613   6.994   5.061   5.292
 8572SOL     OW26614   2.018   5.525   5.580
 8572SOL    HW126615   2.044   5.475   5.662
 8572SOL    HW226616   2.100   5.556   5.532
 8573SOL     OW26617   4.232   6.084   6.928
 8573SOL    HW126618   4.170   6.144   6.877
 8573SOL    HW226619   4.271   6.135   7.006
 8574SOL     OW26620   1.333   4.717   6.141
 8574SOL    HW126621   1.305   4.654   6.214
 8574SOL    HW226622   1.419   4.685   6.102
 8575SOL     OW26623   3.047   2.654   6.583
 8575SOL    HW126624   2.950   2.661   6.608
 8575SOL    HW226625   3.096   2.603   6.653
 8576SOL     OW26626   0.500   0.061   1.686
 8576SOL    HW126627   0.518   0.159   1.693
 8576SOL    HW226628   0.465   0.027   1.774
 8577SOL     OW26629   6.286   5.099   3.823
 8577SOL    HW126630   6.319   5.193   3.815
 8577SOL    HW226631   6.324   5.058   3.906
 8578SOL     OW26632   4.646   6.944   4.490
 8578SOL    HW126633   4.736   6.987   4.480
 8578SOL    HW226634   4.576   7.015   4.503
 8579SOL     OW26635   1.101   5.037   3.548
 8579SOL    HW126636   1.107   5.087   3.462
 8579SOL    HW226637   1.163   4.959   3.547
 8580SOL     OW26638   1.923   6.624   1.838
 8580SOL    HW126639   1.949   6.693   1.769
 8580SOL    HW226640   1.903   6.538   1.792
 8581SOL     OW26641   3.572   1.776   1.022
 8581SOL    HW126642   3.623   1.861   1.024
 8581SOL    HW226643   3.474   1.796   1.013
 8582SOL     OW26644   4.829   4.679   2.075
 8582SOL    HW126645   4.889   4.655   2.150
 8582SOL    HW226646   4.792   4.596   2.033
 8583SOL     OW26647   6.031   0.519   6.616
 8583SOL    HW126648   6.112   0.506   6.558
 8583SOL    HW226649   6.039   0.606   6.666
 8584SOL     OW26650   6.810   4.434   0.801
 8584SOL    HW126651   6.776   4.354   0.751
 8584SOL    HW226652   6.884   4.406   0.861
 8585SOL     OW26653   0.461   0.780   0.805
 8585SOL    HW126654   0.456   0.698   0.862
 8585SOL    HW226655   0.374   0.828   0.807
 8586SOL     OW26656   3.284   5.788   2.918
 8586SOL    HW126657   3.293   5.808   3.016
 8586SOL    HW226658   3.201   5.736   2.902
 8587SOL     OW26659   0.609   1.688   2.912
 8587SOL    HW126660   0.644   1.602   2.950
 8587SOL    HW226661   0.556   1.736   2.981
 8588SOL     OW26662   3.314   1.998   0.791
 8588SOL    HW126663   3.297   1.986   0.693
 8588SOL    HW226664   3.238   1.957   0.843
 8589SOL     OW26665   3.919   1.293   5.257
 8589SOL    HW126666   4.016   1.287   5.281
 8589SOL    HW226667   3.874   1.207   5.277
 8590SOL     OW26668   6.701   5.579   4.934
 8590SOL    HW126669   6.657   5.491   4.924
 8590SOL    HW226670   6.679   5.618   5.024
 8591SOL     OW26671   0.847   4.606   6.546
 8591SOL    HW126672   0.903   4.575   6.470
 8591SOL    HW226673   0.869   4.553   6.628
 8592SOL     OW26674   0.316   4.240   0.267
 8592SOL    HW126675   0.270   4.321   0.230
 8592SOL    HW226676   0.388   4.211   0.205
 8593SOL     OW26677   1.305   6.886   2.137
 8593SOL    HW126678   1.396   6.900   2.177
 8593SOL    HW226679   1.252   6.825   2.196
 8594SOL     OW26680   2.986   3.674   4.171
 8594SOL    HW126681   3.058   3.741   4.186
 8594SOL    HW226682   2.951   3.642   4.259
 8595SOL     OW26683   2.220   2.165   2.578
 8595SOL    HW126684   2.199   2.249   2.629
 8595SOL    HW226685   2.255   2.189   2.488
 8596SOL     OW26686   5.651   5.284   1.847
 8596SOL    HW126687   5.642   5.350   1.922
 8596SOL    HW226688   5.664   5.192   1.885
 8597SOL     OW26689   3.334   1.913   1.188
 8597SOL    HW126690   3.260   1.848   1.205
 8597SOL    HW226691   3.300   1.989   1.134
 8598SOL     OW26692   6.581   5.185   1.052
 8598SOL    HW126693   6.604   5.157   1.145
 8598SOL    HW226694   6.531   5.271   1.054
 8599SOL     OW26695   1.254   2.564   3.794
 8599SOL    HW126696   1.188   2.565   3.720
 8599SOL    HW226697   1.206   2.569   3.882
 8600SOL     OW26698   6.313   4.723   6.575
 8600SOL    HW126699   6.387   4.722   6.642
 8600SOL    HW226700   6.350   4.704   6.484
 8601SOL     OW26701   0.092   1.511   4.678
 8601SOL    HW126702   7.022   1.523   4.652
 8601SOL    HW226703   0.104   1.544   4.772
 8602SOL     OW26704   2.834   6.311   2.690
 8602SOL    HW126705   2.911   6.374   2.687
 8602SOL    HW226706   2.791   6.315   2.780
 8603SOL     OW26707   3.323   3.812   0.083
 8603SOL    HW126708   3.371   3.899   0.071
 8603SOL    HW226709   3.231   3.820   0.046
 8604SOL     OW26710   6.234   2.919   3.866
 8604SOL    HW126711   6.152   2.867   3.889
 8604SOL    HW226712   6.314   2.876   3.907
 8605SOL     OW26713   3.608   5.559   3.992
 8605SOL    HW126714   3.663   5.641   4.009
 8605SOL    HW226715   3.610   5.537   3.895
 8606SOL     OW26716   2.637   4.055   6.053
 8606SOL    HW126717   2.648   4.111   5.971
 8606SOL    HW226718   2.571   4.098   6.115
 8607SOL     OW26719   3.460   5.839   1.430
 8607SOL    HW126720   3.397   5.803   1.499
 8607SOL    HW226721   3.554   5.817   1.456
 8608SOL     OW26722   4.278   4.621   2.664
 8608SOL    HW126723   4.364   4.571   2.671
 8608SOL    HW226724   4.246   4.618   2.569
 8609SOL     OW26725   3.793   0.636   4.677
 8609SOL    HW126726   3.852   0.672   4.605
 8609SOL    HW226727   3.780   0.538   4.663
 8610SOL     OW26728   1.077   0.117   3.469
 8610SOL    HW126729   1.017   0.129   3.548
 8610SOL    HW226730   1.172   0.109   3.499
 8611SOL     OW26731   1.103   2.287   4.442
 8611SOL    HW126732   1.074   2.383   4.433
 8611SOL    HW226733   1.203   2.282   4.445
 8612SOL     OW26734   2.857   3.652   6.668
 8612SOL    HW126735   2.799   3.581   6.628
 8612SOL    HW226736   2.947   3.651   6.623
 8613SOL     OW26737   2.019   1.646   1.042
 8613SOL    HW126738   2.041   1.570   0.981
 8613SOL    HW226739   2.030   1.732   0.993
 8614SOL     OW26740   0.649   3.928   3.074
 8614SOL    HW126741   0.685   3.859   3.011
 8614SOL    HW226742   0.636   4.015   3.025
 8615SOL     OW26743   4.678   2.034   5.332
 8615SOL    HW126744   4.735   2.091   5.273
 8615SOL    HW226745   4.728   1.952   5.358
 8616SOL     OW26746   0.666   4.924   0.423
 8616SOL    HW126747   0.575   4.937   0.385
 8616SOL    HW226748   0.690   4.827   0.424
 8617SOL     OW26749   6.678   1.750   0.710
 8617SOL    HW126750   6.604   1.689   0.681
 8617SOL    HW226751   6.645   1.811   0.782
 8618SOL     OW26752   4.626   6.913   2.432
 8618SOL    HW126753   4.576   6.859   2.364
 8618SOL    HW226754   4.596   7.008   2.428
 8619SOL     OW26755   4.126   5.384   0.057
 8619SOL    HW126756   4.166   5.299   0.090
 8619SOL    HW226757   4.033   5.366   0.025
 8620SOL     OW26758   6.225   6.762   2.904
 8620SOL    HW126759   6.164   6.823   2.955
 8620SOL    HW226760   6.171   6.691   2.858
 8621SOL     OW26761   6.716   1.140   4.031
 8621SOL    HW126762   6.681   1.221   3.985
 8621SOL    HW226763   6.738   1.162   4.126
 8622SOL     OW26764   4.332   4.300   0.086
 8622SOL    HW126765   4.421   4.346   0.075
 8622SOL    HW226766   4.284   4.299   7.024
 8623SOL     OW26767   0.730   4.396   3.113
 8623SOL    HW126768   0.739   4.334   3.035
 8623SOL    HW226769   0.666   4.358   3.179
 8624SOL     OW26770   1.468   4.323   3.547
 8624SOL    HW126771   1.502   4.292   3.458
 8624SOL    HW226772   1.404   4.256   3.584
 8625SOL     OW26773   4.437   0.844   4.314
 8625SOL    HW126774   4.386   0.915   4.363
 8625SOL    HW226775   4.378   0.803   4.243
 8626SOL     OW26776   3.511   3.342   3.976
 8626SOL    HW126777   3.443   3.376   3.911
 8626SOL    HW226778   3.478   3.355   4.069
 8627SOL     OW26779   1.304   1.019   1.433
 8627SOL    HW126780   1.206   1.019   1.453
 8627SOL    HW226781   1.346   0.936   1.470
 8628SOL     OW26782   6.837   0.258   0.333
 8628SOL    HW126783   6.784   0.237   0.416
 8628SOL    HW226784   6.909   0.323   0.355
 8629SOL     OW26785   0.871   4.945   4.211
 8629SOL    HW126786   0.885   4.967   4.307
 8629SOL    HW226787   0.915   5.015   4.154
 8630SOL     OW26788   6.013   4.040   4.334
 8630SOL    HW126789   5.951   4.031   4.256
 8630SOL    HW226790   5.984   3.978   4.407
 8631SOL     OW26791   3.864   5.653   5.776
 8631SOL    HW126792   3.851   5.731   5.838
 8631SOL    HW226793   3.931   5.591   5.815
 8632SOL     OW26794   3.612   7.014   3.784
 8632SOL    HW126795   3.534   6.959   3.753
 8632SOL    HW226796   3.581   0.053   3.854
 8633SOL     OW26797   5.655   1.169   3.850
 8633SOL    HW126798   5.619   1.080   3.820
 8633SOL    HW226799   5.591   1.209   3.916
 8634SOL     OW26800   6.338   3.930   1.380
 8634SOL    HW126801   6.423   3.906   1.426
 8634SOL    HW226802   6.356   4.003   1.313
 8635SOL     OW26803   5.908   3.777   5.735
 8635SOL    HW126804   5.810   3.761   5.737
 8635SOL    HW226805   5.928   3.864   5.691
 8636SOL     OW26806   5.799   5.299   7.017
 8636SOL    HW126807   5.747   5.261   0.067
 8636SOL    HW226808   5.892   5.262   7.019
 8637SOL     OW26809   1.668   0.802   0.059
 8637SOL    HW126810   1.596   0.733   0.059
 8637SOL    HW226811   1.754   0.760   0.086
 8638SOL     OW26812   1.896   3.826   0.355
 8638SOL    HW126813   1.975   3.870   0.397
 8638SOL    HW226814   1.816   3.837   0.415
 8639SOL     OW26815   5.120   2.411   2.271
 8639SOL    HW126816   5.076   2.390   2.358
 8639SOL    HW226817   5.055   2.396   2.196
 8640SOL     OW26818   4.194   4.136   0.496
 8640SOL    HW126819   4.269   4.118   0.559
 8640SOL    HW226820   4.210   4.224   0.450
 8641SOL     OW26821   6.777   3.983   3.142
 8641SOL    HW126822   6.731   3.908   3.190
 8641SOL    HW226823   6.797   4.056   3.207
 8642SOL     OW26824   4.869   0.345   2.402
 8642SOL    HW126825   4.855   0.436   2.363
 8642SOL    HW226826   4.842   0.275   2.336
 8643SOL     OW26827   4.854   0.399   0.022
 8643SOL    HW126828   4.893   0.448   0.100
 8643SOL    HW226829   4.754   0.395   0.032
 8644SOL     OW26830   5.577   2.147   5.431
 8644SOL    HW126831   5.565   2.208   5.509
 8644SOL    HW226832   5.643   2.187   5.367
 8645SOL     OW26833   5.975   4.606   1.247
 8645SOL    HW126834   6.003   4.687   1.196
 8645SOL    HW226835   5.926   4.544   1.186
 8646SOL     OW26836   4.524   1.144   0.729
 8646SOL    HW126837   4.493   1.110   0.640
 8646SOL    HW226838   4.512   1.073   0.798
 8647SOL     OW26839   3.793   4.860   0.181
 8647SOL    HW126840   3.821   4.814   0.096
 8647SOL    HW226841   3.837   4.950   0.186
 8648SOL     OW26842   5.721   0.767   4.462
 8648SOL    HW126843   5.807   0.759   4.411
 8648SOL    HW226844   5.728   0.842   4.528
 8649SOL     OW26845   6.348   4.437   5.596
 8649SOL    HW126846   6.264   4.399   5.556
 8649SOL    HW226847   6.368   4.389   5.682
 8650SOL     OW26848   1.820   4.798   4.023
 8650SOL    HW126849   1.743   4.772   3.964
 8650SOL    HW226850   1.906   4.788   3.972
 8651SOL     OW26851   3.886   1.089   0.331
 8651SOL    HW126852   3.877   1.064   0.427
 8651SOL    HW226853   3.981   1.112   0.311
 8652SOL     OW26854   1.775   4.007   3.528
 8652SOL    HW126855   1.788   4.083   3.465
 8652SOL    HW226856   1.769   4.041   3.622
 8653SOL     OW26857   0.103   1.941   6.221
 8653SOL    HW126858   0.073   1.939   6.316
 8653SOL    HW226859   0.141   1.852   6.196
 8654SOL     OW26860   0.132   6.284   2.664
 8654SOL    HW126861   0.131   6.380   2.692
 8654SOL    HW226862   0.122   6.277   2.565
 8655SOL     OW26863   5.886   0.144   4.007
 8655SOL    HW126864   5.898   0.055   3.963
 8655SOL    HW226865   5.879   0.131   4.106
 8656SOL     OW26866   6.114   1.283   1.174
 8656SOL    HW126867   6.077   1.191   1.175
 8656SOL    HW226868   6.040   1.349   1.164
 8657SOL     OW26869   4.332   5.044   6.198
 8657SOL    HW126870   4.307   5.114   6.265
 8657SOL    HW226871   4.426   5.058   6.168
 8658SOL     OW26872   4.988   4.882   0.043
 8658SOL    HW126873   4.974   4.793   0.085
 8658SOL    HW226874   5.012   4.949   0.113
 8659SOL     OW26875   4.229   0.604   3.605
 8659SOL    HW126876   4.198   0.540   3.534
 8659SOL    HW226877   4.300   0.663   3.568
 8660SOL     OW26878   5.910   4.032   0.089
 8660SOL    HW126879   5.924   3.946   0.137
 8660SOL    HW226880   5.844   4.088   0.139
 8661SOL     OW26881   5.984   3.997   1.790
 8661SOL    HW126882   5.925   3.967   1.865
 8661SOL    HW226883   6.042   3.921   1.760
 8662SOL     OW26884   5.577   6.256   1.635
 8662SOL    HW126885   5.649   6.285   1.572
 8662SOL    HW226886   5.512   6.330   1.648
 8663SOL     OW26887   2.675   5.556   0.559
 8663SOL    HW126888   2.740   5.571   0.634
 8663SOL    HW226889   2.684   5.631   0.493
 8664SOL     OW26890   4.453   5.325   6.844
 8664SOL    HW126891   4.403   5.410   6.857
 8664SOL    HW226892   4.397   5.248   6.874
 8665SOL     OW26893   4.813   5.707   5.574
 8665SOL    HW126894   4.764   5.649   5.639
 8665SOL    HW226895   4.750   5.736   5.502
 8666SOL     OW26896   4.950   1.696   4.913
 8666SOL    HW126897   4.889   1.703   4.992
 8666SOL    HW226898   4.899   1.659   4.836
 8667SOL     OW26899   5.006   1.620   2.996
 8667SOL    HW126900   5.028   1.574   3.083
 8667SOL    HW226901   5.091   1.650   2.953
 8668SOL     OW26902   5.342   2.450   3.826
 8668SOL    HW126903   5.297   2.364   3.851
 8668SOL    HW226904   5.306   2.523   3.883
 8669SOL     OW26905   3.716   0.330   6.370
 8669SOL    HW126906   3.737   0.394   6.444
 8669SOL    HW226907   3.644   0.267   6.399
 8670SOL     OW26908   3.505   5.399   4.912
 8670SOL    HW126909   3.482   5.303   4.924
 8670SOL    HW226910   3.480   5.450   4.995
 8671SOL     OW26911   5.614   0.138   3.842
 8671SOL    HW126912   5.588   0.137   3.745
 8671SOL    HW226913   5.706   0.101   3.852
 8672SOL     OW26914   2.235   5.693   4.499
 8672SOL    HW126915   2.282   5.634   4.565
 8672SOL    HW226916   2.293   5.770   4.476
 8673SOL     OW26917   0.263   1.177   0.053
 8673SOL    HW126918   0.291   1.088   0.089
 8673SOL    HW226919   0.331   1.246   0.077
 8674SOL     OW26920   7.019   6.259   2.418
 8674SOL    HW126921   6.933   6.225   2.454
 8674SOL    HW226922   7.023   6.359   2.430
 8675SOL     OW26923   3.398   2.131   4.579
 8675SOL    HW126924   3.333   2.078   4.633
 8675SOL    HW226925   3.484   2.141   4.630
 8676SOL     OW26926   2.978   0.747   2.788
 8676SOL    HW126927   2.949   0.656   2.759
 8676SOL    HW226928   3.042   0.785   2.720
 8677SOL     OW26929   2.182   5.621   6.110
 8677SOL    HW126930   2.184   5.621   6.210
 8677SOL    HW226931   2.217   5.535   6.075
 8678SOL     OW26932   0.550   0.183   0.083
 8678SOL    HW126933   0.530   0.146   0.173
 8678SOL    HW226934   0.489   0.261   0.065
 8679SOL     OW26935   5.908   1.920   4.526
 8679SOL    HW126936   5.892   1.898   4.622
 8679SOL    HW226937   5.856   1.857   4.468
 8680SOL     OW26938   1.163   3.876   1.445
 8680SOL    HW126939   1.220   3.944   1.399
 8680SOL    HW226940   1.218   3.796   1.469
 8681SOL     OW26941   4.899   4.567   6.858
 8681SOL    HW126942   4.871   4.493   6.798
 8681SOL    HW226943   4.880   4.542   6.953
 8682SOL     OW26944   3.620   6.304   3.016
 8682SOL    HW126945   3.581   6.325   3.106
 8682SOL    HW226946   3.670   6.384   2.982
 8683SOL     OW26947   1.180   2.746   2.279
 8683SOL    HW126948   1.259   2.752   2.340
 8683SOL    HW226949   1.176   2.655   2.238
 8684SOL     OW26950   0.688   2.995   4.477
 8684SOL    HW126951   0.665   2.909   4.431
 8684SOL    HW226952   0.609   3.056   4.476
 8685SOL     OW26953   1.462   2.055   5.675
 8685SOL    HW126954   1.430   2.033   5.582
 8685SOL    HW226955   1.450   2.152   5.693
 8686SOL     OW26956   6.470   2.157   2.188
 8686SOL    HW126957   6.560   2.154   2.144
 8686SOL    HW226958   6.417   2.233   2.150
 8687SOL     OW26959   3.588   6.424   2.650
 8687SOL    HW126960   3.609   6.390   2.559
 8687SOL    HW226961   3.509   6.373   2.687
 8688SOL     OW26962   2.769   6.730   0.350
 8688SOL    HW126963   2.793   6.640   0.316
 8688SOL    HW226964   2.796   6.737   0.447
 8689SOL     OW26965   3.782   6.201   0.160
 8689SOL    HW126966   3.851   6.133   0.136
 8689SOL    HW226967   3.696   6.155   0.182
 8690SOL     OW26968   1.955   2.358   4.100
 8690SOL    HW126969   2.006   2.311   4.029
 8690SOL    HW226970   1.892   2.424   4.058
 8691SOL     OW26971   4.290   2.522   6.574
 8691SOL    HW126972   4.219   2.579   6.616
 8691SOL    HW226973   4.321   2.565   6.488
 8692SOL     OW26974   3.573   2.124   2.770
 8692SOL    HW126975   3.661   2.109   2.816
 8692SOL    HW226976   3.588   2.135   2.672
 8693SOL     OW26977   5.176   1.787   1.129
 8693SOL    HW126978   5.272   1.782   1.159
 8693SOL    HW226979   5.139   1.877   1.153
 8694SOL     OW26980   4.694   0.357   6.337
 8694SOL    HW126981   4.612   0.327   6.387
 8694SOL    HW226982   4.763   0.285   6.340
 8695SOL     OW26983   4.482   2.882   6.040
 8695SOL    HW126984   4.580   2.876   6.056
 8695SOL    HW226985   4.454   2.814   5.972
 8696SOL     OW26986   3.206   5.665   0.972
 8696SOL    HW126987   3.291   5.614   0.985
 8696SOL    HW226988   3.209   5.750   1.023
 8697SOL     OW26989   6.626   3.480   0.191
 8697SOL    HW126990   6.620   3.527   0.280
 8697SOL    HW226991   6.708   3.422   0.190
 8698SOL     OW26992   5.192   5.731   3.877
 8698SOL    HW126993   5.286   5.743   3.846
 8698SOL    HW226994   5.152   5.650   3.834
 8699SOL     OW26995   0.661   2.169   5.358
 8699SOL    HW126996   0.659   2.166   5.458
 8699SOL    HW226997   0.740   2.223   5.328
 8700SOL     OW26998   2.073   0.644   5.083
 8700SOL    HW126999   2.051   0.565   5.141
 8700SOL    HW227000   2.093   0.612   4.990
 8701SOL     OW27001   1.004   0.888   6.090
 8701SOL    HW127002   1.053   0.801   6.088
 8701SOL    HW227003   0.989   0.916   6.185
 8702SOL     OW27004   5.415   4.772   6.870
 8702SOL    HW127005   5.324   4.733   6.884
 8702SOL    HW227006   5.484   4.709   6.906
 8703SOL     OW27007   3.214   5.781   1.590
 8703SOL    HW127008   3.134   5.754   1.536
 8703SOL    HW227009   3.187   5.797   1.684
 8704SOL     OW27010   6.342   3.791   2.504
 8704SOL    HW127011   6.424   3.795   2.446
 8704SOL    HW227012   6.267   3.840   2.459
 8705SOL     OW27013   5.150   0.558   6.316
 8705SOL    HW127014   5.216   0.576   6.244
 8705SOL    HW227015   5.199   0.538   6.401
 8706SOL     OW27016   5.041   2.383   5.892
 8706SOL    HW127017   5.056   2.343   5.982
 8706SOL    HW227018   5.127   2.384   5.841
 8707SOL     OW27019   4.428   2.861   0.436
 8707SOL    HW127020   4.463   2.919   0.361
 8707SOL    HW227021   4.505   2.815   0.481
 8708SOL     OW27022   3.798   0.688   1.955
 8708SOL    HW127023   3.820   0.621   2.026
 8708SOL    HW227024   3.708   0.668   1.917
 8709SOL     OW27025   6.714   4.806   6.993
 8709SOL    HW127026   6.651   4.791   0.044
 8709SOL    HW227027   6.713   4.725   6.933
 8710SOL     OW27028   1.707   2.622   3.075
 8710SOL    HW127029   1.669   2.560   3.143
 8710SOL    HW227030   1.759   2.569   3.008
 8711SOL     OW27031   6.977   6.502   2.513
 8711SOL    HW127032   6.889   6.503   2.560
 8711SOL    HW227033   6.976   6.567   2.437
 8712SOL     OW27034   3.888   2.001   3.646
 8712SOL    HW127035   3.884   1.921   3.585
 8712SOL    HW227036   3.798   2.019   3.684
 8713SOL     OW27037   6.691   4.208   3.431
 8713SOL    HW127038   6.617   4.142   3.447
 8713SOL    HW227039   6.778   4.159   3.428
 8714SOL     OW27040   0.990   1.014   5.839
 8714SOL    HW127041   0.974   0.975   5.929
 8714SOL    HW227042   0.920   0.979   5.775
 8715SOL     OW27043   5.968   0.826   0.887
 8715SOL    HW127044   5.919   0.880   0.954
 8715SOL    HW227045   6.005   0.886   0.816
 8716SOL     OW27046   1.124   1.708   0.772
 8716SOL    HW127047   1.216   1.686   0.804
 8716SOL    HW227048   1.119   1.804   0.744
 8717SOL     OW27049   4.090   3.629   2.437
 8717SOL    HW127050   4.092   3.565   2.513
 8717SOL    HW227051   4.125   3.718   2.466
 8718SOL     OW27052   0.139   2.176   5.061
 8718SOL    HW127053   0.212   2.160   4.995
 8718SOL    HW227054   0.171   2.154   5.152
 8719SOL     OW27055   1.680   0.557   5.504
 8719SOL    HW127056   1.597   0.613   5.508
 8719SOL    HW227057   1.675   0.496   5.425
 8720SOL     OW27058   6.870   5.139   5.436
 8720SOL    HW127059   6.830   5.226   5.463
 8720SOL    HW227060   6.882   5.081   5.516
 8721SOL     OW27061   5.912   2.277   4.249
 8721SOL    HW127062   5.872   2.365   4.224
 8721SOL    HW227063   6.006   2.272   4.216
 8722SOL     OW27064   3.551   0.817   0.934
 8722SOL    HW127065   3.511   0.907   0.920
 8722SOL    HW227066   3.613   0.796   0.858
 8723SOL     OW27067   5.991   5.972   1.084
 8723SOL    HW127068   5.912   5.951   1.141
 8723SOL    HW227069   5.962   5.983   0.989
 8724SOL     OW27070   6.229   6.827   4.800
 8724SOL    HW127071   6.275   6.760   4.859
 8724SOL    HW227072   6.142   6.789   4.768
 8725SOL     OW27073   1.635   1.011   6.703
 8725SOL    HW127074   1.716   0.989   6.757
 8725SOL    HW227075   1.590   1.092   6.741
 8726SOL     OW27076   6.070   7.010   1.703
 8726SOL    HW127077   6.012   0.039   1.763
 8726SOL    HW227078   6.166   7.022   1.729
 8727SOL     OW27079   6.373   6.621   2.108
 8727SOL    HW127080   6.352   6.540   2.163
 8727SOL    HW227081   6.465   6.613   2.071
 8728SOL     OW27082   3.968   0.082   5.144
 8728SOL    HW127083   3.929   0.170   5.117
 8728SOL    HW227084   3.940   0.011   5.080
 8729SOL     OW27085   5.167   5.434   3.081
 8729SOL    HW127086   5.250   5.434   3.138
 8729SOL    HW227087   5.186   5.483   2.996
 8730SOL     OW27088   0.211   5.490   2.805
 8730SOL    HW127089   0.190   5.580   2.843
 8730SOL    HW227090   0.278   5.444   2.864
 8731SOL     OW27091   1.870   1.854   3.525
 8731SOL    HW127092   1.938   1.832   3.455
 8731SOL    HW227093   1.912   1.845   3.616
 8732SOL     OW27094   5.530   4.210   1.967
 8732SOL    HW127095   5.528   4.202   1.867
 8732SOL    HW227096   5.589   4.286   1.992
 8733SOL     OW27097   0.965   5.913   2.829
 8733SOL    HW127098   0.876   5.942   2.795
 8733SOL    HW227099   1.027   5.898   2.752
 8734SOL     OW27100   0.940   4.601   2.065
 8734SOL    HW127101   1.031   4.559   2.058
 8734SOL    HW227102   0.906   4.591   2.158
 8735SOL     OW27103   0.591   1.864   7.019
 8735SOL    HW127104   0.554   1.846   6.927
 8735SOL    HW227105   0.570   1.958   0.019
 8736SOL     OW27106   0.461   6.506   0.448
 8736SOL    HW127107   0.371   6.478   0.482
 8736SOL    HW227108   0.473   6.474   0.354
 8737SOL     OW27109   4.308   6.897   6.338
 8737SOL    HW127110   4.342   6.810   6.302
 8737SOL    HW227111   4.266   6.881   6.428
 8738SOL     OW27112   1.187   4.102   4.929
 8738SOL    HW127113   1.263   4.100   4.994
 8738SOL    HW227114   1.217   4.062   4.842
 8739SOL     OW27115   6.538   4.688   6.733
 8739SOL    HW127116   6.603   4.618   6.764
 8739SOL    HW227117   6.479   4.715   6.809
 8740SOL     OW27118   4.150   0.923   5.944
 8740SOL    HW127119   4.120   0.835   5.907
 8740SOL    HW227120   4.211   0.968   5.879
 8741SOL     OW27121   1.963   2.136   1.432
 8741SOL    HW127122   1.865   2.135   1.452
 8741SOL    HW227123   2.012   2.183   1.505
 8742SOL     OW27124   4.854   6.004   1.742
 8742SOL    HW127125   4.801   6.070   1.794
 8742SOL    HW227126   4.893   6.049   1.661
 8743SOL     OW27127   2.174   6.048   2.448
 8743SOL    HW127128   2.239   6.094   2.509
 8743SOL    HW227129   2.082   6.080   2.467
 8744SOL     OW27130   4.234   2.440   6.005
 8744SOL    HW127131   4.140   2.463   5.977
 8744SOL    HW227132   4.299   2.496   5.954
 8745SOL     OW27133   5.784   1.887   5.688
 8745SOL    HW127134   5.848   1.907   5.614
 8745SOL    HW227135   5.767   1.788   5.692
 8746SOL     OW27136   4.217   4.205   5.526
 8746SOL    HW127137   4.278   4.210   5.447
 8746SOL    HW227138   4.134   4.258   5.508
 8747SOL     OW27139   0.528   2.472   3.482
 8747SOL    HW127140   0.548   2.550   3.423
 8747SOL    HW227141   0.576   2.483   3.569
 8748SOL     OW27142   0.601   0.404   6.835
 8748SOL    HW127143   0.678   0.344   6.857
 8748SOL    HW227144   0.559   0.376   6.749
 8749SOL     OW27145   3.128   0.577   4.486
 8749SOL    HW127146   3.159   0.496   4.536
 8749SOL    HW227147   3.097   0.550   4.395
 8750SOL     OW27148   2.568   2.880   5.381
 8750SOL    HW127149   2.478   2.841   5.397
 8750SOL    HW227150   2.559   2.965   5.328
 8751SOL     OW27151   6.779   0.427   1.893
 8751SOL    HW127152   6.827   0.512   1.913
 8751SOL    HW227153   6.831   0.374   1.826
 8752SOL     OW27154   3.286   4.393   0.081
 8752SOL    HW127155   3.296   4.421   7.012
 8752SOL    HW227156   3.356   4.325   0.104
 8753SOL     OW27157   4.889   1.340   4.737
 8753SOL    HW127158   4.922   1.278   4.667
 8753SOL    HW227159   4.916   1.306   4.827
 8754SOL     OW27160   0.437   1.971   5.693
 8754SOL    HW127161   0.535   1.962   5.712
 8754SOL    HW227162   0.392   1.882   5.703
 8755SOL     OW27163   2.976   1.617   6.564
 8755SOL    HW127164   2.987   1.641   6.468
 8755SOL    HW227165   2.879   1.604   6.585
 8756SOL     OW27166   2.350   2.740   3.224
 8756SOL    HW127167   2.403   2.800   3.284
 8756SOL    HW227168   2.318   2.661   3.276
 8757SOL     OW27169   6.002   6.364   5.937
 8757SOL    HW127170   6.037   6.457   5.940
 8757SOL    HW227171   5.985   6.337   5.842
 8758SOL     OW27172   5.404   6.254   1.973
 8758SOL    HW127173   5.408   6.249   1.873
 8758SOL    HW227174   5.312   6.229   2.004
 8759SOL     OW27175   4.564   1.401   6.559
 8759SOL    HW127176   4.491   1.447   6.610
 8759SOL    HW227177   4.649   1.452   6.568
 8760SOL     OW27178   1.947   1.674   4.334
 8760SOL    HW127179   1.910   1.759   4.371
 8760SOL    HW227180   1.978   1.689   4.240
 8761SOL     OW27181   5.282   0.661   0.885
 8761SOL    HW127182   5.337   0.602   0.826
 8761SOL    HW227183   5.261   0.746   0.837
 8762SOL     OW27184   1.251   3.265   2.921
 8762SOL    HW127185   1.288   3.246   2.830
 8762SOL    HW227186   1.316   3.322   2.972
 8763SOL     OW27187   6.504   6.010   4.918
 8763SOL    HW127188   6.458   5.935   4.871
 8763SOL    HW227189   6.444   6.047   4.989
 8764SOL     OW27190   5.317   1.839   3.693
 8764SOL    HW127191   5.331   1.740   3.690
 8764SOL    HW227192   5.343   1.874   3.783
 8765SOL     OW27193   5.737   6.590   4.646
 8765SOL    HW127194   5.639   6.610   4.642
 8765SOL    HW227195   5.785   6.641   4.574
 8766SOL     OW27196   3.532   4.970   3.622
 8766SOL    HW127197   3.551   4.994   3.718
 8766SOL    HW227198   3.434   4.951   3.611
 8767SOL     OW27199   4.318   0.578   2.744
 8767SOL    HW127200   4.296   0.548   2.837
 8767SOL    HW227201   4.415   0.560   2.727
 8768SOL     OW27202   1.611   3.065   0.133
 8768SOL    HW127203   1.610   2.965   0.140
 8768SOL    HW227204   1.661   3.092   0.051
 8769SOL     OW27205   0.548   0.263   5.171
 8769SOL    HW127206   0.460   0.244   5.129
 8769SOL    HW227207   0.537   0.331   5.244
 8770SOL     OW27208   4.802   4.181   1.912
 8770SOL    HW127209   4.703   4.200   1.913
 8770SOL    HW227210   4.819   4.093   1.956
 8771SOL     OW27211   1.825   1.820   6.227
 8771SOL    HW127212   1.815   1.908   6.274
 8771SOL    HW227213   1.855   1.835   6.133
 8772SOL     OW27214   6.061   0.763   6.780
 8772SOL    HW127215   5.999   0.812   6.841
 8772SOL    HW227216   6.144   0.738   6.830
 8773SOL     OW27217   4.001   2.211   3.459
 8773SOL    HW127218   3.960   2.144   3.520
 8773SOL    HW227219   4.082   2.251   3.503
 8774SOL     OW27220   1.077   1.320   0.368
 8774SOL    HW127221   1.068   1.419   0.361
 8774SOL    HW227222   1.159   1.297   0.420
 8775SOL     OW27223   5.872   7.010   3.781
 8775SOL    HW127224   5.840   6.946   3.711
 8775SOL    HW227225   5.964   0.015   3.758
 8776SOL     OW27226   3.820   3.042   5.038
 8776SOL    HW127227   3.759   2.964   5.052
 8776SOL    HW227228   3.828   3.062   4.941
 8777SOL     OW27229   7.023   5.060   1.354
 8777SOL    HW127230   7.008   5.149   1.398
 8777SOL    HW227231   7.007   5.067   1.256
 8778SOL     OW27232   0.110   1.770   3.329
 8778SOL    HW127233   0.150   1.860   3.350
 8778SOL    HW227234   0.094   1.720   3.414
 8779SOL     OW27235   1.630   4.708   2.516
 8779SOL    HW127236   1.599   4.613   2.518
 8779SOL    HW227237   1.647   4.736   2.421
 8780SOL     OW27238   1.497   6.068   3.730
 8780SOL    HW127239   1.406   6.063   3.689
 8780SOL    HW227240   1.506   6.153   3.782
 8781SOL     OW27241   6.854   1.000   3.045
 8781SOL    HW127242   6.860   0.901   3.054
 8781SOL    HW227243   6.873   1.043   3.133
 8782SOL     OW27244   5.645   1.035   1.815
 8782SOL    HW127245   5.553   1.069   1.835
 8782SOL    HW227246   5.711   1.108   1.827
 8783SOL     OW27247   6.121   4.101   3.835
 8783SOL    HW127248   6.116   4.117   3.737
 8783SOL    HW227249   6.172   4.175   3.879
 8784SOL     OW27250   5.415   4.915   5.168
 8784SOL    HW127251   5.380   4.955   5.083
 8784SOL    HW227252   5.460   4.986   5.222
 8785SOL     OW27253   5.379   4.027   0.110
 8785SOL    HW127254   5.382   4.081   0.194
 8785SOL    HW227255   5.315   3.951   0.121
 8786SOL     OW27256   1.720   6.302   0.201
 8786SOL    HW127257   1.748   6.354   0.281
 8786SOL    HW227258   1.638   6.248   0.223
 8787SOL     OW27259   1.278   3.347   2.223
 8787SOL    HW127260   1.256   3.375   2.316
 8787SOL    HW227261   1.251   3.419   2.159
 8788SOL     OW27262   6.669   2.003   5.372
 8788SOL    HW127263   6.660   1.962   5.281
 8788SOL    HW227264   6.765   2.019   5.392
 8789SOL     OW27265   6.316   0.497   6.542
 8789SOL    HW127266   6.383   0.515   6.615
 8789SOL    HW227267   6.318   0.399   6.520
 8790SOL     OW27268   6.822   1.509   6.758
 8790SOL    HW127269   6.917   1.500   6.730
 8790SOL    HW227270   6.798   1.606   6.764
 8791SOL     OW27271   5.283   6.765   5.972
 8791SOL    HW127272   5.286   6.864   5.959
 8791SOL    HW227273   5.375   6.730   5.983
 8792SOL     OW27274   3.948   6.961   3.344
 8792SOL    HW127275   3.973   6.952   3.440
 8792SOL    HW227276   3.848   6.960   3.335
 8793SOL     OW27277   2.480   5.764   4.258
 8793SOL    HW127278   2.489   5.684   4.319
 8793SOL    HW227279   2.471   5.846   4.314
 8794SOL     OW27280   3.401   6.699   3.009
 8794SOL    HW127281   3.395   6.617   2.953
 8794SOL    HW227282   3.414   6.779   2.951
 8795SOL     OW27283   1.788   6.570   5.203
 8795SOL    HW127284   1.813   6.610   5.115
 8795SOL    HW227285   1.715   6.503   5.190
 8796SOL     OW27286   4.737   1.749   5.671
 8796SOL    HW127287   4.733   1.848   5.666
 8796SOL    HW227288   4.677   1.716   5.743
 8797SOL     OW27289   1.708   6.313   6.222
 8797SOL    HW127290   1.640   6.279   6.157
 8797SOL    HW227291   1.786   6.350   6.173
 8798SOL     OW27292   5.369   4.125   5.534
 8798SOL    HW127293   5.295   4.107   5.598
 8798SOL    HW227294   5.332   4.135   5.442
 8799SOL     OW27295   2.352   4.258   3.527
 8799SOL    HW127296   2.420   4.306   3.583
 8799SOL    HW227297   2.291   4.324   3.485
 8800SOL     OW27298   4.631   3.902   5.613
 8800SOL    HW127299   4.663   3.927   5.521
 8800SOL    HW227300   4.576   3.976   5.651
 8801SOL     OW27301   2.328   1.336   4.154
 8801SOL    HW127302   2.405   1.346   4.216
 8801SOL    HW227303   2.247   1.382   4.192
 8802SOL     OW27304   1.174   6.679   1.343
 8802SOL    HW127305   1.206   6.721   1.258
 8802SOL    HW227306   1.166   6.580   1.330
 8803SOL     OW27307   1.806   5.410   0.065
 8803SOL    HW127308   1.873   5.396   7.019
 8803SOL    HW227309   1.848   5.390   0.154
 8804SOL     OW27310   4.137   0.824   1.607
 8804SOL    HW127311   4.045   0.835   1.644
 8804SOL    HW227312   4.179   0.914   1.593
 8805SOL     OW27313   1.561   0.759   3.733
 8805SOL    HW127314   1.600   0.678   3.776
 8805SOL    HW227315   1.462   0.747   3.723
 8806SOL     OW27316   1.911   5.386   0.875
 8806SOL    HW127317   1.928   5.366   0.971
 8806SOL    HW227318   1.830   5.443   0.866
 8807SOL     OW27319   6.035   5.717   5.864
 8807SOL    HW127320   6.031   5.677   5.772
 8807SOL    HW227321   6.116   5.775   5.872
 8808SOL     OW27322   5.699   1.483   0.913
 8808SOL    HW127323   5.605   1.509   0.935
 8808SOL    HW227324   5.733   1.541   0.839
 8809SOL     OW27325   5.529   3.250   1.492
 8809SOL    HW127326   5.459   3.321   1.491
 8809SOL    HW227327   5.541   3.216   1.586
 8810SOL     OW27328   5.594   1.455   4.170
 8810SOL    HW127329   5.529   1.396   4.122
 8810SOL    HW227330   5.601   1.543   4.122
 8811SOL     OW27331   2.358   1.796   4.034
 8811SOL    HW127332   2.356   1.849   4.119
 8811SOL    HW227333   2.443   1.745   4.029
 8812SOL     OW27334   0.855   0.913   0.355
 8812SOL    HW127335   0.891   0.820   0.341
 8812SOL    HW227336   0.912   0.978   0.306
 8813SOL     OW27337   0.781   5.346   1.407
 8813SOL    HW127338   0.810   5.356   1.312
 8813SOL    HW227339   0.841   5.398   1.466
 8814SOL     OW27340   0.111   0.545   6.841
 8814SOL    HW127341   0.130   0.485   6.918
 8814SOL    HW227342   0.138   0.639   6.864
 8815SOL     OW27343   6.981   5.749   1.787
 8815SOL    HW127344   6.938   5.780   1.702
 8815SOL    HW227345   0.047   5.789   1.793
 8816SOL     OW27346   1.054   6.537   1.008
 8816SOL    HW127347   1.084   6.502   1.097
 8816SOL    HW227348   0.962   6.575   1.016
 8817SOL     OW27349   1.024   6.314   5.492
 8817SOL    HW127350   1.087   6.383   5.455
 8817SOL    HW227351   1.036   6.228   5.443
 8818SOL     OW27352   0.273   3.773   3.513
 8818SOL    HW127353   0.248   3.792   3.608
 8818SOL    HW227354   0.230   3.840   3.453
 8819SOL     OW27355   4.233   5.995   4.433
 8819SOL    HW127356   4.239   6.071   4.368
 8819SOL    HW227357   4.141   5.956   4.430
 8820SOL     OW27358   1.884   2.745   4.594
 8820SOL    HW127359   1.944   2.731   4.516
 8820SOL    HW227360   1.905   2.678   4.665
 8821SOL     OW27361   1.711   0.069   6.643
 8821SOL    HW127362   1.736   6.999   6.657
 8821SOL    HW227363   1.768   0.108   6.571
 8822SOL     OW27364   0.559   0.635   2.949
 8822SOL    HW127365   0.517   0.608   2.862
 8822SOL    HW227366   0.627   0.566   2.976
 8823SOL     OW27367   2.148   0.248   1.037
 8823SOL    HW127368   2.204   0.308   1.096
 8823SOL    HW227369   2.207   0.181   0.992
 8824SOL     OW27370   2.526   4.167   0.769
 8824SOL    HW127371   2.563   4.074   0.766
 8824SOL    HW227372   2.471   4.183   0.687
 8825SOL     OW27373   1.646   1.180   2.129
 8825SOL    HW127374   1.665   1.126   2.047
 8825SOL    HW227375   1.718   1.166   2.197
 8826SOL     OW27376   6.089   1.890   0.289
 8826SOL    HW127377   6.002   1.933   0.267
 8826SOL    HW227378   6.145   1.954   0.343
 8827SOL     OW27379   2.842   1.042   3.330
 8827SOL    HW127380   2.786   1.122   3.349
 8827SOL    HW227381   2.794   0.982   3.265
 8828SOL     OW27382   3.546   5.573   3.677
 8828SOL    HW127383   3.594   5.527   3.603
 8828SOL    HW227384   3.453   5.537   3.684
 8829SOL     OW27385   0.417   3.455   0.138
 8829SOL    HW127386   0.397   3.357   0.136
 8829SOL    HW227387   0.515   3.469   0.150
 8830SOL     OW27388   6.776   1.048   6.970
 8830SOL    HW127389   6.738   1.029   6.880
 8830SOL    HW227390   6.749   1.141   6.998
 8831SOL     OW27391   5.786   1.062   3.480
 8831SOL    HW127392   5.810   0.980   3.531
 8831SOL    HW227393   5.709   1.108   3.524
 8832SOL     OW27394   0.347   6.970   1.890
 8832SOL    HW127395   0.250   6.970   1.863
 8832SOL    HW227396   0.387   6.881   1.872
 8833SOL     OW27397   1.452   5.642   5.005
 8833SOL    HW127398   1.547   5.663   5.032
 8833SOL    HW227399   1.453   5.578   4.928
 8834SOL     OW27400   5.656   3.320   4.705
 8834SOL    HW127401   5.678   3.401   4.650
 8834SOL    HW227402   5.582   3.269   4.661
 8835SOL     OW27403   6.549   0.130   5.618
 8835SOL    HW127404   6.456   0.164   5.603
 8835SOL    HW227405   6.609   0.206   5.640
 8836SOL     OW27406   4.142   0.617   0.557
 8836SOL    HW127407   4.119   0.521   0.573
 8836SOL    HW227408   4.109   0.644   0.466
 8837SOL     OW27409   1.249   0.512   1.776
 8837SOL    HW127410   1.193   0.481   1.853
 8837SOL    HW227411   1.321   0.573   1.809
 8838SOL     OW27412   2.582   5.213   3.716
 8838SOL    HW127413   2.595   5.155   3.635
 8838SOL    HW227414   2.572   5.155   3.797
 8839SOL     OW27415   6.123   5.927   2.958
 8839SOL    HW127416   6.059   5.861   2.920
 8839SOL    HW227417   6.095   5.951   3.051
 8840SOL     OW27418   5.739   2.060   2.021
 8840SOL    HW127419   5.746   2.156   1.996
 8840SOL    HW227420   5.814   2.035   2.082
 8841SOL     OW27421   1.523   1.241   4.869
 8841SOL    HW127422   1.579   1.323   4.862
 8841SOL    HW227423   1.579   1.164   4.898
 8842SOL     OW27424   3.044   3.185   1.211
 8842SOL    HW127425   3.068   3.117   1.281
 8842SOL    HW227426   2.988   3.257   1.252
 8843SOL     OW27427   1.084   3.106   5.390
 8843SOL    HW127428   1.088   3.053   5.475
 8843SOL    HW227429   0.994   3.095   5.348
 8844SOL     OW27430   5.757   1.050   6.178
 8844SOL    HW127431   5.670   1.091   6.208
 8844SOL    HW227432   5.824   1.057   6.252
 8845SOL     OW27433   4.153   4.042   6.749
 8845SOL    HW127434   4.088   4.015   6.820
 8845SOL    HW227435   4.103   4.060   6.664
 8846SOL     OW27436   2.160   5.359   3.676
 8846SOL    HW127437   2.246   5.375   3.725
 8846SOL    HW227438   2.094   5.429   3.702
 8847SOL     OW27439   2.668   0.531   2.623
 8847SOL    HW127440   2.653   0.505   2.528
 8847SOL    HW227441   2.599   0.599   2.650
 8848SOL     OW27442   2.245   1.138   1.282
 8848SOL    HW127443   2.157   1.179   1.259
 8848SOL    HW227444   2.314   1.167   1.216
 8849SOL     OW27445   1.796   5.868   2.195
 8849SOL    HW127446   1.896   5.864   2.189
 8849SOL    HW227447   1.759   5.887   2.104
 8850SOL     OW27448   2.710   1.935   6.793
 8850SOL    HW127449   2.730   2.000   6.720
 8850SOL    HW227450   2.613   1.911   6.792
 8851SOL     OW27451   1.449   4.865   2.618
 8851SOL    HW127452   1.480   4.959   2.625
 8851SOL    HW227453   1.527   4.804   2.603
 8852SOL     OW27454   1.164   1.878   5.241
 8852SOL    HW127455   1.090   1.811   5.238
 8852SOL    HW227456   1.132   1.960   5.289
 8853SOL     OW27457   2.814   0.618   1.328
 8853SOL    HW127458   2.775   0.656   1.245
 8853SOL    HW227459   2.756   0.643   1.406
 8854SOL     OW27460   1.824   2.569   5.061
 8854SOL    HW127461   1.771   2.590   5.143
 8854SOL    HW227462   1.787   2.620   4.983
 8855SOL     OW27463   6.248   5.292   1.451
 8855SOL    HW127464   6.209   5.382   1.469
 8855SOL    HW227465   6.274   5.286   1.354
 8856SOL     OW27466   6.378   5.636   5.766
 8856SOL    HW127467   6.309   5.706   5.785
 8856SOL    HW227468   6.455   5.678   5.717
 8857SOL     OW27469   6.378   1.438   5.661
 8857SOL    HW127470   6.352   1.408   5.569
 8857SOL    HW227471   6.299   1.430   5.722
 8858SOL     OW27472   0.225   4.800   5.694
 8858SOL    HW127473   0.245   4.758   5.606
 8858SOL    HW227474   0.299   4.780   5.758
 8859SOL     OW27475   0.881   0.662   3.715
 8859SOL    HW127476   0.887   0.756   3.747
 8859SOL    HW227477   0.788   0.627   3.729
 8860SOL     OW27478   0.046   2.564   1.540
 8860SOL    HW127479   0.015   2.575   1.634
 8860SOL    HW227480   0.045   2.654   1.495
 8861SOL     OW27481   4.065   1.406   1.055
 8861SOL    HW127482   3.986   1.348   1.035
 8861SOL    HW227483   4.035   1.502   1.059
 8862SOL     OW27484   4.612   5.936   4.787
 8862SOL    HW127485   4.686   5.994   4.819
 8862SOL    HW227486   4.579   5.970   4.699
 8863SOL     OW27487   2.392   4.692   3.722
 8863SOL    HW127488   2.394   4.769   3.659
 8863SOL    HW227489   2.410   4.607   3.673
 8864SOL     OW27490   5.811   2.983   6.364
 8864SOL    HW127491   5.759   2.979   6.449
 8864SOL    HW227492   5.771   3.051   6.303
 8865SOL     OW27493   3.111   1.673   6.324
 8865SOL    HW127494   3.175   1.596   6.330
 8865SOL    HW227495   3.054   1.662   6.242
 8866SOL     OW27496   5.809   6.224   2.612
 8866SOL    HW127497   5.898   6.186   2.589
 8866SOL    HW227498   5.812   6.323   2.606
 8867SOL     OW27499   6.153   3.623   2.608
 8867SOL    HW127500   6.087   3.698   2.600
 8867SOL    HW227501   6.245   3.659   2.601
 8868SOL     OW27502   0.018   3.425   2.861
 8868SOL    HW127503   0.040   3.516   2.826
 8868SOL    HW227504   0.059   3.413   2.952
 8869SOL     OW27505   3.623   5.516   4.717
 8869SOL    HW127506   3.565   5.480   4.790
 8869SOL    HW227507   3.595   5.475   4.630
 8870SOL     OW27508   1.648   6.847   1.897
 8870SOL    HW127509   1.718   6.790   1.854
 8870SOL    HW227510   1.684   6.939   1.912
 8871SOL     OW27511   1.700   0.552   2.974
 8871SOL    HW127512   1.634   0.529   3.046
 8871SOL    HW227513   1.766   0.477   2.964
 8872SOL     OW27514   0.620   4.244   6.120
 8872SOL    HW127515   0.696   4.223   6.060
 8872SOL    HW227516   0.651   4.304   6.194
 8873SOL     OW27517   1.833   0.321   2.211
 8873SOL    HW127518   1.874   0.374   2.136
 8873SOL    HW227519   1.737   0.347   2.220
 8874SOL     OW27520   1.739   5.252   0.643
 8874SOL    HW127521   1.779   5.309   0.715
 8874SOL    HW227522   1.723   5.308   0.562
 8875SOL     OW27523   0.214   3.047   3.604
 8875SOL    HW127524   0.115   3.044   3.594
 8875SOL    HW227525   0.246   2.963   3.647
 8876SOL     OW27526   3.326   0.420   5.864
 8876SOL    HW127527   3.406   0.452   5.913
 8876SOL    HW227528   3.293   0.335   5.906
 8877SOL     OW27529   0.862   3.770   1.526
 8877SOL    HW127530   0.936   3.702   1.522
 8877SOL    HW227531   0.898   3.859   1.498
 8878SOL     OW27532   4.057   4.599   0.687
 8878SOL    HW127533   4.029   4.503   0.695
 8878SOL    HW227534   3.977   4.658   0.692
 8879SOL     OW27535   6.498   4.790   2.874
 8879SOL    HW127536   6.572   4.798   2.940
 8879SOL    HW227537   6.451   4.703   2.887
 8880SOL     OW27538   4.535   6.366   3.797
 8880SOL    HW127539   4.575   6.421   3.724
 8880SOL    HW227540   4.439   6.390   3.809
 8881SOL     OW27541   4.240   5.595   3.813
 8881SOL    HW127542   4.224   5.591   3.714
 8881SOL    HW227543   4.337   5.586   3.832
 8882SOL     OW27544   4.101   0.998   0.522
 8882SOL    HW127545   4.126   1.089   0.489
 8882SOL    HW227546   4.112   0.994   0.622
 8883SOL     OW27547   0.051   6.746   6.239
 8883SOL    HW127548   0.098   6.774   6.323
 8883SOL    HW227549   6.980   6.733   6.258
 8884SOL     OW27550   5.880   3.888   4.518
 8884SOL    HW127551   5.836   3.841   4.441
 8884SOL    HW227552   5.824   3.877   4.600
 8885SOL     OW27553   5.635   5.386   0.327
 8885SOL    HW127554   5.686   5.303   0.304
 8885SOL    HW227555   5.699   5.458   0.356
 8886SOL     OW27556   3.489   5.249   6.952
 8886SOL    HW127557   3.407   5.253   6.895
 8886SOL    HW227558   3.531   5.159   6.942
 8887SOL     OW27559   4.438   0.559   0.618
 8887SOL    HW127560   4.350   0.586   0.578
 8887SOL    HW227561   4.423   0.525   0.711
 8888SOL     OW27562   2.086   1.686   3.637
 8888SOL    HW127563   2.051   1.617   3.573
 8888SOL    HW227564   2.167   1.651   3.683
 8889SOL     OW27565   6.783   6.563   5.932
 8889SOL    HW127566   6.810   6.590   6.025
 8889SOL    HW227567   6.719   6.487   5.937
 8890SOL     OW27568   0.039   6.881   0.326
 8890SOL    HW127569   0.087   6.903   0.241
 8890SOL    HW227570   6.971   6.852   0.305
 8891SOL     OW27571   5.586   4.554   6.513
 8891SOL    HW127572   5.636   4.549   6.600
 8891SOL    HW227573   5.650   4.540   6.437
 8892SOL     OW27574   3.224   4.909   3.847
 8892SOL    HW127575   3.236   4.843   3.774
 8892SOL    HW227576   3.234   5.002   3.811
 8893SOL     OW27577   1.467   5.154   4.594
 8893SOL    HW127578   1.388   5.167   4.654
 8893SOL    HW227579   1.435   5.130   4.502
 8894SOL     OW27580   4.573   2.623   0.501
 8894SOL    HW127581   4.495   2.560   0.498
 8894SOL    HW227582   4.651   2.581   0.455
 8895SOL     OW27583   0.927   3.600   0.846
 8895SOL    HW127584   0.896   3.679   0.793
 8895SOL    HW227585   0.875   3.595   0.932
 8896SOL     OW27586   0.453   2.129   4.239
 8896SOL    HW127587   0.413   2.117   4.148
 8896SOL    HW227588   0.461   2.226   4.260
 8897SOL     OW27589   1.629   3.832   3.747
 8897SOL    HW127590   1.578   3.760   3.701
 8897SOL    HW227591   1.699   3.867   3.686
 8898SOL     OW27592   4.882   3.489   2.721
 8898SOL    HW127593   4.921   3.398   2.731
 8898SOL    HW227594   4.883   3.516   2.624
 8899SOL     OW27595   0.134   4.545   6.414
 8899SOL    HW127596   0.106   4.586   6.501
 8899SOL    HW227597   0.098   4.452   6.408
 8900SOL     OW27598   5.857   2.064   3.287
 8900SOL    HW127599   5.937   2.005   3.278
 8900SOL    HW227600   5.859   2.111   3.375
 8901SOL     OW27601   0.497   2.192   3.453
 8901SOL    HW127602   0.578   2.148   3.416
 8901SOL    HW227603   0.513   2.291   3.459
 8902SOL     OW27604   1.739   4.371   0.333
 8902SOL    HW127605   1.686   4.455   0.322
 8902SOL    HW227606   1.735   4.342   0.429
 8903SOL     OW27607   1.697   1.556   4.449
 8903SOL    HW127608   1.709   1.464   4.487
 8903SOL    HW227609   1.784   1.588   4.413
 8904SOL     OW27610   0.274   1.358   2.372
 8904SOL    HW127611   0.339   1.429   2.345
 8904SOL    HW227612   0.317   1.268   2.362
 8905SOL     OW27613   1.869   3.376   2.220
 8905SOL    HW127614   1.945   3.369   2.155
 8905SOL    HW227615   1.842   3.472   2.229
 8906SOL     OW27616   0.382   0.082   0.854
 8906SOL    HW127617   0.475   0.086   0.893
 8906SOL    HW227618   0.316   0.065   0.927
 8907SOL     OW27619   3.432   2.487   5.326
 8907SOL    HW127620   3.369   2.443   5.262
 8907SOL    HW227621   3.395   2.576   5.353
 8908SOL     OW27622   1.481   5.334   0.506
 8908SOL    HW127623   1.401   5.290   0.465
 8908SOL    HW227624   1.477   5.432   0.491
 8909SOL     OW27625   2.632   1.467   6.507
 8909SOL    HW127626   2.668   1.527   6.578
 8909SOL    HW227627   2.535   1.484   6.493
 8910SOL     OW27628   0.771   2.656   4.943
 8910SOL    HW127629   0.744   2.640   4.848
 8910SOL    HW227630   0.871   2.653   4.950
 8911SOL     OW27631   5.131   1.819   4.208
 8911SOL    HW127632   5.119   1.752   4.281
 8911SOL    HW227633   5.115   1.776   4.120
 8912SOL     OW27634   3.954   3.784   5.361
 8912SOL    HW127635   3.884   3.717   5.335
 8912SOL    HW227636   4.039   3.762   5.314
 8913SOL     OW27637   5.364   5.166   0.281
 8913SOL    HW127638   5.382   5.180   0.183
 8913SOL    HW227639   5.376   5.253   0.330
 8914SOL     OW27640   5.257   6.617   4.799
 8914SOL    HW127641   5.252   6.591   4.703
 8914SOL    HW227642   5.212   6.705   4.812
 8915SOL     OW27643   0.825   1.322   3.858
 8915SOL    HW127644   0.843   1.328   3.956
 8915SOL    HW227645   0.728   1.302   3.843
 8916SOL     OW27646   5.733   1.403   6.235
 8916SOL    HW127647   5.812   1.343   6.222
 8916SOL    HW227648   5.764   1.495   6.261
 8917SOL     OW27649   6.307   1.783   0.526
 8917SOL    HW127650   6.359   1.852   0.576
 8917SOL    HW227651   6.210   1.790   0.551
 8918SOL     OW27652   1.588   5.432   1.343
 8918SOL    HW127653   1.634   5.343   1.345
 8918SOL    HW227654   1.620   5.488   1.420
 8919SOL     OW27655   5.425   4.348   6.451
 8919SOL    HW127656   5.474   4.264   6.476
 8919SOL    HW227657   5.481   4.428   6.476
 8920SOL     OW27658   6.994   1.212   6.459
 8920SOL    HW127659   6.972   1.241   6.552
 8920SOL    HW227660   6.922   1.152   6.425
 8921SOL     OW27661   1.185   3.129   1.134
 8921SOL    HW127662   1.268   3.182   1.146
 8921SOL    HW227663   1.139   3.119   1.223
 8922SOL     OW27664   3.519   6.378   3.256
 8922SOL    HW127665   3.592   6.394   3.322
 8922SOL    HW227666   3.448   6.448   3.268
 8923SOL     OW27667   1.390   1.958   5.414
 8923SOL    HW127668   1.317   1.894   5.439
 8923SOL    HW227669   1.454   1.913   5.352
 8924SOL     OW27670   5.566   5.367   4.564
 8924SOL    HW127671   5.506   5.405   4.494
 8924SOL    HW227672   5.659   5.400   4.551
 8925SOL     OW27673   0.968   0.999   2.690
 8925SOL    HW127674   0.921   0.985   2.603
 8925SOL    HW227675   1.060   1.035   2.673
 8926SOL     OW27676   5.968   3.278   5.951
 8926SOL    HW127677   5.881   3.265   5.998
 8926SOL    HW227678   6.012   3.361   5.984
 8927SOL     OW27679   6.604   2.512   5.577
 8927SOL    HW127680   6.602   2.424   5.529
 8927SOL    HW227681   6.680   2.567   5.544
 8928SOL     OW27682   2.843   0.291   5.571
 8928SOL    HW127683   2.778   0.366   5.559
 8928SOL    HW227684   2.857   0.245   5.484
 8929SOL     OW27685   6.295   2.695   4.941
 8929SOL    HW127686   6.302   2.794   4.930
 8929SOL    HW227687   6.203   2.664   4.919
 8930SOL     OW27688   1.135   3.760   3.023
 8930SOL    HW127689   1.199   3.783   2.950
 8930SOL    HW227690   1.172   3.684   3.077
 8931SOL     OW27691   3.555   3.099   1.739
 8931SOL    HW127692   3.623   3.028   1.725
 8931SOL    HW227693   3.464   3.064   1.718
 8932SOL     OW27694   0.554   1.829   3.137
 8932SOL    HW127695   0.528   1.800   3.229
 8932SOL    HW227696   0.536   1.926   3.126
 8933SOL     OW27697   3.457   2.566   6.603
 8933SOL    HW127698   3.546   2.598   6.635
 8933SOL    HW227699   3.447   2.587   6.505
 8934SOL     OW27700   3.630   5.848   3.801
 8934SOL    HW127701   3.556   5.788   3.770
 8934SOL    HW227702   3.593   5.919   3.860
 8935SOL     OW27703   6.850   5.502   0.760
 8935SOL    HW127704   6.903   5.525   0.842
 8935SOL    HW227705   6.804   5.584   0.726
 8936SOL     OW27706   1.723   3.369   0.613
 8936SOL    HW127707   1.714   3.354   0.515
 8936SOL    HW227708   1.688   3.460   0.636
 8937SOL     OW27709   0.325   6.761   5.067
 8937SOL    HW127710   0.240   6.775   5.016
 8937SOL    HW227711   0.306   6.706   5.149
 8938SOL     OW27712   6.630   5.155   1.304
 8938SOL    HW127713   6.672   5.066   1.326
 8938SOL    HW227714   6.601   5.200   1.388
 8939SOL     OW27715   5.193   2.068   4.625
 8939SOL    HW127716   5.126   1.995   4.638
 8939SOL    HW227717   5.264   2.060   4.695
 8940SOL     OW27718   7.000   0.547   4.013
 8940SOL    HW127719   6.926   0.560   3.948
 8940SOL    HW227720   6.996   0.618   4.084
 8941SOL     OW27721   5.614   2.078   5.794
 8941SOL    HW127722   5.660   2.118   5.874
 8941SOL    HW227723   5.674   2.009   5.753
 8942SOL     OW27724   0.030   2.940   5.394
 8942SOL    HW127725   6.989   3.013   5.383
 8942SOL    HW227726   0.122   2.978   5.395
 8943SOL     OW27727   5.428   4.221   0.317
 8943SOL    HW127728   5.445   4.171   0.402
 8943SOL    HW227729   5.364   4.295   0.333
 8944SOL     OW27730   5.206   5.538   5.887
 8944SOL    HW127731   5.121   5.498   5.922
 8944SOL    HW227732   5.227   5.622   5.939
 8945SOL     OW27733   1.993   0.351   4.633
 8945SOL    HW127734   2.079   0.318   4.596
 8945SOL    HW227735   1.925   0.358   4.559
 8946SOL     OW27736   3.368   2.116   5.107
 8946SOL    HW127737   3.288   2.176   5.101
 8946SOL    HW227738   3.435   2.157   5.168
 8947SOL     OW27739   2.126   3.533   5.877
 8947SOL    HW127740   2.040   3.510   5.832
 8947SOL    HW227741   2.191   3.566   5.808
 8948SOL     OW27742   5.581   5.278   3.668
 8948SOL    HW127743   5.671   5.246   3.697
 8948SOL    HW227744   5.573   5.268   3.569
 8949SOL     OW27745   1.971   0.097   6.782
 8949SOL    HW127746   1.958   0.191   6.813
 8949SOL    HW227747   1.890   0.068   6.731
 8950SOL     OW27748   4.605   3.017   5.517
 8950SOL    HW127749   4.561   3.062   5.438
 8950SOL    HW227750   4.682   2.963   5.485
 8951SOL     OW27751   1.667   2.309   5.364
 8951SOL    HW127752   1.680   2.304   5.265
 8951SOL    HW227753   1.573   2.286   5.387
 8952SOL     OW27754   1.030   1.248   2.333
 8952SOL    HW127755   1.051   1.346   2.337
 8952SOL    HW227756   1.082   1.206   2.258
 8953SOL     OW27757   1.302   3.597   0.031
 8953SOL    HW127758   1.321   3.626   6.963
 8953SOL    HW227759   1.311   3.676   0.092
 8954SOL     OW27760   7.012   5.935   5.366
 8954SOL    HW127761   7.011   5.929   5.267
 8954SOL    HW227762   0.080   5.940   5.398
 8955SOL     OW27763   6.661   4.204   3.002
 8955SOL    HW127764   6.574   4.236   3.039
 8955SOL    HW227765   6.682   4.114   3.041
 8956SOL     OW27766   0.247   1.175   6.444
 8956SOL    HW127767   0.179   1.161   6.371
 8956SOL    HW227768   0.233   1.107   6.516
 8957SOL     OW27769   2.970   4.789   1.731
 8957SOL    HW127770   2.948   4.720   1.800
 8957SOL    HW227771   2.970   4.746   1.640
 8958SOL     OW27772   0.524   6.962   4.126
 8958SOL    HW127773   0.471   6.983   4.044
 8958SOL    HW227774   0.609   6.916   4.100
 8959SOL     OW27775   1.242   4.914   0.849
 8959SOL    HW127776   1.149   4.926   0.884
 8959SOL    HW227777   1.298   4.993   0.876
 8960SOL     OW27778   4.166   5.361   2.848
 8960SOL    HW127779   4.127   5.445   2.886
 8960SOL    HW227780   4.212   5.381   2.762
 8961SOL     OW27781   1.415   1.760   4.417
 8961SOL    HW127782   1.373   1.678   4.457
 8961SOL    HW227783   1.501   1.734   4.372
 8962SOL     OW27784   5.880   6.788   2.621
 8962SOL    HW127785   5.829   6.847   2.684
 8962SOL    HW227786   5.817   6.740   2.561
 8963SOL     OW27787   4.929   6.415   4.006
 8963SOL    HW127788   4.829   6.408   4.006
 8963SOL    HW227789   4.961   6.437   4.098
 8964SOL     OW27790   5.450   4.957   2.134
 8964SOL    HW127791   5.453   4.919   2.226
 8964SOL    HW227792   5.401   5.045   2.136
 8965SOL     OW27793   1.597   5.103   1.257
 8965SOL    HW127794   1.609   5.163   1.178
 8965SOL    HW227795   1.679   5.046   1.268
 8966SOL     OW27796   1.821   2.761   6.003
 8966SOL    HW127797   1.903   2.792   5.954
 8966SOL    HW227798   1.843   2.680   6.057
 8967SOL     OW27799   3.553   6.630   1.658
 8967SOL    HW127800   3.557   6.678   1.571
 8967SOL    HW227801   3.479   6.668   1.714
 8968SOL     OW27802   4.706   5.363   2.570
 8968SOL    HW127803   4.691   5.462   2.563
 8968SOL    HW227804   4.743   5.342   2.660
 8969SOL     OW27805   6.088   0.828   3.653
 8969SOL    HW127806   6.155   0.756   3.672
 8969SOL    HW227807   6.135   0.913   3.630
 8970SOL     OW27808   3.106   2.685   0.983
 8970SOL    HW127809   3.039   2.613   0.995
 8970SOL    HW227810   3.097   2.752   1.056
 8971SOL     OW27811   3.412   6.225   2.428
 8971SOL    HW127812   3.439   6.197   2.520
 8971SOL    HW227813   3.320   6.192   2.409
 8972SOL     OW27814   5.036   6.149   0.296
 8972SOL    HW127815   5.048   6.095   0.213
 8972SOL    HW227816   5.028   6.246   0.272
 8973SOL     OW27817   1.134   4.026   1.762
 8973SOL    HW127818   1.088   3.937   1.752
 8973SOL    HW227819   1.139   4.071   1.673
 8974SOL     OW27820   1.009   4.465   6.334
 8974SOL    HW127821   1.098   4.510   6.334
 8974SOL    HW227822   1.012   4.385   6.394
 8975SOL     OW27823   2.779   0.833   0.118
 8975SOL    HW127824   2.714   0.775   0.069
 8975SOL    HW227825   2.752   0.839   0.214
 8976SOL     OW27826   1.065   5.590   4.933
 8976SOL    HW127827   1.002   5.515   4.914
 8976SOL    HW227828   1.126   5.564   5.008
 8977SOL     OW27829   6.425   1.365   6.389
 8977SOL    HW127830   6.423   1.317   6.301
 8977SOL    HW227831   6.381   1.308   6.458
 8978SOL     OW27832   5.948   6.177   6.845
 8978SOL    HW127833   5.868   6.126   6.877
 8978SOL    HW227834   5.928   6.275   6.848
 8979SOL     OW27835   1.765   3.704   4.839
 8979SOL    HW127836   1.775   3.800   4.814
 8979SOL    HW227837   1.851   3.671   4.879
 8980SOL     OW27838   2.906   3.721   5.517
 8980SOL    HW127839   2.987   3.684   5.562
 8980SOL    HW227840   2.834   3.736   5.584
 8981SOL     OW27841   4.094   1.495   5.070
 8981SOL    HW127842   4.013   1.443   5.095
 8981SOL    HW227843   4.081   1.591   5.095
 8982SOL     OW27844   2.149   3.611   0.361
 8982SOL    HW127845   2.096   3.696   0.367
 8982SOL    HW227846   2.091   3.537   0.329
 8983SOL     OW27847   3.138   6.399   6.904
 8983SOL    HW127848   3.060   6.356   6.859
 8983SOL    HW227849   3.173   6.474   6.847
 8984SOL     OW27850   1.925   6.381   2.832
 8984SOL    HW127851   1.827   6.391   2.849
 8984SOL    HW227852   1.956   6.455   2.772
 8985SOL     OW27853   3.423   2.436   0.505
 8985SOL    HW127854   3.522   2.420   0.496
 8985SOL    HW227855   3.385   2.370   0.570
 8986SOL     OW27856   3.389   4.949   3.021
 8986SOL    HW127857   3.417   5.045   3.024
 8986SOL    HW227858   3.470   4.891   3.025
 8987SOL     OW27859   4.263   6.507   3.419
 8987SOL    HW127860   4.324   6.457   3.357
 8987SOL    HW227861   4.267   6.604   3.397
 8988SOL     OW27862   0.261   5.793   3.764
 8988SOL    HW127863   0.339   5.807   3.703
 8988SOL    HW227864   0.290   5.804   3.859
 8989SOL     OW27865   4.194   3.226   6.573
 8989SOL    HW127866   4.267   3.216   6.505
 8989SOL    HW227867   4.183   3.323   6.596
 8990SOL     OW27868   0.127   4.743   3.986
 8990SOL    HW127869   0.189   4.670   3.959
 8990SOL    HW227870   0.045   4.704   4.028
 8991SOL     OW27871   1.352   3.094   4.602
 8991SOL    HW127872   1.345   3.115   4.505
 8991SOL    HW227873   1.434   3.039   4.618
 8992SOL     OW27874   4.957   1.259   0.897
 8992SOL    HW127875   5.025   1.187   0.913
 8992SOL    HW227876   4.948   1.275   0.799
 8993SOL     OW27877   3.825   3.276   0.101
 8993SOL    HW127878   3.793   3.276   0.196
 8993SOL    HW227879   3.749   3.295   0.039
 8994SOL     OW27880   1.662   4.615   4.750
 8994SOL    HW127881   1.743   4.670   4.731
 8994SOL    HW227882   1.645   4.553   4.673
 8995SOL     OW27883   6.513   1.599   0.547
 8995SOL    HW127884   6.590   1.604   0.484
 8995SOL    HW227885   6.446   1.669   0.524
 8996SOL     OW27886   5.406   4.064   6.022
 8996SOL    HW127887   5.312   4.054   6.055
 8996SOL    HW227888   5.413   4.145   5.964
 8997SOL     OW27889   4.778   0.826   6.333
 8997SOL    HW127890   4.686   0.787   6.331
 8997SOL    HW227891   4.843   0.761   6.294
 8998SOL     OW27892   6.082   3.360   4.449
 8998SOL    HW127893   6.164   3.391   4.402
 8998SOL    HW227894   6.107   3.308   4.530
 8999SOL     OW27895   4.925   6.503   6.515
 8999SOL    HW127896   4.871   6.518   6.598
 8999SOL    HW227897   4.986   6.426   6.529
 9000SOL     OW27898   1.727   3.192   2.066
 9000SOL    HW127899   1.631   3.221   2.076
 9000SOL    HW227900   1.785   3.249   2.123
 9001SOL     OW27901   0.466   5.755   1.713
 9001SOL    HW127902   0.393   5.803   1.664
 9001SOL    HW227903   0.443   5.658   1.720
 9002SOL     OW27904   1.682   4.502   5.462
 9002SOL    HW127905   1.726   4.544   5.542
 9002SOL    HW227906   1.752   4.473   5.397
 9003SOL     OW27907   5.004   3.581   1.282
 9003SOL    HW127908   5.052   3.637   1.350
 9003SOL    HW227909   4.910   3.563   1.313
 9004SOL     OW27910   4.376   5.043   0.989
 9004SOL    HW127911   4.293   5.037   1.046
 9004SOL    HW227912   4.447   4.985   1.029
 9005SOL     OW27913   6.055   1.571   5.634
 9005SOL    HW127914   5.998   1.521   5.569
 9005SOL    HW227915   6.091   1.508   5.702
 9006SOL     OW27916   3.031   6.470   1.173
 9006SOL    HW127917   3.008   6.373   1.166
 9006SOL    HW227918   2.992   6.508   1.257
 9007SOL     OW27919   2.431   1.806   2.352
 9007SOL    HW127920   2.501   1.780   2.285
 9007SOL    HW227921   2.476   1.843   2.434
 9008SOL     OW27922   6.976   5.158   2.943
 9008SOL    HW127923   6.881   5.137   2.965
 9008SOL    HW227924   6.986   5.168   2.844
 9009SOL     OW27925   2.918   5.481   1.272
 9009SOL    HW127926   3.009   5.518   1.289
 9009SOL    HW227927   2.924   5.383   1.253
 9010SOL     OW27928   2.151   6.116   4.301
 9010SOL    HW127929   2.054   6.132   4.279
 9010SOL    HW227930   2.208   6.178   4.247
 9011SOL     OW27931   4.271   0.705   1.419
 9011SOL    HW127932   4.286   0.608   1.433
 9011SOL    HW227933   4.206   0.740   1.486
 9012SOL     OW27934   2.440   5.637   0.303
 9012SOL    HW127935   2.512   5.691   0.346
 9012SOL    HW227936   2.481   5.578   0.233
 9013SOL     OW27937   0.895   0.772   5.515
 9013SOL    HW127938   0.990   0.784   5.486
 9013SOL    HW227939   0.838   0.840   5.469
 9014SOL     OW27940   6.424   2.603   0.963
 9014SOL    HW127941   6.476   2.687   0.951
 9014SOL    HW227942   6.329   2.618   0.935
 9015SOL     OW27943   4.766   2.051   1.716
 9015SOL    HW127944   4.761   2.117   1.641
 9015SOL    HW227945   4.854   2.061   1.763
 9016SOL     OW27946   5.634   5.429   6.576
 9016SOL    HW127947   5.624   5.521   6.615
 9016SOL    HW227948   5.546   5.399   6.539
 9017SOL     OW27949   4.402   1.256   3.926
 9017SOL    HW127950   4.461   1.207   3.991
 9017SOL    HW227951   4.370   1.341   3.967
 9018SOL     OW27952   2.964   3.949   6.272
 9018SOL    HW127953   2.951   3.936   6.174
 9018SOL    HW227954   2.887   3.908   6.322
 9019SOL     OW27955   0.744   4.222   2.875
 9019SOL    HW127956   0.771   4.191   2.784
 9019SOL    HW227957   0.656   4.270   2.869
 9020SOL     OW27958   6.947   4.626   1.256
 9020SOL    HW127959   6.958   4.710   1.310
 9020SOL    HW227960   6.856   4.623   1.216
 9021SOL     OW27961   6.861   0.746   3.307
 9021SOL    HW127962   6.814   0.665   3.342
 9021SOL    HW227963   6.846   0.823   3.368
 9022SOL     OW27964   3.605   1.220   0.054
 9022SOL    HW127965   3.638   1.300   0.003
 9022SOL    HW227966   3.590   1.245   0.149
 9023SOL     OW27967   4.326   3.523   1.647
 9023SOL    HW127968   4.284   3.494   1.732
 9023SOL    HW227969   4.363   3.616   1.658
 9024SOL     OW27970   1.201   4.419   5.398
 9024SOL    HW127971   1.197   4.428   5.298
 9024SOL    HW227972   1.262   4.344   5.422
 9025SOL     OW27973   6.727   5.724   0.692
 9025SOL    HW127974   6.790   5.787   0.646
 9025SOL    HW227975   6.691   5.768   0.774
 9026SOL     OW27976   3.134   2.079   0.434
 9026SOL    HW127977   3.087   2.120   0.512
 9026SOL    HW227978   3.080   2.095   0.351
 9027SOL     OW27979   0.790   3.271   3.501
 9027SOL    HW127980   0.849   3.236   3.573
 9027SOL    HW227981   0.733   3.345   3.538
 9028SOL     OW27982   3.990   3.059   5.247
 9028SOL    HW127983   3.933   3.051   5.165
 9028SOL    HW227984   3.954   2.999   5.319
 9029SOL     OW27985   4.184   6.980   4.907
 9029SOL    HW127986   4.266   6.924   4.924
 9029SOL    HW227987   4.103   6.927   4.931
 9030SOL     OW27988   2.126   2.261   3.918
 9030SOL    HW127989   2.138   2.164   3.939
 9030SOL    HW227990   2.055   2.271   3.847
 9031SOL     OW27991   4.149   6.825   4.357
 9031SOL    HW127992   4.169   6.730   4.380
 9031SOL    HW227993   4.101   6.868   4.433
 9032SOL     OW27994   4.685   3.779   1.255
 9032SOL    HW127995   4.725   3.694   1.288
 9032SOL    HW227996   4.634   3.823   1.330
 9033SOL     OW27997   0.343   4.798   2.595
 9033SOL    HW127998   0.297   4.885   2.607
 9033SOL    HW227999   0.277   4.723   2.605
 9034SOL     OW28000   3.346   6.100   4.466
 9034SOL    HW128001   3.367   6.013   4.421
 9034SOL    HW228002   3.412   6.115   4.539
 9035SOL     OW28003   2.234   5.978   6.935
 9035SOL    HW128004   2.154   5.927   6.902
 9035SOL    HW228005   2.265   5.938   7.022
 9036SOL     OW28006   1.814   3.872   5.466
 9036SOL    HW128007   1.747   3.943   5.489
 9036SOL    HW228008   1.795   3.790   5.519
 9037SOL     OW28009   1.162   3.019   3.975
 9037SOL    HW128010   1.144   2.946   4.040
 9037SOL    HW228011   1.135   3.107   4.015
 9038SOL     OW28012   4.591   2.965   6.844
 9038SOL    HW128013   4.531   3.031   6.799
 9038SOL    HW228014   4.642   2.914   6.774
 9039SOL     OW28015   3.348   4.902   6.890
 9039SOL    HW128016   3.445   4.901   6.865
 9039SOL    HW228017   3.294   4.865   6.814
 9040SOL     OW28018   2.660   2.307   2.064
 9040SOL    HW128019   2.759   2.297   2.051
 9040SOL    HW228020   2.626   2.231   2.120
 9041SOL     OW28021   1.177   2.587   1.018
 9041SOL    HW128022   1.174   2.493   0.984
 9041SOL    HW228023   1.192   2.586   1.117
 9042SOL     OW28024   3.785   6.907   4.652
 9042SOL    HW128025   3.775   7.002   4.684
 9042SOL    HW228026   3.718   6.889   4.580
 9043SOL     OW28027   2.353   1.826   6.039
 9043SOL    HW128028   2.330   1.729   6.042
 9043SOL    HW228029   2.452   1.836   6.023
 9044SOL     OW28030   0.566   1.361   6.919
 9044SOL    HW128031   0.555   1.331   7.013
 9044SOL    HW228032   0.518   1.299   6.857
 9045SOL     OW28033   3.948   0.408   3.206
 9045SOL    HW128034   3.980   0.374   3.295
 9045SOL    HW228035   3.864   0.460   3.219
 9046SOL     OW28036   4.121   3.735   2.737
 9046SOL    HW128037   4.085   3.828   2.747
 9046SOL    HW228038   4.164   3.707   2.823
 9047SOL     OW28039   0.983   4.135   5.118
 9047SOL    HW128040   1.071   4.145   5.071
 9047SOL    HW228041   0.989   4.177   5.209
 9048SOL     OW28042   6.220   2.482   6.479
 9048SOL    HW128043   6.265   2.541   6.411
 9048SOL    HW228044   6.248   2.387   6.465
 9049SOL     OW28045   4.020   6.247   5.580
 9049SOL    HW128046   4.086   6.181   5.546
 9049SOL    HW228047   3.928   6.206   5.580
 9050SOL     OW28048   0.418   3.141   1.279
 9050SOL    HW128049   0.492   3.086   1.240
 9050SOL    HW228050   0.421   3.232   1.239
 9051SOL     OW28051   2.223   0.418   1.893
 9051SOL    HW128052   2.238   0.503   1.844
 9051SOL    HW228053   2.310   0.373   1.910
 9052SOL     OW28054   2.027   3.262   3.836
 9052SOL    HW128055   2.081   3.186   3.871
 9052SOL    HW228056   2.058   3.347   3.878
 9053SOL     OW28057   2.017   1.329   0.633
 9053SOL    HW128058   2.033   1.332   0.535
 9053SOL    HW228059   1.950   1.258   0.654
 9054SOL     OW28060   1.996   5.972   4.525
 9054SOL    HW128061   1.956   5.904   4.464
 9054SOL    HW228062   2.060   6.030   4.474
 9055SOL     OW28063   6.252   3.599   4.734
 9055SOL    HW128064   6.225   3.652   4.653
 9055SOL    HW228065   6.340   3.554   4.716
 9056SOL     OW28066   6.762   1.657   2.348
 9056SOL    HW128067   6.713   1.651   2.261
 9056SOL    HW228068   6.703   1.623   2.421
 9057SOL     OW28069   4.611   2.235   4.663
 9057SOL    HW128070   4.663   2.150   4.668
 9057SOL    HW228071   4.521   2.217   4.624
 9058SOL     OW28072   1.267   0.462   0.563
 9058SOL    HW128073   1.299   0.465   0.658
 9058SOL    HW228074   1.230   0.552   0.538
 9059SOL     OW28075   1.359   2.528   3.098
 9059SOL    HW128076   1.406   2.565   3.018
 9059SOL    HW228077   1.289   2.463   3.068
 9060SOL     OW28078   6.010   3.054   4.331
 9060SOL    HW128079   5.945   2.981   4.350
 9060SOL    HW228080   5.961   3.134   4.295
 9061SOL     OW28081   3.496   5.514   2.422
 9061SOL    HW128082   3.548   5.532   2.505
 9061SOL    HW228083   3.533   5.433   2.377
 9062SOL     OW28084   0.982   5.638   1.818
 9062SOL    HW128085   0.927   5.601   1.743
 9062SOL    HW228086   1.046   5.567   1.849
 9063SOL     OW28087   2.192   1.084   4.046
 9063SOL    HW128088   2.234   1.061   3.959
 9063SOL    HW228089   2.183   1.184   4.053
 9064SOL     OW28090   6.695   3.699   6.347
 9064SOL    HW128091   6.672   3.690   6.444
 9064SOL    HW228092   6.638   3.770   6.306
 9065SOL     OW28093   3.972   6.917   0.267
 9065SOL    HW128094   3.956   6.836   0.324
 9065SOL    HW228095   3.936   6.900   0.175
 9066SOL     OW28096   5.352   0.400   0.587
 9066SOL    HW128097   5.347   0.329   0.516
 9066SOL    HW228098   5.261   0.437   0.604
 9067SOL     OW28099   1.720   0.238   3.391
 9067SOL    HW128100   1.807   0.251   3.343
 9067SOL    HW228101   1.666   0.322   3.385
 9068SOL     OW28102   0.825   6.614   4.551
 9068SOL    HW128103   0.766   6.565   4.615
 9068SOL    HW228104   0.775   6.691   4.512
 9069SOL     OW28105   1.009   3.370   6.631
 9069SOL    HW128106   1.070   3.429   6.683
 9069SOL    HW228107   1.034   3.274   6.646
 9070SOL     OW28108   2.141   3.898   4.819
 9070SOL    HW128109   2.140   3.798   4.821
 9070SOL    HW228110   2.213   3.931   4.880
 9071SOL     OW28111   6.398   6.053   0.876
 9071SOL    HW128112   6.333   6.027   0.947
 9071SOL    HW228113   6.451   6.132   0.906
 9072SOL     OW28114   6.769   3.822   0.782
 9072SOL    HW128115   6.815   3.869   0.707
 9072SOL    HW228116   6.747   3.728   0.755
 9073SOL     OW28117   1.878   0.511   1.826
 9073SOL    HW128118   1.913   0.600   1.857
 9073SOL    HW228119   1.919   0.438   1.881
 9074SOL     OW28120   1.604   0.473   2.723
 9074SOL    HW128121   1.510   0.440   2.736
 9074SOL    HW228122   1.640   0.506   2.810
 9075SOL     OW28123   6.268   0.370   1.857
 9075SOL    HW128124   6.218   0.373   1.771
 9075SOL    HW228125   6.210   0.401   1.932
 9076SOL     OW28126   0.677   1.066   6.298
 9076SOL    HW128127   0.647   0.971   6.292
 9076SOL    HW228128   0.616   1.123   6.243
 9077SOL     OW28129   4.389   6.770   2.295
 9077SOL    HW128130   4.336   6.854   2.306
 9077SOL    HW228131   4.339   6.705   2.239
 9078SOL     OW28132   4.058   3.480   4.822
 9078SOL    HW128133   3.978   3.518   4.868
 9078SOL    HW228134   4.061   3.513   4.727
 9079SOL     OW28135   3.393   0.214   4.297
 9079SOL    HW128136   3.456   0.288   4.274
 9079SOL    HW228137   3.352   0.231   4.386
 9080SOL     OW28138   5.126   2.282   6.926
 9080SOL    HW128139   5.036   2.251   6.958
 9080SOL    HW228140   5.123   2.294   6.827
 9081SOL     OW28141   5.264   6.350   3.288
 9081SOL    HW128142   5.317   6.319   3.210
 9081SOL    HW228143   5.288   6.297   3.369
 9082SOL     OW28144   2.293   0.612   3.955
 9082SOL    HW128145   2.216   0.676   3.957
 9082SOL    HW228146   2.263   0.526   3.912
 9083SOL     OW28147   4.975   4.646   5.603
 9083SOL    HW128148   4.985   4.583   5.526
 9083SOL    HW228149   5.036   4.724   5.590
 9084SOL     OW28150   3.143   3.620   2.923
 9084SOL    HW128151   3.239   3.629   2.900
 9084SOL    HW228152   3.105   3.539   2.877
 9085SOL     OW28153   2.119   1.442   0.861
 9085SOL    HW128154   2.206   1.487   0.839
 9085SOL    HW228155   2.074   1.414   0.776
 9086SOL     OW28156   0.755   3.789   0.685
 9086SOL    HW128157   0.727   3.795   0.589
 9086SOL    HW228158   0.682   3.826   0.742
 9087SOL     OW28159   4.912   3.191   2.692
 9087SOL    HW128160   4.956   3.103   2.672
 9087SOL    HW228161   4.863   3.223   2.611
 9088SOL     OW28162   6.544   0.352   0.035
 9088SOL    HW128163   6.478   0.379   6.991
 9088SOL    HW228164   6.556   0.253   0.034
 9089SOL     OW28165   4.985   6.316   6.182
 9089SOL    HW128166   5.009   6.400   6.231
 9089SOL    HW228167   5.067   6.261   6.168
 9090SOL     OW28168   6.161   0.473   4.977
 9090SOL    HW128169   6.068   0.489   4.944
 9090SOL    HW228170   6.181   0.536   5.052
 9091SOL     OW28171   2.969   4.131   6.645
 9091SOL    HW128172   2.974   4.208   6.709
 9091SOL    HW228173   2.883   4.136   6.593
 9092SOL     OW28174   7.009   2.028   6.943
 9092SOL    HW128175   6.914   2.001   6.931
 9092SOL    HW228176   0.040   1.947   6.957
 9093SOL     OW28177   1.235   6.474   5.324
 9093SOL    HW128178   1.195   6.409   5.260
 9093SOL    HW228179   1.277   6.549   5.273
 9094SOL     OW28180   0.522   3.434   2.524
 9094SOL    HW128181   0.498   3.469   2.433
 9094SOL    HW228182   0.621   3.437   2.536
 9095SOL     OW28183   4.700   5.094   5.371
 9095SOL    HW128184   4.718   4.996   5.374
 9095SOL    HW228185   4.673   5.120   5.278
 9096SOL     OW28186   6.474   5.375   3.254
 9096SOL    HW128187   6.454   5.277   3.254
 9096SOL    HW228188   6.566   5.391   3.288
 9097SOL     OW28189   0.553   2.471   6.437
 9097SOL    HW128190   0.500   2.522   6.505
 9097SOL    HW228191   0.504   2.472   6.350
 9098SOL     OW28192   2.154   2.197   5.077
 9098SOL    HW128193   2.146   2.099   5.091
 9098SOL    HW228194   2.204   2.238   5.154
 9099SOL     OW28195   2.109   3.294   5.986
 9099SOL    HW128196   2.115   3.391   5.961
 9099SOL    HW228197   2.111   3.238   5.903
 9100SOL     OW28198   1.390   4.051   2.377
 9100SOL    HW128199   1.301   4.074   2.416
 9100SOL    HW228200   1.392   4.080   2.281
 9101SOL     OW28201   2.901   1.280   2.280
 9101SOL    HW128202   2.808   1.304   2.308
 9101SOL    HW228203   2.967   1.331   2.335
 9102SOL     OW28204   4.832   6.622   2.857
 9102SOL    HW128205   4.904   6.616   2.788
 9102SOL    HW228206   4.751   6.574   2.825
 9103SOL     OW28207   6.457   1.874   0.036
 9103SOL    HW128208   6.478   1.878   0.134
 9103SOL    HW228209   6.358   1.859   0.023
 9104SOL     OW28210   0.532   0.712   0.540
 9104SOL    HW128211   0.579   0.787   0.492
 9104SOL    HW228212   0.549   0.720   0.638
 9105SOL     OW28213   1.906   7.013   6.207
 9105SOL    HW128214   1.953   0.070   6.239
 9105SOL    HW228215   1.809   0.007   6.192
 9106SOL     OW28216   0.623   4.506   6.959
 9106SOL    HW128217   0.538   4.455   6.964
 9106SOL    HW228218   0.627   4.573   0.007
 9107SOL     OW28219   2.555   0.766   6.208
 9107SOL    HW128220   2.599   0.679   6.230
 9107SOL    HW228221   2.613   0.841   6.237
 9108SOL     OW28222   5.143   5.420   5.288
 9108SOL    HW128223   5.076   5.471   5.340
 9108SOL    HW228224   5.212   5.382   5.350
 9109SOL     OW28225   5.715   2.668   1.973
 9109SOL    HW128226   5.778   2.649   2.049
 9109SOL    HW228227   5.751   2.742   1.917
 9110SOL     OW28228   1.563   5.552   5.461
 9110SOL    HW128229   1.552   5.632   5.401
 9110SOL    HW228230   1.630   5.573   5.531
 9111SOL     OW28231   4.602   2.813   5.277
 9111SOL    HW128232   4.605   2.774   5.185
 9111SOL    HW228233   4.536   2.764   5.333
 9112SOL     OW28234   2.158   5.140   3.075
 9112SOL    HW128235   2.228   5.118   3.007
 9112SOL    HW228236   2.068   5.140   3.032
 9113SOL     OW28237   4.993   2.124   3.146
 9113SOL    HW128238   5.082   2.147   3.108
 9113SOL    HW228239   4.971   2.029   3.126
 9114SOL     OW28240   1.384   6.109   5.165
 9114SOL    HW128241   1.348   6.135   5.075
 9114SOL    HW228242   1.483   6.096   5.159
 9115SOL     OW28243   5.857   4.607   3.457
 9115SOL    HW128244   5.796   4.669   3.407
 9115SOL    HW228245   5.934   4.582   3.398
 9116SOL     OW28246   1.097   6.759   3.354
 9116SOL    HW128247   1.134   6.825   3.289
 9116SOL    HW228248   1.015   6.797   3.397
 9117SOL     OW28249   4.286   0.674   6.981
 9117SOL    HW128250   4.201   0.635   7.016
 9117SOL    HW228251   4.361   0.654   0.019
 9118SOL     OW28252   5.739   4.366   0.503
 9118SOL    HW128253   5.746   4.273   0.537
 9118SOL    HW228254   5.816   4.385   0.442
 9119SOL     OW28255   3.476   6.647   1.139
 9119SOL    HW128256   3.542   6.582   1.177
 9119SOL    HW228257   3.419   6.600   1.072
 9120SOL     OW28258   5.807   2.977   5.943
 9120SOL    HW128259   5.861   2.999   5.861
 9120SOL    HW228260   5.775   3.062   5.985
 9121SOL     OW28261   3.615   0.218   5.512
 9121SOL    HW128262   3.533   0.161   5.504
 9121SOL    HW228263   3.594   0.299   5.568
 9122SOL     OW28264   2.501   4.421   1.867
 9122SOL    HW128265   2.563   4.363   1.814
 9122SOL    HW228266   2.506   4.515   1.833
 9123SOL     OW28267   1.049   0.674   3.242
 9123SOL    HW128268   0.988   0.741   3.201
 9123SOL    HW228269   1.006   0.636   3.324
 9124SOL     OW28270   3.240   5.100   1.575
 9124SOL    HW128271   3.223   5.070   1.669
 9124SOL    HW228272   3.339   5.102   1.557
 9125SOL     OW28273   3.695   6.896   0.563
 9125SOL    HW128274   3.728   6.926   0.473
 9125SOL    HW228275   3.730   6.804   0.582
 9126SOL     OW28276   4.088   5.213   0.352
 9126SOL    HW128277   4.180   5.251   0.363
 9126SOL    HW228278   4.074   5.140   0.420
 9127SOL     OW28279   6.905   3.607   5.260
 9127SOL    HW128280   6.822   3.561   5.226
 9127SOL    HW228281   6.883   3.701   5.286
 9128SOL     OW28282   5.910   3.088   4.970
 9128SOL    HW128283   5.955   3.023   5.031
 9128SOL    HW228284   5.826   3.047   4.933
 9129SOL     OW28285   2.264   1.682   0.276
 9129SOL    HW128286   2.327   1.754   0.248
 9129SOL    HW228287   2.271   1.667   0.375
 9130SOL     OW28288   2.775   4.080   5.502
 9130SOL    HW128289   2.710   4.013   5.468
 9130SOL    HW228290   2.817   4.128   5.425
 9131SOL     OW28291   6.139   2.749   0.632
 9131SOL    HW128292   6.200   2.822   0.662
 9131SOL    HW228293   6.119   2.688   0.708
 9132SOL     OW28294   1.022   3.944   3.484
 9132SOL    HW128295   0.956   3.890   3.431
 9132SOL    HW228296   1.062   3.886   3.555
 9133SOL     OW28297   4.572   0.962   0.920
 9133SOL    HW128298   4.617   0.893   0.977
 9133SOL    HW228299   4.491   0.996   0.967
 9134SOL     OW28300   4.508   5.392   0.917
 9134SOL    HW128301   4.496   5.492   0.916
 9134SOL    HW228302   4.579   5.368   0.982
 9135SOL     OW28303   0.902   6.270   2.136
 9135SOL    HW128304   0.939   6.179   2.156
 9135SOL    HW228305   0.806   6.262   2.111
 9136SOL     OW28306   6.013   4.642   6.258
 9136SOL    HW128307   6.011   4.660   6.160
 9136SOL    HW228308   6.040   4.725   6.307
 9137SOL     OW28309   4.387   6.259   0.084
 9137SOL    HW128310   4.350   6.218   0.167
 9137SOL    HW228311   4.486   6.241   0.079
 9138SOL     OW28312   3.153   3.158   0.922
 9138SOL    HW128313   3.063   3.116   0.934
 9138SOL    HW228314   3.142   3.252   0.891
 9139SOL     OW28315   6.936   0.429   1.000
 9139SOL    HW128316   6.888   0.342   0.999
 9139SOL    HW228317   6.936   0.466   1.093
 9140SOL     OW28318   0.396   4.429   2.460
 9140SOL    HW128319   0.322   4.388   2.407
 9140SOL    HW228320   0.449   4.491   2.402
 9141SOL     OW28321   6.703   5.659   5.987
 9141SOL    HW128322   6.720   5.561   5.993
 9141SOL    HW228323   6.770   5.708   6.043
 9142SOL     OW28324   1.275   3.851   2.805
 9142SOL    HW128325   1.247   3.945   2.787
 9142SOL    HW228326   1.368   3.837   2.771
 9143SOL     OW28327   0.528   3.226   3.024
 9143SOL    HW128328   0.458   3.192   2.960
 9143SOL    HW228329   0.508   3.193   3.116
 9144SOL     OW28330   2.954   4.794   5.571
 9144SOL    HW128331   3.017   4.871   5.578
 9144SOL    HW228332   2.862   4.825   5.592
 9145SOL     OW28333   1.394   6.811   6.133
 9145SOL    HW128334   1.301   6.786   6.105
 9145SOL    HW228335   1.409   6.786   6.228
 9146SOL     OW28336   5.763   3.466   3.500
 9146SOL    HW128337   5.678   3.506   3.466
 9146SOL    HW228338   5.797   3.519   3.578
 9147SOL     OW28339   4.541   0.611   4.423
 9147SOL    HW128340   4.562   0.613   4.521
 9147SOL    HW228341   4.508   0.700   4.394
 9148SOL     OW28342   6.265   6.729   1.683
 9148SOL    HW128343   6.177   6.763   1.651
 9148SOL    HW228344   6.301   6.791   1.753
 9149SOL     OW28345   6.667   4.288   1.112
 9149SOL    HW128346   6.612   4.348   1.054
 9149SOL    HW228347   6.689   4.334   1.198
 9150SOL     OW28348   2.776   3.227   6.797
 9150SOL    HW128349   2.760   3.298   6.865
 9150SOL    HW228350   2.875   3.217   6.782
 9151SOL     OW28351   1.845   3.716   3.483
 9151SOL    HW128352   1.884   3.807   3.493
 9151SOL    HW228353   1.761   3.721   3.430
 9152SOL     OW28354   2.103   4.274   4.088
 9152SOL    HW128355   2.181   4.336   4.086
 9152SOL    HW228356   2.039   4.302   4.161
 9153SOL     OW28357   6.956   3.226   6.477
 9153SOL    HW128358   7.017   3.282   6.533
 9153SOL    HW228359   6.864   3.229   6.516
 9154SOL     OW28360   6.091   4.827   2.890
 9154SOL    HW128361   6.111   4.841   2.988
 9154SOL    HW228362   6.070   4.914   2.848
 9155SOL     OW28363   0.426   5.813   2.790
 9155SOL    HW128364   0.464   5.892   2.838
 9155SOL    HW228365   0.343   5.782   2.836
 9156SOL     OW28366   6.575   3.832   6.917
 9156SOL    HW128367   6.561   3.733   6.914
 9156SOL    HW228368   6.555   3.866   7.009
 9157SOL     OW28369   2.980   4.998   6.054
 9157SOL    HW128370   2.981   4.927   5.984
 9157SOL    HW228371   3.074   5.028   6.071
 9158SOL     OW28372   0.048   3.271   4.220
 9158SOL    HW128373   7.015   3.192   4.201
 9158SOL    HW228374   0.120   3.276   4.150
 9159SOL     OW28375   3.545   0.948   3.264
 9159SOL    HW128376   3.633   0.910   3.292
 9159SOL    HW228377   3.535   1.041   3.300
 9160SOL     OW28378   0.491   4.587   6.683
 9160SOL    HW128379   0.521   4.682   6.674
 9160SOL    HW228380   0.523   4.551   6.771
 9161SOL     OW28381   6.076   4.013   1.365
 9161SOL    HW128382   6.151   3.950   1.388
 9161SOL    HW228383   6.015   3.969   1.299
 9162SOL     OW28384   4.553   1.876   2.182
 9162SOL    HW128385   4.479   1.858   2.117
 9162SOL    HW228386   4.560   1.974   2.199
 9163SOL     OW28387   1.650   2.765   3.484
 9163SOL    HW128388   1.639   2.810   3.396
 9163SOL    HW228389   1.564   2.767   3.534
 9164SOL     OW28390   2.596   0.727   6.929
 9164SOL    HW128391   2.503   0.696   6.907
 9164SOL    HW228392   2.620   0.805   6.871
 9165SOL     OW28393   5.446   1.926   5.637
 9165SOL    HW128394   5.496   1.954   5.719
 9165SOL    HW228395   5.465   1.989   5.562
 9166SOL     OW28396   5.088   5.172   1.641
 9166SOL    HW128397   4.992   5.174   1.667
 9166SOL    HW228398   5.145   5.163   1.723
 9167SOL     OW28399   1.908   0.843   5.225
 9167SOL    HW128400   1.970   0.787   5.171
 9167SOL    HW228401   1.818   0.799   5.228
 9168SOL     OW28402   6.803   6.326   4.452
 9168SOL    HW128403   6.709   6.358   4.442
 9168SOL    HW228404   6.803   6.226   4.461
 9169SOL     OW28405   6.299   6.243   0.670
 9169SOL    HW128406   6.310   6.205   0.762
 9169SOL    HW228407   6.292   6.169   0.604
 9170SOL     OW28408   1.749   1.398   5.325
 9170SOL    HW128409   1.843   1.421   5.299
 9170SOL    HW228410   1.726   1.445   5.410
 9171SOL     OW28411   3.063   4.759   0.846
 9171SOL    HW128412   3.096   4.670   0.812
 9171SOL    HW228413   3.095   4.831   0.785
 9172SOL     OW28414   5.181   1.488   4.281
 9172SOL    HW128415   5.091   1.455   4.252
 9172SOL    HW228416   5.169   1.554   4.355
 9173SOL     OW28417   6.147   2.741   4.122
 9173SOL    HW128418   6.145   2.693   4.210
 9173SOL    HW228419   6.185   2.682   4.052
 9174SOL     OW28420   6.973   5.339   0.342
 9174SOL    HW128421   0.007   5.412   0.376
 9174SOL    HW228422   6.993   5.322   0.246
 9175SOL     OW28423   1.526   6.745   6.649
 9175SOL    HW128424   1.485   6.770   6.737
 9175SOL    HW228425   1.618   6.784   6.643
 9176SOL     OW28426   1.334   1.145   2.510
 9176SOL    HW128427   1.367   1.132   2.603
 9176SOL    HW228428   1.250   1.199   2.512
 9177SOL     OW28429   0.301   4.539   3.919
 9177SOL    HW128430   0.398   4.524   3.939
 9177SOL    HW228431   0.251   4.454   3.934
 9178SOL     OW28432   1.512   6.313   0.631
 9178SOL    HW128433   1.416   6.289   0.644
 9178SOL    HW228434   1.532   6.400   0.676
 9179SOL     OW28435   4.260   5.667   5.044
 9179SOL    HW128436   4.339   5.727   5.029
 9179SOL    HW228437   4.184   5.720   5.082
 9180SOL     OW28438   0.091   1.189   3.913
 9180SOL    HW128439   0.087   1.128   3.992
 9180SOL    HW228440   0.153   1.265   3.933
 9181SOL     OW28441   3.814   1.712   3.497
 9181SOL    HW128442   3.870   1.636   3.530
 9181SOL    HW228443   3.724   1.709   3.542
 9182SOL     OW28444   1.412   1.065   3.210
 9182SOL    HW128445   1.487   1.078   3.146
 9182SOL    HW228446   1.326   1.059   3.159
 9183SOL     OW28447   5.865   3.083   5.577
 9183SOL    HW128448   5.912   2.999   5.551
 9183SOL    HW228449   5.932   3.154   5.597
 9184SOL     OW28450   3.650   3.026   1.074
 9184SOL    HW128451   3.563   3.065   1.046
 9184SOL    HW228452   3.641   2.927   1.086
 9185SOL     OW28453   0.812   0.261   6.293
 9185SOL    HW128454   0.814   0.307   6.382
 9185SOL    HW228455   0.899   0.215   6.277
 9186SOL     OW28456   5.765   0.746   6.371
 9186SOL    HW128457   5.693   0.746   6.301
 9186SOL    HW228458   5.763   0.833   6.421
 9187SOL     OW28459   5.104   1.682   0.312
 9187SOL    HW128460   5.053   1.768   0.306
 9187SOL    HW228461   5.199   1.699   0.286
 9188SOL     OW28462   1.054   0.449   1.970
 9188SOL    HW128463   1.037   0.367   2.025
 9188SOL    HW228464   1.011   0.528   2.014
 9189SOL     OW28465   3.897   1.683   4.018
 9189SOL    HW128466   3.949   1.607   4.058
 9189SOL    HW228467   3.834   1.648   3.950
 9190SOL     OW28468   5.995   4.060   5.494
 9190SOL    HW128469   5.907   4.083   5.537
 9190SOL    HW228470   5.979   4.032   5.400
 9191SOL     OW28471   5.571   6.331   6.892
 9191SOL    HW128472   5.487   6.280   6.907
 9191SOL    HW228473   5.639   6.306   6.961
 9192SOL     OW28474   6.434   4.526   5.361
 9192SOL    HW128475   6.349   4.570   5.334
 9192SOL    HW228476   6.436   4.516   5.461
 9193SOL     OW28477   3.511   3.157   3.553
 9193SOL    HW128478   3.521   3.173   3.652
 9193SOL    HW228479   3.536   3.063   3.532
 9194SOL     OW28480   2.725   5.396   2.970
 9194SOL    HW128481   2.741   5.456   3.049
 9194SOL    HW228482   2.775   5.432   2.891
 9195SOL     OW28483   0.326   3.092   2.907
 9195SOL    HW128484   0.365   3.010   2.866
 9195SOL    HW228485   0.254   3.127   2.849
 9196SOL     OW28486   4.917   0.271   3.529
 9196SOL    HW128487   4.878   0.235   3.614
 9196SOL    HW228488   4.946   0.366   3.544
 9197SOL     OW28489   3.453   3.280   6.152
 9197SOL    HW128490   3.449   3.194   6.203
 9197SOL    HW228491   3.548   3.310   6.146
 9198SOL     OW28492   6.095   2.907   5.449
 9198SOL    HW128493   6.046   2.824   5.479
 9198SOL    HW228494   6.141   2.948   5.528
 9199SOL     OW28495   1.277   3.945   6.644
 9199SOL    HW128496   1.236   3.917   6.557
 9199SOL    HW228497   1.326   4.031   6.632
 9200SOL     OW28498   6.453   0.498   0.256
 9200SOL    HW128499   6.525   0.557   0.291
 9200SOL    HW228500   6.492   0.431   0.193
 9201SOL     OW28501   0.460   3.554   2.304
 9201SOL    HW128502   0.448   3.487   2.231
 9201SOL    HW228503   0.470   3.646   2.264
 9202SOL     OW28504   3.014   5.583   4.481
 9202SOL    HW128505   3.098   5.572   4.533
 9202SOL    HW228506   2.988   5.496   4.439
 9203SOL     OW28507   5.242   0.927   5.640
 9203SOL    HW128508   5.151   0.962   5.619
 9203SOL    HW228509   5.267   0.952   5.733
 9204SOL     OW28510   4.949   4.261   2.452
 9204SOL    HW128511   4.957   4.186   2.518
 9204SOL    HW228512   4.866   4.248   2.397
 9205SOL     OW28513   5.433   2.751   2.413
 9205SOL    HW128514   5.373   2.722   2.339
 9205SOL    HW228515   5.383   2.750   2.499
 9206SOL     OW28516   0.688   6.606   3.340
 9206SOL    HW128517   0.764   6.599   3.276
 9206SOL    HW228518   0.712   6.559   3.425
 9207SOL     OW28519   4.272   6.431   0.453
 9207SOL    HW128520   4.194   6.462   0.507
 9207SOL    HW228521   4.346   6.497   0.462
 9208SOL     OW28522   5.242   3.728   1.627
 9208SOL    HW128523   5.316   3.677   1.582
 9208SOL    HW228524   5.220   3.685   1.714
 9209SOL     OW28525   4.111   1.079   2.200
 9209SOL    HW128526   4.182   1.009   2.198
 9209SOL    HW228527   4.046   1.062   2.126
 9210SOL     OW28528   1.274   0.031   1.302
 9210SOL    HW128529   1.208   0.094   1.262
 9210SOL    HW228530   1.291   6.982   1.238
 9211SOL     OW28531   5.187   1.633   6.842
 9211SOL    HW128532   5.149   1.646   6.750
 9211SOL    HW228533   5.119   1.588   6.900
 9212SOL     OW28534   5.410   3.513   4.663
 9212SOL    HW128535   5.486   3.566   4.702
 9212SOL    HW228536   5.431   3.489   4.568
 9213SOL     OW28537   6.015   6.722   3.351
 9213SOL    HW128538   6.099   6.685   3.389
 9213SOL    HW228539   5.956   6.647   3.320
 9214SOL     OW28540   2.214   2.348   4.796
 9214SOL    HW128541   2.175   2.272   4.847
 9214SOL    HW228542   2.297   2.381   4.842
 9215SOL     OW28543   0.535   3.600   2.749
 9215SOL    HW128544   0.614   3.567   2.801
 9215SOL    HW228545   0.520   3.540   2.670
 9216SOL     OW28546   1.978   5.622   5.044
 9216SOL    HW128547   2.034   5.545   5.015
 9216SOL    HW228548   1.935   5.664   4.964
 9217SOL     OW28549   4.370   1.003   6.514
 9217SOL    HW128550   4.356   1.088   6.464
 9217SOL    HW228551   4.323   1.008   6.602
 9218SOL     OW28552   5.651   5.594   5.939
 9218SOL    HW128553   5.590   5.563   6.012
 9218SOL    HW228554   5.742   5.613   5.976
 9219SOL     OW28555   3.562   2.777   5.683
 9219SOL    HW128556   3.559   2.835   5.602
 9219SOL    HW228557   3.515   2.691   5.664
 9220SOL     OW28558   1.578   6.234   3.117
 9220SOL    HW128559   1.632   6.245   3.200
 9220SOL    HW228560   1.573   6.137   3.094
 9221SOL     OW28561   2.602   0.937   6.760
 9221SOL    HW128562   2.677   0.907   6.701
 9221SOL    HW228563   2.588   1.036   6.749
 9222SOL     OW28564   1.467   3.660   3.598
 9222SOL    HW128565   1.478   3.693   3.504
 9222SOL    HW228566   1.380   3.612   3.607
 9223SOL     OW28567   0.893   3.596   4.598
 9223SOL    HW128568   0.897   3.668   4.667
 9223SOL    HW228569   0.862   3.511   4.641
 9224SOL     OW28570   2.097   4.080   4.448
 9224SOL    HW128571   2.161   4.107   4.376
 9224SOL    HW228572   2.129   4.117   4.535
 9225SOL     OW28573   4.768   6.971   6.885
 9225SOL    HW128574   4.804   0.010   6.952
 9225SOL    HW228575   4.787   7.004   6.792
 9226SOL     OW28576   0.909   1.005   0.621
 9226SOL    HW128577   0.936   1.099   0.642
 9226SOL    HW228578   0.890   0.997   0.524
 9227SOL     OW28579   2.652   5.459   1.174
 9227SOL    HW128580   2.722   5.488   1.239
 9227SOL    HW228581   2.565   5.448   1.222
 9228SOL     OW28582   3.152   2.749   5.658
 9228SOL    HW128583   3.107   2.830   5.694
 9228SOL    HW228584   3.138   2.672   5.720
 9229SOL     OW28585   0.013   4.652   6.935
 9229SOL    HW128586   6.988   4.689   7.013
 9229SOL    HW228587   0.101   4.700   6.928
 9230SOL     OW28588   4.561   1.643   4.150
 9230SOL    HW128589   4.514   1.697   4.220
 9230SOL    HW228590   4.503   1.638   4.068
 9231SOL     OW28591   0.031   5.824   4.087
 9231SOL    HW128592   0.002   5.805   4.180
 9231SOL    HW228593   0.032   5.740   4.034
 9232SOL     OW28594   1.437   5.350   1.876
 9232SOL    HW128595   1.438   5.447   1.851
 9232SOL    HW228596   1.480   5.297   1.804
 9233SOL     OW28597   1.084   6.936   0.295
 9233SOL    HW128598   1.097   0.003   0.328
 9233SOL    HW228599   0.989   6.924   0.266
 9234SOL     OW28600   2.258   4.580   0.676
 9234SOL    HW128601   2.352   4.609   0.657
 9234SOL    HW228602   2.223   4.632   0.754
 9235SOL     OW28603   2.483   2.123   4.074
 9235SOL    HW128604   2.458   2.086   3.984
 9235SOL    HW228605   2.427   2.080   4.144
 9236SOL     OW28606   2.053   3.756   6.498
 9236SOL    HW128607   2.129   3.789   6.553
 9236SOL    HW228608   2.011   3.832   6.448
 9237SOL     OW28609   6.216   4.981   3.566
 9237SOL    HW128610   6.271   5.040   3.624
 9237SOL    HW228611   6.198   5.026   3.479
 9238SOL     OW28612   1.760   3.173   5.361
 9238SOL    HW128613   1.827   3.098   5.355
 9238SOL    HW228614   1.695   3.165   5.285
 9239SOL     OW28615   0.561   4.715   0.120
 9239SOL    HW128616   0.463   4.722   0.138
 9239SOL    HW228617   0.601   4.807   0.119
 9240SOL     OW28618   4.822   2.367   2.680
 9240SOL    HW128619   4.793   2.449   2.631
 9240SOL    HW228620   4.837   2.390   2.777
 9241SOL     OW28621   5.862   6.990   1.106
 9241SOL    HW128622   5.800   0.041   1.088
 9241SOL    HW228623   5.813   6.904   1.091
 9242SOL     OW28624   1.178   2.774   0.829
 9242SOL    HW128625   1.160   2.722   0.912
 9242SOL    HW228626   1.132   2.863   0.834
 9243SOL     OW28627   0.992   0.670   0.282
 9243SOL    HW128628   0.957   0.577   0.269
 9243SOL    HW228629   1.070   0.685   0.221
 9244SOL     OW28630   4.074   6.138   5.205
 9244SOL    HW128631   3.982   6.159   5.172
 9244SOL    HW228632   4.133   6.116   5.127
 9245SOL     OW28633   1.015   4.194   2.936
 9245SOL    HW128634   1.045   4.178   3.030
 9245SOL    HW228635   0.916   4.206   2.934
 9246SOL     OW28636   6.645   0.709   5.016
 9246SOL    HW128637   6.608   0.657   5.093
 9246SOL    HW228638   6.698   0.786   5.051
 9247SOL     OW28639   3.814   5.762   3.612
 9247SOL    HW128640   3.902   5.771   3.660
 9247SOL    HW228641   3.741   5.798   3.671
 9248SOL     OW28642   2.309   1.055   5.358
 9248SOL    HW128643   2.387   1.028   5.301
 9248SOL    HW228644   2.240   0.982   5.356
 9249SOL     OW28645   4.169   5.381   1.683
 9249SOL    HW128646   4.113   5.411   1.606
 9249SOL    HW228647   4.266   5.388   1.658
 9250SOL     OW28648   0.186   2.832   4.000
 9250SOL    HW128649   0.134   2.904   4.047
 9250SOL    HW228650   0.173   2.746   4.049
 9251SOL     OW28651   3.241   2.765   0.758
 9251SOL    HW128652   3.331   2.802   0.780
 9251SOL    HW228653   3.194   2.737   0.841
 9252SOL     OW28654   5.692   0.799   5.714
 9252SOL    HW128655   5.624   0.849   5.660
 9252SOL    HW228656   5.711   0.850   5.798
 9253SOL     OW28657   0.963   4.707   5.494
 9253SOL    HW128658   0.993   4.802   5.504
 9253SOL    HW228659   0.889   4.688   5.558
 9254SOL     OW28660   6.720   5.175   3.372
 9254SOL    HW128661   6.773   5.172   3.457
 9254SOL    HW228662   6.730   5.265   3.330
 9255SOL     OW28663   6.575   4.583   0.678
 9255SOL    HW128664   6.512   4.506   0.689
 9255SOL    HW228665   6.662   4.561   0.722
 9256SOL     OW28666   1.731   6.522   1.277
 9256SOL    HW128667   1.740   6.423   1.285
 9256SOL    HW228668   1.733   6.563   1.368
 9257SOL     OW28669   6.766   5.672   4.126
 9257SOL    HW128670   6.763   5.681   4.226
 9257SOL    HW228671   6.860   5.656   4.097
 9258SOL     OW28672   3.871   4.678   0.999
 9258SOL    HW128673   3.789   4.621   0.997
 9258SOL    HW228674   3.893   4.708   0.906
 9259SOL     OW28675   2.289   1.801   6.339
 9259SOL    HW128676   2.244   1.712   6.344
 9259SOL    HW228677   2.286   1.835   6.245
 9260SOL     OW28678   5.481   3.216   4.946
 9260SOL    HW128679   5.531   3.250   4.867
 9260SOL    HW228680   5.515   3.260   5.029
 9261SOL     OW28681   3.822   2.332   1.659
 9261SOL    HW128682   3.891   2.264   1.685
 9261SOL    HW228683   3.749   2.333   1.728
 9262SOL     OW28684   6.174   5.955   3.810
 9262SOL    HW128685   6.157   6.012   3.890
 9262SOL    HW228686   6.271   5.935   3.802
 9263SOL     OW28687   2.185   4.086   3.920
 9263SOL    HW128688   2.159   4.164   3.978
 9263SOL    HW228689   2.160   4.001   3.966
 9264SOL     OW28690   4.381   3.703   6.812
 9264SOL    HW128691   4.461   3.643   6.821
 9264SOL    HW228692   4.327   3.698   6.896
 9265SOL     OW28693   5.258   2.437   0.380
 9265SOL    HW128694   5.332   2.379   0.415
 9265SOL    HW228695   5.214   2.484   0.456
 9266SOL     OW28696   6.948   4.127   1.058
 9266SOL    HW128697   7.003   4.145   1.140
 9266SOL    HW228698   6.902   4.211   1.029
 9267SOL     OW28699   0.381   1.127   4.237
 9267SOL    HW128700   0.403   1.035   4.271
 9267SOL    HW228701   0.315   1.170   4.298
 9268SOL     OW28702   0.665   6.849   2.349
 9268SOL    HW128703   0.596   6.890   2.409
 9268SOL    HW228704   0.672   6.751   2.368
 9269SOL     OW28705   3.931   0.721   1.119
 9269SOL    HW128706   3.911   0.743   1.024
 9269SOL    HW228707   3.882   0.637   1.145
 9270SOL     OW28708   1.686   0.778   5.958
 9270SOL    HW128709   1.736   0.849   5.910
 9270SOL    HW228710   1.746   0.700   5.976
 9271SOL     OW28711   1.604   0.357   5.038
 9271SOL    HW128712   1.697   0.392   5.034
 9271SOL    HW228713   1.594   0.280   4.975
 9272SOL     OW28714   6.435   6.224   5.899
 9272SOL    HW128715   6.516   6.243   5.954
 9272SOL    HW228716   6.380   6.153   5.944
 9273SOL     OW28717   4.762   5.037   4.681
 9273SOL    HW128718   4.836   5.077   4.627
 9273SOL    HW228719   4.765   5.072   4.774
 9274SOL     OW28720   0.819   3.047   0.097
 9274SOL    HW128721   0.762   3.123   0.065
 9274SOL    HW228722   0.915   3.067   0.076
 9275SOL     OW28723   0.636   0.171   0.708
 9275SOL    HW128724   0.620   0.174   0.807
 9275SOL    HW228725   0.715   0.113   0.689
 9276SOL     OW28726   3.390   5.104   0.237
 9276SOL    HW128727   3.352   5.137   0.323
 9276SOL    HW228728   3.454   5.029   0.255
 9277SOL     OW28729   5.213   5.373   2.592
 9277SOL    HW128730   5.143   5.378   2.663
 9277SOL    HW228731   5.238   5.466   2.563
 9278SOL     OW28732   0.789   0.912   5.003
 9278SOL    HW128733   0.713   0.935   4.943
 9278SOL    HW228734   0.853   0.853   4.954
 9279SOL     OW28735   4.635   5.909   1.534
 9279SOL    HW128736   4.549   5.912   1.584
 9279SOL    HW228737   4.705   5.959   1.584
 9280SOL     OW28738   1.473   0.864   2.704
 9280SOL    HW128739   1.535   0.829   2.774
 9280SOL    HW228740   1.494   0.960   2.685
 9281SOL     OW28741   3.098   4.700   0.220
 9281SOL    HW128742   3.032   4.644   0.169
 9281SOL    HW228743   3.067   4.795   0.221
 9282SOL     OW28744   3.011   0.217   4.987
 9282SOL    HW128745   3.013   0.152   5.063
 9282SOL    HW228746   3.009   0.166   4.900
 9283SOL     OW28747   4.781   6.692   6.961
 9283SOL    HW128748   4.791   6.760   6.889
 9283SOL    HW228749   4.691   6.649   6.954
 9284SOL     OW28750   3.193   4.093   5.003
 9284SOL    HW128751   3.174   4.175   5.058
 9284SOL    HW228752   3.285   4.099   4.964
 9285SOL     OW28753   6.875   4.211   2.278
 9285SOL    HW128754   6.923   4.146   2.338
 9285SOL    HW228755   6.838   4.286   2.333
 9286SOL     OW28756   4.801   5.715   1.418
 9286SOL    HW128757   4.752   5.785   1.470
 9286SOL    HW228758   4.742   5.634   1.408
 9287SOL     OW28759   3.166   4.550   5.924
 9287SOL    HW128760   3.254   4.513   5.893
 9287SOL    HW228761   3.096   4.480   5.918
 9288SOL     OW28762   4.393   2.132   3.371
 9288SOL    HW128763   4.338   2.184   3.437
 9288SOL    HW228764   4.337   2.059   3.332
 9289SOL     OW28765   5.103   6.341   6.830
 9289SOL    HW128766   5.083   6.340   6.732
 9289SOL    HW228767   5.025   6.306   6.881
 9290SOL     OW28768   5.298   0.450   4.449
 9290SOL    HW128769   5.242   0.383   4.497
 9290SOL    HW228770   5.383   0.407   4.420
 9291SOL     OW28771   1.483   4.960   5.950
 9291SOL    HW128772   1.532   4.883   5.990
 9291SOL    HW228773   1.515   4.975   5.856
 9292SOL     OW28774   1.775   2.078   6.302
 9292SOL    HW128775   1.790   2.127   6.387
 9292SOL    HW228776   1.824   2.123   6.228
 9293SOL     OW28777   5.237   2.997   5.620
 9293SOL    HW128778   5.157   3.018   5.564
 9293SOL    HW228779   5.235   3.052   5.704
 9294SOL     OW28780   4.570   1.264   0.216
 9294SOL    HW128781   4.656   1.312   0.234
 9294SOL    HW228782   4.537   1.288   0.124
 9295SOL     OW28783   0.868   1.481   5.632
 9295SOL    HW128784   0.915   1.539   5.566
 9295SOL    HW228785   0.912   1.391   5.634
 9296SOL     OW28786   2.175   4.396   0.235
 9296SOL    HW128787   2.191   4.302   0.265
 9296SOL    HW228788   2.156   4.454   0.315
 9297SOL     OW28789   5.881   6.540   2.929
 9297SOL    HW128790   5.930   6.567   2.846
 9297SOL    HW228791   5.799   6.596   2.939
 9298SOL     OW28792   1.171   6.396   5.873
 9298SOL    HW128793   1.227   6.440   5.943
 9298SOL    HW228794   1.144   6.305   5.903
 9299SOL     OW28795   2.112   2.715   4.837
 9299SOL    HW128796   2.065   2.778   4.898
 9299SOL    HW228797   2.054   2.635   4.821
 9300SOL     OW28798   1.516   6.261   6.040
 9300SOL    HW128799   1.429   6.310   6.043
 9300SOL    HW228800   1.522   6.210   5.954
 9301SOL     OW28801   0.277   4.139   4.699
 9301SOL    HW128802   0.369   4.136   4.659
 9301SOL    HW228803   0.214   4.182   4.635
 9302SOL     OW28804   1.729   3.272   4.971
 9302SOL    HW128805   1.813   3.259   4.918
 9302SOL    HW228806   1.682   3.354   4.938
 9303SOL     OW28807   2.329   4.896   0.915
 9303SOL    HW128808   2.299   4.810   0.957
 9303SOL    HW228809   2.383   4.948   0.981
 9304SOL     OW28810   4.667   5.289   0.536
 9304SOL    HW128811   4.670   5.258   0.441
 9304SOL    HW228812   4.758   5.322   0.563
 9305SOL     OW28813   2.490   1.420   1.598
 9305SOL    HW128814   2.482   1.437   1.500
 9305SOL    HW228815   2.582   1.389   1.620
 9306SOL     OW28816   0.561   5.512   4.678
 9306SOL    HW128817   0.650   5.554   4.695
 9306SOL    HW228818   0.516   5.559   4.603
 9307SOL     OW28819   2.592   3.169   1.710
 9307SOL    HW128820   2.499   3.132   1.701
 9307SOL    HW228821   2.657   3.094   1.715
 9308SOL     OW28822   2.046   3.736   1.877
 9308SOL    HW128823   2.031   3.811   1.942
 9308SOL    HW228824   2.117   3.675   1.912
 9309SOL     OW28825   5.034   6.135   5.530
 9309SOL    HW128826   5.063   6.230   5.531
 9309SOL    HW228827   4.956   6.123   5.592
 9310SOL     OW28828   5.363   5.918   6.412
 9310SOL    HW128829   5.426   5.995   6.401
 9310SOL    HW228830   5.383   5.848   6.343
 9311SOL     OW28831   4.569   3.385   1.644
 9311SOL    HW128832   4.639   3.456   1.638
 9311SOL    HW228833   4.479   3.426   1.631
 9312SOL     OW28834   0.646   2.552   1.755
 9312SOL    HW128835   0.595   2.539   1.839
 9312SOL    HW228836   0.586   2.538   1.676
 9313SOL     OW28837   0.626   6.697   2.011
 9313SOL    HW128838   0.589   6.661   2.097
 9313SOL    HW228839   0.658   6.791   2.025
 9314SOL     OW28840   4.836   3.235   0.054
 9314SOL    HW128841   4.745   3.245   0.012
 9314SOL    HW228842   4.825   3.215   0.151
 9315SOL     OW28843   5.667   1.004   6.485
 9315SOL    HW128844   5.607   0.982   6.561
 9315SOL    HW228845   5.623   1.074   6.428
 9316SOL     OW28846   4.531   1.233   5.641
 9316SOL    HW128847   4.533   1.165   5.715
 9316SOL    HW228848   4.487   1.192   5.561
 9317SOL     OW28849   4.296   6.210   3.510
 9317SOL    HW128850   4.253   6.187   3.423
 9317SOL    HW228851   4.302   6.310   3.519
 9318SOL     OW28852   5.172   5.935   1.055
 9318SOL    HW128853   5.205   5.901   1.143
 9318SOL    HW228854   5.088   5.987   1.069
 9319SOL     OW28855   2.546   4.183   0.196
 9319SOL    HW128856   2.548   4.180   0.296
 9319SOL    HW228857   2.508   4.097   0.161
 9320SOL     OW28858   6.512   6.745   6.330
 9320SOL    HW128859   6.536   6.827   6.381
 9320SOL    HW228860   6.554   6.665   6.372
 9321SOL     OW28861   0.624   3.724   4.705
 9321SOL    HW128862   0.525   3.714   4.696
 9321SOL    HW228863   0.664   3.633   4.720
 9322SOL     OW28864   5.468   3.805   5.910
 9322SOL    HW128865   5.477   3.860   5.827
 9322SOL    HW228866   5.459   3.866   5.989
 9323SOL     OW28867   1.513   2.678   4.191
 9323SOL    HW128868   1.557   2.729   4.116
 9323SOL    HW228869   1.505   2.582   4.165
 9324SOL     OW28870   0.550   4.066   1.380
 9324SOL    HW128871   0.546   4.091   1.477
 9324SOL    HW228872   0.502   4.134   1.326
 9325SOL     OW28873   1.097   4.793   2.937
 9325SOL    HW128874   1.190   4.785   2.900
 9325SOL    HW228875   1.100   4.786   3.036
 9326SOL     OW28876   3.945   4.316   0.718
 9326SOL    HW128877   4.041   4.307   0.745
 9326SOL    HW228878   3.887   4.290   0.795
 9327SOL     OW28879   4.564   0.355   3.732
 9327SOL    HW128880   4.576   0.389   3.826
 9327SOL    HW228881   4.586   0.257   3.730
 9328SOL     OW28882   2.801   6.367   4.495
 9328SOL    HW128883   2.752   6.304   4.435
 9328SOL    HW228884   2.899   6.347   4.493
 9329SOL     OW28885   6.806   5.513   6.507
 9329SOL    HW128886   6.885   5.530   6.567
 9329SOL    HW228887   6.730   5.477   6.561
 9330SOL     OW28888   5.868   5.880   6.271
 9330SOL    HW128889   5.861   5.783   6.293
 9330SOL    HW228890   5.854   5.894   6.173
 9331SOL     OW28891   1.327   3.160   4.356
 9331SOL    HW128892   1.363   3.096   4.288
 9331SOL    HW228893   1.334   3.254   4.321
 9332SOL     OW28894   4.505   5.672   0.869
 9332SOL    HW128895   4.594   5.710   0.893
 9332SOL    HW228896   4.440   5.689   0.943
 9333SOL     OW28897   3.799   4.732   0.745
 9333SOL    HW128898   3.725   4.694   0.690
 9333SOL    HW228899   3.804   4.831   0.729
 9334SOL     OW28900   5.431   6.256   5.465
 9334SOL    HW128901   5.408   6.310   5.545
 9334SOL    HW228902   5.529   6.264   5.445
 9335SOL     OW28903   2.186   3.024   1.354
 9335SOL    HW128904   2.161   2.930   1.330
 9335SOL    HW228905   2.105   3.073   1.386
 9336SOL     OW28906   0.022   0.536   5.210
 9336SOL    HW128907   6.982   0.606   5.236
 9336SOL    HW228908   0.088   0.523   5.284
 9337SOL     OW28909   2.531   0.443   6.467
 9337SOL    HW128910   2.586   0.409   6.542
 9337SOL    HW228911   2.592   0.474   6.393
 9338SOL     OW28912   6.221   6.114   6.944
 9338SOL    HW128913   6.292   6.138   6.877
 9338SOL    HW228914   6.131   6.132   6.904
 9339SOL     OW28915   6.526   4.629   5.697
 9339SOL    HW128916   6.451   4.572   5.664
 9339SOL    HW228917   6.522   4.634   5.797
 9340SOL     OW28918   4.144   6.192   2.222
 9340SOL    HW128919   4.080   6.268   2.234
 9340SOL    HW228920   4.137   6.158   2.128
 9341SOL     OW28921   5.484   3.720   6.979
 9341SOL    HW128922   5.410   3.731   6.912
 9341SOL    HW228923   5.543   3.800   6.977
 9342SOL     OW28924   2.840   0.325   4.187
 9342SOL    HW128925   2.822   0.302   4.091
 9342SOL    HW228926   2.935   0.301   4.209
 9343SOL     OW28927   4.929   4.109   1.622
 9343SOL    HW128928   5.006   4.172   1.618
 9343SOL    HW228929   4.844   4.161   1.632
 9344SOL     OW28930   5.885   5.483   4.978
 9344SOL    HW128931   5.969   5.430   4.981
 9344SOL    HW228932   5.814   5.437   5.032
 9345SOL     OW28933   0.092   6.787   0.914
 9345SOL    HW128934   7.019   6.801   0.919
 9345SOL    HW228935   0.135   6.866   0.870
 9346SOL     OW28936   5.413   6.468   1.673
 9346SOL    HW128937   5.329   6.423   1.703
 9346SOL    HW228938   5.425   6.553   1.724
 9347SOL     OW28939   3.875   5.423   0.370
 9347SOL    HW128940   3.846   5.462   0.282
 9347SOL    HW228941   3.954   5.364   0.356
 9348SOL     OW28942   2.163   6.180   1.947
 9348SOL    HW128943   2.139   6.244   1.873
 9348SOL    HW228944   2.134   6.088   1.921
 9349SOL     OW28945   6.069   5.030   1.735
 9349SOL    HW128946   6.068   4.965   1.810
 9349SOL    HW228947   6.046   5.121   1.769
 9350SOL     OW28948   0.165   0.986   5.037
 9350SOL    HW128949   0.097   1.014   5.104
 9350SOL    HW228950   0.200   0.895   5.060
 9351SOL     OW28951   3.023   1.264   6.084
 9351SOL    HW128952   3.105   1.262   6.143
 9351SOL    HW228953   3.045   1.222   5.996
 9352SOL     OW28954   3.554   1.892   6.369
 9352SOL    HW128955   3.591   1.980   6.338
 9352SOL    HW228956   3.457   1.887   6.344
 9353SOL     OW28957   1.014   3.783   1.197
 9353SOL    HW128958   0.965   3.849   1.141
 9353SOL    HW228959   1.013   3.813   1.292
 9354SOL     OW28960   5.415   1.747   1.255
 9354SOL    HW128961   5.431   1.704   1.344
 9354SOL    HW228962   5.453   1.840   1.255
 9355SOL     OW28963   6.855   6.912   3.571
 9355SOL    HW128964   6.778   6.855   3.600
 9355SOL    HW228965   6.894   6.873   3.487
 9356SOL     OW28966   4.322   5.157   2.078
 9356SOL    HW128967   4.240   5.172   2.132
 9356SOL    HW228968   4.383   5.093   2.124
 9357SOL     OW28969   2.892   3.099   0.999
 9357SOL    HW128970   2.935   3.157   1.068
 9357SOL    HW228971   2.811   3.056   1.038
 9358SOL     OW28972   6.339   4.293   1.945
 9358SOL    HW128973   6.308   4.298   1.850
 9358SOL    HW228974   6.350   4.197   1.971
 9359SOL     OW28975   0.003   4.266   6.419
 9359SOL    HW128976   6.987   4.290   6.506
 9359SOL    HW228977   6.958   4.243   6.352
 9360SOL     OW28978   2.288   0.932   6.293
 9360SOL    HW128979   2.316   1.026   6.315
 9360SOL    HW228980   2.370   0.877   6.274
 9361SOL     OW28981   3.039   6.385   2.216
 9361SOL    HW128982   3.021   6.338   2.129
 9361SOL    HW228983   3.095   6.327   2.275
 9362SOL     OW28984   2.378   1.562   2.486
 9362SOL    HW128985   2.430   1.523   2.410
 9362SOL    HW228986   2.311   1.627   2.451
 9363SOL     OW28987   3.431   6.172   2.910
 9363SOL    HW128988   3.391   6.108   2.976
 9363SOL    HW228989   3.509   6.218   2.952
 9364SOL     OW28990   4.519   2.908   6.474
 9364SOL    HW128991   4.434   2.917   6.527
 9364SOL    HW228992   4.589   2.866   6.531
 9365SOL     OW28993   2.771   1.897   4.957
 9365SOL    HW128994   2.688   1.863   5.001
 9365SOL    HW228995   2.748   1.940   4.870
 9366SOL     OW28996   3.386   1.957   0.153
 9366SOL    HW128997   3.361   2.053   0.165
 9366SOL    HW228998   3.470   1.951   0.098
 9367SOL     OW28999   6.795   5.701   3.331
 9367SOL    HW129000   6.894   5.699   3.347
 9367SOL    HW229001   6.762   5.609   3.314
 9368SOL     OW29002   3.203   2.281   1.597
 9368SOL    HW129003   3.120   2.261   1.650
 9368SOL    HW229004   3.194   2.243   1.506
 9369SOL     OW29005   7.008   2.004   5.479
 9369SOL    HW129006   7.001   2.067   5.556
 9369SOL    HW229007   0.005   1.912   5.512
 9370SOL     OW29008   6.360   0.831   2.557
 9370SOL    HW129009   6.319   0.757   2.503
 9370SOL    HW229010   6.346   0.812   2.654
 9371SOL     OW29011   1.088   6.082   0.435
 9371SOL    HW129012   1.016   6.139   0.476
 9371SOL    HW229013   1.138   6.135   0.367
 9372SOL     OW29014   5.645   6.645   3.339
 9372SOL    HW129015   5.707   6.696   3.280
 9372SOL    HW229016   5.553   6.684   3.332
 9373SOL     OW29017   4.540   1.536   3.293
 9373SOL    HW129018   4.617   1.600   3.290
 9373SOL    HW229019   4.460   1.582   3.332
 9374SOL     OW29020   5.849   2.539   0.595
 9374SOL    HW129021   5.918   2.553   0.524
 9374SOL    HW229022   5.892   2.544   0.685
 9375SOL     OW29023   6.968   1.305   2.653
 9375SOL    HW129024   6.966   1.205   2.654
 9375SOL    HW229025   6.888   1.340   2.604
 9376SOL     OW29026   2.996   3.665   0.702
 9376SOL    HW129027   3.001   3.764   0.693
 9376SOL    HW229028   2.913   3.641   0.754
 9377SOL     OW29029   6.687   5.147   3.807
 9377SOL    HW129030   6.698   5.136   3.906
 9377SOL    HW229031   6.772   5.184   3.769
 9378SOL     OW29032   2.620   0.288   0.146
 9378SOL    HW129033   2.564   0.206   0.146
 9378SOL    HW229034   2.654   0.306   0.239
 9379SOL     OW29035   4.505   4.718   4.059
 9379SOL    HW129036   4.506   4.716   3.959
 9379SOL    HW229037   4.491   4.813   4.089
 9380SOL     OW29038   6.623   6.944   5.800
 9380SOL    HW129039   6.677   6.901   5.728
 9380SOL    HW229040   6.601   0.012   5.774
 9381SOL     OW29041   2.650   2.642   5.399
 9381SOL    HW129042   2.668   2.655   5.497
 9381SOL    HW229043   2.650   2.731   5.353
 9382SOL     OW29044   4.055   1.177   2.826
 9382SOL    HW129045   3.989   1.104   2.845
 9382SOL    HW229046   4.012   1.265   2.844
 9383SOL     OW29047   3.487   6.833   4.557
 9383SOL    HW129048   3.564   6.821   4.495
 9383SOL    HW229049   3.404   6.797   4.514
 9384SOL     OW29050   4.951   5.951   2.793
 9384SOL    HW129051   4.868   5.902   2.765
 9384SOL    HW229052   4.971   6.023   2.727
 9385SOL     OW29053   3.831   1.400   3.538
 9385SOL    HW129054   3.853   1.324   3.598
 9385SOL    HW229055   3.749   1.447   3.571
 9386SOL     OW29056   3.432   6.429   5.237
 9386SOL    HW129057   3.333   6.427   5.223
 9386SOL    HW229058   3.476   6.476   5.160
 9387SOL     OW29059   3.296   6.721   1.377
 9387SOL    HW129060   3.382   6.770   1.394
 9387SOL    HW229061   3.297   6.685   1.284
 9388SOL     OW29062   0.704   6.739   2.968
 9388SOL    HW129063   0.788   6.693   2.938
 9388SOL    HW229064   0.636   6.671   2.994
 9389SOL     OW29065   2.728   0.606   5.765
 9389SOL    HW129066   2.753   0.534   5.831
 9389SOL    HW229067   2.659   0.570   5.702
 9390SOL     OW29068   3.667   5.604   2.978
 9390SOL    HW129069   3.649   5.661   3.057
 9390SOL    HW229070   3.742   5.644   2.924
 9391SOL     OW29071   1.592   1.219   5.449
 9391SOL    HW129072   1.495   1.237   5.461
 9391SOL    HW229073   1.633   1.293   5.395
 9392SOL     OW29074   1.092   6.536   4.944
 9392SOL    HW129075   1.029   6.561   5.018
 9392SOL    HW229076   1.177   6.502   4.984
 9393SOL     OW29077   4.139   2.130   5.418
 9393SOL    HW129078   4.075   2.091   5.484
 9393SOL    HW229079   4.184   2.210   5.458
 9394SOL     OW29080   6.263   2.675   3.234
 9394SOL    HW129081   6.304   2.627   3.156
 9394SOL    HW229082   6.181   2.626   3.264
 9395SOL     OW29083   2.712   2.826   0.386
 9395SOL    HW129084   2.747   2.742   0.345
 9395SOL    HW229085   2.629   2.806   0.437
 9396SOL     OW29086   6.336   6.591   5.023
 9396SOL    HW129087   6.385   6.667   5.066
 9396SOL    HW229088   6.397   6.544   4.959
 9397SOL     OW29089   1.855   0.896   6.834
 9397SOL    HW129090   1.833   0.836   6.911
 9397SOL    HW229091   1.896   0.842   6.760
 9398SOL     OW29092   2.556   1.570   6.953
 9398SOL    HW129093   2.520   1.591   6.863
 9398SOL    HW229094   2.491   1.511   7.002
 9399SOL     OW29095   6.680   1.953   6.288
 9399SOL    HW129096   6.584   1.950   6.260
 9399SOL    HW229097   6.686   1.931   6.386
 9400SOL     OW29098   5.091   3.375   1.515
 9400SOL    HW129099   4.999   3.346   1.540
 9400SOL    HW229100   5.110   3.348   1.421
 9401SOL     OW29101   2.710   6.421   3.704
 9401SOL    HW129102   2.694   6.417   3.606
 9401SOL    HW229103   2.705   6.329   3.743
 9402SOL     OW29104   2.967   5.430   6.600
 9402SOL    HW129105   3.060   5.402   6.622
 9402SOL    HW229106   2.968   5.484   6.515
 9403SOL     OW29107   5.399   1.246   3.528
 9403SOL    HW129108   5.426   1.206   3.441
 9403SOL    HW229109   5.304   1.278   3.522
 9404SOL     OW29110   0.714   5.016   6.874
 9404SOL    HW129111   0.785   4.948   6.893
 9404SOL    HW229112   0.722   5.047   6.780
 9405SOL     OW29113   6.007   6.500   1.629
 9405SOL    HW129114   6.031   6.588   1.669
 9405SOL    HW229115   6.069   6.478   1.554
 9406SOL     OW29116   6.850   2.338   5.457
 9406SOL    HW129117   6.950   2.338   5.451
 9406SOL    HW229118   6.822   2.349   5.552
 9407SOL     OW29119   2.953   6.395   3.484
 9407SOL    HW129120   2.855   6.379   3.484
 9407SOL    HW229121   2.971   6.492   3.494
 9408SOL     OW29122   3.797   1.550   6.722
 9408SOL    HW129123   3.855   1.481   6.677
 9408SOL    HW229124   3.733   1.587   6.655
 9409SOL     OW29125   5.277   3.892   4.097
 9409SOL    HW129126   5.243   3.952   4.170
 9409SOL    HW229127   5.229   3.805   4.101
 9410SOL     OW29128   3.860   6.229   2.071
 9410SOL    HW129129   3.875   6.328   2.077
 9410SOL    HW229130   3.780   6.204   2.125
 9411SOL     OW29131   3.940   5.635   0.964
 9411SOL    HW129132   3.927   5.721   0.914
 9411SOL    HW229133   4.030   5.637   1.010
 9412SOL     OW29134   0.493   3.121   1.592
 9412SOL    HW129135   0.477   3.151   1.498
 9412SOL    HW229136   0.529   3.028   1.592
 9413SOL     OW29137   4.271   5.536   5.352
 9413SOL    HW129138   4.276   5.592   5.270
 9413SOL    HW229139   4.195   5.566   5.409
 9414SOL     OW29140   3.103   1.398   2.404
 9414SOL    HW129141   3.145   1.308   2.416
 9414SOL    HW229142   3.174   1.469   2.406
 9415SOL     OW29143   1.938   6.680   2.675
 9415SOL    HW129144   1.875   6.669   2.598
 9415SOL    HW229145   2.011   6.744   2.649
 9416SOL     OW29146   1.038   1.706   1.368
 9416SOL    HW129147   1.036   1.787   1.427
 9416SOL    HW229148   1.120   1.652   1.388
 9417SOL     OW29149   3.093   5.879   5.382
 9417SOL    HW129150   3.073   5.897   5.286
 9417SOL    HW229151   3.115   5.965   5.428
 9418SOL     OW29152   2.255   5.691   1.264
 9418SOL    HW129153   2.349   5.682   1.298
 9418SOL    HW229154   2.237   5.616   1.200
 9419SOL     OW29155   3.051   6.802   5.410
 9419SOL    HW129156   3.030   6.881   5.468
 9419SOL    HW229157   2.995   6.724   5.439
 9420SOL     OW29158   6.527   1.335   4.613
 9420SOL    HW129159   6.605   1.297   4.664
 9420SOL    HW229160   6.503   1.274   4.538
 9421SOL     OW29161   2.034   4.849   5.330
 9421SOL    HW129162   2.048   4.825   5.234
 9421SOL    HW229163   2.079   4.782   5.389
 9422SOL     OW29164   5.421   6.964   2.594
 9422SOL    HW129165   5.407   6.961   2.496
 9422SOL    HW229166   5.506   7.015   2.614
 9423SOL     OW29167   4.233   0.880   3.068
 9423SOL    HW129168   4.237   0.909   2.972
 9423SOL    HW229169   4.296   0.936   3.122
 9424SOL     OW29170   4.754   0.106   5.483
 9424SOL    HW129171   4.828   0.051   5.445
 9424SOL    HW229172   4.720   0.064   5.567
 9425SOL     OW29173   0.530   3.454   5.821
 9425SOL    HW129174   0.630   3.457   5.826
 9425SOL    HW229175   0.492   3.515   5.891
 9426SOL     OW29176   2.960   1.341   0.545
 9426SOL    HW129177   3.047   1.296   0.564
 9426SOL    HW229178   2.959   1.373   0.450
 9427SOL     OW29179   2.893   5.091   4.855
 9427SOL    HW129180   2.799   5.125   4.867
 9427SOL    HW229181   2.904   5.006   4.907
 9428SOL     OW29182   5.999   6.972   2.930
 9428SOL    HW129183   5.918   6.935   2.885
 9428SOL    HW229184   6.052   0.000   2.865
 9429SOL     OW29185   1.405   4.072   2.069
 9429SOL    HW129186   1.444   4.111   1.986
 9429SOL    HW229187   1.307   4.057   2.056
 9430SOL     OW29188   6.463   6.988   2.337
 9430SOL    HW129189   6.365   6.969   2.342
 9430SOL    HW229190   6.493   0.007   2.422
 9431SOL     OW29191   6.214   4.126   0.085
 9431SOL    HW129192   6.256   4.067   0.017
 9431SOL    HW229193   6.121   4.096   0.103
 9432SOL     OW29194   6.121   0.033   3.706
 9432SOL    HW129195   6.166   6.986   3.654
 9432SOL    HW229196   6.103   0.110   3.645
 9433SOL     OW29197   3.209   4.859   4.864
 9433SOL    HW129198   3.244   4.766   4.854
 9433SOL    HW229199   3.142   4.862   4.937
 9434SOL     OW29200   5.725   4.489   3.062
 9434SOL    HW129201   5.804   4.428   3.051
 9434SOL    HW229202   5.647   4.450   3.013
 9435SOL     OW29203   1.722   1.339   3.946
 9435SOL    HW129204   1.725   1.314   3.850
 9435SOL    HW229205   1.643   1.295   3.989
 9436SOL     OW29206   1.650   3.813   1.135
 9436SOL    HW129207   1.586   3.862   1.076
 9436SOL    HW229208   1.704   3.749   1.080
 9437SOL     OW29209   1.117   5.389   3.194
 9437SOL    HW129210   1.196   5.450   3.189
 9437SOL    HW229211   1.136   5.316   3.260
 9438SOL     OW29212   0.612   6.510   1.810
 9438SOL    HW129213   0.645   6.566   1.885
 9438SOL    HW229214   0.626   6.558   1.723
 9439SOL     OW29215   6.829   3.053   2.148
 9439SOL    HW129216   6.831   2.991   2.226
 9439SOL    HW229217   6.780   3.136   2.173
 9440SOL     OW29218   4.810   6.459   4.918
 9440SOL    HW129219   4.897   6.411   4.904
 9440SOL    HW229220   4.749   6.401   4.972
 9441SOL     OW29221   1.428   5.368   5.336
 9441SOL    HW129222   1.480   5.435   5.389
 9441SOL    HW229223   1.490   5.302   5.294
 9442SOL     OW29224   6.708   1.974   7.022
 9442SOL    HW129225   6.721   2.045   0.065
 9442SOL    HW229226   6.612   1.948   7.017
 9443SOL     OW29227   1.891   4.710   1.452
 9443SOL    HW129228   1.873   4.777   1.524
 9443SOL    HW229229   1.848   4.623   1.476
 9444SOL     OW29230   0.255   3.236   0.098
 9444SOL    HW129231   0.163   3.208   0.072
 9444SOL    HW229232   0.270   3.217   0.195
 9445SOL     OW29233   4.946   3.752   1.984
 9445SOL    HW129234   4.910   3.773   1.893
 9445SOL    HW229235   4.915   3.820   2.049
 9446SOL     OW29236   6.527   6.641   2.812
 9446SOL    HW129237   6.605   6.703   2.796
 9446SOL    HW229238   6.480   6.669   2.896
 9447SOL     OW29239   5.420   3.279   1.921
 9447SOL    HW129240   5.381   3.317   1.837
 9447SOL    HW229241   5.459   3.354   1.975
 9448SOL     OW29242   5.214   6.180   6.071
 9448SOL    HW129243   5.304   6.174   6.115
 9448SOL    HW229244   5.226   6.178   5.971
 9449SOL     OW29245   6.681   5.248   5.265
 9449SOL    HW129246   6.716   5.183   5.332
 9449SOL    HW229247   6.721   5.228   5.175
 9450SOL     OW29248   2.324   4.947   4.882
 9450SOL    HW129249   2.252   5.008   4.914
 9450SOL    HW229250   2.353   4.975   4.790
 9451SOL     OW29251   4.757   5.756   6.069
 9451SOL    HW129252   4.664   5.721   6.079
 9451SOL    HW229253   4.780   5.764   5.972
 9452SOL     OW29254   2.410   3.651   0.860
 9452SOL    HW129255   2.438   3.701   0.941
 9452SOL    HW229256   2.314   3.624   0.868
 9453SOL     OW29257   1.869   4.728   2.979
 9453SOL    HW129258   1.826   4.784   2.908
 9453SOL    HW229259   1.938   4.783   3.027
 9454SOL     OW29260   1.336   4.255   6.153
 9454SOL    HW129261   1.256   4.242   6.212
 9454SOL    HW229262   1.372   4.166   6.126
 9455SOL     OW29263   3.362   1.533   2.481
 9455SOL    HW129264   3.403   1.447   2.512
 9455SOL    HW229265   3.422   1.609   2.505
 9456SOL     OW29266   0.466   4.267   1.094
 9456SOL    HW129267   0.388   4.328   1.110
 9456SOL    HW229268   0.442   4.174   1.122
 9457SOL     OW29269   1.909   3.899   6.826
 9457SOL    HW129270   1.835   3.887   6.760
 9457SOL    HW229271   1.995   3.869   6.786
 9458SOL     OW29272   0.105   4.917   5.913
 9458SOL    HW129273   0.148   4.880   5.830
 9458SOL    HW229274   0.169   4.977   5.960
 9459SOL     OW29275   6.544   5.288   2.310
 9459SOL    HW129276   6.631   5.238   2.313
 9459SOL    HW229277   6.490   5.266   2.391
 9460SOL     OW29278   0.181   2.435   4.803
 9460SOL    HW129279   0.265   2.382   4.794
 9460SOL    HW229280   0.167   2.461   4.898
 9461SOL     OW29281   6.867   1.329   2.925
 9461SOL    HW129282   6.786   1.280   2.893
 9461SOL    HW229283   6.948   1.271   2.913
 9462SOL     OW29284   1.752   3.255   3.030
 9462SOL    HW129285   1.717   3.285   2.941
 9462SOL    HW229286   1.756   3.155   3.032
 9463SOL     OW29287   0.078   0.670   0.798
 9463SOL    HW129288   0.051   0.640   0.706
 9463SOL    HW229289   0.001   0.657   0.861
 9464SOL     OW29290   5.592   6.578   6.413
 9464SOL    HW129291   5.500   6.602   6.382
 9464SOL    HW229292   5.586   6.542   6.507
 9465SOL     OW29293   6.823   0.542   2.900
 9465SOL    HW129294   6.726   0.522   2.886
 9465SOL    HW229295   6.878   0.492   2.833
 9466SOL     OW29296   2.676   3.252   5.577
 9466SOL    HW129297   2.720   3.163   5.592
 9466SOL    HW229298   2.611   3.245   5.501
 9467SOL     OW29299   1.641   2.582   1.426
 9467SOL    HW129300   1.669   2.660   1.369
 9467SOL    HW229301   1.567   2.532   1.380
 9468SOL     OW29302   5.671   3.227   6.012
 9468SOL    HW129303   5.634   3.284   5.939
 9468SOL    HW229304   5.684   3.282   6.094
 9469SOL     OW29305   6.409   5.499   2.419
 9469SOL    HW129306   6.491   5.453   2.385
 9469SOL    HW229307   6.328   5.446   2.393
 9470SOL     OW29308   5.181   2.826   6.942
 9470SOL    HW129309   5.264   2.816   6.887
 9470SOL    HW229310   5.200   2.884   7.021
 9471SOL     OW29311   6.829   2.651   5.502
 9471SOL    HW129312   6.817   2.742   5.543
 9471SOL    HW229313   6.817   2.657   5.403
 9472SOL     OW29314   6.528   4.291   4.797
 9472SOL    HW129315   6.514   4.198   4.830
 9472SOL    HW229316   6.501   4.296   4.701
 9473SOL     OW29317   3.416   6.531   5.508
 9473SOL    HW129318   3.371   6.466   5.570
 9473SOL    HW229319   3.440   6.485   5.423
 9474SOL     OW29320   5.913   4.342   1.911
 9474SOL    HW129321   5.933   4.267   1.974
 9474SOL    HW229322   5.858   4.308   1.835
 9475SOL     OW29323   3.330   3.557   1.017
 9475SOL    HW129324   3.305   3.475   1.068
 9475SOL    HW229325   3.416   3.593   1.052
 9476SOL     OW29326   3.457   3.524   5.168
 9476SOL    HW129327   3.404   3.476   5.098
 9476SOL    HW229328   3.495   3.457   5.232
 9477SOL     OW29329   0.810   3.148   0.894
 9477SOL    HW129330   0.831   3.062   0.940
 9477SOL    HW229331   0.712   3.152   0.873
 9478SOL     OW29332   5.168   4.062   5.692
 9478SOL    HW129333   5.078   4.060   5.648
 9478SOL    HW229334   5.156   4.066   5.791
 9479SOL     OW29335   5.719   5.374   6.191
 9479SOL    HW129336   5.706   5.297   6.253
 9479SOL    HW229337   5.641   5.437   6.198
 9480SOL     OW29338   4.504   4.369   6.837
 9480SOL    HW129339   4.519   4.453   6.785
 9480SOL    HW229340   4.551   4.293   6.791
 9481SOL     OW29341   6.505   3.727   1.654
 9481SOL    HW129342   6.545   3.817   1.639
 9481SOL    HW229343   6.428   3.735   1.718
 9482SOL     OW29344   5.932   0.588   3.587
 9482SOL    HW129345   5.848   0.605   3.536
 9482SOL    HW229346   6.008   0.639   3.545
 9483SOL     OW29347   1.816   1.833   0.924
 9483SOL    HW129348   1.811   1.932   0.930
 9483SOL    HW229349   1.737   1.793   0.970
 9484SOL     OW29350   6.239   1.249   3.739
 9484SOL    HW129351   6.206   1.326   3.684
 9484SOL    HW229352   6.334   1.266   3.767
 9485SOL     OW29353   1.691   0.697   1.628
 9485SOL    HW129354   1.686   0.676   1.530
 9485SOL    HW229355   1.782   0.673   1.663
 9486SOL     OW29356   2.566   5.215   0.706
 9486SOL    HW129357   2.518   5.303   0.711
 9486SOL    HW229358   2.603   5.192   0.796
 9487SOL     OW29359   3.208   3.881   3.501
 9487SOL    HW129360   3.223   3.940   3.580
 9487SOL    HW229361   3.294   3.868   3.452
 9488SOL     OW29362   1.640   5.947   1.481
 9488SOL    HW129363   1.559   5.946   1.540
 9488SOL    HW229364   1.659   5.854   1.449
 9489SOL     OW29365   4.262   3.925   0.880
 9489SOL    HW129366   4.185   3.959   0.826
 9489SOL    HW229367   4.259   3.966   0.972
 9490SOL     OW29368   5.209   0.459   1.072
 9490SOL    HW129369   5.185   0.526   1.003
 9490SOL    HW229370   5.309   0.450   1.076
 9491SOL     OW29371   0.156   5.079   4.570
 9491SOL    HW129372   0.128   5.035   4.655
 9491SOL    HW229373   0.110   5.167   4.561
 9492SOL     OW29374   3.268   3.773   2.193
 9492SOL    HW129375   3.288   3.867   2.220
 9492SOL    HW229376   3.170   3.764   2.176
 9493SOL     OW29377   4.834   4.973   3.896
 9493SOL    HW129378   4.743   5.008   3.875
 9493SOL    HW229379   4.873   5.025   3.973
 9494SOL     OW29380   5.268   3.641   0.148
 9494SOL    HW129381   5.352   3.630   0.096
 9494SOL    HW229382   5.249   3.738   0.162
 9495SOL     OW29383   6.342   2.114   3.352
 9495SOL    HW129384   6.394   2.156   3.277
 9495SOL    HW229385   6.392   2.035   3.387
 9496SOL     OW29386   5.331   3.933   6.555
 9496SOL    HW129387   5.334   3.909   6.458
 9496SOL    HW229388   5.280   4.018   6.567
 9497SOL     OW29389   4.259   4.270   0.801
 9497SOL    HW129390   4.263   4.182   0.753
 9497SOL    HW229391   4.304   4.263   0.889
 9498SOL     OW29392   4.641   6.451   5.686
 9498SOL    HW129393   4.578   6.520   5.650
 9498SOL    HW229394   4.593   6.363   5.695
 9499SOL     OW29395   2.146   4.037   5.691
 9499SOL    HW129396   2.148   3.944   5.727
 9499SOL    HW229397   2.099   4.038   5.603
 9500SOL     OW29398   4.048   6.552   1.634
 9500SOL    HW129399   4.003   6.544   1.545
 9500SOL    HW229400   4.117   6.624   1.630
 9501SOL     OW29401   3.772   1.899   4.811
 9501SOL    HW129402   3.700   1.966   4.792
 9501SOL    HW229403   3.837   1.937   4.876
 9502SOL     OW29404   6.480   1.973   4.859
 9502SOL    HW129405   6.415   1.898   4.840
 9502SOL    HW229406   6.548   1.977   4.786
 9503SOL     OW29407   0.040   1.170   1.325
 9503SOL    HW129408   0.080   1.114   1.252
 9503SOL    HW229409   0.008   1.257   1.286
 9504SOL     OW29410   6.724   2.647   1.382
 9504SOL    HW129411   6.773   2.733   1.395
 9504SOL    HW229412   6.723   2.624   1.284
 9505SOL     OW29413   6.072   3.543   3.459
 9505SOL    HW129414   6.046   3.468   3.519
 9505SOL    HW229415   6.162   3.524   3.420
 9506SOL     OW29416   0.005   3.176   6.992
 9506SOL    HW129417   7.015   3.115   6.915
 9506SOL    HW229418   6.965   3.252   6.989
 9507SOL     OW29419   2.317   1.245   4.494
 9507SOL    HW129420   2.304   1.182   4.417
 9507SOL    HW229421   2.410   1.236   4.529
 9508SOL     OW29422   5.351   2.590   0.142
 9508SOL    HW129423   5.312   2.559   0.229
 9508SOL    HW229424   5.306   2.674   0.113
 9509SOL     OW29425   1.116   6.684   5.534
 9509SOL    HW129426   1.037   6.642   5.490
 9509SOL    HW229427   1.187   6.701   5.466
 9510SOL     OW29428   0.045   3.620   1.950
 9510SOL    HW129429   0.011   3.696   1.895
 9510SOL    HW229430   7.000   3.550   1.958
 9511SOL     OW29431   0.383   2.116   0.326
 9511SOL    HW129432   0.312   2.120   0.255
 9511SOL    HW229433   0.410   2.209   0.352
 9512SOL     OW29434   6.417   1.723   3.582
 9512SOL    HW129435   6.331   1.728   3.532
 9512SOL    HW229436   6.419   1.638   3.636
 9513SOL     OW29437   1.905   4.035   4.841
 9513SOL    HW129438   1.887   4.104   4.771
 9513SOL    HW229439   1.995   3.994   4.824
 9514SOL     OW29440   1.737   3.675   6.884
 9514SOL    HW129441   1.681   3.726   6.950
 9514SOL    HW229442   1.818   3.729   6.860
 9515SOL     OW29443   1.013   6.082   0.060
 9515SOL    HW129444   1.033   6.175   0.031
 9515SOL    HW229445   0.915   6.071   0.073
 9516SOL     OW29446   5.154   3.236   4.029
 9516SOL    HW129447   5.092   3.171   3.985
 9516SOL    HW229448   5.114   3.268   4.115
 9517SOL     OW29449   0.932   4.880   1.345
 9517SOL    HW129450   1.024   4.864   1.381
 9517SOL    HW229451   0.903   4.973   1.367
 9518SOL     OW29452   1.414   2.751   6.118
 9518SOL    HW129453   1.342   2.686   6.094
 9518SOL    HW229454   1.472   2.767   6.038
 9519SOL     OW29455   3.058   3.388   2.696
 9519SOL    HW129456   3.076   3.290   2.699
 9519SOL    HW229457   3.096   3.426   2.612
 9520SOL     OW29458   6.632   1.031   4.430
 9520SOL    HW129459   6.565   1.000   4.498
 9520SOL    HW229460   6.619   1.128   4.413
 9521SOL     OW29461   3.023   5.278   1.542
 9521SOL    HW129462   2.961   5.217   1.592
 9521SOL    HW229463   3.115   5.238   1.541
 9522SOL     OW29464   4.178   5.501   2.091
 9522SOL    HW129465   4.275   5.491   2.069
 9522SOL    HW229466   4.167   5.498   2.191
 9523SOL     OW29467   2.166   5.125   4.965
 9523SOL    HW129468   2.157   5.181   4.884
 9523SOL    HW229469   2.118   5.168   5.042
 9524SOL     OW29470   1.333   3.401   1.900
 9524SOL    HW129471   1.431   3.416   1.914
 9524SOL    HW229472   1.282   3.483   1.927
 9525SOL     OW29473   1.673   2.166   5.931
 9525SOL    HW129474   1.693   2.077   5.889
 9525SOL    HW229475   1.722   2.238   5.882
 9526SOL     OW29476   5.460   4.748   0.735
 9526SOL    HW129477   5.516   4.703   0.666
 9526SOL    HW229478   5.506   4.832   0.765
 9527SOL     OW29479   2.541   6.730   4.395
 9527SOL    HW129480   2.461   6.679   4.364
 9527SOL    HW229481   2.565   6.799   4.327
 9528SOL     OW29482   5.648   1.062   1.539
 9528SOL    HW129483   5.653   1.038   1.636
 9528SOL    HW229484   5.740   1.082   1.505
 9529SOL     OW29485   6.067   3.597   0.763
 9529SOL    HW129486   6.110   3.543   0.691
 9529SOL    HW229487   6.035   3.537   0.836
 9530SOL     OW29488   1.015   5.373   4.429
 9530SOL    HW129489   1.045   5.372   4.525
 9530SOL    HW229490   0.973   5.461   4.408
 9531SOL     OW29491   4.158   4.691   2.896
 9531SOL    HW129492   4.175   4.655   2.804
 9531SOL    HW229493   4.236   4.672   2.955
 9532SOL     OW29494   6.255   5.009   1.438
 9532SOL    HW129495   6.265   5.108   1.452
 9532SOL    HW229496   6.194   4.971   1.508
 9533SOL     OW29497   1.043   5.797   4.624
 9533SOL    HW129498   1.141   5.819   4.623
 9533SOL    HW229499   1.019   5.751   4.538
 9534SOL     OW29500   6.113   4.509   5.058
 9534SOL    HW129501   6.020   4.481   5.036
 9534SOL    HW229502   6.152   4.559   4.981
 9535SOL     OW29503   2.024   1.914   5.465
 9535SOL    HW129504   1.926   1.898   5.481
 9535SOL    HW229505   2.056   1.988   5.524
 9536SOL     OW29506   3.736   2.975   4.612
 9536SOL    HW129507   3.766   3.053   4.667
 9536SOL    HW229508   3.638   2.960   4.627
 9537SOL     OW29509   2.852   1.556   4.142
 9537SOL    HW129510   2.949   1.580   4.132
 9537SOL    HW229511   2.796   1.637   4.126
 9538SOL     OW29512   4.333   1.048   4.454
 9538SOL    HW129513   4.295   1.064   4.545
 9538SOL    HW229514   4.343   1.136   4.407
 9539SOL     OW29515   3.068   3.198   4.082
 9539SOL    HW129516   3.033   3.185   3.989
 9539SOL    HW229517   2.992   3.225   4.142
 9540SOL     OW29518   4.974   5.186   4.020
 9540SOL    HW129519   4.969   5.185   4.120
 9540SOL    HW229520   4.914   5.257   3.985
 9541SOL     OW29521   1.204   0.862   5.722
 9541SOL    HW129522   1.136   0.916   5.773
 9541SOL    HW229523   1.169   0.769   5.708
 9542SOL     OW29524   5.871   4.772   4.930
 9542SOL    HW129525   5.877   4.721   4.844
 9542SOL    HW229526   5.821   4.858   4.915
 9543SOL     OW29527   3.060   0.150   5.874
 9543SOL    HW129528   3.096   0.068   5.919
 9543SOL    HW229529   2.963   0.136   5.853
 9544SOL     OW29530   4.882   3.883   3.710
 9544SOL    HW129531   4.835   3.935   3.782
 9544SOL    HW229532   4.855   3.787   3.716
 9545SOL     OW29533   0.643   5.608   2.304
 9545SOL    HW129534   0.664   5.520   2.347
 9545SOL    HW229535   0.575   5.656   2.360
 9546SOL     OW29536   3.810   1.923   5.951
 9546SOL    HW129537   3.733   1.938   5.889
 9546SOL    HW229538   3.867   2.005   5.953
 9547SOL     OW29539   3.073   5.816   3.832
 9547SOL    HW129540   3.118   5.738   3.876
 9547SOL    HW229541   2.994   5.844   3.887
 9548SOL     OW29542   0.894   5.356   4.898
 9548SOL    HW129543   0.864   5.268   4.860
 9548SOL    HW229544   0.843   5.376   4.981
 9549SOL     OW29545   3.475   0.525   2.813
 9549SOL    HW129546   3.401   0.527   2.880
 9549SOL    HW229547   3.435   0.523   2.721
 9550SOL     OW29548   6.262   2.378   0.609
 9550SOL    HW129549   6.342   2.391   0.668
 9550SOL    HW229550   6.183   2.354   0.665
 9551SOL     OW29551   6.023   3.198   6.384
 9551SOL    HW129552   5.968   3.114   6.380
 9551SOL    HW229553   6.120   3.175   6.382
 9552SOL     OW29554   2.112   0.171   6.116
 9552SOL    HW129555   2.058   0.255   6.113
 9552SOL    HW229556   2.188   0.178   6.052
 9553SOL     OW29557   5.409   1.913   0.443
 9553SOL    HW129558   5.454   1.825   0.425
 9553SOL    HW229559   5.400   1.964   0.358
 9554SOL     OW29560   2.100   6.749   3.791
 9554SOL    HW129561   2.085   6.803   3.708
 9554SOL    HW229562   2.017   6.749   3.846
 9555SOL     OW29563   0.235   1.476   3.215
 9555SOL    HW129564   0.177   1.522   3.149
 9555SOL    HW229565   0.224   1.518   3.305
 9556SOL     OW29566   1.588   4.794   1.493
 9556SOL    HW129567   1.579   4.706   1.539
 9556SOL    HW229568   1.678   4.800   1.449
 9557SOL     OW29569   4.657   6.823   1.847
 9557SOL    HW129570   4.666   6.874   1.762
 9557SOL    HW229571   4.662   6.725   1.828
 9558SOL     OW29572   5.704   6.346   5.385
 9558SOL    HW129573   5.770   6.397   5.441
 9558SOL    HW229574   5.662   6.409   5.320
 9559SOL     OW29575   1.067   3.888   0.057
 9559SOL    HW129576   1.144   3.826   0.045
 9559SOL    HW229577   1.024   3.871   0.146
 9560SOL     OW29578   2.292   0.993   2.510
 9560SOL    HW129579   2.205   1.024   2.548
 9560SOL    HW229580   2.283   0.900   2.475
 9561SOL     OW29581   0.415   0.934   1.224
 9561SOL    HW129582   0.489   1.000   1.239
 9561SOL    HW229583   0.454   0.844   1.205
 9562SOL     OW29584   2.818   6.501   4.219
 9562SOL    HW129585   2.910   6.464   4.205
 9562SOL    HW229586   2.811   6.541   4.310
 9563SOL     OW29587   0.251   6.717   0.382
 9563SOL    HW129588   0.175   6.779   0.364
 9563SOL    HW229589   0.222   6.646   0.446
 9564SOL     OW29590   2.262   1.397   1.156
 9564SOL    HW129591   2.270   1.382   1.057
 9564SOL    HW229592   2.209   1.480   1.173
 9565SOL     OW29593   3.520   1.494   4.835
 9565SOL    HW129594   3.570   1.572   4.798
 9565SOL    HW229595   3.581   1.437   4.889
 9566SOL     OW29596   2.450   6.103   0.133
 9566SOL    HW129597   2.365   6.074   0.177
 9566SOL    HW229598   2.495   6.024   0.092
 9567SOL     OW29599   5.966   4.038   0.614
 9567SOL    HW129600   6.043   3.977   0.629
 9567SOL    HW229601   5.983   4.096   0.535
 9568SOL     OW29602   4.178   1.143   0.301
 9568SOL    HW129603   4.254   1.085   0.270
 9568SOL    HW229604   4.213   1.233   0.328
 9569SOL     OW29605   0.313   0.918   1.898
 9569SOL    HW129606   0.344   0.947   1.808
 9569SOL    HW229607   0.294   0.820   1.897
 9570SOL     OW29608   0.618   3.161   0.602
 9570SOL    HW129609   0.576   3.178   0.691
 9570SOL    HW229610   0.621   3.063   0.585
 9571SOL     OW29611   2.829   2.752   5.857
 9571SOL    HW129612   2.732   2.749   5.830
 9571SOL    HW229613   2.847   2.683   5.927
 9572SOL     OW29614   2.142   4.954   2.516
 9572SOL    HW129615   2.133   4.943   2.615
 9572SOL    HW229616   2.193   4.877   2.479
 9573SOL     OW29617   6.930   1.537   5.647
 9573SOL    HW129618   6.842   1.490   5.635
 9573SOL    HW229619   6.956   1.536   5.743
 9574SOL     OW29620   3.572   2.819   1.716
 9574SOL    HW129621   3.574   2.719   1.720
 9574SOL    HW229622   3.617   2.856   1.798
 9575SOL     OW29623   6.541   0.918   1.855
 9575SOL    HW129624   6.451   0.927   1.812
 9575SOL    HW229625   6.583   1.008   1.862
 9576SOL     OW29626   1.680   1.948   6.985
 9576SOL    HW129627   1.680   1.921   6.888
 9576SOL    HW229628   1.587   1.944   7.021
 9577SOL     OW29629   0.365   5.741   6.109
 9577SOL    HW129630   0.377   5.780   6.018
 9577SOL    HW229631   0.453   5.707   6.143
 9578SOL     OW29632   1.461   2.854   2.313
 9578SOL    HW129633   1.463   2.839   2.412
 9578SOL    HW229634   1.554   2.848   2.277
 9579SOL     OW29635   6.878   6.360   2.988
 9579SOL    HW129636   6.788   6.340   2.950
 9579SOL    HW229637   6.945   6.361   2.914
 9580SOL     OW29638   5.195   3.770   0.939
 9580SOL    HW129639   5.226   3.763   1.034
 9580SOL    HW229640   5.139   3.853   0.929
 9581SOL     OW29641   0.600   0.119   6.302
 9581SOL    HW129642   0.674   0.186   6.299
 9581SOL    HW229643   0.518   0.159   6.263
 9582SOL     OW29644   3.605   5.724   4.895
 9582SOL    HW129645   3.610   5.658   4.819
 9582SOL    HW229646   3.545   5.800   4.869
 9583SOL     OW29647   3.026   4.400   1.249
 9583SOL    HW129648   2.949   4.463   1.236
 9583SOL    HW229649   3.017   4.353   1.337
 9584SOL     OW29650   1.020   5.038   6.012
 9584SOL    HW129651   1.072   4.957   5.984
 9584SOL    HW229652   0.928   5.011   6.040
 9585SOL     OW29653   5.390   6.324   2.312
 9585SOL    HW129654   5.351   6.399   2.259
 9585SOL    HW229655   5.366   6.335   2.408
 9586SOL     OW29656   4.395   5.405   2.348
 9586SOL    HW129657   4.485   5.380   2.312
 9586SOL    HW229658   4.331   5.330   2.333
 9587SOL     OW29659   1.147   6.972   1.891
 9587SOL    HW129660   1.185   6.913   1.820
 9587SOL    HW229661   1.189   6.951   1.979
 9588SOL     OW29662   6.033   5.982   0.296
 9588SOL    HW129663   5.948   5.938   0.324
 9588SOL    HW229664   6.017   6.078   0.274
 9589SOL     OW29665   1.936   4.171   0.206
 9589SOL    HW129666   1.880   4.247   0.239
 9589SOL    HW229667   2.004   4.147   0.276
 9590SOL     OW29668   6.042   2.460   1.783
 9590SOL    HW129669   6.056   2.430   1.688
 9590SOL    HW229670   5.968   2.408   1.824
 9591SOL     OW29671   3.776   5.971   6.435
 9591SOL    HW129672   3.693   6.026   6.434
 9591SOL    HW229673   3.753   5.876   6.456
 9592SOL     OW29674   3.450   5.247   1.294
 9592SOL    HW129675   3.450   5.265   1.392
 9592SOL    HW229676   3.476   5.331   1.245
 9593SOL     OW29677   1.084   1.838   5.710
 9593SOL    HW129678   1.101   1.806   5.616
 9593SOL    HW229679   1.118   1.770   5.775
 9594SOL     OW29680   2.371   6.147   4.646
 9594SOL    HW129681   2.456   6.095   4.655
 9594SOL    HW229682   2.386   6.241   4.677
 9595SOL     OW29683   0.620   2.521   3.944
 9595SOL    HW129684   0.603   2.424   3.962
 9595SOL    HW229685   0.672   2.560   4.020
 9596SOL     OW29686   0.808   5.182   0.397
 9596SOL    HW129687   0.774   5.088   0.400
 9596SOL    HW229688   0.814   5.213   0.302
 9597SOL     OW29689   0.184   4.113   1.541
 9597SOL    HW129690   0.220   4.021   1.555
 9597SOL    HW229691   0.102   4.126   1.598
 9598SOL     OW29692   2.092   4.131   3.570
 9598SOL    HW129693   2.178   4.182   3.578
 9598SOL    HW229694   2.088   4.088   3.480
 9599SOL     OW29695   3.070   0.500   3.908
 9599SOL    HW129696   3.029   0.410   3.893
 9599SOL    HW229697   3.147   0.512   3.847
 9600SOL     OW29698   2.927   0.386   0.120
 9600SOL    HW129699   2.916   0.446   0.041
 9600SOL    HW229700   2.886   0.429   0.200
 9601SOL     OW29701   5.238   4.423   0.398
 9601SOL    HW129702   5.277   4.515   0.410
 9601SOL    HW229703   5.188   4.398   0.481
 9602SOL     OW29704   4.897   4.111   5.571
 9602SOL    HW129705   4.828   4.180   5.597
 9602SOL    HW229706   4.903   4.042   5.643
 9603SOL     OW29707   4.921   6.823   6.563
 9603SOL    HW129708   4.973   6.823   6.648
 9603SOL    HW229709   4.858   6.746   6.562
 9604SOL     OW29710   4.992   6.929   1.225
 9604SOL    HW129711   4.903   6.975   1.214
 9604SOL    HW229712   4.978   6.831   1.229
 9605SOL     OW29713   1.136   5.142   3.292
 9605SOL    HW129714   1.066   5.099   3.236
 9605SOL    HW229715   1.224   5.138   3.245
 9606SOL     OW29716   1.167   6.637   6.651
 9606SOL    HW129717   1.092   6.586   6.609
 9606SOL    HW229718   1.255   6.596   6.624
 9607SOL     OW29719   2.800   1.171   6.906
 9607SOL    HW129720   2.715   1.133   6.869
 9607SOL    HW229721   2.877   1.140   6.850
 9608SOL     OW29722   0.191   4.494   1.973
 9608SOL    HW129723   0.200   4.594   1.967
 9608SOL    HW229724   0.276   4.452   1.943
 9609SOL     OW29725   3.439   3.089   0.514
 9609SOL    HW129726   3.370   3.161   0.516
 9609SOL    HW229727   3.397   3.005   0.478
 9610SOL     OW29728   1.689   4.629   3.606
 9610SOL    HW129729   1.627   4.593   3.536
 9610SOL    HW229730   1.752   4.556   3.635
 9611SOL     OW29731   1.414   6.298   0.982
 9611SOL    HW129732   1.327   6.250   0.967
 9611SOL    HW229733   1.489   6.232   0.976
 9612SOL     OW29734   0.409   3.107   1.832
 9612SOL    HW129735   0.454   3.127   1.745
 9612SOL    HW229736   0.472   3.057   1.892
 9613SOL     OW29737   4.978   6.394   3.735
 9613SOL    HW129738   4.971   6.295   3.732
 9613SOL    HW229739   4.972   6.426   3.829
 9614SOL     OW29740   3.745   2.061   1.792
 9614SOL    HW129741   3.668   2.062   1.729
 9614SOL    HW229742   3.726   2.120   1.870
 9615SOL     OW29743   1.958   1.244   1.289
 9615SOL    HW129744   1.914   1.317   1.342
 9615SOL    HW229745   1.939   1.257   1.192
 9616SOL     OW29746   3.471   3.930   1.025
 9616SOL    HW129747   3.413   4.008   1.045
 9616SOL    HW229748   3.446   3.891   0.936
 9617SOL     OW29749   1.934   2.955   3.255
 9617SOL    HW129750   2.020   2.949   3.305
 9617SOL    HW229751   1.879   3.031   3.291
 9618SOL     OW29752   2.720   0.022   0.731
 9618SOL    HW129753   2.625   0.054   0.723
 9618SOL    HW229754   2.722   6.949   0.717
 9619SOL     OW29755   1.873   0.309   6.190
 9619SOL    HW129756   1.793   0.293   6.132
 9619SOL    HW229757   1.854   0.387   6.250
 9620SOL     OW29758   4.445   6.650   5.534
 9620SOL    HW129759   4.351   6.627   5.561
 9620SOL    HW229760   4.457   6.749   5.538
 9621SOL     OW29761   1.991   2.989   1.917
 9621SOL    HW129762   1.984   2.892   1.941
 9621SOL    HW229763   1.917   3.013   1.853
 9622SOL     OW29764   6.690   1.646   0.357
 9622SOL    HW129765   6.704   1.744   0.372
 9622SOL    HW229766   6.775   1.605   0.325
 9623SOL     OW29767   2.724   3.485   5.309
 9623SOL    HW129768   2.733   3.387   5.289
 9623SOL    HW229769   2.815   3.527   5.308
 9624SOL     OW29770   6.106   4.089   2.891
 9624SOL    HW129771   6.174   4.019   2.867
 9624SOL    HW229772   6.118   4.168   2.831
 9625SOL     OW29773   5.277   5.267   6.798
 9625SOL    HW129774   5.305   5.172   6.785
 9625SOL    HW229775   5.358   5.322   6.820
 9626SOL     OW29776   4.482   5.160   0.688
 9626SOL    HW129777   4.473   5.080   0.630
 9626SOL    HW229778   4.566   5.209   0.665
 9627SOL     OW29779   0.601   5.706   6.264
 9627SOL    HW129780   0.644   5.779   6.213
 9627SOL    HW229781   0.668   5.636   6.287
 9628SOL     OW29782   5.114   4.883   0.901
 9628SOL    HW129783   5.172   4.803   0.885
 9628SOL    HW229784   5.172   4.962   0.924
 9629SOL     OW29785   1.704   0.398   1.382
 9629SOL    HW129786   1.793   0.355   1.393
 9629SOL    HW229787   1.632   0.331   1.396
 9630SOL     OW29788   6.321   6.933   4.309
 9630SOL    HW129789   6.275   6.946   4.396
 9630SOL    HW229790   6.255   6.905   4.240
 9631SOL     OW29791   6.824   6.593   6.648
 9631SOL    HW129792   6.850   6.554   6.736
 9631SOL    HW229793   6.875   6.548   6.575
 9632SOL     OW29794   1.702   0.143   2.975
 9632SOL    HW129795   1.718   0.061   3.029
 9632SOL    HW229796   1.605   0.149   2.950
 9633SOL     OW29797   4.964   4.977   6.598
 9633SOL    HW129798   5.035   4.950   6.663
 9633SOL    HW229799   4.967   4.916   6.518
 9634SOL     OW29800   1.526   6.289   3.886
 9634SOL    HW129801   1.495   6.235   3.964
 9634SOL    HW229802   1.609   6.339   3.910
 9635SOL     OW29803   1.856   6.151   5.013
 9635SOL    HW129804   1.885   6.110   4.926
 9635SOL    HW229805   1.934   6.151   5.076
 9636SOL     OW29806   4.058   1.510   5.609
 9636SOL    HW129807   4.061   1.532   5.707
 9636SOL    HW229808   4.057   1.595   5.556
 9637SOL     OW29809   2.674   2.660   6.223
 9637SOL    HW129810   2.645   2.751   6.254
 9637SOL    HW229811   2.602   2.620   6.167
 9638SOL     OW29812   0.227   3.741   6.245
 9638SOL    HW129813   0.322   3.753   6.217
 9638SOL    HW229814   0.210   3.645   6.266
 9639SOL     OW29815   3.951   1.866   2.149
 9639SOL    HW129816   4.036   1.870   2.201
 9639SOL    HW229817   3.948   1.781   2.097
 9640SOL     OW29818   2.320   2.905   4.112
 9640SOL    HW129819   2.223   2.901   4.138
 9640SOL    HW229820   2.376   2.880   4.191
 9641SOL     OW29821   4.232   6.967   0.505
 9641SOL    HW129822   4.321   7.012   0.494
 9641SOL    HW229823   4.232   6.880   0.456
 9642SOL     OW29824   3.026   0.076   4.755
 9642SOL    HW129825   2.958   0.036   4.694
 9642SOL    HW229826   3.114   0.030   4.740
 9643SOL     OW29827   5.298   4.416   3.931
 9643SOL    HW129828   5.293   4.468   3.846
 9643SOL    HW229829   5.383   4.363   3.934
 9644SOL     OW29830   1.096   4.122   6.251
 9644SOL    HW129831   1.146   4.037   6.267
 9644SOL    HW229832   1.001   4.111   6.278
 9645SOL     OW29833   2.620   5.151   4.836
 9645SOL    HW129834   2.594   5.093   4.913
 9645SOL    HW229835   2.545   5.154   4.770
 9646SOL     OW29836   3.411   4.860   2.556
 9646SOL    HW129837   3.453   4.779   2.597
 9646SOL    HW229838   3.360   4.911   2.625
 9647SOL     OW29839   6.193   4.488   1.348
 9647SOL    HW129840   6.250   4.545   1.288
 9647SOL    HW229841   6.098   4.519   1.341
 9648SOL     OW29842   4.443   1.382   1.006
 9648SOL    HW129843   4.524   1.328   0.983
 9648SOL    HW229844   4.463   1.439   1.086
 9649SOL     OW29845   2.860   0.116   0.022
 9649SOL    HW129846   2.865   0.212   0.048
 9649SOL    HW229847   2.873   0.059   0.103
 9650SOL     OW29848   6.820   5.205   2.173
 9650SOL    HW129849   6.864   5.249   2.251
 9650SOL    HW229850   6.794   5.111   2.198
 9651SOL     OW29851   0.007   2.115   6.022
 9651SOL    HW129852   6.937   2.132   6.041
 9651SOL    HW229853   0.040   2.040   6.079
 9652SOL     OW29854   1.366   4.682   1.254
 9652SOL    HW129855   1.291   4.744   1.277
 9652SOL    HW229856   1.346   4.637   1.167
 9653SOL     OW29857   4.077   4.766   5.162
 9653SOL    HW129858   4.006   4.834   5.182
 9653SOL    HW229859   4.107   4.776   5.068
 9654SOL     OW29860   2.869   2.329   1.474
 9654SOL    HW129861   2.806   2.308   1.399
 9654SOL    HW229862   2.940   2.391   1.441
 9655SOL     OW29863   0.405   1.390   6.358
 9655SOL    HW129864   0.443   1.444   6.433
 9655SOL    HW229865   0.355   1.312   6.396
 9656SOL     OW29866   2.280   0.722   2.431
 9656SOL    HW129867   2.376   0.700   2.446
 9656SOL    HW229868   2.223   0.646   2.462
 9657SOL     OW29869   5.616   0.885   4.070
 9657SOL    HW129870   5.593   0.939   3.989
 9657SOL    HW229871   5.596   0.789   4.053
 9658SOL     OW29872   0.299   2.035   2.441
 9658SOL    HW129873   0.210   2.080   2.448
 9658SOL    HW229874   0.324   1.997   2.530
 9659SOL     OW29875   6.691   4.173   0.231
 9659SOL    HW129876   6.771   4.223   0.197
 9659SOL    HW229877   6.670   4.203   0.324
 9660SOL     OW29878   0.417   6.316   0.863
 9660SOL    HW129879   0.464   6.367   0.791
 9660SOL    HW229880   0.351   6.376   0.909
 9661SOL     OW29881   4.603   5.892   1.183
 9661SOL    HW129882   4.566   5.969   1.131
 9661SOL    HW229883   4.645   5.827   1.119
 9662SOL     OW29884   6.338   2.841   4.477
 9662SOL    HW129885   6.264   2.908   4.486
 9662SOL    HW229886   6.405   2.855   4.549
 9663SOL     OW29887   1.514   5.601   3.963
 9663SOL    HW129888   1.490   5.513   4.005
 9663SOL    HW229889   1.435   5.663   3.968
 9664SOL     OW29890   4.747   6.892   2.849
 9664SOL    HW129891   4.814   6.963   2.873
 9664SOL    HW229892   4.791   6.803   2.852
 9665SOL     OW29893   5.906   4.886   5.839
 9665SOL    HW129894   5.896   4.979   5.874
 9665SOL    HW229895   5.847   4.873   5.759
 9666SOL     OW29896   5.953   3.856   1.197
 9666SOL    HW129897   5.974   3.888   1.105
 9666SOL    HW229898   5.893   3.776   1.191
 9667SOL     OW29899   4.126   3.444   4.304
 9667SOL    HW129900   4.058   3.401   4.363
 9667SOL    HW229901   4.148   3.383   4.228
 9668SOL     OW29902   6.643   1.498   5.641
 9668SOL    HW129903   6.663   1.574   5.579
 9668SOL    HW229904   6.546   1.476   5.638
 9669SOL     OW29905   0.566   1.169   1.179
 9669SOL    HW129906   0.467   1.180   1.180
 9669SOL    HW229907   0.609   1.257   1.158
 9670SOL     OW29908   4.197   4.699   5.813
 9670SOL    HW129909   4.115   4.744   5.848
 9670SOL    HW229910   4.258   4.677   5.888
 9671SOL     OW29911   6.890   4.900   6.267
 9671SOL    HW129912   6.931   4.970   6.209
 9671SOL    HW229913   6.931   4.811   6.248
 9672SOL     OW29914   0.776   6.751   5.030
 9672SOL    HW129915   0.707   6.751   4.958
 9672SOL    HW229916   0.857   6.801   4.998
 9673SOL     OW29917   3.844   4.808   6.941
 9673SOL    HW129918   3.926   4.861   6.965
 9673SOL    HW229919   3.853   4.776   6.846
 9674SOL     OW29920   2.742   6.369   2.278
 9674SOL    HW129921   2.838   6.350   2.258
 9674SOL    HW229922   2.717   6.457   2.238
 9675SOL     OW29923   6.036   0.822   2.352
 9675SOL    HW129924   6.007   0.904   2.304
 9675SOL    HW229925   6.125   0.792   2.317
 9676SOL     OW29926   1.612   3.783   5.754
 9676SOL    HW129927   1.558   3.867   5.757
 9676SOL    HW229928   1.588   3.725   5.832
 9677SOL     OW29929   2.268   4.203   5.968
 9677SOL    HW129930   2.293   4.189   5.872
 9677SOL    HW229931   2.169   4.210   5.976
 9678SOL     OW29932   3.771   3.700   2.921
 9678SOL    HW129933   3.744   3.618   2.871
 9678SOL    HW229934   3.837   3.752   2.867
 9679SOL     OW29935   0.804   2.565   2.075
 9679SOL    HW129936   0.867   2.625   2.027
 9679SOL    HW229937   0.843   2.473   2.083
 9680SOL     OW29938   5.856   6.814   3.555
 9680SOL    HW129939   5.905   6.737   3.594
 9680SOL    HW229940   5.884   6.828   3.460
 9681SOL     OW29941   2.095   0.940   1.452
 9681SOL    HW129942   2.138   0.893   1.529
 9681SOL    HW229943   2.164   0.994   1.404
 9682SOL     OW29944   4.709   5.212   3.239
 9682SOL    HW129945   4.807   5.227   3.225
 9682SOL    HW229946   4.693   5.117   3.268
 9683SOL     OW29947   3.935   5.331   0.628
 9683SOL    HW129948   4.032   5.309   0.624
 9683SOL    HW229949   3.906   5.367   0.539
 9684SOL     OW29950   0.343   3.783   4.923
 9684SOL    HW129951   0.403   3.733   4.985
 9684SOL    HW229952   0.334   3.877   4.954
 9685SOL     OW29953   2.362   2.819   1.206
 9685SOL    HW129954   2.376   2.754   1.132
 9685SOL    HW229955   2.439   2.814   1.269
 9686SOL     OW29956   6.705   1.430   0.956
 9686SOL    HW129957   6.795   1.472   0.967
 9686SOL    HW229958   6.661   1.465   0.874
 9687SOL     OW29959   1.829   0.560   2.618
 9687SOL    HW129960   1.742   0.520   2.647
 9687SOL    HW229961   1.820   0.660   2.617
 9688SOL     OW29962   6.989   2.269   3.050
 9688SOL    HW129963   6.959   2.178   3.079
 9688SOL    HW229964   7.017   2.322   3.131
 9689SOL     OW29965   1.833   6.831   0.507
 9689SOL    HW129966   1.901   6.850   0.436
 9689SOL    HW229967   1.742   6.829   0.466
 9690SOL     OW29968   5.771   4.563   6.702
 9690SOL    HW129969   5.846   4.619   6.735
 9690SOL    HW229970   5.806   4.478   6.663
 9691SOL     OW29971   2.151   5.081   1.874
 9691SOL    HW129972   2.234   5.094   1.929
 9691SOL    HW229973   2.144   4.986   1.845
 9692SOL     OW29974   2.468   5.325   2.861
 9692SOL    HW129975   2.558   5.328   2.904
 9692SOL    HW229976   2.415   5.406   2.889
 9693SOL     OW29977   0.258   5.743   2.053
 9693SOL    HW129978   0.336   5.785   2.100
 9693SOL    HW229979   0.173   5.774   2.096
 9694SOL     OW29980   2.133   2.107   6.410
 9694SOL    HW129981   2.222   2.148   6.430
 9694SOL    HW229982   2.137   2.059   6.323
 9695SOL     OW29983   6.109   4.218   0.777
 9695SOL    HW129984   6.078   4.146   0.715
 9695SOL    HW229985   6.087   4.307   0.737
 9696SOL     OW29986   4.016   2.523   1.284
 9696SOL    HW129987   3.996   2.558   1.376
 9696SOL    HW229988   4.042   2.598   1.224
 9697SOL     OW29989   0.667   4.970   0.132
 9697SOL    HW129990   0.634   5.013   0.048
 9697SOL    HW229991   0.762   4.943   0.121
 9698SOL     OW29992   5.940   0.481   5.234
 9698SOL    HW129993   5.880   0.428   5.292
 9698SOL    HW229994   6.002   0.536   5.291
 9699SOL     OW29995   0.420   3.823   5.694
 9699SOL    HW129996   0.467   3.757   5.635
 9699SOL    HW229997   0.355   3.876   5.638
 9700SOL     OW29998   3.579   4.711   5.311
 9700SOL    HW129999   3.503   4.775   5.300
 9700SOL    HW230000   3.545   4.617   5.306
 9701SOL     OW30001   4.009   5.721   5.250
 9701SOL    HW130002   3.911   5.705   5.232
 9701SOL    HW230003   4.048   5.772   5.174
 9702SOL     OW30004   5.261   0.948   0.173
 9702SOL    HW130005   5.334   0.898   0.220
 9702SOL    HW230006   5.282   0.950   0.075
 9703SOL     OW30007   2.996   6.098   4.645
 9703SOL    HW130008   3.028   6.007   4.672
 9703SOL    HW230009   3.046   6.129   4.564
 9704SOL     OW30010   3.267   0.086   3.081
 9704SOL    HW130011   3.329   0.041   3.146
 9704SOL    HW230012   3.312   0.094   2.992
 9705SOL     OW30013   4.668   4.707   0.222
 9705SOL    HW130014   4.588   4.721   0.279
 9705SOL    HW230015   4.658   4.761   0.138
 9706SOL     OW30016   6.677   2.191   0.834
 9706SOL    HW130017   6.736   2.149   0.765
 9706SOL    HW230018   6.733   2.221   0.912
 9707SOL     OW30019   0.761   4.077   1.835
 9707SOL    HW130020   0.793   3.983   1.846
 9707SOL    HW230021   0.840   4.137   1.819
 9708SOL     OW30022   2.191   2.811   3.613
 9708SOL    HW130023   2.232   2.824   3.703
 9708SOL    HW230024   2.154   2.719   3.606
 9709SOL     OW30025   0.788   5.937   3.700
 9709SOL    HW130026   0.837   5.953   3.615
 9709SOL    HW230027   0.811   5.845   3.734
 9710SOL     OW30028   0.354   0.845   2.405
 9710SOL    HW130029   0.262   0.808   2.397
 9710SOL    HW230030   0.376   0.898   2.324
 9711SOL     OW30031   1.374   3.416   6.125
 9711SOL    HW130032   1.381   3.353   6.048
 9711SOL    HW230033   1.397   3.368   6.210
 9712SOL     OW30034   5.446   2.820   5.068
 9712SOL    HW130035   5.412   2.746   5.011
 9712SOL    HW230036   5.392   2.903   5.051
 9713SOL     OW30037   0.364   4.635   2.937
 9713SOL    HW130038   0.458   4.665   2.955
 9713SOL    HW230039   0.338   4.564   3.003
 9714SOL     OW30040   1.738   1.881   1.637
 9714SOL    HW130041   1.668   1.891   1.708
 9714SOL    HW230042   1.717   1.942   1.561
 9715SOL     OW30043   6.758   5.571   4.620
 9715SOL    HW130044   6.808   5.609   4.698
 9715SOL    HW230045   6.758   5.638   4.546
 9716SOL     OW30046   3.683   1.871   6.785
 9716SOL    HW130047   3.641   1.811   6.717
 9716SOL    HW230048   3.635   1.958   6.787
 9717SOL     OW30049   5.321   6.003   4.507
 9717SOL    HW130050   5.273   5.974   4.590
 9717SOL    HW230051   5.420   5.988   4.520
 9718SOL     OW30052   4.392   2.757   1.488
 9718SOL    HW130053   4.456   2.788   1.558
 9718SOL    HW230054   4.324   2.828   1.470
 9719SOL     OW30055   0.732   2.309   0.401
 9719SOL    HW130056   0.738   2.317   0.301
 9719SOL    HW230057   0.639   2.329   0.430
 9720SOL     OW30058   0.515   6.316   1.652
 9720SOL    HW130059   0.572   6.387   1.694
 9720SOL    HW230060   0.423   6.322   1.691
 9721SOL     OW30061   0.936   3.013   2.136
 9721SOL    HW130062   0.851   2.977   2.175
 9721SOL    HW230063   0.976   3.080   2.199
 9722SOL     OW30064   0.746   0.340   3.543
 9722SOL    HW130065   0.648   0.327   3.558
 9722SOL    HW230066   0.798   0.284   3.607
 9723SOL     OW30067   0.793   6.572   2.675
 9723SOL    HW130068   0.864   6.624   2.724
 9723SOL    HW230069   0.718   6.552   2.737
 9724SOL     OW30070   3.066   2.892   1.800
 9724SOL    HW130071   3.057   2.796   1.777
 9724SOL    HW230072   3.113   2.901   1.888
 9725SOL     OW30073   4.136   3.313   6.195
 9725SOL    HW130074   4.060   3.266   6.239
 9725SOL    HW230075   4.144   3.406   6.230
 9726SOL     OW30076   5.348   0.440   4.949
 9726SOL    HW130077   5.294   0.451   5.032
 9726SOL    HW230078   5.290   0.401   4.877
 9727SOL     OW30079   1.476   3.985   5.430
 9727SOL    HW130080   1.403   4.036   5.475
 9727SOL    HW230081   1.564   4.028   5.450
 9728SOL     OW30082   1.799   6.438   6.690
 9728SOL    HW130083   1.737   6.425   6.767
 9728SOL    HW230084   1.827   6.534   6.685
 9729SOL     OW30085   1.466   4.706   3.288
 9729SOL    HW130086   1.455   4.612   3.255
 9729SOL    HW230087   1.455   4.708   3.388
 9730SOL     OW30088   0.121   3.238   2.696
 9730SOL    HW130089   0.047   3.222   2.630
 9730SOL    HW230090   0.090   3.302   2.766
 9731SOL     OW30091   4.118   5.068   0.822
 9731SOL    HW130092   4.048   5.060   0.893
 9731SOL    HW230093   4.181   4.990   0.828
 9732SOL     OW30094   6.619   6.376   2.860
 9732SOL    HW130095   6.580   6.465   2.835
 9732SOL    HW230096   6.560   6.332   2.928
 9733SOL     OW30097   6.001   5.038   4.649
 9733SOL    HW130098   5.934   5.111   4.659
 9733SOL    HW230099   6.018   4.995   4.738
 9734SOL     OW30100   5.309   1.551   4.064
 9734SOL    HW130101   5.256   1.618   4.013
 9734SOL    HW230102   5.257   1.521   4.144
 9735SOL     OW30103   2.129   4.953   2.801
 9735SOL    HW130104   2.043   4.988   2.837
 9735SOL    HW230105   2.194   5.028   2.790
 9736SOL     OW30106   5.077   0.902   6.596
 9736SOL    HW130107   5.144   0.849   6.542
 9736SOL    HW230108   5.120   0.933   6.681
 9737SOL     OW30109   4.553   2.576   4.767
 9737SOL    HW130110   4.623   2.557   4.698
 9737SOL    HW230111   4.501   2.493   4.786
 9738SOL     OW30112   2.020   0.358   2.604
 9738SOL    HW130113   1.979   0.442   2.569
 9738SOL    HW230114   1.950   0.304   2.650
 9739SOL     OW30115   0.428   5.225   1.310
 9739SOL    HW130116   0.466   5.213   1.218
 9739SOL    HW230117   0.469   5.159   1.372
 9740SOL     OW30118   5.880   3.468   3.240
 9740SOL    HW130119   5.820   3.468   3.319
 9740SOL    HW230120   5.949   3.396   3.250
 9741SOL     OW30121   4.545   1.285   2.859
 9741SOL    HW130122   4.508   1.193   2.848
 9741SOL    HW230123   4.485   1.337   2.921
 9742SOL     OW30124   5.060   0.131   3.180
 9742SOL    HW130125   4.984   0.169   3.232
 9742SOL    HW230126   5.126   0.203   3.160
 9743SOL     OW30127   1.862   2.686   5.673
 9743SOL    HW130128   1.930   2.733   5.730
 9743SOL    HW230129   1.771   2.720   5.695
 9744SOL     OW30130   1.189   0.686   2.301
 9744SOL    HW130131   1.206   0.609   2.363
 9744SOL    HW230132   1.262   0.754   2.312
 9745SOL     OW30133   0.459   2.603   5.264
 9745SOL    HW130134   0.389   2.571   5.328
 9745SOL    HW230135   0.423   2.601   5.171
 9746SOL     OW30136   5.347   1.361   5.216
 9746SOL    HW130137   5.317   1.270   5.189
 9746SOL    HW230138   5.427   1.354   5.274
 9747SOL     OW30139   1.666   1.405   0.941
 9747SOL    HW130140   1.714   1.423   1.027
 9747SOL    HW230141   1.582   1.354   0.959
 9748SOL     OW30142   0.941   6.596   5.153
 9748SOL    HW130143   0.912   6.525   5.219
 9748SOL    HW230144   0.860   6.638   5.112
 9749SOL     OW30145   1.229   2.897   5.845
 9749SOL    HW130146   1.254   2.950   5.926
 9749SOL    HW230147   1.301   2.832   5.824
 9750SOL     OW30148   5.679   4.866   3.740
 9750SOL    HW130149   5.661   4.843   3.835
 9750SOL    HW230150   5.605   4.922   3.704
 9751SOL     OW30151   1.982   2.362   0.975
 9751SOL    HW130152   2.022   2.300   0.908
 9751SOL    HW230153   2.055   2.415   1.018
 9752SOL     OW30154   4.879   0.567   6.247
 9752SOL    HW130155   4.957   0.570   6.309
 9752SOL    HW230156   4.853   0.472   6.229
 9753SOL     OW30157   6.615   6.204   4.779
 9753SOL    HW130158   6.711   6.230   4.793
 9753SOL    HW230159   6.592   6.127   4.838
 9754SOL     OW30160   1.269   1.858   6.876
 9754SOL    HW130161   1.261   1.758   6.867
 9754SOL    HW230162   1.292   1.897   6.788
 9755SOL     OW30163   4.096   3.692   5.076
 9755SOL    HW130164   4.108   3.731   4.984
 9755SOL    HW230165   4.005   3.652   5.083
 9756SOL     OW30166   5.882   2.970   6.922
 9756SOL    HW130167   5.945   2.953   6.845
 9756SOL    HW230168   5.849   2.882   6.957
 9757SOL     OW30169   5.190   3.184   3.727
 9757SOL    HW130170   5.188   3.094   3.769
 9757SOL    HW230171   5.283   3.221   3.732
 9758SOL     OW30172   1.973   0.039   5.896
 9758SOL    HW130173   1.962   0.066   5.992
 9758SOL    HW230174   1.992   0.121   5.841
 9759SOL     OW30175   2.057   6.678   0.932
 9759SOL    HW130176   1.983   6.695   0.998
 9759SOL    HW230177   2.070   6.760   0.876
 9760SOL     OW30178   5.406   4.439   5.157
 9760SOL    HW130179   5.483   4.422   5.095
 9760SOL    HW230180   5.364   4.527   5.134
 9761SOL     OW30181   5.946   5.313   1.245
 9761SOL    HW130182   5.861   5.357   1.272
 9761SOL    HW230183   5.995   5.281   1.326
 9762SOL     OW30184   2.174   2.248   4.537
 9762SOL    HW130185   2.208   2.273   4.627
 9762SOL    HW230186   2.100   2.182   4.546
 9763SOL     OW30187   4.608   1.398   1.567
 9763SOL    HW130188   4.640   1.385   1.473
 9763SOL    HW230189   4.595   1.309   1.610
 9764SOL     OW30190   1.846   2.295   3.542
 9764SOL    HW130191   1.807   2.380   3.506
 9764SOL    HW230192   1.853   2.301   3.641
 9765SOL     OW30193   6.515   2.270   5.445
 9765SOL    HW130194   6.541   2.197   5.382
 9765SOL    HW230195   6.444   2.237   5.507
 9766SOL     OW30196   2.745   0.842   2.893
 9766SOL    HW130197   2.674   0.821   2.826
 9766SOL    HW230198   2.830   0.798   2.866
 9767SOL     OW30199   5.425   1.742   4.789
 9767SOL    HW130200   5.486   1.670   4.820
 9767SOL    HW230201   5.341   1.741   4.844
 9768SOL     OW30202   4.717   2.138   2.565
 9768SOL    HW130203   4.771   2.214   2.600
 9768SOL    HW230204   4.749   2.115   2.473
 9769SOL     OW30205   0.925   2.684   1.249
 9769SOL    HW130206   1.014   2.653   1.282
 9769SOL    HW230207   0.891   2.757   1.308
 9770SOL     OW30208   5.900   5.399   5.750
 9770SOL    HW130209   5.846   5.324   5.712
 9770SOL    HW230210   5.840   5.475   5.773
 9771SOL     OW30211   4.447   4.524   1.052
 9771SOL    HW130212   4.448   4.600   1.116
 9771SOL    HW230213   4.357   4.517   1.009
 9772SOL     OW30214   6.936   6.928   1.739
 9772SOL    HW130215   6.870   6.877   1.794
 9772SOL    HW230216   6.989   6.863   1.684
 9773SOL     OW30217   5.449   5.800   3.680
 9773SOL    HW130218   5.527   5.852   3.714
 9773SOL    HW230219   5.477   5.706   3.661
 9774SOL     OW30220   5.974   4.788   3.845
 9774SOL    HW130221   6.066   4.773   3.881
 9774SOL    HW230222   5.949   4.884   3.855
 9775SOL     OW30223   2.070   2.460   5.091
 9775SOL    HW130224   2.089   2.373   5.044
 9775SOL    HW230225   1.975   2.486   5.075
 9776SOL     OW30226   0.066   5.498   4.272
 9776SOL    HW130227   0.022   5.493   4.182
 9776SOL    HW230228   0.052   5.589   4.311
 9777SOL     OW30229   6.309   4.608   6.073
 9777SOL    HW130230   6.278   4.521   6.035
 9777SOL    HW230231   6.284   4.682   6.011
 9778SOL     OW30232   4.664   6.969   3.330
 9778SOL    HW130233   4.577   6.962   3.280
 9778SOL    HW230234   4.655   6.924   3.419
 9779SOL     OW30235   2.544   1.576   4.724
 9779SOL    HW130236   2.624   1.617   4.679
 9779SOL    HW230237   2.467   1.577   4.661
 9780SOL     OW30238   1.970   2.841   0.344
 9780SOL    HW130239   1.976   2.895   0.428
 9780SOL    HW230240   1.875   2.816   0.327
 9781SOL     OW30241   1.645   4.431   4.549
 9781SOL    HW130242   1.653   4.413   4.451
 9781SOL    HW230243   1.603   4.352   4.594
 9782SOL     OW30244   6.595   0.371   1.156
 9782SOL    HW130245   6.642   0.296   1.111
 9782SOL    HW230246   6.659   0.447   1.170
 9783SOL     OW30247   5.942   0.791   1.182
 9783SOL    HW130248   6.000   0.742   1.248
 9783SOL    HW230249   5.847   0.785   1.212
 9784SOL     OW30250   4.383   1.306   3.391
 9784SOL    HW130251   4.471   1.350   3.373
 9784SOL    HW230252   4.313   1.345   3.332
 9785SOL     OW30253   0.077   2.750   2.805
 9785SOL    HW130254   0.127   2.664   2.810
 9785SOL    HW230255   7.020   2.744   2.861
 9786SOL     OW30256   2.348   5.160   5.854
 9786SOL    HW130257   2.376   5.162   5.950
 9786SOL    HW230258   2.363   5.069   5.816
 9787SOL     OW30259   5.160   3.596   1.851
 9787SOL    HW130260   5.168   3.499   1.875
 9787SOL    HW230261   5.066   3.626   1.862
 9788SOL     OW30262   0.189   6.765   4.134
 9788SOL    HW130263   0.259   6.808   4.191
 9788SOL    HW230264   0.230   6.691   4.081
 9789SOL     OW30265   2.345   5.600   5.712
 9789SOL    HW130266   2.310   5.632   5.624
 9789SOL    HW230267   2.359   5.678   5.773
 9790SOL     OW30268   5.571   1.853   4.263
 9790SOL    HW130269   5.583   1.795   4.182
 9790SOL    HW230270   5.638   1.927   4.260
 9791SOL     OW30271   1.356   1.444   1.180
 9791SOL    HW130272   1.357   1.426   1.279
 9791SOL    HW230273   1.377   1.360   1.131
 9792SOL     OW30274   4.768   4.750   1.370
 9792SOL    HW130275   4.826   4.773   1.292
 9792SOL    HW230276   4.763   4.650   1.379
 9793SOL     OW30277   5.339   6.219   3.008
 9793SOL    HW130278   5.436   6.224   3.029
 9793SOL    HW230279   5.308   6.308   2.974
 9794SOL     OW30280   5.185   3.164   6.171
 9794SOL    HW130281   5.127   3.119   6.239
 9794SOL    HW230282   5.176   3.263   6.181
 9795SOL     OW30283   1.092   3.039   4.394
 9795SOL    HW130284   1.016   3.075   4.340
 9795SOL    HW230285   1.170   3.101   4.388
 9796SOL     OW30286   2.944   5.243   1.152
 9796SOL    HW130287   3.035   5.202   1.150
 9796SOL    HW230288   2.876   5.170   1.161
 9797SOL     OW30289   4.182   3.479   6.711
 9797SOL    HW130290   4.118   3.555   6.727
 9797SOL    HW230291   4.274   3.516   6.695
 9798SOL     OW30292   2.499   0.255   0.742
 9798SOL    HW130293   2.473   0.208   0.658
 9798SOL    HW230294   2.417   0.289   0.789
 9799SOL     OW30295   3.206   2.980   2.464
 9799SOL    HW130296   3.198   3.022   2.373
 9799SOL    HW230297   3.298   2.996   2.499
 9800SOL     OW30298   4.291   5.845   6.528
 9800SOL    HW130299   4.246   5.847   6.617
 9800SOL    HW230300   4.389   5.831   6.540
 9801SOL     OW30301   5.003   5.635   0.639
 9801SOL    HW130302   5.001   5.676   0.548
 9801SOL    HW230303   5.046   5.545   0.634
 9802SOL     OW30304   0.605   3.584   1.242
 9802SOL    HW130305   0.589   3.656   1.309
 9802SOL    HW230306   0.700   3.587   1.212
 9803SOL     OW30307   6.010   6.824   6.793
 9803SOL    HW130308   6.085   6.791   6.850
 9803SOL    HW230309   5.978   6.913   6.828
 9804SOL     OW30310   0.164   5.191   3.652
 9804SOL    HW130311   0.159   5.227   3.560
 9804SOL    HW230312   0.183   5.092   3.648
 9805SOL     OW30313   1.271   5.355   0.046
 9805SOL    HW130314   1.248   5.451   0.030
 9805SOL    HW230315   1.371   5.344   0.045
 9806SOL     OW30316   0.738   2.790   1.866
 9806SOL    HW130317   0.832   2.758   1.854
 9806SOL    HW230318   0.675   2.713   1.857
 9807SOL     OW30319   4.332   1.802   0.352
 9807SOL    HW130320   4.252   1.803   0.291
 9807SOL    HW230321   4.347   1.893   0.388
 9808SOL     OW30322   6.062   1.488   5.238
 9808SOL    HW130323   6.046   1.444   5.150
 9808SOL    HW230324   6.153   1.465   5.271
 9809SOL     OW30325   0.802   1.490   4.900
 9809SOL    HW130326   0.724   1.527   4.849
 9809SOL    HW230327   0.887   1.512   4.852
 9810SOL     OW30328   2.745   1.444   2.867
 9810SOL    HW130329   2.779   1.528   2.909
 9810SOL    HW230330   2.673   1.467   2.801
 9811SOL     OW30331   6.888   6.294   3.264
 9811SOL    HW130332   6.816   6.344   3.313
 9811SOL    HW230333   6.874   6.305   3.166
 9812SOL     OW30334   4.664   2.479   5.683
 9812SOL    HW130335   4.644   2.392   5.729
 9812SOL    HW230336   4.679   2.463   5.586
 9813SOL     OW30337   6.315   5.152   0.160
 9813SOL    HW130338   6.294   5.106   0.247
 9813SOL    HW230339   6.338   5.083   0.091
 9814SOL     OW30340   6.767   6.850   5.584
 9814SOL    HW130341   6.752   6.868   5.487
 9814SOL    HW230342   6.745   6.755   5.604
 9815SOL     OW30343   6.454   3.344   1.353
 9815SOL    HW130344   6.550   3.370   1.366
 9815SOL    HW230345   6.399   3.388   1.424
 9816SOL     OW30346   6.218   0.583   0.111
 9816SOL    HW130347   6.212   0.682   0.101
 9816SOL    HW230348   6.285   0.560   0.182
 9817SOL     OW30349   3.033   6.276   1.746
 9817SOL    HW130350   2.983   6.281   1.833
 9817SOL    HW230351   3.030   6.183   1.711
 9818SOL     OW30352   1.880   1.071   3.459
 9818SOL    HW130353   1.948   1.082   3.531
 9818SOL    HW230354   1.844   0.978   3.461
 9819SOL     OW30355   5.843   3.627   4.931
 9819SOL    HW130356   5.833   3.532   4.962
 9819SOL    HW230357   5.766   3.652   4.873
 9820SOL     OW30358   2.720   2.400   6.021
 9820SOL    HW130359   2.795   2.465   6.035
 9820SOL    HW230360   2.638   2.449   5.992
 9821SOL     OW30361   4.369   2.059   1.981
 9821SOL    HW130362   4.291   2.121   1.982
 9821SOL    HW230363   4.442   2.095   2.039
 9822SOL     OW30364   4.094   5.696   4.799
 9822SOL    HW130365   4.021   5.638   4.763
 9822SOL    HW230366   4.178   5.679   4.747
 9823SOL     OW30367   1.175   0.733   2.750
 9823SOL    HW130368   1.102   0.703   2.688
 9823SOL    HW230369   1.235   0.796   2.702
 9824SOL     OW30370   1.473   6.090   5.848
 9824SOL    HW130371   1.404   6.146   5.803
 9824SOL    HW230372   1.467   5.996   5.814
 9825SOL     OW30373   5.100   5.919   6.050
 9825SOL    HW130374   5.033   5.901   6.122
 9825SOL    HW230375   5.110   6.018   6.039
 9826SOL     OW30376   2.878   6.593   5.457
 9826SOL    HW130377   2.900   6.529   5.530
 9826SOL    HW230378   2.782   6.584   5.432
 9827SOL     OW30379   1.815   5.552   2.489
 9827SOL    HW130380   1.810   5.569   2.391
 9827SOL    HW230381   1.888   5.485   2.507
 9828SOL     OW30382   4.204   1.739   5.130
 9828SOL    HW130383   4.192   1.769   5.224
 9828SOL    HW230384   4.294   1.769   5.097
 9829SOL     OW30385   4.436   5.709   6.116
 9829SOL    HW130386   4.431   5.808   6.121
 9829SOL    HW230387   4.433   5.680   6.020
 9830SOL     OW30388   5.693   2.108   2.453
 9830SOL    HW130389   5.651   2.030   2.408
 9830SOL    HW230390   5.788   2.086   2.476
 9831SOL     OW30391   0.741   4.146   2.227
 9831SOL    HW130392   0.693   4.162   2.140
 9831SOL    HW230393   0.819   4.087   2.210
 9832SOL     OW30394   4.986   4.632   4.832
 9832SOL    HW130395   5.056   4.703   4.840
 9832SOL    HW230396   4.931   4.649   4.750
 9833SOL     OW30397   3.174   3.867   4.219
 9833SOL    HW130398   3.164   3.926   4.299
 9833SOL    HW230399   3.168   3.923   4.136
 9834SOL     OW30400   2.636   5.664   5.449
 9834SOL    HW130401   2.731   5.665   5.419
 9834SOL    HW230402   2.619   5.741   5.510
 9835SOL     OW30403   3.798   4.218   4.898
 9835SOL    HW130404   3.856   4.140   4.924
 9835SOL    HW230405   3.845   4.303   4.919
 9836SOL     OW30406   0.467   3.633   6.024
 9836SOL    HW130407   0.532   3.615   6.097
 9836SOL    HW230408   0.467   3.731   6.003
 9837SOL     OW30409   5.523   1.887   1.658
 9837SOL    HW130410   5.499   1.807   1.604
 9837SOL    HW230411   5.578   1.949   1.603
 9838SOL     OW30412   0.918   5.973   1.403
 9838SOL    HW130413   0.860   5.899   1.368
 9838SOL    HW230414   0.864   6.031   1.464
 9839SOL     OW30415   4.332   0.913   2.211
 9839SOL    HW130416   4.313   0.854   2.290
 9839SOL    HW230417   4.403   0.979   2.236
 9840SOL     OW30418   6.391   1.959   6.741
 9840SOL    HW130419   6.301   1.946   6.700
 9840SOL    HW230420   6.409   1.887   6.808
 9841SOL     OW30421   0.252   6.120   3.384
 9841SOL    HW130422   0.347   6.149   3.396
 9841SOL    HW230423   0.199   6.195   3.342
 9842SOL     OW30424   3.012   2.093   0.179
 9842SOL    HW130425   3.065   2.009   0.193
 9842SOL    HW230426   2.963   2.087   0.092
 9843SOL     OW30427   6.815   6.362   0.899
 9843SOL    HW130428   6.907   6.328   0.917
 9843SOL    HW230429   6.809   6.459   0.924
 9844SOL     OW30430   4.864   0.039   4.456
 9844SOL    HW130431   4.871   0.136   4.480
 9844SOL    HW230432   4.943   7.016   4.492
 9845SOL     OW30433   1.630   2.646   1.706
 9845SOL    HW130434   1.634   2.625   1.609
 9845SOL    HW230435   1.594   2.738   1.719
 9846SOL     OW30436   5.058   1.026   1.540
 9846SOL    HW130437   5.143   1.040   1.591
 9846SOL    HW230438   5.076   1.031   1.442
 9847SOL     OW30439   3.942   3.437   0.526
 9847SOL    HW130440   3.989   3.363   0.573
 9847SOL    HW230441   3.900   3.498   0.593
 9848SOL     OW30442   3.726   3.589   5.307
 9848SOL    HW130443   3.661   3.611   5.234
 9848SOL    HW230444   3.769   3.501   5.288
 9849SOL     OW30445   0.849   1.576   5.915
 9849SOL    HW130446   0.903   1.518   5.976
 9849SOL    HW230447   0.873   1.558   5.820
 9850SOL     OW30448   0.588   0.487   4.174
 9850SOL    HW130449   0.596   0.392   4.204
 9850SOL    HW230450   0.658   0.506   4.105
 9851SOL     OW30451   3.750   4.920   4.244
 9851SOL    HW130452   3.685   4.846   4.261
 9851SOL    HW230453   3.815   4.892   4.173
 9852SOL     OW30454   2.072   1.524   6.382
 9852SOL    HW130455   2.067   1.558   6.476
 9852SOL    HW230456   1.979   1.511   6.347
 9853SOL     OW30457   0.114   4.334   4.010
 9853SOL    HW130458   0.154   4.316   4.100
 9853SOL    HW230459   0.047   4.407   4.017
 9854SOL     OW30460   0.855   5.199   6.252
 9854SOL    HW130461   0.835   5.195   6.350
 9854SOL    HW230462   0.814   5.120   6.207
 9855SOL     OW30463   1.465   3.536   1.158
 9855SOL    HW130464   1.535   3.511   1.225
 9855SOL    HW230465   1.488   3.625   1.118
 9856SOL     OW30466   5.667   4.178   3.074
 9856SOL    HW130467   5.755   4.133   3.061
 9856SOL    HW230468   5.613   4.170   2.990
 9857SOL     OW30469   4.679   2.185   3.946
 9857SOL    HW130470   4.589   2.143   3.949
 9857SOL    HW230471   4.701   2.225   4.035
 9858SOL     OW30472   6.721   6.418   2.597
 9858SOL    HW130473   6.726   6.332   2.546
 9858SOL    HW230474   6.726   6.398   2.695
 9859SOL     OW30475   0.268   5.906   4.410
 9859SOL    HW130476   0.363   5.936   4.413
 9859SOL    HW230477   0.208   5.984   4.425
 9860SOL     OW30478   1.695   2.588   5.304
 9860SOL    HW130479   1.691   2.496   5.345
 9860SOL    HW230480   1.614   2.639   5.331
 9861SOL     OW30481   3.459   1.494   4.174
 9861SOL    HW130482   3.494   1.588   4.177
 9861SOL    HW230483   3.470   1.451   4.263
 9862SOL     OW30484   1.577   5.305   1.046
 9862SOL    HW130485   1.559   5.317   0.949
 9862SOL    HW230486   1.537   5.382   1.097
 9863SOL     OW30487   3.646   6.251   0.834
 9863SOL    HW130488   3.579   6.206   0.774
 9863SOL    HW230489   3.738   6.228   0.803
 9864SOL     OW30490   3.145   6.130   5.087
 9864SOL    HW130491   3.147   6.206   5.152
 9864SOL    HW230492   3.054   6.090   5.085
 9865SOL     OW30493   0.749   6.177   5.905
 9865SOL    HW130494   0.652   6.165   5.925
 9865SOL    HW230495   0.770   6.139   5.815
 9866SOL     OW30496   6.454   4.625   4.534
 9866SOL    HW130497   6.532   4.688   4.533
 9866SOL    HW230498   6.425   4.611   4.629
 9867SOL     OW30499   5.052   1.925   1.658
 9867SOL    HW130500   5.003   1.850   1.704
 9867SOL    HW230501   5.059   2.003   1.721
 9868SOL     OW30502   1.411   4.450   3.237
 9868SOL    HW130503   1.454   4.360   3.240
 9868SOL    HW230504   1.313   4.441   3.252
 9869SOL     OW30505   0.181   2.950   1.181
 9869SOL    HW130506   0.222   3.033   1.218
 9869SOL    HW230507   0.082   2.963   1.171
 9870SOL     OW30508   3.049   1.218   2.043
 9870SOL    HW130509   3.072   1.290   1.978
 9870SOL    HW230510   3.007   1.257   2.124
 9871SOL     OW30511   6.966   3.702   4.883
 9871SOL    HW130512   6.970   3.711   4.783
 9871SOL    HW230513   0.015   3.644   4.914
 9872SOL     OW30514   1.761   4.960   5.346
 9872SOL    HW130515   1.692   4.920   5.286
 9872SOL    HW230516   1.847   4.909   5.336
 9873SOL     OW30517   2.320   2.000   5.456
 9873SOL    HW130518   2.306   1.917   5.510
 9873SOL    HW230519   2.363   2.070   5.514
 9874SOL     OW30520   0.026   2.677   4.785
 9874SOL    HW130521   0.072   2.590   4.773
 9874SOL    HW230522   6.986   2.691   4.710
 9875SOL     OW30523   6.843   5.928   0.501
 9875SOL    HW130524   6.792   6.014   0.509
 9875SOL    HW230525   6.833   5.893   0.408
 9876SOL     OW30526   2.288   6.614   3.405
 9876SOL    HW130527   2.311   6.581   3.496
 9876SOL    HW230528   2.287   6.714   3.404
 9877SOL     OW30529   0.838   5.094   4.792
 9877SOL    HW130530   0.899   5.017   4.812
 9877SOL    HW230531   0.842   5.114   4.694
 9878SOL     OW30532   2.039   3.126   0.128
 9878SOL    HW130533   2.131   3.091   0.140
 9878SOL    HW230534   1.980   3.054   0.091
 9879SOL     OW30535   0.285   4.836   6.210
 9879SOL    HW130536   0.348   4.764   6.238
 9879SOL    HW230537   0.192   4.799   6.204
 9880SOL     OW30538   3.159   1.850   0.244
 9880SOL    HW130539   3.182   1.788   0.319
 9880SOL    HW230540   3.241   1.872   0.192
 9881SOL     OW30541   5.511   0.188   4.739
 9881SOL    HW130542   5.609   0.170   4.729
 9881SOL    HW230543   5.487   0.188   4.836
 9882SOL     OW30544   4.150   3.677   4.139
 9882SOL    HW130545   4.188   3.625   4.063
 9882SOL    HW230546   4.159   3.625   4.223
 9883SOL     OW30547   2.023   0.056   1.286
 9883SOL    HW130548   2.060   0.148   1.274
 9883SOL    HW230549   2.093   7.014   1.264
 9884SOL     OW30550   1.735   4.001   6.455
 9884SOL    HW130551   1.744   3.947   6.539
 9884SOL    HW230552   1.823   4.002   6.407
 9885SOL     OW30553   6.335   3.403   4.345
 9885SOL    HW130554   6.355   3.494   4.381
 9885SOL    HW230555   6.420   3.361   4.313
 9886SOL     OW30556   4.959   6.128   1.515
 9886SOL    HW130557   5.048   6.127   1.469
 9886SOL    HW230558   4.887   6.106   1.449
 9887SOL     OW30559   3.992   0.045   0.482
 9887SOL    HW130560   3.936   0.003   0.411
 9887SOL    HW230561   4.087   0.015   0.472
 9888SOL     OW30562   6.187   5.393   2.323
 9888SOL    HW130563   6.147   5.464   2.266
 9888SOL    HW230564   6.123   5.370   2.397
 9889SOL     OW30565   0.530   4.948   3.585
 9889SOL    HW130566   0.437   4.920   3.610
 9889SOL    HW230567   0.596   4.897   3.640
 9890SOL     OW30568   6.708   4.002   1.853
 9890SOL    HW130569   6.744   4.083   1.898
 9890SOL    HW230570   6.746   3.920   1.896
 9891SOL     OW30571   5.327   4.255   0.743
 9891SOL    HW130572   5.270   4.265   0.662
 9891SOL    HW230573   5.388   4.176   0.732
 9892SOL     OW30574   1.888   5.557   4.210
 9892SOL    HW130575   1.977   5.600   4.217
 9892SOL    HW230576   1.842   5.589   4.127
 9893SOL     OW30577   6.289   5.040   3.284
 9893SOL    HW130578   6.243   4.969   3.230
 9893SOL    HW230579   6.386   5.041   3.262
 9894SOL     OW30580   3.659   2.647   5.990
 9894SOL    HW130581   3.741   2.673   5.938
 9894SOL    HW230582   3.578   2.675   5.939
 9895SOL     OW30583   5.072   2.371   6.596
 9895SOL    HW130584   5.003   2.301   6.576
 9895SOL    HW230585   5.041   2.459   6.561
 9896SOL     OW30586   3.847   3.832   0.369
 9896SOL    HW130587   3.938   3.873   0.372
 9896SOL    HW230588   3.804   3.853   0.281
 9897SOL     OW30589   5.936   2.171   2.759
 9897SOL    HW130590   5.993   2.202   2.835
 9897SOL    HW230591   5.887   2.088   2.785
 9898SOL     OW30592   1.520   5.253   5.947
 9898SOL    HW130593   1.426   5.235   5.975
 9898SOL    HW230594   1.528   5.239   5.848
 9899SOL     OW30595   5.183   4.994   2.639
 9899SOL    HW130596   5.180   5.043   2.552
 9899SOL    HW230597   5.183   4.895   2.621
 9900SOL     OW30598   1.491   2.384   4.126
 9900SOL    HW130599   1.397   2.387   4.161
 9900SOL    HW230600   1.510   2.294   4.087
 9901SOL     OW30601   3.117   2.549   5.864
 9901SOL    HW130602   3.174   2.473   5.895
 9901SOL    HW230603   3.047   2.569   5.932
 9902SOL     OW30604   3.761   3.329   0.361
 9902SOL    HW130605   3.675   3.378   0.373
 9902SOL    HW230606   3.834   3.377   0.409
 9903SOL     OW30607   4.194   1.575   1.883
 9903SOL    HW130608   4.102   1.564   1.847
 9903SOL    HW230609   4.260   1.570   1.808
 9904SOL     OW30610   6.578   1.925   0.886
 9904SOL    HW130611   6.478   1.933   0.890
 9904SOL    HW230612   6.618   2.016   0.884
 9905SOL     OW30613   1.418   6.843   5.813
 9905SOL    HW130614   1.413   6.745   5.791
 9905SOL    HW230615   1.402   6.855   5.911
 9906SOL     OW30616   2.764   3.834   6.393
 9906SOL    HW130617   2.711   3.799   6.471
 9906SOL    HW230618   2.712   3.820   6.309
 9907SOL     OW30619   2.705   5.873   2.969
 9907SOL    HW130620   2.750   5.941   3.028
 9907SOL    HW230621   2.757   5.787   2.973
 9908SOL     OW30622   0.870   3.632   5.942
 9908SOL    HW130623   0.889   3.676   6.029
 9908SOL    HW230624   0.846   3.536   5.958
 9909SOL     OW30625   2.975   1.093   2.986
 9909SOL    HW130626   2.881   1.060   2.983
 9909SOL    HW230627   3.023   1.049   3.062
 9910SOL     OW30628   6.346   4.356   0.502
 9910SOL    HW130629   6.328   4.259   0.485
 9910SOL    HW230630   6.348   4.405   0.414
 9911SOL     OW30631   3.520   4.939   3.359
 9911SOL    HW130632   3.432   4.895   3.345
 9911SOL    HW230633   3.545   4.935   3.455
 9912SOL     OW30634   5.070   0.125   1.600
 9912SOL    HW130635   5.166   0.147   1.612
 9912SOL    HW230636   5.027   0.111   1.690
 9913SOL     OW30637   5.415   2.659   2.778
 9913SOL    HW130638   5.380   2.565   2.776
 9913SOL    HW230639   5.509   2.660   2.746
 9914SOL     OW30640   0.872   0.472   4.784
 9914SOL    HW130641   0.797   0.448   4.846
 9914SOL    HW230642   0.938   0.398   4.780
 9915SOL     OW30643   4.890   3.228   3.825
 9915SOL    HW130644   4.920   3.316   3.862
 9915SOL    HW230645   4.893   3.232   3.725
 9916SOL     OW30646   2.251   2.812   2.418
 9916SOL    HW130647   2.255   2.804   2.518
 9916SOL    HW230648   2.258   2.721   2.377
 9917SOL     OW30649   3.223   3.932   5.668
 9917SOL    HW130650   3.260   3.863   5.606
 9917SOL    HW230651   3.232   4.022   5.627
 9918SOL     OW30652   2.436   2.223   5.606
 9918SOL    HW130653   2.444   2.294   5.537
 9918SOL    HW230654   2.527   2.189   5.629
 9919SOL     OW30655   0.603   5.556   2.726
 9919SOL    HW130656   0.583   5.654   2.732
 9919SOL    HW230657   0.584   5.512   2.814
 9920SOL     OW30658   3.519   6.463   1.420
 9920SOL    HW130659   3.492   6.484   1.514
 9920SOL    HW230660   3.616   6.484   1.408
 9921SOL     OW30661   5.840   0.495   2.783
 9921SOL    HW130662   5.922   0.522   2.732
 9921SOL    HW230663   5.802   0.575   2.830
 9922SOL     OW30664   4.242   4.786   0.678
 9922SOL    HW130665   4.327   4.783   0.731
 9922SOL    HW230666   4.183   4.710   0.706
 9923SOL     OW30667   6.908   2.577   5.924
 9923SOL    HW130668   6.853   2.653   5.891
 9923SOL    HW230669   6.993   2.612   5.963
 9924SOL     OW30670   6.663   0.792   2.798
 9924SOL    HW130671   6.582   0.774   2.741
 9924SOL    HW230672   6.633   0.821   2.889
 9925SOL     OW30673   2.754   2.989   5.544
 9925SOL    HW130674   2.832   2.937   5.580
 9925SOL    HW230675   2.688   2.926   5.503
 9926SOL     OW30676   0.975   1.128   0.219
 9926SOL    HW130677   1.049   1.066   0.192
 9926SOL    HW230678   1.013   1.208   0.265
 9927SOL     OW30679   0.237   2.071   2.077
 9927SOL    HW130680   0.282   2.129   2.144
 9927SOL    HW230681   0.278   1.980   2.078
 9928SOL     OW30682   0.193   3.831   2.102
 9928SOL    HW130683   0.134   3.749   2.103
 9928SOL    HW230684   0.136   3.912   2.088
 9929SOL     OW30685   2.736   4.563   0.259
 9929SOL    HW130686   2.637   4.553   0.247
 9929SOL    HW230687   2.784   4.497   0.200
 9930SOL     OW30688   0.256   0.049   5.972
 9930SOL    HW130689   0.334   0.112   5.971
 9930SOL    HW230690   0.264   7.011   5.896
 9931SOL     OW30691   1.540   5.813   5.775
 9931SOL    HW130692   1.623   5.825   5.721
 9931SOL    HW230693   1.557   5.747   5.848
 9932SOL     OW30694   1.348   1.660   0.227
 9932SOL    HW130695   1.337   1.696   0.319
 9932SOL    HW230696   1.397   1.727   0.171
 9933SOL     OW30697   2.247   1.535   3.212
 9933SOL    HW130698   2.162   1.498   3.175
 9933SOL    HW230699   2.260   1.629   3.180
 9934SOL     OW30700   5.368   1.477   5.667
 9934SOL    HW130701   5.392   1.381   5.678
 9934SOL    HW230702   5.345   1.516   5.757
 9935SOL     OW30703   3.040   2.115   0.697
 9935SOL    HW130704   3.066   2.059   0.776
 9935SOL    HW230705   2.944   2.143   0.706
 9936SOL     OW30706   5.844   5.689   5.399
 9936SOL    HW130707   5.773   5.744   5.444
 9936SOL    HW230708   5.831   5.693   5.300
 9937SOL     OW30709   0.676   6.984   3.098
 9937SOL    HW130710   0.620   6.960   3.178
 9937SOL    HW230711   0.716   6.900   3.060
 9938SOL     OW30712   6.931   0.738   4.194
 9938SOL    HW130713   6.917   0.794   4.276
 9938SOL    HW230714   6.920   0.641   4.218
 9939SOL     OW30715   2.424   4.631   1.366
 9939SOL    HW130716   2.473   4.555   1.323
 9939SOL    HW230717   2.373   4.597   1.445
 9940SOL     OW30718   0.899   0.095   3.000
 9940SOL    HW130719   0.943   0.107   3.089
 9940SOL    HW230720   0.812   0.047   3.011
 9941SOL     OW30721   4.637   4.898   6.148
 9941SOL    HW130722   4.621   4.821   6.087
 9941SOL    HW230723   4.734   4.923   6.145
 9942SOL     OW30724   4.512   4.833   3.643
 9942SOL    HW130725   4.568   4.850   3.562
 9942SOL    HW230726   4.473   4.919   3.675
 9943SOL     OW30727   2.775   4.321   0.107
 9943SOL    HW130728   2.770   4.367   0.018
 9943SOL    HW230729   2.686   4.284   0.131
 9944SOL     OW30730   1.619   4.621   0.271
 9944SOL    HW130731   1.647   4.658   0.183
 9944SOL    HW230732   1.520   4.608   0.272
 9945SOL     OW30733   5.956   4.208   6.904
 9945SOL    HW130734   5.961   4.146   6.982
 9945SOL    HW230735   6.014   4.174   6.830
 9946SOL     OW30736   5.345   1.407   2.548
 9946SOL    HW130737   5.366   1.405   2.450
 9946SOL    HW230738   5.420   1.367   2.600
 9947SOL     OW30739   1.988   1.456   3.931
 9947SOL    HW130740   2.004   1.435   3.835
 9947SOL    HW230741   1.898   1.423   3.958
 9948SOL     OW30742   6.072   0.464   4.382
 9948SOL    HW130743   6.061   0.547   4.438
 9948SOL    HW230744   6.110   0.391   4.439
 9949SOL     OW30745   6.471   4.330   4.499
 9949SOL    HW130746   6.488   4.423   4.468
 9949SOL    HW230747   6.373   4.317   4.513
 9950SOL     OW30748   6.432   5.049   5.830
 9950SOL    HW130749   6.400   5.097   5.912
 9950SOL    HW230750   6.441   5.115   5.755
 9951SOL     OW30751   0.631   2.376   2.469
 9951SOL    HW130752   0.703   2.314   2.436
 9951SOL    HW230753   0.601   2.434   2.393
 9952SOL     OW30754   0.300   4.021   1.869
 9952SOL    HW130755   0.236   4.007   1.794
 9952SOL    HW230756   0.251   4.012   1.956
 9953SOL     OW30757   5.898   2.357   3.202
 9953SOL    HW130758   5.934   2.296   3.131
 9953SOL    HW230759   5.851   2.303   3.272
 9954SOL     OW30760   2.970   1.937   5.909
 9954SOL    HW130761   2.921   1.850   5.900
 9954SOL    HW230762   2.905   2.012   5.906
 9955SOL     OW30763   5.295   3.296   0.781
 9955SOL    HW130764   5.207   3.328   0.814
 9955SOL    HW230765   5.293   3.197   0.768
 9956SOL     OW30766   2.132   3.815   3.336
 9956SOL    HW130767   2.126   3.820   3.435
 9956SOL    HW230768   2.167   3.902   3.300
 9957SOL     OW30769   5.666   6.626   1.303
 9957SOL    HW130770   5.607   6.546   1.315
 9957SOL    HW230771   5.625   6.688   1.236
 9958SOL     OW30772   4.693   4.740   6.773
 9958SOL    HW130773   4.781   4.701   6.802
 9958SOL    HW230774   4.709   4.826   6.726
 9959SOL     OW30775   4.338   4.227   1.066
 9959SOL    HW130776   4.251   4.222   1.114
 9959SOL    HW230777   4.377   4.318   1.077
 9960SOL     OW30778   6.572   6.963   6.457
 9960SOL    HW130779   6.638   0.001   6.497
 9960SOL    HW230780   6.548   6.993   6.365
 9961SOL     OW30781   2.551   4.865   2.253
 9961SOL    HW130782   2.491   4.839   2.328
 9961SOL    HW230783   2.609   4.787   2.229
 9962SOL     OW30784   3.131   6.176   2.377
 9962SOL    HW130785   3.065   6.127   2.433
 9962SOL    HW230786   3.157   6.120   2.298
 9963SOL     OW30787   1.808   1.549   6.306
 9963SOL    HW130788   1.814   1.648   6.295
 9963SOL    HW230789   1.728   1.515   6.256
 9964SOL     OW30790   4.672   4.040   5.370
 9964SOL    HW130791   4.649   4.115   5.432
 9964SOL    HW230792   4.758   4.061   5.323
 9965SOL     OW30793   2.604   5.441   4.758
 9965SOL    HW130794   2.648   5.378   4.821
 9965SOL    HW230795   2.603   5.533   4.798
 9966SOL     OW30796   3.622   5.018   2.465
 9966SOL    HW130797   3.550   4.949   2.471
 9966SOL    HW230798   3.656   5.039   2.557
 9967SOL     OW30799   6.776   6.856   3.289
 9967SOL    HW130800   6.684   6.888   3.311
 9967SOL    HW230801   6.826   6.928   3.242
 9968SOL     OW30802   3.916   6.496   0.743
 9968SOL    HW130803   3.854   6.551   0.798
 9968SOL    HW230804   3.988   6.554   0.705
 9969SOL     OW30805   1.423   5.205   3.761
 9969SOL    HW130806   1.416   5.156   3.848
 9969SOL    HW230807   1.498   5.271   3.766
 9970SOL     OW30808   6.438   4.347   1.334
 9970SOL    HW130809   6.356   4.406   1.330
 9970SOL    HW230810   6.428   4.281   1.408
 9971SOL     OW30811   1.342   3.719   2.227
 9971SOL    HW130812   1.380   3.651   2.289
 9971SOL    HW230813   1.281   3.780   2.278
 9972SOL     OW30814   3.419   3.703   0.329
 9972SOL    HW130815   3.338   3.724   0.274
 9972SOL    HW230816   3.491   3.769   0.310
 9973SOL     OW30817   3.725   1.829   3.238
 9973SOL    HW130818   3.789   1.787   3.303
 9973SOL    HW230819   3.711   1.767   3.161
 9974SOL     OW30820   0.057   2.216   3.544
 9974SOL    HW130821   7.011   2.161   3.587
 9974SOL    HW230822   0.078   2.295   3.602
 9975SOL     OW30823   1.153   5.010   6.900
 9975SOL    HW130824   1.224   4.945   6.873
 9975SOL    HW230825   1.089   4.966   6.962
 9976SOL     OW30826   2.599   4.439   6.302
 9976SOL    HW130827   2.572   4.530   6.334
 9976SOL    HW230828   2.699   4.432   6.304
 9977SOL     OW30829   5.389   5.827   5.258
 9977SOL    HW130830   5.392   5.869   5.349
 9977SOL    HW230831   5.449   5.878   5.196
 9978SOL     OW30832   0.400   2.409   6.084
 9978SOL    HW130833   0.468   2.347   6.046
 9978SOL    HW230834   0.325   2.356   6.125
 9979SOL     OW30835   4.941   3.276   5.289
 9979SOL    HW130836   4.865   3.213   5.305
 9979SOL    HW230837   4.953   3.291   5.191
 9980SOL     OW30838   0.738   0.645   6.696
 9980SOL    HW130839   0.724   0.546   6.695
 9980SOL    HW230840   0.741   0.677   6.791
 9981SOL     OW30841   0.285   2.323   1.241
 9981SOL    HW130842   0.325   2.413   1.260
 9981SOL    HW230843   0.214   2.304   1.309
 9982SOL     OW30844   2.258   1.904   4.720
 9982SOL    HW130845   2.165   1.894   4.754
 9982SOL    HW230846   2.304   1.979   4.768
 9983SOL     OW30847   0.161   3.150   2.159
 9983SOL    HW130848   0.077   3.139   2.212
 9983SOL    HW230849   0.196   3.243   2.172
 9984SOL     OW30850   0.011   6.051   1.655
 9984SOL    HW130851   0.009   6.126   1.588
 9984SOL    HW230852   6.958   5.991   1.639
 9985SOL     OW30853   4.237   5.444   0.734
 9985SOL    HW130854   4.177   5.516   0.700
 9985SOL    HW230855   4.327   5.451   0.689
 9986SOL     OW30856   4.875   4.391   0.031
 9986SOL    HW130857   4.944   4.385   0.103
 9986SOL    HW230858   4.826   4.304   0.024
 9987SOL     OW30859   5.457   2.684   1.636
 9987SOL    HW130860   5.524   2.755   1.655
 9987SOL    HW230861   5.438   2.681   1.537
 9988SOL     OW30862   5.585   6.198   4.458
 9988SOL    HW130863   5.656   6.249   4.506
 9988SOL    HW230864   5.574   6.108   4.499
 9989SOL     OW30865   6.729   5.003   2.337
 9989SOL    HW130866   6.822   4.969   2.349
 9989SOL    HW230867   6.674   4.978   2.418
 9990SOL     OW30868   0.501   7.011   3.305
 9990SOL    HW130869   0.434   6.964   3.247
 9990SOL    HW230870   0.513   6.960   3.390
 9991SOL     OW30871   1.731   4.297   3.926
 9991SOL    HW130872   1.787   4.217   3.901
 9991SOL    HW230873   1.741   4.367   3.856
 9992SOL     OW30874   3.516   4.698   1.148
 9992SOL    HW130875   3.455   4.690   1.069
 9992SOL    HW230876   3.508   4.788   1.188
 9993SOL     OW30877   3.832   6.857   3.779
 9993SOL    HW130878   3.770   6.935   3.789
 9993SOL    HW230879   3.855   6.822   3.870
 9994SOL     OW30880   6.881   4.170   4.409
 9994SOL    HW130881   6.783   4.171   4.387
 9994SOL    HW230882   6.929   4.110   4.345
 9995SOL     OW30883   2.613   0.595   4.878
 9995SOL    HW130884   2.625   0.639   4.789
 9995SOL    HW230885   2.570   0.505   4.865
 9996SOL     OW30886   2.397   4.484   1.075
 9996SOL    HW130887   2.318   4.521   1.124
 9996SOL    HW230888   2.381   4.389   1.051
 9997SOL     OW30889   6.269   1.848   4.376
 9997SOL    HW130890   6.359   1.817   4.347
 9997SOL    HW230891   6.258   1.832   4.474
 9998SOL     OW30892   4.883   3.603   3.148
 9998SOL    HW130893   4.785   3.609   3.129
 9998SOL    HW230894   4.914   3.509   3.134
 9999SOL     OW30895   0.040   6.677   3.853
 9999SOL    HW130896   6.991   6.612   3.861
 9999SOL    HW230897   0.116   6.648   3.910
10000SOL     OW30898   5.159   1.648   1.678
10000SOL    HW130899   5.139   1.613   1.587
10000SOL    HW230900   5.074   1.671   1.725
10001SOL     OW30901   2.889   6.085   2.546
10001SOL    HW130902   2.912   6.010   2.608
10001SOL    HW230903   2.880   6.169   2.599
10002SOL     OW30904   2.568   1.193   0.760
10002SOL    HW130905   2.502   1.180   0.686
10002SOL    HW230906   2.637   1.259   0.731
10003SOL     OW30907   2.370   1.803   3.120
10003SOL    HW130908   2.462   1.843   3.109
10003SOL    HW230909   2.311   1.868   3.169
10004SOL     OW30910   5.513   4.466   4.644
10004SOL    HW130911   5.425   4.423   4.626
10004SOL    HW230912   5.583   4.395   4.656
10005SOL     OW30913   3.074   5.680   3.591
10005SOL    HW130914   3.063   5.742   3.669
10005SOL    HW230915   3.159   5.629   3.601
10006SOL     OW30916   5.552   0.561   5.254
10006SOL    HW130917   5.630   0.609   5.293
10006SOL    HW230918   5.582   0.508   5.174
10007SOL     OW30919   0.711   4.161   4.616
10007SOL    HW130920   0.753   4.133   4.530
10007SOL    HW230921   0.721   4.259   4.628
10008SOL     OW30922   3.571   1.776   4.190
10008SOL    HW130923   3.572   1.778   4.090
10008SOL    HW230924   3.499   1.836   4.224
10009SOL     OW30925   2.001   4.396   2.034
10009SOL    HW130926   2.041   4.430   1.950
10009SOL    HW230927   1.946   4.468   2.076
10010SOL     OW30928   3.006   4.911   6.752
10010SOL    HW130929   2.963   4.998   6.776
10010SOL    HW230930   3.085   4.928   6.693
10011SOL     OW30931   0.486   3.838   0.179
10011SOL    HW130932   0.471   3.764   0.245
10011SOL    HW230933   0.398   3.881   0.157
10012SOL     OW30934   5.267   0.592   2.348
10012SOL    HW130935   5.248   0.670   2.289
10012SOL    HW230936   5.186   0.569   2.402
10013SOL     OW30937   1.504   4.977   4.852
10013SOL    HW130938   1.594   5.020   4.845
10013SOL    HW230939   1.456   4.985   4.765
10014SOL     OW30940   0.561   6.555   3.095
10014SOL    HW130941   0.478   6.510   3.060
10014SOL    HW230942   0.566   6.542   3.194
10015SOL     OW30943   3.619   5.485   6.632
10015SOL    HW130944   3.623   5.565   6.572
10015SOL    HW230945   3.598   5.404   6.578
10016SOL     OW30946   1.334   0.259   4.494
10016SOL    HW130947   1.352   0.162   4.478
10016SOL    HW230948   1.378   0.313   4.423
10017SOL     OW30949   2.644   1.845   3.051
10017SOL    HW130950   2.672   1.940   3.056
10017SOL    HW230951   2.716   1.791   3.007
10018SOL     OW30952   6.872   3.998   5.998
10018SOL    HW130953   6.938   3.978   6.071
10018SOL    HW230954   6.909   4.070   5.939
10019SOL     OW30955   0.197   1.215   2.735
10019SOL    HW130956   0.146   1.182   2.815
10019SOL    HW230957   0.137   1.274   2.680
10020SOL     OW30958   6.681   0.716   1.723
10020SOL    HW130959   6.665   0.720   1.625
10020SOL    HW230960   6.637   0.794   1.767
10021SOL     OW30961   1.541   3.357   1.385
10021SOL    HW130962   1.530   3.279   1.446
10021SOL    HW230963   1.604   3.423   1.426
10022SOL     OW30964   2.136   6.374   0.360
10022SOL    HW130965   2.198   6.295   0.362
10022SOL    HW230966   2.164   6.441   0.429
10023SOL     OW30967   2.313   6.725   5.966
10023SOL    HW130968   2.256   6.802   5.993
10023SOL    HW230969   2.381   6.708   6.037
10024SOL     OW30970   1.530   4.915   3.123
10024SOL    HW130971   1.623   4.926   3.157
10024SOL    HW230972   1.482   4.848   3.179
10025SOL     OW30973   1.541   3.758   1.806
10025SOL    HW130974   1.638   3.773   1.788
10025SOL    HW230975   1.525   3.754   1.904
10026SOL     OW30976   5.024   1.203   2.348
10026SOL    HW130977   4.948   1.151   2.309
10026SOL    HW230978   5.057   1.270   2.281
10027SOL     OW30979   1.362   2.759   4.999
10027SOL    HW130980   1.324   2.675   4.959
10027SOL    HW230981   1.390   2.740   5.093
10028SOL     OW30982   2.748   1.010   1.646
10028SOL    HW130983   2.650   1.025   1.657
10028SOL    HW230984   2.764   0.919   1.609
10029SOL     OW30985   6.900   2.774   4.168
10029SOL    HW130986   6.893   2.680   4.133
10029SOL    HW230987   6.811   2.802   4.205
10030SOL     OW30988   2.704   6.877   5.012
10030SOL    HW130989   2.669   6.786   5.034
10030SOL    HW230990   2.729   6.881   4.915
10031SOL     OW30991   3.879   4.964   5.201
10031SOL    HW130992   3.902   5.034   5.133
10031SOL    HW230993   3.804   4.908   5.168
10032SOL     OW30994   3.311   6.363   5.724
10032SOL    HW130995   3.304   6.263   5.730
10032SOL    HW230996   3.257   6.404   5.798
10033SOL     OW30997   4.864   1.565   3.752
10033SOL    HW130998   4.818   1.480   3.776
10033SOL    HW230999   4.920   1.551   3.671
10034SOL     OW31000   1.721   0.830   3.454
10034SOL    HW131001   1.767   0.747   3.420
10034SOL    HW231002   1.644   0.804   3.512
10035SOL     OW31003   6.166   3.668   0.280
10035SOL    HW131004   6.183   3.654   0.183
10035SOL    HW231005   6.092   3.609   0.311
10036SOL     OW31006   6.616   0.502   6.590
10036SOL    HW131007   6.655   0.562   6.661
10036SOL    HW231008   6.605   0.554   6.506
10037SOL     OW31009   6.239   0.005   5.969
10037SOL    HW131010   6.222   6.991   6.059
10037SOL    HW231011   6.156   0.052   5.938
10038SOL     OW31012   4.809   6.975   0.237
10038SOL    HW131013   4.855   0.007   0.170
10038SOL    HW231014   4.724   6.940   0.196
10039SOL     OW31015   4.969   5.587   4.478
10039SOL    HW131016   4.888   5.529   4.463
10039SOL    HW231017   5.017   5.556   4.560
10040SOL     OW31018   4.377   6.719   0.710
10040SOL    HW131019   4.446   6.700   0.641
10040SOL    HW231020   4.386   6.814   0.740
10041SOL     OW31021   6.704   4.825   5.666
10041SOL    HW131022   6.635   4.752   5.662
10041SOL    HW231023   6.689   4.880   5.749
10042SOL     OW31024   0.725   1.144   5.511
10042SOL    HW131025   0.732   1.151   5.412
10042SOL    HW231026   0.698   1.233   5.549
10043SOL     OW31027   0.614   0.831   2.562
10043SOL    HW131028   0.610   0.860   2.658
10043SOL    HW231029   0.521   0.829   2.524
10044SOL     OW31030   2.812   1.719   4.703
10044SOL    HW131031   2.820   1.749   4.798
10044SOL    HW231032   2.837   1.794   4.643
10045SOL     OW31033   4.518   0.136   4.377
10045SOL    HW131034   4.469   0.054   4.345
10045SOL    HW231035   4.573   0.173   4.302
10046SOL     OW31036   6.925   1.999   1.648
10046SOL    HW131037   6.835   2.004   1.606
10046SOL    HW231038   6.925   2.049   1.735
10047SOL     OW31039   5.966   2.690   5.541
10047SOL    HW131040   6.021   2.607   5.549
10047SOL    HW231041   5.877   2.667   5.501
10048SOL     OW31042   3.161   1.417   1.884
10048SOL    HW131043   3.245   1.471   1.881
10048SOL    HW231044   3.132   1.395   1.791
10049SOL     OW31045   1.035   0.725   6.895
10049SOL    HW131046   0.971   0.676   6.953
10049SOL    HW231047   0.997   0.814   6.870
10050SOL     OW31048   5.685   2.996   4.853
10050SOL    HW131049   5.593   3.027   4.878
10050SOL    HW231050   5.684   2.959   4.760
10051SOL     OW31051   6.869   3.081   4.708
10051SOL    HW131052   6.897   3.045   4.797
10051SOL    HW231053   6.806   3.016   4.664
10052SOL     OW31054   2.000   3.198   1.425
10052SOL    HW131055   1.959   3.248   1.502
10052SOL    HW231056   1.934   3.134   1.387
10053SOL     OW31057   3.697   4.985   2.752
10053SOL    HW131058   3.791   4.972   2.722
10053SOL    HW231059   3.693   4.982   2.852
10054SOL     OW31060   4.607   5.838   6.455
10054SOL    HW131061   4.545   5.774   6.411
10054SOL    HW231062   4.623   5.810   6.549
10055SOL     OW31063   6.379   2.242   4.663
10055SOL    HW131064   6.292   2.192   4.659
10055SOL    HW231065   6.372   2.317   4.730
10056SOL     OW31066   5.856   5.134   0.778
10056SOL    HW131067   5.875   5.125   0.876
10056SOL    HW231068   5.940   5.117   0.727
10057SOL     OW31069   3.828   1.679   4.352
10057SOL    HW131070   3.838   1.710   4.447
10057SOL    HW231071   3.749   1.724   4.311
10058SOL     OW31072   6.899   4.410   4.565
10058SOL    HW131073   6.862   4.401   4.657
10058SOL    HW231074   6.865   4.336   4.507
10059SOL     OW31075   5.419   6.394   1.038
10059SOL    HW131076   5.469   6.311   1.015
10059SOL    HW231077   5.339   6.370   1.092
10060SOL     OW31078   2.179   2.481   2.075
10060SOL    HW131079   2.113   2.407   2.063
10060SOL    HW231080   2.244   2.480   1.999
10061SOL     OW31081   5.451   1.233   4.021
10061SOL    HW131082   5.420   1.217   4.114
10061SOL    HW231083   5.372   1.255   3.963
10062SOL     OW31084   6.378   6.692   4.563
10062SOL    HW131085   6.447   6.760   4.586
10062SOL    HW231086   6.333   6.660   4.647
10063SOL     OW31087   1.620   2.120   3.410
10063SOL    HW131088   1.685   2.189   3.443
10063SOL    HW231089   1.605   2.134   3.312
10064SOL     OW31090   5.991   5.474   5.450
10064SOL    HW131091   5.936   5.554   5.425
10064SOL    HW231092   5.976   5.451   5.546
10065SOL     OW31093   1.491   0.704   1.820
10065SOL    HW131094   1.554   0.704   1.743
10065SOL    HW231095   1.445   0.793   1.826
10066SOL     OW31096   1.135   0.816   3.910
10066SOL    HW131097   1.153   0.775   3.821
10066SOL    HW231098   1.039   0.844   3.915
10067SOL     OW31099   5.506   4.708   4.776
10067SOL    HW131100   5.409   4.731   4.777
10067SOL    HW231101   5.521   4.626   4.721
10068SOL     OW31102   5.358   2.966   4.060
10068SOL    HW131103   5.345   3.057   4.019
10068SOL    HW231104   5.413   2.975   4.143
10069SOL     OW31105   2.211   6.274   3.638
10069SOL    HW131106   2.172   6.311   3.553
10069SOL    HW231107   2.251   6.349   3.691
10070SOL     OW31108   0.499   6.726   4.532
10070SOL    HW131109   0.485   6.817   4.570
10070SOL    HW231110   0.453   6.659   4.591
10071SOL     OW31111   4.661   4.995   4.363
10071SOL    HW131112   4.707   4.906   4.366
10071SOL    HW231113   4.617   5.012   4.451
10072SOL     OW31114   0.698   6.556   3.799
10072SOL    HW131115   0.715   6.553   3.898
10072SOL    HW231116   0.759   6.623   3.757
10073SOL     OW31117   6.191   4.237   5.098
10073SOL    HW131118   6.169   4.328   5.064
10073SOL    HW231119   6.278   4.239   5.147
10074SOL     OW31120   0.710   0.470   5.762
10074SOL    HW131121   0.726   0.381   5.805
10074SOL    HW231122   0.782   0.534   5.790
10075SOL     OW31123   1.412   2.618   2.554
10075SOL    HW131124   1.320   2.618   2.593
10075SOL    HW231125   1.465   2.543   2.594
10076SOL     OW31126   5.473   0.203   4.391
10076SOL    HW131127   5.526   0.138   4.445
10076SOL    HW231128   5.504   0.200   4.296
10077SOL     OW31129   3.539   2.361   6.784
10077SOL    HW131130   3.509   2.269   6.760
10077SOL    HW231131   3.508   2.425   6.713
10078SOL     OW31132   6.387   6.545   4.326
10078SOL    HW131133   6.310   6.563   4.265
10078SOL    HW231134   6.374   6.595   4.412
10079SOL     OW31135   1.655   2.923   2.051
10079SOL    HW131136   1.702   2.865   1.984
10079SOL    HW231137   1.650   3.016   2.016
10080SOL     OW31138   3.387   2.136   6.462
10080SOL    HW131139   3.435   2.172   6.382
10080SOL    HW231140   3.326   2.062   6.434
10081SOL     OW31141   0.386   6.816   6.427
10081SOL    HW131142   0.445   6.886   6.466
10081SOL    HW231143   0.397   6.815   6.328
10082SOL     OW31144   6.782   2.605   2.567
10082SOL    HW131145   6.741   2.682   2.616
10082SOL    HW231146   6.865   2.635   2.520
10083SOL     OW31147   4.989   1.072   3.343
10083SOL    HW131148   4.924   1.125   3.397
10083SOL    HW231149   5.005   1.119   3.256
10084SOL     OW31150   3.595   0.213   5.847
10084SOL    HW131151   3.554   0.146   5.785
10084SOL    HW231152   3.546   0.212   5.934
10085SOL     OW31153   0.363   5.031   2.976
10085SOL    HW131154   0.267   5.012   2.953
10085SOL    HW231155   0.402   5.091   2.906
10086SOL     OW31156   5.964   5.323   2.477
10086SOL    HW131157   5.905   5.293   2.402
10086SOL    HW231158   5.907   5.351   2.555
10087SOL     OW31159   0.872   0.889   3.879
10087SOL    HW131160   0.863   0.963   3.812
10087SOL    HW231161   0.818   0.911   3.960
10088SOL     OW31162   0.195   6.648   6.018
10088SOL    HW131163   0.145   6.674   6.101
10088SOL    HW231164   0.130   6.628   5.945
10089SOL     OW31165   2.566   1.583   3.198
10089SOL    HW131166   2.480   1.633   3.191
10089SOL    HW231167   2.635   1.628   3.141
10090SOL     OW31168   0.432   4.605   1.067
10090SOL    HW131169   0.495   4.637   0.995
10090SOL    HW231170   0.482   4.550   1.133
10091SOL     OW31171   1.129   3.091   4.804
10091SOL    HW131172   1.124   3.011   4.745
10091SOL    HW231173   1.194   3.157   4.765
10092SOL     OW31174   1.557   3.868   4.991
10092SOL    HW131175   1.578   3.780   4.949
10092SOL    HW231176   1.625   3.889   5.061
10093SOL     OW31177   1.293   4.913   4.511
10093SOL    HW131178   1.352   4.935   4.433
10093SOL    HW231179   1.332   4.835   4.561
10094SOL     OW31180   2.661   6.517   1.915
10094SOL    HW131181   2.658   6.427   1.871
10094SOL    HW231182   2.670   6.587   1.845
10095SOL     OW31183   6.273   1.368   5.424
10095SOL    HW131184   6.219   1.303   5.477
10095SOL    HW231185   6.301   1.326   5.337
10096SOL     OW31186   6.681   5.010   2.773
10096SOL    HW131187   6.623   4.939   2.812
10096SOL    HW231188   6.690   5.086   2.838
10097SOL     OW31189   0.846   1.167   6.752
10097SOL    HW131190   0.915   1.164   6.680
10097SOL    HW231191   0.755   1.154   6.713
10098SOL     OW31192   1.996   6.845   5.746
10098SOL    HW131193   2.000   6.930   5.797
10098SOL    HW231194   1.971   6.770   5.807
10099SOL     OW31195   6.849   4.369   6.591
10099SOL    HW131196   6.754   4.389   6.567
10099SOL    HW231197   6.895   4.455   6.614
10100SOL     OW31198   5.446   0.030   4.969
10100SOL    HW131199   5.348   0.022   4.988
10100SOL    HW231200   5.472   6.988   4.900
10101SOL     OW31201   5.904   4.640   1.787
10101SOL    HW131202   5.993   4.622   1.830
10101SOL    HW231203   5.918   4.670   1.692
10102SOL     OW31204   2.294   0.729   2.857
10102SOL    HW131205   2.264   0.787   2.933
10102SOL    HW231206   2.231   0.738   2.780
10103SOL     OW31207   2.904   1.213   4.796
10103SOL    HW131208   2.951   1.298   4.820
10103SOL    HW231209   2.912   1.197   4.698
10104SOL     OW31210   1.472   3.425   5.118
10104SOL    HW131211   1.452   3.350   5.054
10104SOL    HW231212   1.442   3.399   5.210
10105SOL     OW31213   1.258   1.432   6.233
10105SOL    HW131214   1.343   1.485   6.235
10105SOL    HW231215   1.182   1.489   6.265
10106SOL     OW31216   5.313   4.817   1.151
10106SOL    HW131217   5.347   4.904   1.186
10106SOL    HW231218   5.388   4.766   1.108
10107SOL     OW31219   6.829   1.631   6.329
10107SOL    HW131220   6.787   1.540   6.328
10107SOL    HW231221   6.858   1.653   6.422
10108SOL     OW31222   6.365   6.440   0.051
10108SOL    HW131223   6.393   6.517   0.108
10108SOL    HW231224   6.322   6.371   0.109
10109SOL     OW31225   3.617   6.406   2.383
10109SOL    HW131226   3.534   6.351   2.394
10109SOL    HW231227   3.592   6.498   2.353
10110SOL     OW31228   3.950   6.660   5.412
10110SOL    HW131229   3.888   6.582   5.417
10110SOL    HW231230   4.026   6.647   5.476
10111SOL     OW31231   6.307   3.174   3.777
10111SOL    HW131232   6.263   3.090   3.810
10111SOL    HW231233   6.396   3.152   3.736
10112SOL     OW31234   5.725   4.055   4.860
10112SOL    HW131235   5.804   4.101   4.902
10112SOL    HW231236   5.672   4.009   4.931
10113SOL     OW31237   3.691   1.017   6.733
10113SOL    HW131238   3.758   1.026   6.808
10113SOL    HW231239   3.739   1.003   6.647
10114SOL     OW31240   5.459   0.662   1.132
10114SOL    HW131241   5.400   0.677   1.053
10114SOL    HW231242   5.404   0.637   1.212
10115SOL     OW31243   2.866   1.670   2.984
10115SOL    HW131244   2.956   1.652   3.023
10115SOL    HW231245   2.874   1.736   2.910
10116SOL     OW31246   0.774   6.484   0.464
10116SOL    HW131247   0.674   6.486   0.462
10116SOL    HW231248   0.806   6.525   0.549
10117SOL     OW31249   6.248   0.109   4.888
10117SOL    HW131250   6.260   0.170   4.810
10117SOL    HW231251   6.325   0.045   4.893
10118SOL     OW31252   6.874   4.672   3.024
10118SOL    HW131253   6.952   4.667   3.086
10118SOL    HW231254   6.906   4.661   2.930
10119SOL     OW31255   1.584   6.799   4.684
10119SOL    HW131256   1.487   6.798   4.660
10119SOL    HW231257   1.639   6.791   4.601
10120SOL     OW31258   0.508   3.223   4.224
10120SOL    HW131259   0.588   3.272   4.258
10120SOL    HW231260   0.457   3.185   4.301
10121SOL     OW31261   6.939   4.931   5.610
10121SOL    HW131262   7.010   4.874   5.652
10121SOL    HW231263   6.849   4.892   5.630
10122SOL     OW31264   5.505   3.172   0.514
10122SOL    HW131265   5.579   3.174   0.447
10122SOL    HW231266   5.420   3.147   0.468
10123SOL     OW31267   6.508   5.926   0.256
10123SOL    HW131268   6.601   5.890   0.248
10123SOL    HW231269   6.463   5.921   0.166
10124SOL     OW31270   2.327   4.034   0.060
10124SOL    HW131271   2.327   3.949   0.007
10124SOL    HW231272   2.253   4.094   0.028
10125SOL     OW31273   1.827   1.034   2.398
10125SOL    HW131274   1.776   1.118   2.418
10125SOL    HW231275   1.875   1.043   2.312
10126SOL     OW31276   6.662   6.310   6.345
10126SOL    HW131277   6.644   6.387   6.406
10126SOL    HW231278   6.617   6.228   6.381
10127SOL     OW31279   2.615   5.551   5.773
10127SOL    HW131280   2.532   5.577   5.724
10127SOL    HW231281   2.664   5.480   5.721
10128SOL     OW31282   1.228   1.859   1.145
10128SOL    HW131283   1.252   1.827   1.237
10128SOL    HW231284   1.128   1.859   1.135
10129SOL     OW31285   4.819   2.784   3.995
10129SOL    HW131286   4.744   2.739   3.946
10129SOL    HW231287   4.905   2.736   3.976
10130SOL     OW31288   2.233   4.206   2.762
10130SOL    HW131289   2.170   4.228   2.687
10130SOL    HW231290   2.269   4.290   2.801
10131SOL     OW31291   0.616   1.242   3.213
10131SOL    HW131292   0.520   1.218   3.219
10131SOL    HW231293   0.638   1.311   3.282
10132SOL     OW31294   2.660   6.403   3.451
10132SOL    HW131295   2.653   6.488   3.399
10132SOL    HW231296   2.604   6.333   3.407
10133SOL     OW31297   4.555   6.508   2.386
10133SOL    HW131298   4.505   6.591   2.411
10133SOL    HW231299   4.491   6.433   2.371
10134SOL     OW31300   6.953   0.297   3.729
10134SOL    HW131301   0.025   0.313   3.720
10134SOL    HW231302   6.932   0.268   3.822
10135SOL     OW31303   5.218   3.423   3.467
10135SOL    HW131304   5.257   3.502   3.515
10135SOL    HW231305   5.128   3.447   3.431
10136SOL     OW31306   5.717   6.926   2.802
10136SOL    HW131307   5.658   6.882   2.870
10136SOL    HW231308   5.661   6.975   2.736
10137SOL     OW31309   6.725   5.060   4.073
10137SOL    HW131310   6.789   5.129   4.107
10137SOL    HW231311   6.764   4.969   4.089
10138SOL     OW31312   4.261   2.126   1.224
10138SOL    HW131313   4.239   2.205   1.282
10138SOL    HW231314   4.334   2.152   1.160
10139SOL     OW31315   4.063   3.301   3.222
10139SOL    HW131316   4.041   3.222   3.164
10139SOL    HW231317   4.025   3.287   3.313
10140SOL     OW31318   6.090   5.939   5.692
10140SOL    HW131319   6.126   6.021   5.737
10140SOL    HW231320   6.166   5.879   5.667
10141SOL     OW31321   3.432   1.375   4.497
10141SOL    HW131322   3.448   1.397   4.593
10141SOL    HW231323   3.351   1.423   4.464
10142SOL     OW31324   5.772   6.314   4.633
10142SOL    HW131325   5.799   6.277   4.723
10142SOL    HW231326   5.755   6.412   4.641
10143SOL     OW31327   4.832   0.284   1.195
10143SOL    HW131328   4.811   0.382   1.196
10143SOL    HW231329   4.908   0.267   1.131
10144SOL     OW31330   4.794   6.523   6.743
10144SOL    HW131331   4.704   6.481   6.755
10144SOL    HW231332   4.818   6.576   6.824
10145SOL     OW31333   3.811   6.077   6.113
10145SOL    HW131334   3.761   6.158   6.144
10145SOL    HW231335   3.899   6.072   6.161
10146SOL     OW31336   3.555   5.190   5.217
10146SOL    HW131337   3.595   5.113   5.167
10146SOL    HW231338   3.455   5.186   5.210
10147SOL     OW31339   5.243   4.727   4.828
10147SOL    HW131340   5.258   4.697   4.923
10147SOL    HW231341   5.210   4.821   4.828
10148SOL     OW31342   5.585   5.213   6.816
10148SOL    HW131343   5.600   5.236   6.720
10148SOL    HW231344   5.657   5.254   6.872
10149SOL     OW31345   5.230   2.124   0.885
10149SOL    HW131346   5.265   2.042   0.841
10149SOL    HW231347   5.194   2.101   0.975
10150SOL     OW31348   4.376   3.792   0.202
10150SOL    HW131349   4.398   3.738   0.284
10150SOL    HW231350   4.410   3.885   0.214
10151SOL     OW31351   0.570   7.001   6.547
10151SOL    HW131352   0.580   0.013   6.455
10151SOL    HW231353   0.660   6.979   6.585
10152SOL     OW31354   1.491   6.339   4.253
10152SOL    HW131355   1.430   6.379   4.321
10152SOL    HW231356   1.531   6.412   4.198
10153SOL     OW31357   4.993   5.557   4.203
10153SOL    HW131358   4.973   5.577   4.299
10153SOL    HW231359   5.073   5.498   4.197
10154SOL     OW31360   5.618   0.017   4.511
10154SOL    HW131361   5.572   6.982   4.576
10154SOL    HW231362   5.690   6.993   4.464
10155SOL     OW31363   4.334   1.806   5.835
10155SOL    HW131364   4.352   1.791   5.738
10155SOL    HW231365   4.384   1.737   5.889
10156SOL     OW31366   6.184   0.175   2.378
10156SOL    HW131367   6.130   0.091   2.383
10156SOL    HW231368   6.243   0.182   2.459
10157SOL     OW31369   5.844   2.590   6.088
10157SOL    HW131370   5.777   2.569   6.159
10157SOL    HW231371   5.892   2.675   6.110
10158SOL     OW31372   4.670   3.560   0.330
10158SOL    HW131373   4.738   3.540   0.401
10158SOL    HW231374   4.578   3.550   0.368
10159SOL     OW31375   2.892   3.336   6.356
10159SOL    HW131376   2.894   3.423   6.405
10159SOL    HW231377   2.833   3.344   6.276
10160SOL     OW31378   1.574   3.463   2.036
10160SOL    HW131379   1.660   3.496   1.999
10160SOL    HW231380   1.556   3.508   2.124
10161SOL     OW31381   3.520   3.975   6.814
10161SOL    HW131382   3.451   3.984   6.742
10161SOL    HW231383   3.518   3.882   6.850
10162SOL     OW31384   2.826   4.468   0.507
10162SOL    HW131385   2.838   4.515   0.419
10162SOL    HW231386   2.905   4.487   0.566
10163SOL     OW31387   5.402   5.312   6.522
10163SOL    HW131388   5.339   5.317   6.599
10163SOL    HW231389   5.461   5.231   6.533
10164SOL     OW31390   6.142   3.409   4.887
10164SOL    HW131391   6.178   3.490   4.839
10164SOL    HW231392   6.050   3.430   4.920
10165SOL     OW31393   0.836   2.113   3.575
10165SOL    HW131394   0.870   2.200   3.537
10165SOL    HW231395   0.841   2.117   3.675
10166SOL     OW31396   3.377   1.203   1.869
10166SOL    HW131397   3.285   1.238   1.887
10166SOL    HW231398   3.414   1.164   1.953
10167SOL     OW31399   4.061   2.297   6.358
10167SOL    HW131400   4.098   2.388   6.338
10167SOL    HW231401   4.129   2.227   6.332
10168SOL     OW31402   6.386   4.090   5.514
10168SOL    HW131403   6.355   4.175   5.470
10168SOL    HW231404   6.361   4.012   5.457
10169SOL     OW31405   5.935   4.010   3.100
10169SOL    HW131406   5.968   3.938   3.162
10169SOL    HW231407   6.009   4.036   3.037
10170SOL     OW31408   1.115   4.287   5.741
10170SOL    HW131409   1.020   4.318   5.732
10170SOL    HW231410   1.118   4.204   5.798
10171SOL     OW31411   6.300   3.698   5.739
10171SOL    HW131412   6.334   3.764   5.672
10171SOL    HW231413   6.373   3.675   5.804
10172SOL     OW31414   6.238   7.004   3.979
10172SOL    HW131415   6.204   0.014   3.892
10172SOL    HW231416   6.313   0.036   4.013
10173SOL     OW31417   1.066   3.429   0.676
10173SOL    HW131418   1.012   3.344   0.672
10173SOL    HW231419   1.034   3.485   0.751
10174SOL     OW31420   5.504   5.359   2.630
10174SOL    HW131421   5.407   5.369   2.653
10174SOL    HW231422   5.515   5.285   2.563
10175SOL     OW31423   6.548   1.978   3.494
10175SOL    HW131424   6.636   1.990   3.447
10175SOL    HW231425   6.530   1.881   3.506
10176SOL     OW31426   1.506   3.611   5.953
10176SOL    HW131427   1.467   3.547   6.019
10176SOL    HW231428   1.574   3.563   5.896
10177SOL     OW31429   2.111   1.342   0.382
10177SOL    HW131430   2.100   1.412   0.312
10177SOL    HW231431   2.173   1.270   0.350
10178SOL     OW31432   6.766   2.343   5.200
10178SOL    HW131433   6.793   2.259   5.153
10178SOL    HW231434   6.798   2.340   5.295
10179SOL     OW31435   0.844   1.291   5.859
10179SOL    HW131436   0.907   1.314   5.934
10179SOL    HW231437   0.873   1.205   5.817
10180SOL     OW31438   3.872   0.248   6.929
10180SOL    HW131439   3.808   0.199   6.988
10180SOL    HW231440   3.945   0.185   6.900
10181SOL     OW31441   5.096   3.399   2.298
10181SOL    HW131442   5.032   3.324   2.313
10181SOL    HW231443   5.189   3.365   2.302
10182SOL     OW31444   5.506   0.999   2.092
10182SOL    HW131445   5.541   1.088   2.060
10182SOL    HW231446   5.530   0.987   2.188
10183SOL     OW31447   0.502   1.769   6.755
10183SOL    HW131448   0.417   1.814   6.727
10183SOL    HW231449   0.575   1.792   6.691
10184SOL     OW31450   4.170   1.082   6.172
10184SOL    HW131451   4.153   1.038   6.083
10184SOL    HW231452   4.174   1.181   6.160
10185SOL     OW31453   5.457   5.633   1.809
10185SOL    HW131454   5.373   5.670   1.849
10185SOL    HW231455   5.440   5.541   1.774
10186SOL     OW31456   5.759   3.474   2.953
10186SOL    HW131457   5.749   3.386   2.907
10186SOL    HW231458   5.791   3.459   3.047
10187SOL     OW31459   0.523   2.664   0.776
10187SOL    HW131460   0.457   2.641   0.848
10187SOL    HW231461   0.614   2.671   0.815
10188SOL     OW31462   3.333   6.021   0.853
10188SOL    HW131463   3.275   5.974   0.785
10188SOL    HW231464   3.429   5.998   0.836
10189SOL     OW31465   1.410   0.485   5.667
10189SOL    HW131466   1.437   0.418   5.736
10189SOL    HW231467   1.461   0.570   5.681
10190SOL     OW31468   4.646   3.251   1.377
10190SOL    HW131469   4.621   3.301   1.460
10190SOL    HW231470   4.563   3.225   1.327
10191SOL     OW31471   4.984   4.202   6.333
10191SOL    HW131472   5.060   4.154   6.375
10191SOL    HW231473   4.990   4.300   6.355
10192SOL     OW31474   4.524   1.043   5.851
10192SOL    HW131475   4.595   1.085   5.908
10192SOL    HW231476   4.459   0.993   5.909
10193SOL     OW31477   4.150   3.509   1.866
10193SOL    HW131478   4.146   3.409   1.858
10193SOL    HW231479   4.106   3.536   1.952
10194SOL     OW31480   5.859   4.463   5.034
10194SOL    HW131481   5.843   4.439   5.130
10194SOL    HW231482   5.778   4.505   4.995
10195SOL     OW31483   5.927   4.899   1.208
10195SOL    HW131484   5.843   4.910   1.155
10195SOL    HW231485   5.911   4.928   1.302
10196SOL     OW31486   4.449   1.799   4.356
10196SOL    HW131487   4.354   1.802   4.387
10196SOL    HW231488   4.493   1.887   4.373
10197SOL     OW31489   6.743   1.706   5.061
10197SOL    HW131490   6.751   1.802   5.089
10197SOL    HW231491   6.802   1.689   4.983
10198SOL     OW31492   3.022   0.633   1.667
10198SOL    HW131493   3.058   0.546   1.700
10198SOL    HW231494   2.980   0.619   1.577
10199SOL     OW31495   2.296   2.940   6.026
10199SOL    HW131496   2.217   2.979   6.073
10199SOL    HW231497   2.374   3.002   6.034
10200SOL     OW31498   4.584   2.010   1.213
10200SOL    HW131499   4.638   1.963   1.144
10200SOL    HW231500   4.539   2.089   1.173
10201SOL     OW31501   1.254   4.657   0.978
10201SOL    HW131502   1.300   4.733   0.931
10201SOL    HW231503   1.155   4.667   0.967
10202SOL     OW31504   3.742   2.594   6.537
10202SOL    HW131505   3.798   2.615   6.457
10202SOL    HW231506   3.707   2.679   6.577
10203SOL     OW31507   6.016   2.625   3.738
10203SOL    HW131508   5.943   2.557   3.730
10203SOL    HW231509   5.976   2.716   3.752
10204SOL     OW31510   5.363   6.884   6.554
10204SOL    HW131511   5.384   6.982   6.557
10204SOL    HW231512   5.434   6.833   6.602
10205SOL     OW31513   1.245   1.020   0.594
10205SOL    HW131514   1.275   1.078   0.518
10205SOL    HW231515   1.172   1.067   0.645
10206SOL     OW31516   0.671   0.663   6.046
10206SOL    HW131517   0.677   0.572   6.088
10206SOL    HW231518   0.758   0.684   6.000
10207SOL     OW31519   1.157   1.876   6.311
10207SOL    HW131520   1.165   1.929   6.227
10207SOL    HW231521   1.247   1.858   6.349
10208SOL     OW31522   5.896   4.610   4.139
10208SOL    HW131523   5.949   4.692   4.162
10208SOL    HW231524   5.957   4.536   4.113
10209SOL     OW31525   6.664   6.976   6.055
10209SOL    HW131526   6.692   6.881   6.068
10209SOL    HW231527   6.640   6.991   5.959
10210SOL     OW31528   4.702   6.297   1.460
10210SOL    HW131529   4.712   6.302   1.559
10210SOL    HW231530   4.605   6.294   1.436
10211SOL     OW31531   3.930   6.771   4.012
10211SOL    HW131532   3.980   6.846   4.055
10211SOL    HW231533   3.974   6.684   4.035
10212SOL     OW31534   1.074   0.299   5.251
10212SOL    HW131535   1.021   0.246   5.185
10212SOL    HW231536   1.013   0.334   5.322
10213SOL     OW31537   4.173   2.969   1.394
10213SOL    HW131538   4.078   2.988   1.419
10213SOL    HW231539   4.180   2.961   1.295
10214SOL     OW31540   1.048   2.406   1.533
10214SOL    HW131541   1.005   2.331   1.582
10214SOL    HW231542   0.987   2.439   1.461
10215SOL     OW31543   4.010   3.064   3.098
10215SOL    HW131544   4.049   3.037   3.010
10215SOL    HW231545   3.982   2.982   3.148
10216SOL     OW31546   6.893   0.981   0.872
10216SOL    HW131547   6.794   0.992   0.875
10216SOL    HW231548   6.937   1.070   0.880
10217SOL     OW31549   2.772   1.344   3.403
10217SOL    HW131550   2.688   1.369   3.451
10217SOL    HW231551   2.752   1.334   3.305
10218SOL     OW31552   1.489   2.849   1.821
10218SOL    HW131553   1.476   2.897   1.734
10218SOL    HW231554   1.414   2.872   1.883
10219SOL     OW31555   0.336   1.881   2.676
10219SOL    HW131556   0.317   1.865   2.772
10219SOL    HW231557   0.287   1.814   2.620
10220SOL     OW31558   3.643   2.776   1.168
10220SOL    HW131559   3.552   2.815   1.178
10220SOL    HW231560   3.654   2.699   1.231
10221SOL     OW31561   0.546   5.767   3.110
10221SOL    HW131562   0.600   5.690   3.077
10221SOL    HW231563   0.501   5.742   3.195
10222SOL     OW31564   3.071   3.349   5.257
10222SOL    HW131565   2.983   3.303   5.244
10222SOL    HW231566   3.055   3.442   5.288
10223SOL     OW31567   0.738   4.676   1.399
10223SOL    HW131568   0.780   4.766   1.388
10223SOL    HW231569   0.756   4.620   1.318
10224SOL     OW31570   6.560   2.806   3.970
10224SOL    HW131571   6.515   2.793   4.058
10224SOL    HW231572   6.572   2.717   3.925
10225SOL     OW31573   2.119   4.507   5.888
10225SOL    HW131574   2.095   4.434   5.824
10225SOL    HW231575   2.091   4.595   5.849
10226SOL     OW31576   3.568   0.816   6.535
10226SOL    HW131577   3.549   0.825   6.633
10226SOL    HW231578   3.625   0.893   6.505
10227SOL     OW31579   4.558   4.265   0.420
10227SOL    HW131580   4.573   4.322   0.339
10227SOL    HW231581   4.542   4.171   0.392
10228SOL     OW31582   6.762   0.178   1.065
10228SOL    HW131583   6.781   0.101   1.126
10228SOL    HW231584   6.827   0.177   0.989
10229SOL     OW31585   0.977   2.882   4.930
10229SOL    HW131586   0.966   2.826   4.848
10229SOL    HW231587   1.038   2.959   4.909
10230SOL     OW31588   6.431   5.564   2.940
10230SOL    HW131589   6.381   5.589   2.857
10230SOL    HW231590   6.369   5.566   3.018
10231SOL     OW31591   1.378   5.869   4.868
10231SOL    HW131592   1.411   5.795   4.927
10231SOL    HW231593   1.290   5.902   4.902
10232SOL     OW31594   2.662   0.935   3.148
10232SOL    HW131595   2.564   0.948   3.159
10232SOL    HW231596   2.679   0.873   3.071
10233SOL     OW31597   3.712   4.170   5.306
10233SOL    HW131598   3.730   4.232   5.383
10233SOL    HW231599   3.793   4.114   5.288
10234SOL     OW31600   6.198   6.704   1.176
10234SOL    HW131601   6.129   6.652   1.228
10234SOL    HW231602   6.156   6.787   1.140
10235SOL     OW31603   1.610   1.887   2.009
10235SOL    HW131604   1.690   1.842   2.049
10235SOL    HW231605   1.556   1.929   2.081
10236SOL     OW31606   2.088   6.653   0.567
10236SOL    HW131607   2.165   6.665   0.630
10236SOL    HW231608   2.055   6.742   0.537
10237SOL     OW31609   0.158   3.521   0.025
10237SOL    HW131610   0.249   3.480   0.031
10237SOL    HW231611   0.119   3.527   0.117
10238SOL     OW31612   4.129   4.862   1.452
10238SOL    HW131613   4.072   4.842   1.532
10238SOL    HW231614   4.210   4.804   1.454
10239SOL     OW31615   1.383   2.759   4.668
10239SOL    HW131616   1.397   2.740   4.765
10239SOL    HW231617   1.444   2.833   4.639
10240SOL     OW31618   2.824   6.033   2.289
10240SOL    HW131619   2.823   6.054   2.387
10240SOL    HW231620   2.857   6.113   2.239
10241SOL     OW31621   5.235   1.774   1.938
10241SOL    HW131622   5.197   1.763   1.846
10241SOL    HW231623   5.231   1.870   1.965
10242SOL     OW31624   0.059   1.728   0.357
10242SOL    HW131625   0.045   1.827   0.366
10242SOL    HW231626   0.141   1.711   0.303
10243SOL     OW31627   2.686   4.802   1.440
10243SOL    HW131628   2.662   4.891   1.402
10243SOL    HW231629   2.611   4.737   1.423
10244SOL     OW31630   2.352   4.233   0.999
10244SOL    HW131631   2.256   4.224   0.973
10244SOL    HW231632   2.411   4.205   0.923
10245SOL     OW31633   3.486   4.312   1.435
10245SOL    HW131634   3.511   4.352   1.524
10245SOL    HW231635   3.400   4.263   1.443
10246SOL     OW31636   3.343   3.499   4.275
10246SOL    HW131637   3.386   3.588   4.289
10246SOL    HW231638   3.308   3.494   4.181
10247SOL     OW31639   0.882   4.158   6.005
10247SOL    HW131640   0.845   4.074   6.044
10247SOL    HW231641   0.977   4.143   5.978
10248SOL     OW31642   0.882   0.530   2.754
10248SOL    HW131643   0.884   0.623   2.792
10248SOL    HW231644   0.890   0.464   2.828
10249SOL     OW31645   2.265   4.781   7.023
10249SOL    HW131646   2.210   4.854   6.983
10249SOL    HW231647   2.216   4.739   0.073
10250SOL     OW31648   6.342   3.474   0.651
10250SOL    HW131649   6.305   3.396   0.701
10250SOL    HW231650   6.434   3.453   0.620
10251SOL     OW31651   2.056   1.147   4.360
10251SOL    HW131652   2.139   1.104   4.324
10251SOL    HW231653   2.036   1.230   4.307
10252SOL     OW31654   4.250   3.453   5.683
10252SOL    HW131655   4.317   3.413   5.620
10252SOL    HW231656   4.165   3.472   5.635
10253SOL     OW31657   3.626   6.525   0.869
10253SOL    HW131658   3.675   6.445   0.835
10253SOL    HW231659   3.532   6.524   0.834
10254SOL     OW31660   4.792   1.329   5.752
10254SOL    HW131661   4.707   1.295   5.712
10254SOL    HW231662   4.783   1.428   5.769
10255SOL     OW31663   2.284   6.694   1.120
10255SOL    HW131664   2.289   6.618   1.184
10255SOL    HW231665   2.254   6.661   1.031
10256SOL     OW31666   4.640   0.510   2.215
10256SOL    HW131667   4.727   0.555   2.193
10256SOL    HW231668   4.607   0.460   2.136
10257SOL     OW31669   2.342   4.754   3.987
10257SOL    HW131670   2.270   4.824   3.989
10257SOL    HW231671   2.374   4.743   3.893
10258SOL     OW31672   3.693   2.102   3.142
10258SOL    HW131673   3.603   2.143   3.134
10258SOL    HW231674   3.688   2.023   3.204
10259SOL     OW31675   0.672   3.840   3.590
10259SOL    HW131676   0.711   3.921   3.633
10259SOL    HW231677   0.745   3.777   3.565
10260SOL     OW31678   0.992   1.443   3.266
10260SOL    HW131679   1.045   1.359   3.259
10260SOL    HW231680   1.026   1.510   3.201
10261SOL     OW31681   7.014   4.482   0.599
10261SOL    HW131682   6.945   4.465   0.669
10261SOL    HW231683   6.977   4.458   0.509
10262SOL     OW31684   3.329   6.889   6.422
10262SOL    HW131685   3.347   6.964   6.358
10262SOL    HW231686   3.276   6.818   6.375
10263SOL     OW31687   5.700   0.562   0.712
10263SOL    HW131688   5.747   0.474   0.706
10263SOL    HW231689   5.626   0.565   0.644
10264SOL     OW31690   5.842   5.207   6.594
10264SOL    HW131691   5.802   5.116   6.583
10264SOL    HW231692   5.774   5.276   6.568
10265SOL     OW31693   2.954   2.600   0.395
10265SOL    HW131694   2.897   2.664   0.446
10265SOL    HW231695   3.043   2.593   0.440
10266SOL     OW31696   3.442   2.838   2.770
10266SOL    HW131697   3.379   2.885   2.831
10266SOL    HW231698   3.420   2.741   2.766
10267SOL     OW31699   5.484   1.025   1.060
10267SOL    HW131700   5.439   1.040   0.971
10267SOL    HW231701   5.479   1.109   1.114
10268SOL     OW31702   5.626   6.389   2.049
10268SOL    HW131703   5.542   6.354   2.007
10268SOL    HW231704   5.696   6.400   1.979
10269SOL     OW31705   0.973   2.737   6.563
10269SOL    HW131706   0.958   2.833   6.587
10269SOL    HW231707   1.000   2.686   6.644
10270SOL     OW31708   3.319   5.988   2.294
10270SOL    HW131709   3.297   6.018   2.201
10270SOL    HW231710   3.405   6.029   2.322
10271SOL     OW31711   2.863   2.832   0.050
10271SOL    HW131712   2.874   2.739   0.086
10271SOL    HW231713   2.784   2.875   0.093
10272SOL     OW31714   0.711   0.949   4.099
10272SOL    HW131715   0.641   0.880   4.119
10272SOL    HW231716   0.668   1.039   4.091
10273SOL     OW31717   2.971   4.879   4.652
10273SOL    HW131718   2.976   4.963   4.707
10273SOL    HW231719   2.972   4.800   4.713
10274SOL     OW31720   0.457   4.593   6.252
10274SOL    HW131721   0.531   4.562   6.192
10274SOL    HW231722   0.433   4.520   6.316
10275SOL     OW31723   0.155   0.515   2.170
10275SOL    HW131724   0.172   0.417   2.179
10275SOL    HW231725   0.239   0.565   2.192
10276SOL     OW31726   4.415   5.686   5.848
10276SOL    HW131727   4.355   5.767   5.841
10276SOL    HW231728   4.368   5.607   5.810
10277SOL     OW31729   1.213   6.940   4.356
10277SOL    HW131730   1.258   6.927   4.267
10277SOL    HW231731   1.114   6.941   4.344
10278SOL     OW31732   0.549   0.762   4.162
10278SOL    HW131733   0.465   0.797   4.202
10278SOL    HW231734   0.563   0.667   4.192
10279SOL     OW31735   2.818   5.479   3.832
10279SOL    HW131736   2.813   5.486   3.732
10279SOL    HW231737   2.907   5.443   3.858
10280SOL     OW31738   5.588   3.528   0.124
10280SOL    HW131739   5.561   3.604   0.064
10280SOL    HW231740   5.593   3.444   0.070
10281SOL     OW31741   6.954   2.608   3.017
10281SOL    HW131742   7.019   2.554   3.070
10281SOL    HW231743   6.916   2.553   2.943
10282SOL     OW31744   5.454   3.270   3.476
10282SOL    HW131745   5.369   3.320   3.461
10282SOL    HW231746   5.530   3.321   3.436
10283SOL     OW31747   0.897   3.216   0.662
10283SOL    HW131748   0.825   3.198   0.595
10283SOL    HW231749   0.860   3.203   0.754
10284SOL     OW31750   6.401   1.893   4.068
10284SOL    HW131751   6.410   1.807   4.018
10284SOL    HW231752   6.305   1.918   4.074
10285SOL     OW31753   4.093   6.469   2.976
10285SOL    HW131754   4.088   6.546   3.040
10285SOL    HW231755   4.186   6.463   2.939
10286SOL     OW31756   3.268   0.555   3.772
10286SOL    HW131757   3.284   0.562   3.674
10286SOL    HW231758   3.288   0.643   3.815
10287SOL     OW31759   1.683   5.949   1.908
10287SOL    HW131760   1.626   5.877   1.869
10287SOL    HW231761   1.767   5.957   1.855
10288SOL     OW31762   3.890   0.073   4.408
10288SOL    HW131763   3.890   0.062   4.309
10288SOL    HW231764   3.838   7.025   4.450
10289SOL     OW31765   2.892   6.120   0.929
10289SOL    HW131766   2.898   6.020   0.938
10289SOL    HW231767   2.869   6.159   1.018
10290SOL     OW31768   3.153   3.120   2.700
10290SOL    HW131769   3.249   3.125   2.729
10290SOL    HW231770   3.141   3.042   2.639
10291SOL     OW31771   3.912   1.585   2.994
10291SOL    HW131772   3.850   1.579   2.916
10291SOL    HW231773   3.953   1.677   2.997
10292SOL     OW31774   0.581   1.289   5.900
10292SOL    HW131775   0.680   1.286   5.886
10292SOL    HW231776   0.557   1.370   5.953
10293SOL     OW31777   0.650   3.037   3.423
10293SOL    HW131778   0.599   3.026   3.509
10293SOL    HW231779   0.704   3.121   3.427
10294SOL     OW31780   4.324   1.740   3.304
10294SOL    HW131781   4.310   1.703   3.212
10294SOL    HW231782   4.280   1.829   3.311
10295SOL     OW31783   1.227   2.591   5.550
10295SOL    HW131784   1.258   2.505   5.589
10295SOL    HW231785   1.286   2.666   5.582
10296SOL     OW31786   5.856   1.245   5.972
10296SOL    HW131787   5.809   1.174   6.025
10296SOL    HW231788   5.822   1.245   5.878
10297SOL     OW31789   2.374   1.488   6.687
10297SOL    HW131790   2.371   1.388   6.680
10297SOL    HW231791   2.308   1.527   6.623
10298SOL     OW31792   1.190   4.496   2.072
10298SOL    HW131793   1.176   4.417   2.013
10298SOL    HW231794   1.259   4.556   2.032
10299SOL     OW31795   4.414   6.298   2.294
10299SOL    HW131796   4.315   6.282   2.297
10299SOL    HW231797   4.439   6.342   2.208
10300SOL     OW31798   1.696   4.090   1.846
10300SOL    HW131799   1.602   4.113   1.819
10300SOL    HW231800   1.701   4.083   1.946
10301SOL     OW31801   4.733   1.719   5.123
10301SOL    HW131802   4.684   1.639   5.156
10301SOL    HW231803   4.754   1.780   5.199
10302SOL     OW31804   2.683   5.843   3.934
10302SOL    HW131805   2.688   5.813   3.839
10302SOL    HW231806   2.587   5.856   3.960
10303SOL     OW31807   0.919   5.455   3.589
10303SOL    HW131808   0.996   5.410   3.635
10303SOL    HW231809   0.854   5.487   3.658
10304SOL     OW31810   6.002   0.369   0.871
10304SOL    HW131811   6.082   0.309   0.860
10304SOL    HW231812   5.929   0.338   0.810
10305SOL     OW31813   2.613   4.210   5.827
10305SOL    HW131814   2.562   4.194   5.742
10305SOL    HW231815   2.556   4.261   5.891
10306SOL     OW31816   5.436   5.751   0.210
10306SOL    HW131817   5.377   5.745   0.130
10306SOL    HW231818   5.380   5.741   0.293
10307SOL     OW31819   3.235   1.548   4.675
10307SOL    HW131820   3.325   1.571   4.637
10307SOL    HW231821   3.246   1.502   4.763
10308SOL     OW31822   2.317   4.524   2.238
10308SOL    HW131823   2.412   4.527   2.206
10308SOL    HW231824   2.277   4.434   2.218
10309SOL     OW31825   6.678   1.395   6.400
10309SOL    HW131826   6.719   1.315   6.355
10309SOL    HW231827   6.578   1.386   6.397
10310SOL     OW31828   2.898   3.696   0.404
10310SOL    HW131829   2.923   3.657   0.493
10310SOL    HW231830   2.843   3.778   0.417
10311SOL     OW31831   6.706   5.372   0.092
10311SOL    HW131832   6.609   5.365   0.114
10311SOL    HW231833   6.748   5.444   0.146
10312SOL     OW31834   4.512   6.933   2.684
10312SOL    HW131835   4.526   6.910   2.587
10312SOL    HW231836   4.597   6.915   2.734
10313SOL     OW31837   3.620   5.759   2.210
10313SOL    HW131838   3.533   5.711   2.218
10313SOL    HW231839   3.642   5.804   2.297
10314SOL     OW31840   6.809   0.367   0.074
10314SOL    HW131841   6.710   0.374   0.057
10314SOL    HW231842   6.825   0.343   0.169
10315SOL     OW31843   5.848   6.116   4.055
10315SOL    HW131844   5.753   6.097   4.083
10315SOL    HW231845   5.903   6.135   4.137
10316SOL     OW31846   6.588   2.694   6.020
10316SOL    HW131847   6.588   2.639   5.937
10316SOL    HW231848   6.547   2.643   6.095
10317SOL     OW31849   4.068   6.359   6.444
10317SOL    HW131850   4.054   6.360   6.345
10317SOL    HW231851   4.072   6.264   6.476
10318SOL     OW31852   4.829   1.279   6.546
10318SOL    HW131853   4.849   1.194   6.596
10318SOL    HW231854   4.730   1.295   6.547
10319SOL     OW31855   0.875   3.997   5.543
10319SOL    HW131856   0.840   4.048   5.621
10319SOL    HW231857   0.914   4.061   5.477
10320SOL     OW31858   0.569   6.239   2.623
10320SOL    HW131859   0.536   6.262   2.531
10320SOL    HW231860   0.498   6.191   2.673
10321SOL     OW31861   5.687   1.817   1.909
10321SOL    HW131862   5.706   1.906   1.951
10321SOL    HW231863   5.640   1.831   1.822
10322SOL     OW31864   4.217   4.771   4.919
10322SOL    HW131865   4.294   4.830   4.944
10322SOL    HW231866   4.245   4.675   4.926
10323SOL     OW31867   6.355   4.996   5.162
10323SOL    HW131868   6.360   4.986   5.063
10323SOL    HW231869   6.418   4.931   5.205
10324SOL     OW31870   3.562   3.121   2.988
10324SOL    HW131871   3.623   3.188   3.029
10324SOL    HW231872   3.569   3.035   3.039
10325SOL     OW31873   0.071   5.109   2.240
10325SOL    HW131874   0.075   5.107   2.140
10325SOL    HW231875   0.021   5.190   2.270
10326SOL     OW31876   6.096   3.788   6.664
10326SOL    HW131877   6.030   3.782   6.589
10326SOL    HW231878   6.163   3.859   6.644
10327SOL     OW31879   2.339   3.110   1.587
10327SOL    HW131880   2.284   3.153   1.659
10327SOL    HW231881   2.281   3.090   1.508
10328SOL     OW31882   6.213   2.786   0.972
10328SOL    HW131883   6.119   2.813   0.995
10328SOL    HW231884   6.261   2.761   1.056
10329SOL     OW31885   2.512   1.144   2.882
10329SOL    HW131886   2.485   1.193   2.800
10329SOL    HW231887   2.550   1.055   2.857
10330SOL     OW31888   4.172   0.370   1.852
10330SOL    HW131889   4.198   0.466   1.856
10330SOL    HW231890   4.093   0.355   1.912
10331SOL     OW31891   6.677   6.320   6.061
10331SOL    HW131892   6.760   6.265   6.053
10331SOL    HW231893   6.648   6.322   6.156
10332SOL     OW31894   6.751   0.166   6.847
10332SOL    HW131895   6.821   0.238   6.855
10332SOL    HW231896   6.664   0.208   6.821
10333SOL     OW31897   0.672   5.367   5.097
10333SOL    HW131898   0.598   5.371   5.030
10333SOL    HW231899   0.636   5.390   5.187
10334SOL     OW31900   3.376   0.725   4.610
10334SOL    HW131901   3.349   0.684   4.697
10334SOL    HW231902   3.321   0.685   4.536
10335SOL     OW31903   1.685   4.337   0.070
10335SOL    HW131904   1.713   4.361   0.163
10335SOL    HW231905   1.758   4.362   0.006
10336SOL     OW31906   5.968   0.213   1.901
10336SOL    HW131907   5.984   0.128   1.952
10336SOL    HW231908   5.980   0.291   1.961
10337SOL     OW31909   0.298   5.880   6.781
10337SOL    HW131910   0.287   5.978   6.766
10337SOL    HW231911   0.307   5.833   6.694
10338SOL     OW31912   1.916   6.276   2.269
10338SOL    HW131913   1.991   6.311   2.212
10338SOL    HW231914   1.833   6.270   2.214
10339SOL     OW31915   6.077   3.507   6.012
10339SOL    HW131916   5.995   3.560   6.032
10339SOL    HW231917   6.112   3.532   5.921
10340SOL     OW31918   1.382   3.223   0.008
10340SOL    HW131919   1.453   3.160   0.039
10340SOL    HW231920   1.376   3.222   6.935
10341SOL     OW31921   2.139   3.723   2.159
10341SOL    HW131922   2.163   3.665   2.081
10341SOL    HW231923   2.204   3.708   2.233
10342SOL     OW31924   1.970   0.467   4.045
10342SOL    HW131925   1.983   0.549   3.988
10342SOL    HW231926   1.900   0.486   4.114
10343SOL     OW31927   3.009   5.251   7.006
10343SOL    HW131928   3.090   5.194   7.019
10343SOL    HW231929   2.929   5.204   0.016
10344SOL     OW31930   4.241   3.648   0.019
10344SOL    HW131931   4.142   3.632   0.023
10344SOL    HW231932   4.274   3.681   0.107
10345SOL     OW31933   1.767   2.422   5.761
10345SOL    HW131934   1.816   2.507   5.743
10345SOL    HW231935   1.783   2.358   5.686
10346SOL     OW31936   7.015   5.595   1.377
10346SOL    HW131937   0.036   5.648   1.306
10346SOL    HW231938   6.921   5.628   1.386
10347SOL     OW31939   4.962   1.520   3.484
10347SOL    HW131940   4.888   1.495   3.422
10347SOL    HW231941   5.032   1.570   3.434
10348SOL     OW31942   6.222   2.555   0.411
10348SOL    HW131943   6.201   2.645   0.449
10348SOL    HW231944   6.231   2.489   0.486
10349SOL     OW31945   0.945   0.792   6.524
10349SOL    HW131946   0.899   0.715   6.569
10349SOL    HW231947   1.038   0.800   6.558
10350SOL     OW31948   3.031   5.414   5.295
10350SOL    HW131949   3.082   5.340   5.339
10350SOL    HW231950   2.981   5.378   5.217
10351SOL     OW31951   4.655   5.331   0.017
10351SOL    HW131952   4.583   5.356   6.979
10351SOL    HW231953   4.709   5.256   7.006
10352SOL     OW31954   3.283   0.548   6.347
10352SOL    HW131955   3.377   0.521   6.325
10352SOL    HW231956   3.229   0.553   6.263
10353SOL     OW31957   7.000   2.924   4.960
10353SOL    HW131958   7.005   2.877   5.048
10353SOL    HW231959   7.023   2.859   4.887
10354SOL     OW31960   5.853   1.603   1.954
10354SOL    HW131961   5.779   1.670   1.953
10354SOL    HW231962   5.884   1.587   2.048
10355SOL     OW31963   2.418   6.335   1.632
10355SOL    HW131964   2.383   6.372   1.718
10355SOL    HW231965   2.494   6.391   1.600
10356SOL     OW31966   6.875   4.770   5.947
10356SOL    HW131967   6.946   4.822   5.899
10356SOL    HW231968   6.804   4.832   5.980
10357SOL     OW31969   1.630   2.923   6.538
10357SOL    HW131970   1.536   2.958   6.550
10357SOL    HW231971   1.630   2.853   6.467
10358SOL     OW31972   0.571   2.479   2.986
10358SOL    HW131973   0.545   2.576   2.985
10358SOL    HW231974   0.625   2.458   2.905
10359SOL     OW31975   0.863   1.669   0.813
10359SOL    HW131976   0.963   1.672   0.823
10359SOL    HW231977   0.821   1.733   0.877
10360SOL     OW31978   4.650   4.975   3.058
10360SOL    HW131979   4.597   4.912   3.001
10360SOL    HW231980   4.622   4.965   3.153
10361SOL     OW31981   2.682   6.530   2.553
10361SOL    HW131982   2.698   6.453   2.492
10361SOL    HW231983   2.742   6.523   2.633
10362SOL     OW31984   1.975   4.598   4.803
10362SOL    HW131985   2.072   4.620   4.816
10362SOL    HW231986   1.945   4.632   4.714
10363SOL     OW31987   5.025   0.940   2.971
10363SOL    HW131988   4.964   1.004   2.924
10363SOL    HW231989   4.979   0.900   3.050
10364SOL     OW31990   3.123   3.596   1.676
10364SOL    HW131991   3.109   3.682   1.628
10364SOL    HW231992   3.065   3.594   1.758
10365SOL     OW31993   3.634   5.860   0.293
10365SOL    HW131994   3.624   5.778   0.351
10365SOL    HW231995   3.664   5.832   0.202
10366SOL     OW31996   2.230   0.029   4.273
10366SOL    HW131997   2.323   0.037   4.237
10366SOL    HW231998   2.179   0.112   4.252
10367SOL     OW31999   5.435   2.472   2.444
10367SOL    HW132000   5.443   2.570   2.425
10367SOL    HW232001   5.471   2.453   2.535
10368SOL     OW32002   2.457   1.182   1.043
10368SOL    HW132003   2.391   1.127   0.992
10368SOL    HW232004   2.534   1.204   0.984
10369SOL     OW32005   4.139   0.958   6.863
10369SOL    HW132006   4.080   0.880   6.885
10369SOL    HW232007   4.119   1.034   6.925
10370SOL     OW32008   4.699   1.083   5.042
10370SOL    HW132009   4.661   1.051   5.129
10370SOL    HW232010   4.780   1.138   5.060
10371SOL     OW32011   3.333   5.437   5.420
10371SOL    HW132012   3.423   5.477   5.402
10371SOL    HW232013   3.268   5.509   5.441
10372SOL     OW32014   2.561   0.912   5.501
10372SOL    HW132015   2.505   0.979   5.549
10372SOL    HW232016   2.595   0.952   5.416
10373SOL     OW32017   1.715   6.392   4.703
10373SOL    HW132018   1.650   6.405   4.778
10373SOL    HW232019   1.807   6.415   4.734
10374SOL     OW32020   2.949   1.486   3.602
10374SOL    HW132021   2.880   1.442   3.544
10374SOL    HW232022   2.952   1.584   3.582
10375SOL     OW32023   4.789   2.111   0.257
10375SOL    HW132024   4.725   2.184   0.232
10375SOL    HW232025   4.877   2.152   0.283
10376SOL     OW32026   1.153   0.207   3.770
10376SOL    HW132027   1.160   0.179   3.866
10376SOL    HW232028   1.144   0.307   3.766
10377SOL     OW32029   0.311   0.738   3.403
10377SOL    HW132030   0.308   0.837   3.417
10377SOL    HW232031   0.220   0.700   3.418
10378SOL     OW32032   0.344   0.974   6.149
10378SOL    HW132033   0.247   0.994   6.142
10378SOL    HW232034   0.394   1.058   6.169
10379SOL     OW32035   5.423   0.133   5.244
10379SOL    HW132036   5.455   0.138   5.149
10379SOL    HW232037   5.323   0.135   5.245
10380SOL     OW32038   5.741   0.801   2.816
10380SOL    HW132039   5.642   0.811   2.820
10380SOL    HW232040   5.768   0.771   2.725
10381SOL     OW32041   4.924   5.499   5.964
10381SOL    HW132042   4.876   5.412   5.976
10381SOL    HW232043   4.862   5.565   5.922
10382SOL     OW32044   2.595   5.338   5.965
10382SOL    HW132045   2.579   5.380   5.875
10382SOL    HW232046   2.526   5.371   6.029
10383SOL     OW32047   1.187   3.587   0.910
10383SOL    HW132048   1.222   3.527   0.837
10383SOL    HW232049   1.087   3.587   0.908
10384SOL     OW32050   0.098   0.181   1.065
10384SOL    HW132051   0.044   0.115   1.013
10384SOL    HW232052   0.085   0.272   1.026
10385SOL     OW32053   5.620   6.979   6.074
10385SOL    HW132054   5.632   0.050   6.056
10385SOL    HW232055   5.595   6.966   6.171
10386SOL     OW32056   6.487   3.642   5.308
10386SOL    HW132057   6.406   3.619   5.363
10386SOL    HW232058   6.458   3.671   5.217
10387SOL     OW32059   2.928   2.253   2.995
10387SOL    HW132060   2.898   2.266   2.900
10387SOL    HW232061   2.912   2.337   3.047
10388SOL     OW32062   1.233   5.241   4.037
10388SOL    HW132063   1.227   5.340   4.046
10388SOL    HW232064   1.329   5.215   4.021
10389SOL     OW32065   0.578   4.825   3.017
10389SOL    HW132066   0.502   4.885   2.992
10389SOL    HW232067   0.574   4.806   3.115
10390SOL     OW32068   1.858   4.015   3.076
10390SOL    HW132069   1.939   4.064   3.044
10390SOL    HW232070   1.777   4.048   3.027
10391SOL     OW32071   1.469   6.088   6.463
10391SOL    HW132072   1.505   6.027   6.534
10391SOL    HW232073   1.507   6.180   6.475
10392SOL     OW32074   6.056   4.438   0.327
10392SOL    HW132075   6.153   4.437   0.305
10392SOL    HW232076   6.007   4.497   0.262
10393SOL     OW32077   0.841   1.281   4.127
10393SOL    HW132078   0.782   1.318   4.200
10393SOL    HW232079   0.890   1.201   4.162
10394SOL     OW32080   1.716   6.799   0.006
10394SOL    HW132081   1.652   6.871   0.034
10394SOL    HW232082   1.810   6.835   0.011
10395SOL     OW32083   0.040   0.888   3.699
10395SOL    HW132084   0.022   0.907   3.795
10395SOL    HW232085   0.023   0.971   3.646
10396SOL     OW32086   0.969   0.244   3.271
10396SOL    HW132087   1.033   0.198   3.333
10396SOL    HW232088   0.950   0.336   3.306
10397SOL     OW32089   4.286   0.625   3.156
10397SOL    HW132090   4.302   0.723   3.142
10397SOL    HW232091   4.220   0.592   3.089
10398SOL     OW32092   6.552   2.936   1.331
10398SOL    HW132093   6.500   2.996   1.392
10398SOL    HW232094   6.583   2.855   1.381
10399SOL     OW32095   4.933   2.118   5.532
10399SOL    HW132096   5.026   2.147   5.552
10399SOL    HW232097   4.931   2.071   5.444
10400SOL     OW32098   2.198   5.672   3.111
10400SOL    HW132099   2.156   5.760   3.091
10400SOL    HW232100   2.137   5.619   3.171
10401SOL     OW32101   6.894   5.870   2.428
10401SOL    HW132102   6.916   5.843   2.522
10401SOL    HW232103   6.826   5.943   2.430
10402SOL     OW32104   0.726   3.280   5.114
10402SOL    HW132105   0.758   3.236   5.198
10402SOL    HW232106   0.779   3.245   5.036
10403SOL     OW32107   5.160   1.369   2.188
10403SOL    HW132108   5.165   1.465   2.216
10403SOL    HW232109   5.086   1.357   2.122
10404SOL     OW32110   0.735   6.584   4.074
10404SOL    HW132111   0.792   6.565   4.154
10404SOL    HW232112   0.642   6.606   4.104
10405SOL     OW32113   1.568   6.081   5.522
10405SOL    HW132114   1.585   6.074   5.620
10405SOL    HW232115   1.470   6.093   5.506
10406SOL     OW32116   2.206   4.822   6.057
10406SOL    HW132117   2.142   4.747   6.046
10406SOL    HW232118   2.268   4.825   5.979
10407SOL     OW32119   1.217   1.637   5.841
10407SOL    HW132120   1.277   1.698   5.893
10407SOL    HW232121   1.250   1.543   5.850
10408SOL     OW32122   4.586   4.526   3.161
10408SOL    HW132123   4.631   4.610   3.132
10408SOL    HW232124   4.538   4.541   3.248
10409SOL     OW32125   0.321   3.494   1.917
10409SOL    HW132126   0.232   3.533   1.894
10409SOL    HW232127   0.385   3.567   1.941
10410SOL     OW32128   4.300   1.058   1.015
10410SOL    HW132129   4.276   1.144   1.061
10410SOL    HW232130   4.266   0.981   1.069
10411SOL     OW32131   2.235   4.761   2.975
10411SOL    HW132132   2.236   4.854   2.941
10411SOL    HW232133   2.193   4.700   2.908
10412SOL     OW32134   1.188   2.478   0.177
10412SOL    HW132135   1.287   2.468   0.171
10412SOL    HW232136   1.154   2.423   0.253
10413SOL     OW32137   0.307   1.947   6.959
10413SOL    HW132138   0.259   2.013   7.017
10413SOL    HW232139   0.347   1.875   7.017
10414SOL     OW32140   5.455   6.609   6.927
10414SOL    HW132141   5.371   6.630   6.976
10414SOL    HW232142   5.477   6.512   6.937
10415SOL     OW32143   0.494   5.724   3.373
10415SOL    HW132144   0.500   5.629   3.403
10415SOL    HW232145   0.534   5.784   3.442
10416SOL     OW32146   6.283   2.284   5.110
10416SOL    HW132147   6.281   2.187   5.135
10416SOL    HW232148   6.213   2.301   5.040
10417SOL     OW32149   3.948   5.229   2.784
10417SOL    HW132150   3.901   5.205   2.869
10417SOL    HW232151   4.033   5.277   2.806
10418SOL     OW32152   6.828   4.241   6.217
10418SOL    HW132153   6.811   4.207   6.125
10418SOL    HW232154   6.785   4.180   6.284
10419SOL     OW32155   2.857   1.012   5.435
10419SOL    HW132156   2.806   1.098   5.430
10419SOL    HW232157   2.829   0.961   5.516
10420SOL     OW32158   6.419   3.141   3.176
10420SOL    HW132159   6.378   3.073   3.237
10420SOL    HW232160   6.516   3.122   3.164
10421SOL     OW32161   1.147   4.596   3.837
10421SOL    HW132162   1.172   4.529   3.907
10421SOL    HW232163   1.183   4.567   3.749
10422SOL     OW32164   6.940   3.570   4.546
10422SOL    HW132165   6.995   3.513   4.607
10422SOL    HW232166   6.898   3.513   4.476
10423SOL     OW32167   3.108   4.915   4.098
10423SOL    HW132168   3.019   4.872   4.084
10423SOL    HW232169   3.167   4.897   4.020
10424SOL     OW32170   3.802   0.937   6.179
10424SOL    HW132171   3.813   1.018   6.121
10424SOL    HW232172   3.887   0.921   6.229
10425SOL     OW32173   2.469   0.759   0.461
10425SOL    HW132174   2.427   0.760   0.370
10425SOL    HW232175   2.439   0.840   0.512
10426SOL     OW32176   5.468   2.730   6.152
10426SOL    HW132177   5.373   2.708   6.175
10426SOL    HW232178   5.483   2.828   6.163
10427SOL     OW32179   5.497   6.264   5.135
10427SOL    HW132180   5.433   6.281   5.061
10427SOL    HW232181   5.554   6.345   5.149
10428SOL     OW32182   1.839   1.339   3.378
10428SOL    HW132183   1.854   1.240   3.383
10428SOL    HW232184   1.778   1.367   3.453
10429SOL     OW32185   1.041   3.449   2.756
10429SOL    HW132186   0.954   3.466   2.804
10429SOL    HW232187   1.113   3.432   2.822
10430SOL     OW32188   3.559   0.370   3.621
10430SOL    HW132189   3.626   0.437   3.652
10430SOL    HW232190   3.475   0.417   3.594
10431SOL     OW32191   3.214   2.163   4.071
10431SOL    HW132192   3.144   2.234   4.065
10431SOL    HW232193   3.201   2.111   4.155
10432SOL     OW32194   7.007   6.701   5.828
10432SOL    HW132195   6.947   6.622   5.837
10432SOL    HW232196   6.959   6.783   5.858
10433SOL     OW32197   2.028   6.776   2.075
10433SOL    HW132198   1.993   6.718   2.001
10433SOL    HW232199   2.049   6.719   2.155
10434SOL     OW32200   4.824   6.427   5.472
10434SOL    HW132201   4.769   6.420   5.555
10434SOL    HW232202   4.921   6.419   5.494
10435SOL     OW32203   0.879   2.402   6.526
10435SOL    HW132204   0.836   2.332   6.469
10435SOL    HW232205   0.921   2.472   6.468
10436SOL     OW32206   0.371   4.406   5.280
10436SOL    HW132207   0.390   4.370   5.189
10436SOL    HW232208   0.309   4.343   5.328
10437SOL     OW32209   5.852   5.039   5.182
10437SOL    HW132210   5.838   4.940   5.184
10437SOL    HW232211   5.944   5.060   5.215
10438SOL     OW32212   6.918   6.436   6.397
10438SOL    HW132213   6.838   6.397   6.352
10438SOL    HW232214   6.996   6.434   6.334
10439SOL     OW32215   7.023   0.202   4.204
10439SOL    HW132216   6.932   0.229   4.234
10439SOL    HW232217   0.031   0.128   4.261
10440SOL     OW32218   0.043   1.937   6.547
10440SOL    HW132219   0.127   1.917   6.598
10440SOL    HW232220   7.010   1.856   6.550
10441SOL     OW32221   3.427   2.252   0.708
10441SOL    HW132222   3.387   2.177   0.761
10441SOL    HW232223   3.470   2.318   0.770
10442SOL     OW32224   2.569   1.841   5.286
10442SOL    HW132225   2.572   1.941   5.279
10442SOL    HW232226   2.540   1.815   5.378
10443SOL     OW32227   0.052   1.126   2.971
10443SOL    HW132228   6.999   1.065   2.981
10443SOL    HW232229   0.115   1.111   3.047
10444SOL     OW32230   4.180   5.390   4.633
10444SOL    HW132231   4.139   5.360   4.548
10444SOL    HW232232   4.128   5.468   4.669
10445SOL     OW32233   1.902   4.531   2.654
10445SOL    HW132234   1.885   4.532   2.556
10445SOL    HW232235   1.869   4.445   2.693
10446SOL     OW32236   1.926   4.126   5.107
10446SOL    HW132237   1.905   4.072   5.025
10446SOL    HW232238   2.020   4.159   5.102
10447SOL     OW32239   0.183   1.618   2.967
10447SOL    HW132240   0.102   1.630   2.909
10447SOL    HW232241   0.247   1.556   2.923
10448SOL     OW32242   2.494   6.689   2.825
10448SOL    HW132243   2.500   6.594   2.794
10448SOL    HW232244   2.407   6.728   2.794
10449SOL     OW32245   3.565   6.083   6.711
10449SOL    HW132246   3.554   6.137   6.794
10449SOL    HW232247   3.602   5.993   6.734
10450SOL     OW32248   6.694   0.433   6.082
10450SOL    HW132249   6.600   0.399   6.081
10450SOL    HW232250   6.757   0.356   6.099
10451SOL     OW32251   2.075   0.787   3.984
10451SOL    HW132252   1.978   0.803   3.967
10451SOL    HW232253   2.121   0.874   4.002
10452SOL     OW32254   6.859   3.598   4.104
10452SOL    HW132255   6.877   3.527   4.173
10452SOL    HW232256   6.845   3.555   4.015
10453SOL     OW32257   4.435   5.466   3.634
10453SOL    HW132258   4.414   5.552   3.587
10453SOL    HW232259   4.468   5.485   3.726
10454SOL     OW32260   6.553   1.024   5.790
10454SOL    HW132261   6.524   1.058   5.880
10454SOL    HW232262   6.618   1.087   5.750
10455SOL     OW32263   6.154   6.610   4.182
10455SOL    HW132264   6.069   6.570   4.147
10455SOL    HW232265   6.148   6.710   4.177
10456SOL     OW32266   0.186   5.080   0.023
10456SOL    HW132267   0.102   5.127   7.022
10456SOL    HW232268   0.224   5.123   0.105
10457SOL     OW32269   3.993   2.566   0.191
10457SOL    HW132270   3.956   2.659   0.184
10457SOL    HW232271   4.028   2.538   0.102
10458SOL     OW32272   6.484   6.180   6.567
10458SOL    HW132273   6.427   6.107   6.529
10458SOL    HW232274   6.433   6.230   6.637
10459SOL     OW32275   0.084   5.814   0.525
10459SOL    HW132276   0.123   5.858   0.606
10459SOL    HW232277   7.018   5.848   0.510
10460SOL     OW32278   0.385   3.629   0.342
10460SOL    HW132279   0.315   3.696   0.317
10460SOL    HW232280   0.385   3.554   0.275
10461SOL     OW32281   0.270   5.203   5.008
10461SOL    HW132282   0.328   5.267   4.958
10461SOL    HW232283   0.198   5.253   5.055
10462SOL     OW32284   4.507   1.707   0.942
10462SOL    HW132285   4.525   1.650   1.022
10462SOL    HW232286   4.421   1.755   0.954
10463SOL     OW32287   4.975   2.953   5.848
10463SOL    HW132288   4.975   3.002   5.761
10463SOL    HW232289   4.881   2.925   5.870
10464SOL     OW32290   6.143   5.417   2.932
10464SOL    HW132291   6.132   5.352   3.007
10464SOL    HW232292   6.054   5.457   2.909
10465SOL     OW32293   5.788   3.709   1.809
10465SOL    HW132294   5.703   3.761   1.815
10465SOL    HW232295   5.832   3.727   1.720
10466SOL     OW32296   5.569   5.100   6.542
10466SOL    HW132297   5.609   5.087   6.451
10466SOL    HW232298   5.612   5.038   6.607
10467SOL     OW32299   1.872   2.735   6.668
10467SOL    HW132300   1.940   2.804   6.644
10467SOL    HW232301   1.786   2.755   6.622
10468SOL     OW32302   2.659   4.601   3.806
10468SOL    HW132303   2.739   4.647   3.846
10468SOL    HW232304   2.583   4.665   3.800
10469SOL     OW32305   5.874   1.495   5.447
10469SOL    HW132306   5.938   1.496   5.370
10469SOL    HW232307   5.781   1.486   5.413
10470SOL     OW32308   2.577   2.377   3.982
10470SOL    HW132309   2.556   2.288   4.023
10470SOL    HW232310   2.654   2.367   3.920
10471SOL     OW32311   2.718   0.822   0.390
10471SOL    HW132312   2.753   0.914   0.405
10471SOL    HW232313   2.622   0.818   0.420
10472SOL     OW32314   3.562   5.368   0.711
10472SOL    HW132315   3.633   5.438   0.722
10472SOL    HW232316   3.578   5.317   0.626
10473SOL     OW32317   5.226   4.762   6.598
10473SOL    HW132318   5.192   4.808   6.680
10473SOL    HW232319   5.238   4.665   6.617
10474SOL     OW32320   5.561   0.935   3.790
10474SOL    HW132321   5.464   0.942   3.813
10474SOL    HW232322   5.571   0.891   3.701
10475SOL     OW32323   1.519   6.132   1.773
10475SOL    HW132324   1.431   6.165   1.807
10475SOL    HW232325   1.565   6.080   1.844
10476SOL     OW32326   3.736   6.539   0.491
10476SOL    HW132327   3.645   6.580   0.487
10476SOL    HW232328   3.742   6.480   0.572
10477SOL     OW32329   6.413   6.461   3.896
10477SOL    HW132330   6.439   6.461   3.993
10477SOL    HW232331   6.378   6.552   3.871
10478SOL     OW32332   6.099   6.748   0.240
10478SOL    HW132333   6.011   6.794   0.253
10478SOL    HW232334   6.173   6.811   0.263
10479SOL     OW32335   0.095   2.195   2.519
10479SOL    HW132336   0.095   2.277   2.576
10479SOL    HW232337   0.009   2.189   2.468
10480SOL     OW32338   1.512   0.036   2.251
10480SOL    HW132339   1.437   0.087   2.293
10480SOL    HW232340   1.553   0.091   2.178
10481SOL     OW32341   0.558   0.270   3.294
10481SOL    HW132342   0.583   0.295   3.388
10481SOL    HW232343   0.566   0.171   3.282
10482SOL     OW32344   5.511   3.706   3.542
10482SOL    HW132345   5.570   3.781   3.572
10482SOL    HW232346   5.462   3.733   3.459
10483SOL     OW32347   5.709   5.139   0.209
10483SOL    HW132348   5.692   5.062   0.147
10483SOL    HW232349   5.670   5.119   0.299
10484SOL     OW32350   6.331   1.272   1.351
10484SOL    HW132351   6.310   1.339   1.423
10484SOL    HW232352   6.250   1.256   1.295
10485SOL     OW32353   4.619   3.740   5.863
10485SOL    HW132354   4.595   3.643   5.864
10485SOL    HW232355   4.575   3.784   5.784
10486SOL     OW32356   6.279   2.945   0.765
10486SOL    HW132357   6.374   2.974   0.778
10486SOL    HW232358   6.252   2.885   0.840
10487SOL     OW32359   5.959   6.191   1.335
10487SOL    HW132360   5.911   6.103   1.333
10487SOL    HW232361   6.055   6.176   1.358
10488SOL     OW32362   2.607   2.935   6.242
10488SOL    HW132363   2.662   2.953   6.160
10488SOL    HW232364   2.652   2.976   6.322
10489SOL     OW32365   6.916   5.774   6.124
10489SOL    HW132366   6.898   5.704   6.193
10489SOL    HW232367   6.940   5.860   6.168
10490SOL     OW32368   6.895   1.105   3.292
10490SOL    HW132369   6.949   1.190   3.294
10490SOL    HW232370   6.798   1.127   3.305
10491SOL     OW32371   2.007   4.006   6.386
10491SOL    HW132372   1.998   4.058   6.301
10491SOL    HW232373   2.035   4.067   6.460
10492SOL     OW32374   4.893   3.550   5.312
10492SOL    HW132375   4.816   3.581   5.257
10492SOL    HW232376   4.892   3.451   5.319
10493SOL     OW32377   3.456   0.661   1.384
10493SOL    HW132378   3.377   0.722   1.390
10493SOL    HW232379   3.526   0.701   1.325
10494SOL     OW32380   5.702   2.091   4.201
10494SOL    HW132381   5.615   2.141   4.205
10494SOL    HW232382   5.776   2.149   4.235
10495SOL     OW32383   1.981   0.219   0.580
10495SOL    HW132384   1.965   0.215   0.679
10495SOL    HW232385   1.898   0.192   0.531
10496SOL     OW32386   6.696   0.092   0.175
10496SOL    HW132387   6.735   0.146   0.249
10496SOL    HW232388   6.759   0.089   0.097
10497SOL     OW32389   1.424   0.298   0.832
10497SOL    HW132390   1.386   0.390   0.831
10497SOL    HW232391   1.515   0.300   0.874
10498SOL     OW32392   1.986   6.919   7.019
10498SOL    HW132393   1.965   6.960   6.930
10498SOL    HW232394   2.075   6.873   7.014
10499SOL     OW32395   2.783   6.141   3.118
10499SOL    HW132396   2.870   6.182   3.147
10499SOL    HW232397   2.747   6.083   3.192
10500SOL     OW32398   0.818   2.268   5.797
10500SOL    HW132399   0.842   2.301   5.889
10500SOL    HW232400   0.836   2.341   5.731
10501SOL     OW32401   2.180   4.573   2.673
10501SOL    HW132402   2.224   4.541   2.589
10501SOL    HW232403   2.082   4.552   2.668
10502SOL     OW32404   3.249   6.950   0.297
10502SOL    HW132405   3.228   7.004   0.216
10502SOL    HW232406   3.305   6.871   0.272
10503SOL     OW32407   4.000   2.867   0.326
10503SOL    HW132408   4.064   2.932   0.367
10503SOL    HW232409   3.926   2.847   0.391
10504SOL     OW32410   2.231   2.918   0.312
10504SOL    HW132411   2.285   2.834   0.326
10504SOL    HW232412   2.134   2.894   0.306
10505SOL     OW32413   6.325   5.867   0.701
10505SOL    HW132414   6.250   5.898   0.641
10505SOL    HW232415   6.361   5.945   0.751
10506SOL     OW32416   0.397   4.432   6.493
10506SOL    HW132417   0.432   4.489   6.566
10506SOL    HW232418   0.300   4.452   6.478
10507SOL     OW32419   1.709   0.554   6.231
10507SOL    HW132420   1.661   0.468   6.252
10507SOL    HW232421   1.678   0.588   6.142
10508SOL     OW32422   5.930   5.202   3.360
10508SOL    HW132423   5.928   5.103   3.344
10508SOL    HW232424   5.871   5.248   3.294
10509SOL     OW32425   0.966   6.746   6.965
10509SOL    HW132426   1.060   6.772   6.943
10509SOL    HW232427   0.938   6.791   0.024
10510SOL     OW32428   5.714   5.091   6.306
10510SOL    HW132429   5.647   5.079   6.233
10510SOL    HW232430   5.795   5.035   6.287
10511SOL     OW32431   4.280   2.909   0.679
10511SOL    HW132432   4.198   2.855   0.693
10511SOL    HW232433   4.301   2.913   0.582
10512SOL     OW32434   4.755   0.426   6.752
10512SOL    HW132435   4.658   0.405   6.759
10512SOL    HW232436   4.783   0.480   6.831
10513SOL     OW32437   0.418   1.983   6.077
10513SOL    HW132438   0.488   1.961   6.145
10513SOL    HW232439   0.409   1.907   6.012
10514SOL     OW32440   6.336   4.086   0.345
10514SOL    HW132441   6.335   3.990   0.374
10514SOL    HW232442   6.310   4.092   0.249
10515SOL     OW32443   6.634   1.639   2.904
10515SOL    HW132444   6.636   1.559   2.844
10515SOL    HW232445   6.706   1.702   2.877
10516SOL     OW32446   4.578   0.911   6.680
10516SOL    HW132447   4.517   0.953   6.612
10516SOL    HW232448   4.673   0.928   6.654
10517SOL     OW32449   6.588   1.877   2.681
10517SOL    HW132450   6.667   1.843   2.731
10517SOL    HW232451   6.505   1.838   2.720
10518SOL     OW32452   1.119   5.610   0.408
10518SOL    HW132453   1.081   5.526   0.369
10518SOL    HW232454   1.211   5.625   0.372
10519SOL     OW32455   3.351   2.787   5.946
10519SOL    HW132456   3.346   2.743   5.856
10519SOL    HW232457   3.296   2.870   5.945
10520SOL     OW32458   2.980   2.835   6.391
10520SOL    HW132459   2.992   2.746   6.436
10520SOL    HW232460   2.888   2.870   6.412
10521SOL     OW32461   6.288   6.477   1.031
10521SOL    HW132462   6.263   6.562   1.077
10521SOL    HW232463   6.223   6.405   1.057
10522SOL     OW32464   6.522   1.046   0.273
10522SOL    HW132465   6.572   0.972   0.317
10522SOL    HW232466   6.517   1.029   0.174
10523SOL     OW32467   0.235   5.566   5.813
10523SOL    HW132468   0.332   5.550   5.829
10523SOL    HW232469   0.194   5.485   5.772
10524SOL     OW32470   2.046   7.006   4.046
10524SOL    HW132471   1.992   6.922   4.052
10524SOL    HW232472   2.055   0.019   4.138
10525SOL     OW32473   2.293   6.426   5.396
10525SOL    HW132474   2.228   6.468   5.333
10525SOL    HW232475   2.338   6.497   5.450
10526SOL     OW32476   0.429   1.141   2.385
10526SOL    HW132477   0.466   1.143   2.292
10526SOL    HW232478   0.418   1.045   2.414
10527SOL     OW32479   1.097   2.568   4.659
10527SOL    HW132480   1.098   2.611   4.749
10527SOL    HW232481   1.073   2.471   4.669
10528SOL     OW32482   0.967   4.655   5.216
10528SOL    HW132483   1.016   4.678   5.299
10528SOL    HW232484   0.869   4.669   5.230
10529SOL     OW32485   0.490   6.180   3.430
10529SOL    HW132486   0.528   6.259   3.480
10529SOL    HW232487   0.560   6.110   3.422
10530SOL     OW32488   2.642   1.947   6.044
10530SOL    HW132489   2.702   2.009   5.993
10530SOL    HW232490   2.578   2.001   6.099
10531SOL     OW32491   1.866   3.662   4.534
10531SOL    HW132492   1.949   3.715   4.517
10531SOL    HW232493   1.867   3.626   4.627
10532SOL     OW32494   2.750   2.579   6.865
10532SOL    HW132495   2.843   2.587   6.900
10532SOL    HW232496   2.686   2.571   6.942
10533SOL     OW32497   3.260   1.359   4.883
10533SOL    HW132498   3.272   1.278   4.825
10533SOL    HW232499   3.348   1.407   4.891
10534SOL     OW32500   6.931   6.046   1.196
10534SOL    HW132501   6.972   6.103   1.126
10534SOL    HW232502   6.985   5.963   1.208
10535SOL     OW32503   0.014   1.295   2.318
10535SOL    HW132504   0.011   1.292   2.218
10535SOL    HW232505   0.107   1.315   2.348
10536SOL     OW32506   4.855   0.449   3.198
10536SOL    HW132507   4.844   0.512   3.275
10536SOL    HW232508   4.861   0.355   3.232
10537SOL     OW32509   2.771   5.554   3.199
10537SOL    HW132510   2.683   5.599   3.213
10537SOL    HW232511   2.817   5.544   3.287
10538SOL     OW32512   4.129   3.747   6.563
10538SOL    HW132513   4.223   3.769   6.590
10538SOL    HW232514   4.129   3.669   6.500
10539SOL     OW32515   0.818   3.930   6.154
10539SOL    HW132516   0.894   3.864   6.150
10539SOL    HW232517   0.745   3.892   6.211
10540SOL     OW32518   1.609   0.808   5.446
10540SOL    HW132519   1.521   0.853   5.430
10540SOL    HW232520   1.676   0.875   5.478
10541SOL     OW32521   4.005   3.507   0.996
10541SOL    HW132522   3.920   3.511   0.945
10541SOL    HW232523   3.986   3.478   1.090
10542SOL     OW32524   0.433   1.482   0.609
10542SOL    HW132525   0.367   1.425   0.560
10542SOL    HW232526   0.522   1.438   0.609
10543SOL     OW32527   0.256   1.766   5.701
10543SOL    HW132528   0.159   1.774   5.679
10543SOL    HW232529   0.284   1.671   5.695
10544SOL     OW32530   2.596   2.100   2.487
10544SOL    HW132531   2.650   2.183   2.472
10544SOL    HW232532   2.577   2.055   2.400
10545SOL     OW32533   6.946   0.135   2.281
10545SOL    HW132534   6.911   0.143   2.374
10545SOL    HW232535   6.889   0.188   2.219
10546SOL     OW32536   1.517   7.016   5.101
10546SOL    HW132537   1.533   6.918   5.112
10546SOL    HW232538   1.422   0.011   5.123
10547SOL     OW32539   4.478   1.165   2.041
10547SOL    HW132540   4.478   1.149   2.139
10547SOL    HW232541   4.405   1.229   2.017
10548SOL     OW32542   5.178   3.737   4.721
10548SOL    HW132543   5.090   3.690   4.732
10548SOL    HW232544   5.235   3.688   4.657
10549SOL     OW32545   0.399   0.621   2.196
10549SOL    HW132546   0.437   0.559   2.265
10549SOL    HW232547   0.409   0.716   2.227
10550SOL     OW32548   5.235   6.682   4.238
10550SOL    HW132549   5.196   6.766   4.277
10550SOL    HW232550   5.161   6.618   4.215
10551SOL     OW32551   1.304   2.423   5.246
10551SOL    HW132552   1.339   2.369   5.323
10551SOL    HW232553   1.209   2.448   5.263
10552SOL     OW32554   4.343   1.736   5.571
10552SOL    HW132555   4.278   1.782   5.511
10552SOL    HW232556   4.362   1.645   5.535
10553SOL     OW32557   0.619   5.171   1.073
10553SOL    HW132558   0.601   5.073   1.075
10553SOL    HW232559   0.612   5.204   0.979
10554SOL     OW32560   5.980   5.067   6.834
10554SOL    HW132561   5.905   5.084   6.769
10554SOL    HW232562   6.049   5.010   6.791
10555SOL     OW32563   3.090   1.908   1.669
10555SOL    HW132564   3.169   1.951   1.625
10555SOL    HW232565   3.111   1.813   1.692
10556SOL     OW32566   2.043   3.262   5.152
10556SOL    HW132567   2.114   3.199   5.120
10556SOL    HW232568   1.959   3.211   5.171
10557SOL     OW32569   0.358   2.316   3.151
10557SOL    HW132570   0.412   2.265   3.217
10557SOL    HW232571   0.418   2.371   3.093
10558SOL     OW32572   4.527   6.571   5.267
10558SOL    HW132573   4.542   6.625   5.350
10558SOL    HW232574   4.601   6.588   5.202
10559SOL     OW32575   3.886   1.632   0.956
10559SOL    HW132576   3.900   1.565   0.883
10559SOL    HW232577   3.873   1.723   0.916
10560SOL     OW32578   1.574   4.856   5.167
10560SOL    HW132579   1.550   4.911   5.087
10560SOL    HW232580   1.604   4.765   5.137
10561SOL     OW32581   1.890   5.240   0.305
10561SOL    HW132582   1.806   5.195   0.334
10561SOL    HW232583   1.925   5.197   0.222
10562SOL     OW32584   4.584   0.110   0.901
10562SOL    HW132585   4.630   0.131   0.814
10562SOL    HW232586   4.522   0.033   0.888
10563SOL     OW32587   1.904   1.383   4.680
10563SOL    HW132588   1.987   1.331   4.700
10563SOL    HW232589   1.928   1.461   4.622
10564SOL     OW32590   5.885   0.331   1.254
10564SOL    HW132591   5.957   0.393   1.286
10564SOL    HW232592   5.842   0.286   1.332
10565SOL     OW32593   6.685   1.123   5.251
10565SOL    HW132594   6.709   1.220   5.242
10565SOL    HW232595   6.760   1.067   5.217
10566SOL     OW32596   3.958   3.740   6.249
10566SOL    HW132597   4.040   3.723   6.195
10566SOL    HW232598   3.882   3.764   6.188
10567SOL     OW32599   1.902   3.341   4.411
10567SOL    HW132600   1.836   3.371   4.481
10567SOL    HW232601   1.983   3.400   4.414
10568SOL     OW32602   5.629   1.159   2.334
10568SOL    HW132603   5.678   1.245   2.346
10568SOL    HW232604   5.546   1.160   2.390
10569SOL     OW32605   6.660   3.396   2.537
10569SOL    HW132606   6.618   3.458   2.471
10569SOL    HW232607   6.617   3.410   2.627
10570SOL     OW32608   1.804   4.802   2.698
10570SOL    HW132609   1.728   4.798   2.634
10570SOL    HW232610   1.856   4.717   2.695
10571SOL     OW32611   6.414   5.521   3.581
10571SOL    HW132612   6.336   5.558   3.532
10571SOL    HW232613   6.473   5.595   3.611
10572SOL     OW32614   5.658   3.600   2.734
10572SOL    HW132615   5.674   3.534   2.661
10572SOL    HW232616   5.714   3.577   2.813
10573SOL     OW32617   5.744   5.918   3.391
10573SOL    HW132618   5.653   5.956   3.371
10573SOL    HW232619   5.738   5.859   3.471
10574SOL     OW32620   1.603   2.233   3.871
10574SOL    HW132621   1.582   2.158   3.934
10574SOL    HW232622   1.557   2.217   3.784
10575SOL     OW32623   0.360   0.604   3.984
10575SOL    HW132624   0.304   0.687   3.994
10575SOL    HW232625   0.457   0.629   3.989
10576SOL     OW32626   1.279   5.826   5.239
10576SOL    HW132627   1.298   5.919   5.270
10576SOL    HW232628   1.233   5.830   5.150
10577SOL     OW32629   2.064   3.131   6.747
10577SOL    HW132630   1.968   3.106   6.757
10577SOL    HW232631   2.094   3.113   6.654
10578SOL     OW32632   5.874   0.609   4.973
10578SOL    HW132633   5.840   0.546   5.043
10578SOL    HW232634   5.850   0.574   4.882
10579SOL     OW32635   3.781   1.002   0.579
10579SOL    HW132636   3.704   1.036   0.635
10579SOL    HW232637   3.794   0.905   0.596
10580SOL     OW32638   6.590   6.512   6.504
10580SOL    HW132639   6.498   6.514   6.541
10580SOL    HW232640   6.649   6.571   6.558
10581SOL     OW32641   6.118   0.356   3.084
10581SOL    HW132642   6.043   0.327   3.024
10581SOL    HW232643   6.175   0.276   3.106
10582SOL     OW32644   3.544   4.879   0.311
10582SOL    HW132645   3.639   4.860   0.284
10582SOL    HW232646   3.483   4.814   0.264
10583SOL     OW32647   3.973   0.725   6.311
10583SOL    HW132648   4.061   0.700   6.270
10583SOL    HW232649   3.987   0.756   6.404
10584SOL     OW32650   5.430   6.044   1.445
10584SOL    HW132651   5.514   6.088   1.477
10584SOL    HW232652   5.411   5.963   1.500
10585SOL     OW32653   1.360   3.306   5.854
10585SOL    HW132654   1.282   3.343   5.803
10585SOL    HW232655   1.333   3.219   5.897
10586SOL     OW32656   2.557   6.200   5.809
10586SOL    HW132657   2.561   6.164   5.902
10586SOL    HW232658   2.464   6.187   5.772
10587SOL     OW32659   6.033   3.457   0.372
10587SOL    HW132660   6.067   3.394   0.303
10587SOL    HW232661   5.982   3.407   0.441
10588SOL     OW32662   0.813   4.543   2.323
10588SOL    HW132663   0.861   4.457   2.344
10588SOL    HW232664   0.725   4.523   2.282
10589SOL     OW32665   5.715   2.526   4.206
10589SOL    HW132666   5.719   2.566   4.115
10589SOL    HW232667   5.634   2.467   4.213
10590SOL     OW32668   1.291   6.729   2.764
10590SOL    HW132669   1.206   6.770   2.797
10590SOL    HW232670   1.335   6.790   2.698
10591SOL     OW32671   1.766   1.718   5.643
10591SOL    HW132672   1.800   1.645   5.703
10591SOL    HW232673   1.695   1.682   5.583
10592SOL     OW32674   6.478   1.356   6.942
10592SOL    HW132675   6.424   1.275   6.921
10592SOL    HW232676   6.575   1.332   6.942
10593SOL     OW32677   2.654   6.399   1.231
10593SOL    HW132678   2.558   6.419   1.213
10593SOL    HW232679   2.696   6.477   1.277
10594SOL     OW32680   6.393   1.477   3.676
10594SOL    HW132681   6.444   1.437   3.600
10594SOL    HW232682   6.298   1.491   3.648
10595SOL     OW32683   3.268   6.939   5.695
10595SOL    HW132684   3.235   6.946   5.789
10595SOL    HW232685   3.300   6.846   5.678
10596SOL     OW32686   4.027   6.654   2.205
10596SOL    HW132687   3.998   6.712   2.282
10596SOL    HW232688   3.985   6.686   2.121
10597SOL     OW32689   2.506   0.916   4.778
10597SOL    HW132690   2.460   0.898   4.865
10597SOL    HW232691   2.482   1.007   4.746
10598SOL     OW32692   2.031   2.541   6.759
10598SOL    HW132693   2.120   2.564   6.719
10598SOL    HW232694   1.961   2.603   6.723
10599SOL     OW32695   6.175   1.643   6.915
10599SOL    HW132696   6.267   1.620   6.882
10599SOL    HW232697   6.179   1.730   6.964
10600SOL     OW32698   2.590   3.318   6.376
10600SOL    HW132699   2.605   3.228   6.418
10600SOL    HW232700   2.501   3.318   6.331
10601SOL     OW32701   2.844   6.215   6.207
10601SOL    HW132702   2.799   6.232   6.295
10601SOL    HW232703   2.805   6.277   6.138
10602SOL     OW32704   4.660   1.048   1.423
10602SOL    HW132705   4.693   0.986   1.352
10602SOL    HW232706   4.701   1.138   1.410
10603SOL     OW32707   1.302   6.336   3.670
10603SOL    HW132708   1.211   6.363   3.639
10603SOL    HW232709   1.318   6.241   3.644
10604SOL     OW32710   6.155   4.058   4.894
10604SOL    HW132711   6.119   3.968   4.921
10604SOL    HW232712   6.143   4.122   4.970
10605SOL     OW32713   1.068   4.963   0.526
10605SOL    HW132714   0.975   4.929   0.513
10605SOL    HW232715   1.073   5.017   0.610
10606SOL     OW32716   6.980   0.916   1.504
10606SOL    HW132717   6.908   0.949   1.443
10606SOL    HW232718   0.033   0.888   1.449
10607SOL     OW32719   4.327   4.681   6.169
10607SOL    HW132720   4.233   4.695   6.201
10607SOL    HW232721   4.391   4.693   6.245
10608SOL     OW32722   5.970   1.500   4.553
10608SOL    HW132723   6.034   1.546   4.491
10608SOL    HW232724   5.907   1.444   4.500
10609SOL     OW32725   3.962   6.236   1.146
10609SOL    HW132726   3.882   6.295   1.135
10609SOL    HW232727   3.938   6.157   1.202
10610SOL     OW32728   1.248   3.901   6.365
10610SOL    HW132729   1.342   3.931   6.381
10610SOL    HW232730   1.248   3.803   6.343
10611SOL     OW32731   5.575   2.962   6.570
10611SOL    HW132732   5.552   2.987   6.664
10611SOL    HW232733   5.592   3.045   6.517
10612SOL     OW32734   2.108   0.342   6.489
10612SOL    HW132735   2.157   0.332   6.576
10612SOL    HW232736   2.170   0.324   6.413
10613SOL     OW32737   6.949   0.328   5.522
10613SOL    HW132738   6.972   0.254   5.586
10613SOL    HW232739   6.915   0.289   5.437
10614SOL     OW32740   6.631   0.682   4.594
10614SOL    HW132741   6.592   0.702   4.504
10614SOL    HW232742   6.581   0.733   4.664
10615SOL     OW32743   4.572   5.557   5.447
10615SOL    HW132744   4.489   5.564   5.392
10615SOL    HW232745   4.615   5.647   5.452
10616SOL     OW32746   2.737   6.194   0.240
10616SOL    HW132747   2.784   6.116   0.280
10616SOL    HW232748   2.654   6.163   0.193
10617SOL     OW32749   2.396   2.698   0.225
10617SOL    HW132750   2.300   2.676   0.240
10617SOL    HW232751   2.443   2.705   0.313
10618SOL     OW32752   6.024   2.118   0.510
10618SOL    HW132753   6.121   2.096   0.518
10618SOL    HW232754   6.010   2.180   0.433
10619SOL     OW32755   0.857   3.871   3.261
10619SOL    HW132756   0.861   3.771   3.252
10619SOL    HW232757   0.797   3.908   3.191
10620SOL     OW32758   1.305   6.241   5.698
10620SOL    HW132759   1.258   6.221   5.612
10620SOL    HW232760   1.240   6.280   5.763
10621SOL     OW32761   1.200   5.938   6.908
10621SOL    HW132762   1.279   5.996   6.927
10621SOL    HW232763   1.130   5.955   6.978
10622SOL     OW32764   4.009   1.019   1.950
10622SOL    HW132765   3.981   0.969   1.868
10622SOL    HW232766   4.019   1.116   1.928
10623SOL     OW32767   5.477   2.742   3.742
10623SOL    HW132768   5.548   2.800   3.781
10623SOL    HW232769   5.518   2.678   3.678
10624SOL     OW32770   1.875   1.024   4.573
10624SOL    HW132771   1.924   1.092   4.518
10624SOL    HW232772   1.776   1.040   4.565
10625SOL     OW32773   0.932   4.200   6.772
10625SOL    HW132774   0.875   4.275   6.806
10625SOL    HW232775   0.892   4.113   6.801
10626SOL     OW32776   0.874   2.438   1.330
10626SOL    HW132777   0.897   2.363   1.268
10626SOL    HW232778   0.856   2.521   1.278
10627SOL     OW32779   6.799   6.146   2.573
10627SOL    HW132780   6.720   6.084   2.579
10627SOL    HW232781   6.865   6.122   2.644
10628SOL     OW32782   6.396   5.244   5.241
10628SOL    HW132783   6.388   5.149   5.211
10628SOL    HW232784   6.491   5.264   5.265
10629SOL     OW32785   2.398   4.890   5.823
10629SOL    HW132786   2.455   4.826   5.875
10629SOL    HW232787   2.420   4.884   5.726
10630SOL     OW32788   6.426   0.561   3.043
10630SOL    HW132789   6.358   0.497   3.079
10630SOL    HW232790   6.436   0.638   3.106
10631SOL     OW32791   0.711   6.913   3.770
10631SOL    HW132792   0.625   6.878   3.734
10631SOL    HW232793   0.731   6.869   3.858
10632SOL     OW32794   6.507   2.159   4.408
10632SOL    HW132795   6.432   2.160   4.342
10632SOL    HW232796   6.471   2.174   4.500
10633SOL     OW32797   2.407   5.062   1.561
10633SOL    HW132798   2.460   5.044   1.644
10633SOL    HW232799   2.342   5.135   1.577
10634SOL     OW32800   2.895   5.866   0.995
10634SOL    HW132801   2.877   5.788   0.935
10634SOL    HW232802   2.877   5.839   1.090
10635SOL     OW32803   3.162   1.069   0.876
10635SOL    HW132804   3.201   1.116   0.797
10635SOL    HW232805   3.199   1.109   0.960
10636SOL     OW32806   0.481   1.900   1.413
10636SOL    HW132807   0.535   1.821   1.384
10636SOL    HW232808   0.502   1.979   1.355
10637SOL     OW32809   3.460   4.039   4.920
10637SOL    HW132810   3.437   3.954   4.968
10637SOL    HW232811   3.525   4.092   4.975
10638SOL     OW32812   0.227   6.526   4.372
10638SOL    HW132813   0.208   6.453   4.306
10638SOL    HW232814   0.234   6.487   4.464
10639SOL     OW32815   1.060   1.164   4.738
10639SOL    HW132816   0.984   1.213   4.782
10639SOL    HW232817   1.092   1.091   4.798
10640SOL     OW32818   4.879   0.673   0.165
10640SOL    HW132819   4.851   0.612   0.239
10640SOL    HW232820   4.967   0.642   0.129
10641SOL     OW32821   5.111   2.001   0.110
10641SOL    HW132822   5.103   2.097   0.135
10641SOL    HW232823   5.021   1.957   0.117
10642SOL     OW32824   0.311   2.169   1.502
10642SOL    HW132825   0.227   2.223   1.502
10642SOL    HW232826   0.289   2.072   1.502
10643SOL     OW32827   2.252   3.845   5.338
10643SOL    HW132828   2.305   3.903   5.276
10643SOL    HW232829   2.264   3.749   5.312
10644SOL     OW32830   4.716   1.365   3.824
10644SOL    HW132831   4.777   1.294   3.860
10644SOL    HW232832   4.621   1.339   3.842
10645SOL     OW32833   1.161   0.772   4.659
10645SOL    HW132834   1.138   0.762   4.563
10645SOL    HW232835   1.247   0.725   4.679
10646SOL     OW32836   0.562   2.850   5.719
10646SOL    HW132837   0.636   2.796   5.759
10646SOL    HW232838   0.488   2.859   5.786
10647SOL     OW32839   6.657   4.960   0.358
10647SOL    HW132840   6.733   5.017   0.388
10647SOL    HW232841   6.648   4.881   0.418
10648SOL     OW32842   4.810   2.977   6.148
10648SOL    HW132843   4.867   2.900   6.178
10648SOL    HW232844   4.784   3.032   6.228
10649SOL     OW32845   0.252   5.153   5.422
10649SOL    HW132846   0.166   5.116   5.386
10649SOL    HW232847   0.278   5.102   5.504
10650SOL     OW32848   2.117   6.106   3.883
10650SOL    HW132849   2.126   6.110   3.784
10650SOL    HW232850   2.151   6.190   3.924
10651SOL     OW32851   4.528   6.546   6.034
10651SOL    HW132852   4.613   6.541   5.982
10651SOL    HW232853   4.522   6.467   6.095
10652SOL     OW32854   3.231   0.257   6.049
10652SOL    HW132855   3.158   0.206   6.004
10652SOL    HW232856   3.204   0.281   6.142
10653SOL     OW32857   4.797   4.377   4.586
10653SOL    HW132858   4.713   4.343   4.544
10653SOL    HW232859   4.858   4.412   4.516
10654SOL     OW32860   2.736   0.753   1.103
10654SOL    HW132861   2.667   0.762   1.032
10654SOL    HW232862   2.785   0.840   1.113
10655SOL     OW32863   2.910   5.768   1.968
10655SOL    HW132864   2.825   5.744   1.921
10655SOL    HW232865   2.907   5.731   2.061
10656SOL     OW32866   5.981   2.285   0.318
10656SOL    HW132867   6.029   2.299   0.231
10656SOL    HW232868   5.890   2.326   0.313
10657SOL     OW32869   5.715   6.782   1.015
10657SOL    HW132870   5.690   6.829   0.930
10657SOL    HW232871   5.638   6.726   1.046
10658SOL     OW32872   1.440   4.996   4.303
10658SOL    HW132873   1.394   4.925   4.250
10658SOL    HW232874   1.536   5.002   4.275
10659SOL     OW32875   5.836   0.001   0.824
10659SOL    HW132876   5.904   7.007   0.894
10659SOL    HW232877   5.847   6.963   0.748
10660SOL     OW32878   4.106   3.928   5.700
10660SOL    HW132879   4.042   4.001   5.724
10660SOL    HW232880   4.134   3.938   5.604
10661SOL     OW32881   0.405   6.712   1.804
10661SOL    HW132882   0.317   6.670   1.826
10661SOL    HW232883   0.475   6.680   1.867
10662SOL     OW32884   6.858   1.284   0.533
10662SOL    HW132885   6.881   1.340   0.453
10662SOL    HW232886   6.939   1.273   0.591
10663SOL     OW32887   0.541   0.691   1.152
10663SOL    HW132888   0.580   0.641   1.230
10663SOL    HW232889   0.514   0.625   1.081
10664SOL     OW32890   2.236   4.802   0.414
10664SOL    HW132891   2.330   4.789   0.383
10664SOL    HW232892   2.215   4.735   0.485
10665SOL     OW32893   7.002   2.018   0.376
10665SOL    HW132894   6.903   2.014   0.363
10665SOL    HW232895   7.025   2.089   0.443
10666SOL     OW32896   2.822   5.989   6.923
10666SOL    HW132897   2.811   6.043   6.839
10666SOL    HW232898   2.915   5.953   6.926
10667SOL     OW32899   3.912   1.802   5.515
10667SOL    HW132900   3.911   1.879   5.579
10667SOL    HW232901   3.858   1.727   5.551
10668SOL     OW32902   1.500   1.975   6.336
10668SOL    HW132903   1.596   2.003   6.340
10668SOL    HW232904   1.493   1.888   6.287
10669SOL     OW32905   1.596   0.318   0.181
10669SOL    HW132906   1.552   0.289   0.096
10669SOL    HW232907   1.529   0.358   0.242
10670SOL     OW32908   5.638   4.772   5.957
10670SOL    HW132909   5.609   4.683   5.992
10670SOL    HW232910   5.737   4.773   5.946
10671SOL     OW32911   2.301   2.634   2.821
10671SOL    HW132912   2.370   2.657   2.889
10671SOL    HW232913   2.277   2.716   2.769
10672SOL     OW32914   0.294   2.555   0.649
10672SOL    HW132915   0.366   2.610   0.690
10672SOL    HW232916   0.214   2.554   0.709
10673SOL     OW32917   2.788   3.219   5.275
10673SOL    HW132918   2.861   3.161   5.312
10673SOL    HW232919   2.708   3.164   5.254
10674SOL     OW32920   4.021   3.738   1.685
10674SOL    HW132921   4.029   3.716   1.588
10674SOL    HW232922   4.078   3.676   1.738
10675SOL     OW32923   0.081   6.830   5.390
10675SOL    HW132924   0.072   6.818   5.489
10675SOL    HW232925   0.149   6.766   5.355
10676SOL     OW32926   5.785   0.186   6.540
10676SOL    HW132927   5.843   0.133   6.478
10676SOL    HW232928   5.832   0.201   6.626
10677SOL     OW32929   0.145   0.827   1.334
10677SOL    HW132930   0.190   0.746   1.372
10677SOL    HW232931   0.213   0.891   1.301
10678SOL     OW32932   2.328   5.846   2.258
10678SOL    HW132933   2.359   5.926   2.308
10678SOL    HW232934   2.334   5.765   2.317
10679SOL     OW32935   5.942   5.217   4.169
10679SOL    HW132936   5.843   5.205   4.155
10679SOL    HW232937   5.970   5.305   4.129
10680SOL     OW32938   1.043   3.188   2.297
10680SOL    HW132939   1.133   3.217   2.266
10680SOL    HW232940   1.047   3.160   2.393
10681SOL     OW32941   6.627   2.812   5.729
10681SOL    HW132942   6.615   2.787   5.825
10681SOL    HW232943   6.539   2.809   5.682
10682SOL     OW32944   0.149   1.924   1.775
10682SOL    HW132945   0.188   2.011   1.806
10682SOL    HW232946   0.064   1.941   1.726
10683SOL     OW32947   1.800   2.363   4.488
10683SOL    HW132948   1.742   2.431   4.533
10683SOL    HW232949   1.775   2.357   4.391
10684SOL     OW32950   5.909   4.436   7.018
10684SOL    HW132951   5.856   4.410   0.073
10684SOL    HW232952   5.930   4.355   6.964
10685SOL     OW32953   0.572   3.445   3.582
10685SOL    HW132954   0.576   3.536   3.540
10685SOL    HW232955   0.509   3.387   3.530
10686SOL     OW32956   2.827   5.968   0.351
10686SOL    HW132957   2.891   5.923   0.289
10686SOL    HW232958   2.870   5.981   0.441
10687SOL     OW32959   6.951   5.137   2.676
10687SOL    HW132960   6.931   5.046   2.638
10687SOL    HW232961   6.894   5.205   2.632
10688SOL     OW32962   6.879   5.122   1.774
10688SOL    HW132963   6.861   5.025   1.757
10688SOL    HW232964   6.793   5.168   1.796
10689SOL     OW32965   0.043   0.453   2.714
10689SOL    HW132966   0.088   0.462   2.803
10689SOL    HW232967   0.035   0.544   2.673
10690SOL     OW32968   4.454   5.005   2.278
10690SOL    HW132969   4.524   5.075   2.294
10690SOL    HW232970   4.431   4.962   2.365
10691SOL     OW32971   6.893   1.237   1.535
10691SOL    HW132972   6.952   1.217   1.457
10691SOL    HW232973   6.831   1.160   1.551
10692SOL     OW32974   3.814   5.741   4.029
10692SOL    HW132975   3.890   5.677   4.020
10692SOL    HW232976   3.795   5.783   3.941
10693SOL     OW32977   6.991   1.374   1.756
10693SOL    HW132978   0.058   1.409   1.741
10693SOL    HW232979   6.964   1.319   1.677
10694SOL     OW32980   4.296   6.248   0.967
10694SOL    HW132981   4.218   6.273   0.911
10694SOL    HW232982   4.329   6.329   1.017
10695SOL     OW32983   6.953   2.448   4.382
10695SOL    HW132984   6.897   2.447   4.299
10695SOL    HW232985   6.903   2.409   4.458
10696SOL     OW32986   6.919   6.204   1.453
10696SOL    HW132987   6.879   6.285   1.411
10696SOL    HW232988   6.948   6.140   1.382
10697SOL     OW32989   1.218   6.325   4.629
10697SOL    HW132990   1.119   6.323   4.642
10697SOL    HW232991   1.245   6.246   4.574
10698SOL     OW32992   2.891   0.320   3.735
10698SOL    HW132993   2.922   0.306   3.641
10698SOL    HW232994   2.810   0.378   3.735
10699SOL     OW32995   3.759   1.861   2.701
10699SOL    HW132996   3.721   1.926   2.635
10699SOL    HW232997   3.798   1.911   2.778
10700SOL     OW32998   6.855   6.629   1.042
10700SOL    HW132999   6.782   6.642   1.109
10700SOL    HW233000   6.944   6.628   1.089
10701SOL     OW33001   3.273   6.568   0.264
10701SOL    HW133002   3.191   6.609   0.225
10701SOL    HW233003   3.343   6.561   0.193
10702SOL     OW33004   5.947   2.619   0.357
10702SOL    HW133005   5.995   2.553   0.299
10702SOL    HW233006   5.967   2.711   0.325
10703SOL     OW33007   3.875   4.016   3.536
10703SOL    HW133008   3.831   4.051   3.618
10703SOL    HW233009   3.928   3.934   3.559
10704SOL     OW33010   5.305   0.114   2.178
10704SOL    HW133011   5.217   0.131   2.132
10704SOL    HW233012   5.347   0.202   2.201
10705SOL     OW33013   0.574   2.973   6.018
10705SOL    HW133014   0.508   2.908   5.980
10705SOL    HW233015   0.528   3.059   6.039
10706SOL     OW33016   3.300   0.670   1.727
10706SOL    HW133017   3.312   0.604   1.653
10706SOL    HW233018   3.213   0.717   1.716
10707SOL     OW33019   5.958   0.149   5.819
10707SOL    HW133020   5.895   0.097   5.762
10707SOL    HW233021   5.930   0.142   5.915
10708SOL     OW33022   4.535   1.025   0.389
10708SOL    HW133023   4.562   1.115   0.355
10708SOL    HW233024   4.486   0.976   0.317
10709SOL     OW33025   6.069   6.644   5.117
10709SOL    HW133026   6.071   6.721   5.181
10709SOL    HW233027   6.155   6.639   5.067
10710SOL     OW33028   6.105   5.010   4.040
10710SOL    HW133029   6.163   5.055   3.972
10710SOL    HW233030   6.064   5.078   4.100
10711SOL     OW33031   1.571   7.014   3.858
10711SOL    HW133032   1.609   0.010   3.947
10711SOL    HW233033   1.607   0.051   3.789
10712SOL     OW33034   3.712   1.455   5.389
10712SOL    HW133035   3.759   1.500   5.465
10712SOL    HW233036   3.779   1.403   5.335
10713SOL     OW33037   1.247   5.827   1.160
10713SOL    HW133038   1.287   5.797   1.073
10713SOL    HW233039   1.248   5.927   1.165
10714SOL     OW33040   0.750   5.353   5.894
10714SOL    HW133041   0.714   5.274   5.845
10714SOL    HW233042   0.836   5.328   5.939
10715SOL     OW33043   4.585   2.058   4.317
10715SOL    HW133044   4.634   2.144   4.326
10715SOL    HW233045   4.492   2.076   4.283
10716SOL     OW33046   6.538   0.484   4.251
10716SOL    HW133047   6.553   0.538   4.335
10716SOL    HW233048   6.440   0.483   4.230
10717SOL     OW33049   6.995   0.704   1.708
10717SOL    HW133050   0.004   0.746   1.624
10717SOL    HW233051   6.896   0.718   1.713
10718SOL     OW33052   6.317   5.073   6.503
10718SOL    HW133053   6.241   5.090   6.442
10718SOL    HW233054   6.388   5.022   6.455
10719SOL     OW33055   5.793   0.777   1.728
10719SOL    HW133056   5.743   0.853   1.770
10719SOL    HW233057   5.729   0.721   1.675
10720SOL     OW33058   0.597   3.882   6.364
10720SOL    HW133059   0.593   3.784   6.350
10720SOL    HW233060   0.540   3.928   6.296
10721SOL     OW33061   5.262   2.819   4.776
10721SOL    HW133062   5.312   2.819   4.690
10721SOL    HW233063   5.275   2.731   4.823
10722SOL     OW33064   6.836   3.685   0.043
10722SOL    HW133065   6.753   3.630   0.048
10722SOL    HW233066   6.849   3.716   6.974
10723SOL     OW33067   5.694   3.914   6.951
10723SOL    HW133068   5.658   3.995   6.998
10723SOL    HW233069   5.782   3.888   6.992
10724SOL     OW33070   3.989   6.640   6.518
10724SOL    HW133071   3.889   6.640   6.523
10724SOL    HW233072   4.025   6.553   6.553
10725SOL     OW33073   0.583   6.046   5.483
10725SOL    HW133074   0.495   6.000   5.493
10725SOL    HW233075   0.594   6.077   5.388
10726SOL     OW33076   5.303   0.633   4.181
10726SOL    HW133077   5.249   0.592   4.255
10726SOL    HW233078   5.251   0.630   4.096
10727SOL     OW33079   2.559   6.061   6.083
10727SOL    HW133080   2.486   5.993   6.078
10727SOL    HW233081   2.631   6.028   6.144
10728SOL     OW33082   4.677   6.656   3.361
10728SOL    HW133083   4.722   6.649   3.273
10728SOL    HW233084   4.732   6.609   3.431
10729SOL     OW33085   6.236   2.566   2.902
10729SOL    HW133086   6.312   2.631   2.896
10729SOL    HW233087   6.151   2.612   2.878
10730SOL     OW33088   2.002   6.747   2.932
10730SOL    HW133089   1.979   6.720   2.838
10730SOL    HW233090   2.009   6.847   2.936
10731SOL     OW33091   3.419   7.007   6.894
10731SOL    HW133092   3.458   6.925   6.937
10731SOL    HW233093   3.438   0.061   6.951
10732SOL     OW33094   5.874   5.845   3.175
10732SOL    HW133095   5.802   5.876   3.237
10732SOL    HW233096   5.853   5.752   3.144
10733SOL     OW33097   6.934   0.325   5.966
10733SOL    HW133098   7.000   0.379   6.018
10733SOL    HW233099   6.898   0.251   6.023
10734SOL     OW33100   1.724   0.983   5.596
10734SOL    HW133101   1.697   1.059   5.537
10734SOL    HW233102   1.820   0.995   5.624
10735SOL     OW33103   1.154   5.398   1.831
10735SOL    HW133104   1.239   5.367   1.872
10735SOL    HW233105   1.076   5.356   1.878
10736SOL     OW33106   6.487   0.102   4.020
10736SOL    HW133107   6.519   0.007   4.021
10736SOL    HW233108   6.490   0.137   3.926
10737SOL     OW33109   6.859   1.460   1.985
10737SOL    HW133110   6.903   1.433   1.900
10737SOL    HW233111   6.874   1.558   2.000
10738SOL     OW33112   2.786   0.722   2.082
10738SOL    HW133113   2.785   0.811   2.128
10738SOL    HW233114   2.863   0.668   2.114
10739SOL     OW33115   5.941   2.019   2.553
10739SOL    HW133116   6.007   2.032   2.478
10739SOL    HW233117   5.973   2.068   2.634
10740SOL     OW33118   1.382   6.736   6.390
10740SOL    HW133119   1.449   6.728   6.464
10740SOL    HW233120   1.311   6.668   6.402
10741SOL     OW33121   2.287   2.517   3.362
10741SOL    HW133122   2.189   2.500   3.347
10741SOL    HW233123   2.310   2.498   3.458
10742SOL     OW33124   6.201   5.988   2.657
10742SOL    HW133125   6.283   5.973   2.601
10742SOL    HW233126   6.215   5.948   2.747
10743SOL     OW33127   3.882   1.090   5.551
10743SOL    HW133128   3.907   1.004   5.596
10743SOL    HW233129   3.801   1.129   5.595
10744SOL     OW33130   1.666   0.465   0.529
10744SOL    HW133131   1.704   0.374   0.512
10744SOL    HW233132   1.740   0.532   0.535
10745SOL     OW33133   2.144   4.989   1.253
10745SOL    HW133134   2.197   4.908   1.226
10745SOL    HW233135   2.147   5.000   1.352
10746SOL     OW33136   1.672   6.282   6.487
10746SOL    HW133137   1.688   6.301   6.390
10746SOL    HW233138   1.728   6.343   6.543
10747SOL     OW33139   6.305   1.636   3.939
10747SOL    HW133140   6.344   1.582   3.864
10747SOL    HW233141   6.340   1.603   4.026
10748SOL     OW33142   4.073   6.330   0.871
10748SOL    HW133143   4.017   6.388   0.813
10748SOL    HW233144   4.019   6.299   0.950
10749SOL     OW33145   6.113   5.103   2.832
10749SOL    HW133146   6.118   5.141   2.924
10749SOL    HW233147   6.020   5.116   2.796
10750SOL     OW33148   5.012   2.505   4.227
10750SOL    HW133149   5.026   2.532   4.132
10750SOL    HW233150   4.956   2.574   4.273
10751SOL     OW33151   0.993   4.209   5.417
10751SOL    HW133152   0.928   4.283   5.432
10751SOL    HW233153   1.086   4.244   5.429
10752SOL     OW33154   6.251   5.949   1.081
10752SOL    HW133155   6.152   5.946   1.069
10752SOL    HW233156   6.274   6.017   1.151
10753SOL     OW33157   5.128   6.199   4.047
10753SOL    HW133158   5.132   6.163   4.140
10753SOL    HW233159   5.047   6.257   4.037
10754SOL     OW33160   1.444   3.225   1.578
10754SOL    HW133161   1.506   3.277   1.636
10754SOL    HW233162   1.350   3.243   1.603
10755SOL     OW33163   6.286   3.064   1.136
10755SOL    HW133164   6.343   3.101   1.063
10755SOL    HW233165   6.345   3.026   1.208
10756SOL     OW33166   6.977   2.782   0.888
10756SOL    HW133167   0.051   2.773   0.884
10756SOL    HW233168   6.936   2.692   0.899
10757SOL     OW33169   6.951   4.391   1.388
10757SOL    HW133170   6.965   4.469   1.326
10757SOL    HW233171   6.926   4.425   1.478
10758SOL     OW33172   0.621   7.007   6.882
10758SOL    HW133173   0.529   0.015   6.861
10758SOL    HW233174   0.674   0.055   6.924
10759SOL     OW33175   2.280   2.339   6.147
10759SOL    HW133176   2.217   2.268   6.116
10759SOL    HW233177   2.238   2.391   6.221
10760SOL     OW33178   0.282   5.377   0.170
10760SOL    HW133179   0.329   5.465   0.165
10760SOL    HW233180   0.189   5.386   0.134
10761SOL     OW33181   0.774   1.907   6.499
10761SOL    HW133182   0.853   1.934   6.553
10761SOL    HW233183   0.804   1.870   6.411
10762SOL     OW33184   3.801   6.536   5.850
10762SOL    HW133185   3.836   6.620   5.892
10762SOL    HW233186   3.768   6.557   5.757
10763SOL     OW33187   5.409   0.284   2.853
10763SOL    HW133188   5.473   0.332   2.793
10763SOL    HW233189   5.460   0.224   2.915
10764SOL     OW33190   4.152   0.911   5.244
10764SOL    HW133191   4.169   0.813   5.247
10764SOL    HW233192   4.064   0.931   5.287
10765SOL     OW33193   6.850   1.783   2.795
10765SOL    HW133194   6.923   1.849   2.815
10765SOL    HW233195   6.891   1.693   2.778
10766SOL     OW33196   1.985   4.779   6.363
10766SOL    HW133197   1.942   4.745   6.279
10766SOL    HW233198   2.035   4.863   6.342
10767SOL     OW33199   1.647   5.770   0.759
10767SOL    HW133200   1.699   5.843   0.803
10767SOL    HW233201   1.600   5.806   0.679
10768SOL     OW33202   6.089   5.947   0.572
10768SOL    HW133203   6.017   6.003   0.612
10768SOL    HW233204   6.099   5.970   0.475
10769SOL     OW33205   3.040   3.216   4.826
10769SOL    HW133206   3.136   3.241   4.834
10769SOL    HW233207   3.024   3.179   4.734
10770SOL     OW33208   5.083   6.927   3.998
10770SOL    HW133209   5.131   6.972   3.922
10770SOL    HW233210   5.127   6.951   4.084
10771SOL     OW33211   4.858   5.814   5.824
10771SOL    HW133212   4.856   5.762   5.739
10771SOL    HW233213   4.950   5.812   5.863
10772SOL     OW33214   6.067   4.586   2.702
10772SOL    HW133215   6.083   4.652   2.775
10772SOL    HW233216   6.007   4.626   2.633
10773SOL     OW33217   6.326   4.666   1.197
10773SOL    HW133218   6.349   4.706   1.108
10773SOL    HW233219   6.385   4.706   1.268
10774SOL     OW33220   1.442   3.329   0.622
10774SOL    HW133221   1.426   3.272   0.702
10774SOL    HW233222   1.540   3.332   0.602
10775SOL     OW33223   1.184   4.363   1.407
10775SOL    HW133224   1.263   4.425   1.413
10775SOL    HW233225   1.102   4.411   1.438
10776SOL     OW33226   1.007   2.057   3.183
10776SOL    HW133227   0.969   2.067   3.091
10776SOL    HW233228   1.089   2.113   3.191
10777SOL     OW33229   3.440   1.097   2.115
10777SOL    HW133230   3.536   1.089   2.142
10777SOL    HW233231   3.392   1.013   2.138
10778SOL     OW33232   6.112   6.418   3.813
10778SOL    HW133233   6.133   6.373   3.727
10778SOL    HW233234   6.196   6.435   3.864
10779SOL     OW33235   5.584   3.744   4.572
10779SOL    HW133236   5.523   3.819   4.547
10779SOL    HW233237   5.633   3.712   4.491
10780SOL     OW33238   1.326   5.793   4.605
10780SOL    HW133239   1.365   5.831   4.689
10780SOL    HW233240   1.310   5.695   4.617
10781SOL     OW33241   5.847   2.302   5.255
10781SOL    HW133242   5.778   2.327   5.187
10781SOL    HW233243   5.931   2.274   5.209
10782SOL     OW33244   1.377   3.042   5.017
10782SOL    HW133245   1.332   2.964   4.973
10782SOL    HW233246   1.390   3.115   4.950
10783SOL     OW33247   1.136   2.655   2.687
10783SOL    HW133248   1.208   2.725   2.689
10783SOL    HW233249   1.080   2.663   2.770
10784SOL     OW33250   3.564   6.242   2.125
10784SOL    HW133251   3.573   6.302   2.045
10784SOL    HW233252   3.584   6.295   2.208
10785SOL     OW33253   1.831   6.321   2.535
10785SOL    HW133254   1.842   6.317   2.435
10785SOL    HW233255   1.922   6.320   2.578
10786SOL     OW33256   4.225   1.325   2.112
10786SOL    HW133257   4.159   1.399   2.099
10786SOL    HW233258   4.179   1.247   2.155
10787SOL     OW33259   3.626   1.219   3.362
10787SOL    HW133260   3.558   1.282   3.326
10787SOL    HW233261   3.708   1.270   3.389
10788SOL     OW33262   0.775   4.530   0.806
10788SOL    HW133263   0.854   4.478   0.772
10788SOL    HW233264   0.702   4.526   0.738
10789SOL     OW33265   6.531   1.320   0.247
10789SOL    HW133266   6.511   1.222   0.253
10789SOL    HW233267   6.616   1.334   0.197
10790SOL     OW33268   6.975   2.302   4.710
10790SOL    HW133269   0.024   2.354   4.753
10790SOL    HW233270   6.891   2.315   4.764
10791SOL     OW33271   2.013   1.452   3.139
10791SOL    HW133272   1.988   1.450   3.042
10791SOL    HW233273   1.932   1.436   3.195
10792SOL     OW33274   3.639   2.480   1.061
10792SOL    HW133275   3.586   2.417   1.118
10792SOL    HW233276   3.625   2.574   1.093
10793SOL     OW33277   5.077   1.433   5.207
10793SOL    HW133278   5.050   1.529   5.205
10793SOL    HW233279   5.175   1.426   5.222
10794SOL     OW33280   4.455   3.354   0.562
10794SOL    HW133281   4.413   3.436   0.524
10794SOL    HW233282   4.405   3.326   0.644
10795SOL     OW33283   6.774   3.360   3.192
10795SOL    HW133284   6.780   3.443   3.249
10795SOL    HW233285   6.724   3.381   3.108
10796SOL     OW33286   6.850   6.707   7.003
10796SOL    HW133287   6.842   6.796   6.959
10796SOL    HW233288   6.838   6.717   0.076
10797SOL     OW33289   4.141   3.511   0.334
10797SOL    HW133290   4.088   3.482   0.414
10797SOL    HW233291   4.089   3.492   0.251
10798SOL     OW33292   2.252   0.095   6.415
10798SOL    HW133293   2.202   0.068   6.333
10798SOL    HW233294   2.306   0.177   6.396
10799SOL     OW33295   3.057   1.724   2.431
10799SOL    HW133296   3.066   1.652   2.500
10799SOL    HW233297   3.066   1.813   2.474
10800SOL     OW33298   1.362   7.022   5.610
10800SOL    HW133299   1.384   6.948   5.673
10800SOL    HW233300   1.437   0.062   5.609
10801SOL     OW33301   2.710   6.446   6.086
10801SOL    HW133302   2.663   6.502   6.155
10801SOL    HW233303   2.679   6.473   5.995
10802SOL     OW33304   0.550   4.139   5.059
10802SOL    HW133305   0.537   4.110   5.153
10802SOL    HW233306   0.581   4.061   5.004
10803SOL     OW33307   6.559   4.784   5.288
10803SOL    HW133308   6.558   4.685   5.301
10803SOL    HW233309   6.629   4.808   5.221
10804SOL     OW33310   5.476   4.716   1.991
10804SOL    HW133311   5.473   4.805   2.037
10804SOL    HW233312   5.543   4.719   1.917
10805SOL     OW33313   4.513   6.591   0.518
10805SOL    HW133314   4.511   6.636   0.429
10805SOL    HW233315   4.588   6.526   0.522
10806SOL     OW33316   4.786   4.120   0.073
10806SOL    HW133317   4.839   4.067   0.007
10806SOL    HW233318   4.689   4.096   0.066
10807SOL     OW33319   4.194   6.052   3.778
10807SOL    HW133320   4.167   6.125   3.840
10807SOL    HW233321   4.217   6.091   3.689
10808SOL     OW33322   6.990   2.911   6.243
10808SOL    HW133323   6.934   2.914   6.326
10808SOL    HW233324   7.015   3.004   6.217
10809SOL     OW33325   2.154   0.891   3.285
10809SOL    HW133326   2.098   0.862   3.208
10809SOL    HW233327   2.098   0.944   3.349
10810SOL     OW33328   6.593   1.461   5.280
10810SOL    HW133329   6.619   1.540   5.224
10810SOL    HW233330   6.675   1.416   5.315
10811SOL     OW33331   4.630   4.348   5.313
10811SOL    HW133332   4.707   4.328   5.374
10811SOL    HW233333   4.657   4.329   5.219
10812SOL     OW33334   6.419   2.474   2.670
10812SOL    HW133335   6.479   2.491   2.747
10812SOL    HW233336   6.469   2.426   2.598
10813SOL     OW33337   3.203   6.029   1.471
10813SOL    HW133338   3.275   6.081   1.517
10813SOL    HW233339   3.219   5.931   1.484
10814SOL     OW33340   1.600   0.123   4.876
10814SOL    HW133341   1.573   0.073   4.958
10814SOL    HW233342   1.700   0.130   4.873
10815SOL     OW33343   5.190   3.242   3.103
10815SOL    HW133344   5.275   3.277   3.064
10815SOL    HW233345   5.210   3.202   3.193
10816SOL     OW33346   1.782   1.762   2.190
10816SOL    HW133347   1.739   1.673   2.202
10816SOL    HW233348   1.787   1.809   2.278
10817SOL     OW33349   4.372   7.016   2.098
10817SOL    HW133350   4.456   6.973   2.129
10817SOL    HW233351   4.364   0.081   2.137
10818SOL     OW33352   4.425   3.180   6.755
10818SOL    HW133353   4.485   3.211   6.681
10818SOL    HW233354   4.329   3.190   6.727
10819SOL     OW33355   7.005   3.998   6.740
10819SOL    HW133356   7.012   3.976   6.642
10819SOL    HW233357   0.067   4.032   6.773
10820SOL     OW33358   0.325   6.548   4.716
10820SOL    HW133359   0.245   6.605   4.695
10820SOL    HW233360   0.303   6.488   4.793
10821SOL     OW33361   6.709   0.528   0.856
10821SOL    HW133362   6.627   0.516   0.912
10821SOL    HW233363   6.790   0.535   0.915
10822SOL     OW33364   0.961   3.950   2.298
10822SOL    HW133365   0.889   3.880   2.303
10822SOL    HW233366   1.045   3.913   2.337
10823SOL     OW33367   1.501   0.104   1.138
10823SOL    HW133368   1.533   0.017   1.101
10823SOL    HW233369   1.478   0.093   1.234
10824SOL     OW33370   5.401   0.565   2.584
10824SOL    HW133371   5.361   0.586   2.495
10824SOL    HW233372   5.328   0.541   2.648
10825SOL     OW33373   3.652   1.519   1.174
10825SOL    HW133374   3.722   1.507   1.244
10825SOL    HW233375   3.654   1.613   1.140
10826SOL     OW33376   6.823   2.910   2.410
10826SOL    HW133377   6.880   2.829   2.400
10826SOL    HW233378   6.742   2.887   2.463
10827SOL     OW33379   6.683   2.880   4.265
10827SOL    HW133380   6.588   2.848   4.265
10827SOL    HW233381   6.693   2.954   4.199
10828SOL     OW33382   1.119   5.423   0.630
10828SOL    HW133383   1.132   5.495   0.563
10828SOL    HW233384   1.180   5.438   0.709
10829SOL     OW33385   3.066   3.444   1.334
10829SOL    HW133386   3.085   3.425   1.237
10829SOL    HW233387   3.148   3.425   1.388
10830SOL     OW33388   4.753   2.776   4.266
10830SOL    HW133389   4.800   2.785   4.178
10830SOL    HW233390   4.777   2.855   4.324
10831SOL     OW33391   5.289   1.652   2.874
10831SOL    HW133392   5.249   1.705   2.799
10831SOL    HW233393   5.379   1.688   2.896
10832SOL     OW33394   0.423   1.931   0.554
10832SOL    HW133395   0.483   1.854   0.534
10832SOL    HW233396   0.412   1.987   0.472
10833SOL     OW33397   3.269   0.149   4.548
10833SOL    HW133398   3.315   0.093   4.616
10833SOL    HW233399   3.230   0.230   4.592
10834SOL     OW33400   0.860   1.902   5.011
10834SOL    HW133401   0.799   1.981   5.021
10834SOL    HW233402   0.940   1.913   5.071
10835SOL     OW33403   6.102   1.614   1.895
10835SOL    HW133404   6.011   1.603   1.935
10835SOL    HW233405   6.158   1.533   1.917
10836SOL     OW33406   1.924   2.303   6.778
10836SOL    HW133407   1.847   2.310   6.842
10836SOL    HW233408   1.977   2.388   6.781
10837SOL     OW33409   0.139   4.823   0.911
10837SOL    HW133410   0.187   4.872   0.985
10837SOL    HW233411   0.139   4.725   0.931
10838SOL     OW33412   5.832   6.663   6.641
10838SOL    HW133413   5.827   6.681   6.543
10838SOL    HW233414   5.891   6.731   6.685
10839SOL     OW33415   1.698   2.212   0.277
10839SOL    HW133416   1.740   2.299   0.250
10839SOL    HW233417   1.770   2.149   0.307
10840SOL     OW33418   4.437   5.394   1.615
10840SOL    HW133419   4.455   5.369   1.520
10840SOL    HW233420   4.498   5.469   1.642
10841SOL     OW33421   3.721   4.847   6.416
10841SOL    HW133422   3.746   4.914   6.345
10841SOL    HW233423   3.767   4.760   6.398
10842SOL     OW33424   6.338   2.752   1.665
10842SOL    HW133425   6.412   2.785   1.723
10842SOL    HW233426   6.376   2.703   1.586
10843SOL     OW33427   0.643   1.753   1.852
10843SOL    HW133428   0.683   1.679   1.798
10843SOL    HW233429   0.595   1.816   1.790
10844SOL     OW33430   4.873   0.084   4.084
10844SOL    HW133431   4.953   0.024   4.096
10844SOL    HW233432   4.790   0.035   4.109
10845SOL     OW33433   1.486   2.005   0.909
10845SOL    HW133434   1.553   1.939   0.941
10845SOL    HW233435   1.483   2.082   0.972
10846SOL     OW33436   3.742   1.813   1.366
10846SOL    HW133437   3.812   1.757   1.322
10846SOL    HW233438   3.780   1.853   1.450
10847SOL     OW33439   3.957   2.709   6.381
10847SOL    HW133440   3.981   2.801   6.350
10847SOL    HW233441   4.025   2.644   6.347
10848SOL     OW33442   1.201   0.631   6.307
10848SOL    HW133443   1.266   0.706   6.325
10848SOL    HW233444   1.161   0.600   6.393
10849SOL     OW33445   3.010   4.888   4.379
10849SOL    HW133446   3.101   4.878   4.339
10849SOL    HW233447   3.015   4.882   4.478
10850SOL     OW33448   5.175   6.685   0.748
10850SOL    HW133449   5.204   6.776   0.717
10850SOL    HW233450   5.249   6.620   0.733
10851SOL     OW33451   3.857   1.866   6.520
10851SOL    HW133452   3.872   1.915   6.605
10851SOL    HW233453   3.765   1.825   6.521
10852SOL     OW33454   0.630   0.400   6.128
10852SOL    HW133455   0.562   0.437   6.191
10852SOL    HW233456   0.698   0.348   6.179
10853SOL     OW33457   2.322   1.675   4.604
10853SOL    HW133458   2.318   1.747   4.674
10853SOL    HW233459   2.230   1.648   4.579
10854SOL     OW33460   6.671   6.261   6.932
10854SOL    HW133461   6.720   6.347   6.922
10854SOL    HW233462   6.669   6.235   0.003
10855SOL     OW33463   1.447   6.229   1.378
10855SOL    HW133464   1.521   6.194   1.320
10855SOL    HW233465   1.399   6.303   1.330
10856SOL     OW33466   6.444   6.833   6.686
10856SOL    HW133467   6.417   6.737   6.679
10856SOL    HW233468   6.494   6.860   6.604
10857SOL     OW33469   5.871   1.713   4.009
10857SOL    HW133470   5.936   1.651   4.054
10857SOL    HW233471   5.864   1.689   3.913
10858SOL     OW33472   2.377   2.394   6.898
10858SOL    HW133473   2.339   2.451   6.824
10858SOL    HW233474   2.441   2.449   6.952
10859SOL     OW33475   0.641   4.268   2.450
10859SOL    HW133476   0.558   4.323   2.457
10859SOL    HW233477   0.652   4.236   2.355
10860SOL     OW33478   6.252   2.115   0.332
10860SOL    HW133479   6.344   2.126   0.370
10860SOL    HW233480   6.222   2.201   0.292
10861SOL     OW33481   3.464   2.927   2.036
10861SOL    HW133482   3.538   2.879   2.082
10861SOL    HW233483   3.501   2.978   1.958
10862SOL     OW33484   3.616   3.030   5.740
10862SOL    HW133485   3.601   2.933   5.722
10862SOL    HW233486   3.706   3.057   5.705
10863SOL     OW33487   2.184   1.646   2.698
10863SOL    HW133488   2.265   1.654   2.755
10863SOL    HW233489   2.174   1.729   2.643
10864SOL     OW33490   3.006   4.826   2.074
10864SOL    HW133491   2.963   4.745   2.034
10864SOL    HW233492   3.062   4.799   2.152
10865SOL     OW33493   4.044   1.502   3.393
10865SOL    HW133494   4.110   1.462   3.329
10865SOL    HW233495   3.982   1.431   3.424
10866SOL     OW33496   7.000   3.650   3.026
10866SOL    HW133497   6.922   3.588   3.018
10866SOL    HW233498   0.043   3.608   3.085
10867SOL     OW33499   4.157   3.061   0.415
10867SOL    HW133500   4.241   3.103   0.380
10867SOL    HW233501   4.109   3.126   0.473
10868SOL     OW33502   1.193   1.483   4.197
10868SOL    HW133503   1.291   1.495   4.186
10868SOL    HW233504   1.158   1.421   4.127
10869NA      NA33505   0.166   2.385   5.707
10870NA      NA33506   4.272   4.614   5.276
10871NA      NA33507   0.939   4.683   2.815
10872NA      NA33508   5.585   4.354   3.233
10873NA      NA33509   4.379   2.300   5.171
10874NA      NA33510   2.558   5.019   0.603
10875NA      NA33511   1.131   5.261   6.864
10876NA      NA33512   3.549   4.514   1.305
10877NA      NA33513   4.321   5.232   0.870
10878NA      NA33514   3.366   0.835   6.376
10879NA      NA33515   5.555   6.192   2.183
10880NA      NA33516   1.723   6.698   5.391
10881NA      NA33517   4.219   5.030   1.849
10882NA      NA33518   3.440   3.269   6.813
   7.02607   7.02607   7.02607
