Generated by trjconv : CNT in water t= 404.00000
33518
    1C        C    1   2.850   2.779   4.749
    1C        C    2   2.906   2.728   4.868
    1C        C    3   2.847   2.776   4.986
    1C        C    4   2.856   2.784   4.263
    1C        C    5   2.907   2.736   4.386
    1C        C    6   2.846   2.779   4.506
    1C        C    7   3.016   2.648   4.627
    1C        C    8   2.903   2.731   4.627
    1C        C    9   3.084   2.612   4.745
    1C        C   10   3.013   2.637   4.865
    1C        C   11   3.185   2.496   4.981
    1C        C   12   3.066   2.570   4.977
    1C        C   13   2.855   2.778   3.773
    1C        C   14   2.906   2.730   3.896
    1C        C   15   2.855   2.781   4.018
    1C        C   16   3.025   2.655   4.142
    1C        C   17   2.910   2.738   4.141
    1C        C   18   3.089   2.623   4.263
    1C        C   19   3.025   2.659   4.384
    1C        C   20   3.213   2.561   4.506
    1C        C   21   3.083   2.615   4.506
    1C        C   22   3.283   2.536   4.627
    1C        C   23   3.211   2.550   4.748
    1C        C   24   3.414   2.486   4.867
    1C        C   25   3.272   2.504   4.868
    1C        C   26   3.496   2.474   4.981
    1C        C   27   2.855   2.776   3.283
    1C        C   28   2.910   2.732   3.406
    1C        C   29   2.861   2.781   3.530
    1C        C   30   3.028   2.651   3.652
    1C        C   31   2.913   2.733   3.652
    1C        C   32   3.083   2.610   3.775
    1C        C   33   3.020   2.646   3.897
    1C        C   34   3.210   2.554   4.020
    1C        C   35   3.083   2.615   4.019
    1C        C   36   3.280   2.530   4.140
    1C        C   37   3.216   2.563   4.262
    1C        C   38   3.421   2.512   4.385
    1C        C   39   3.282   2.540   4.385
    1C        C   40   3.493   2.505   4.506
    1C        C   41   3.421   2.505   4.628
    1C        C   42   3.635   2.488   4.747
    1C        C   43   3.492   2.487   4.748
    1C        C   44   3.709   2.491   4.867
    1C        C   45   3.635   2.477   4.985
    1C        C   46   2.837   2.753   2.797
    1C        C   47   2.899   2.718   2.919
    1C        C   48   2.850   2.772   3.040
    1C        C   49   3.027   2.652   3.164
    1C        C   50   2.910   2.731   3.161
    1C        C   51   3.089   2.615   3.286
    1C        C   52   3.023   2.649   3.406
    1C        C   53   3.214   2.556   3.530
    1C        C   54   3.085   2.613   3.528
    1C        C   55   3.279   2.534   3.653
    1C        C   56   3.212   2.553   3.776
    1C        C   57   3.418   2.507   3.897
    1C        C   58   3.280   2.535   3.898
    1C        C   59   3.489   2.502   4.020
    1C        C   60   3.419   2.504   4.143
    1C        C   61   3.633   2.497   4.262
    1C        C   62   3.492   2.500   4.263
    1C        C   63   3.707   2.507   4.382
    1C        C   64   3.634   2.503   4.503
    1C        C   65   3.840   2.545   4.626
    1C        C   66   3.705   2.503   4.625
    1C        C   67   3.910   2.566   4.747
    1C        C   68   3.846   2.525   4.866
    1C        C   69   4.056   2.591   4.981
    1C        C   70   3.926   2.538   4.980
    1C        C   71   2.830   2.736   2.311
    1C        C   72   2.886   2.691   2.433
    1C        C   73   2.839   2.748   2.553
    1C        C   74   3.013   2.631   2.676
    1C        C   75   2.893   2.706   2.677
    1C        C   76   3.076   2.597   2.798
    1C        C   77   3.018   2.642   2.919
    1C        C   78   3.208   2.546   3.041
    1C        C   79   3.082   2.610   3.041
    1C        C   80   3.277   2.523   3.162
    1C        C   81   3.217   2.553   3.286
    1C        C   82   3.421   2.503   3.405
    1C        C   83   3.284   2.536   3.409
    1C        C   84   3.489   2.495   3.529
    1C        C   85   3.419   2.511   3.651
    1C        C   86   3.629   2.502   3.774
    1C        C   87   3.487   2.501   3.774
    1C        C   88   3.698   2.515   3.897
    1C        C   89   3.630   2.504   4.019
    1C        C   90   3.838   2.548   4.140
    1C        C   91   3.704   2.503   4.140
    1C        C   92   3.908   2.570   4.260
    1C        C   93   3.841   2.549   4.383
    1C        C   94   4.030   2.644   4.502
    1C        C   95   3.908   2.573   4.505
    1C        C   96   4.091   2.681   4.624
    1C        C   97   4.033   2.637   4.744
    1C        C   98   4.196   2.771   4.866
    1C        C   99   4.102   2.663   4.866
    1C        C  100   4.213   2.850   4.980
    1C        C  101   2.832   2.739   2.074
    1C        C  102   2.995   2.594   2.193
    1C        C  103   2.880   2.679   2.191
    1C        C  104   3.065   2.573   2.315
    1C        C  105   3.003   2.611   2.435
    1C        C  106   3.202   2.530   2.555
    1C        C  107   3.075   2.592   2.555
    1C        C  108   3.271   2.512   2.677
    1C        C  109   3.205   2.540   2.799
    1C        C  110   3.415   2.496   2.919
    1C        C  111   3.276   2.521   2.920
    1C        C  112   3.488   2.488   3.040
    1C        C  113   3.416   2.497   3.161
    1C        C  114   3.631   2.495   3.283
    1C        C  115   3.489   2.493   3.282
    1C        C  116   3.698   2.507   3.406
    1C        C  117   3.630   2.495   3.529
    1C        C  118   3.837   2.539   3.648
    1C        C  119   3.699   2.507   3.652
    1C        C  120   3.900   2.570   3.770
    1C        C  121   3.835   2.552   3.894
    1C        C  122   4.026   2.644   4.014
    1C        C  123   3.899   2.581   4.017
    1C        C  124   4.088   2.680   4.135
    1C        C  125   4.032   2.639   4.258
    1C        C  126   4.200   2.769   4.377
    1C        C  127   4.092   2.678   4.380
    1C        C  128   4.246   2.823   4.499
    1C        C  129   4.200   2.771   4.622
    1C        C  130   4.329   2.940   4.744
    1C        C  131   4.245   2.825   4.744
    1C        C  132   4.359   3.008   4.864
    1C        C  133   4.295   2.962   4.980
    1C        C  134   3.176   2.473   2.085
    1C        C  135   3.040   2.508   2.088
    1C        C  136   3.261   2.477   2.196
    1C        C  137   3.196   2.517   2.314
    1C        C  138   3.408   2.482   2.432
    1C        C  139   3.268   2.500   2.434
    1C        C  140   3.483   2.489   2.551
    1C        C  141   3.411   2.490   2.673
    1C        C  142   3.623   2.493   2.794
    1C        C  143   3.482   2.485   2.795
    1C        C  144   3.696   2.503   2.914
    1C        C  145   3.629   2.489   3.038
    1C        C  146   3.836   2.538   3.159
    1C        C  147   3.700   2.500   3.160
    1C        C  148   3.904   2.561   3.281
    1C        C  149   3.836   2.540   3.403
    1C        C  150   4.028   2.626   3.524
    1C        C  151   3.904   2.559   3.525
    1C        C  152   4.082   2.672   3.646
    1C        C  153   4.022   2.641   3.770
    1C        C  154   4.194   2.770   3.888
    1C        C  155   4.083   2.683   3.891
    1C        C  156   4.246   2.817   4.010
    1C        C  157   4.200   2.766   4.134
    1C        C  158   4.342   2.925   4.254
    1C        C  159   4.256   2.813   4.255
    1C        C  160   4.378   2.988   4.375
    1C        C  161   4.332   2.936   4.498
    1C        C  162   4.437   3.119   4.619
    1C        C  163   4.370   2.995   4.620
    1C        C  164   4.471   3.187   4.738
    1C        C  165   4.436   3.126   4.860
    1C        C  166   4.517   3.325   4.975
    1C        C  167   4.480   3.191   4.976
    1C        C  168   3.478   2.435   2.077
    1C        C  169   3.402   2.461   2.192
    1C        C  170   3.620   2.462   2.310
    1C        C  171   3.478   2.461   2.311
    1C        C  172   3.696   2.483   2.427
    1C        C  173   3.624   2.490   2.549
    1C        C  174   3.828   2.542   2.668
    1C        C  175   3.692   2.504   2.672
    1C        C  176   3.896   2.562   2.790
    1C        C  177   3.835   2.531   2.914
    1C        C  178   4.023   2.631   3.033
    1C        C  179   3.900   2.561   3.035
    1C        C  180   4.083   2.667   3.156
    1C        C  181   4.029   2.627   3.280
    1C        C  182   4.199   2.753   3.401
    1C        C  183   4.091   2.662   3.403
    1C        C  184   4.248   2.804   3.523
    1C        C  185   4.195   2.758   3.645
    1C        C  186   4.339   2.920   3.767
    1C        C  187   4.249   2.811   3.764
    1C        C  188   4.382   2.980   3.887
    1C        C  189   4.338   2.924   4.009
    1C        C  190   4.448   3.106   4.130
    1C        C  191   4.373   2.986   4.131
    1C        C  192   4.469   3.176   4.251
    1C        C  193   4.442   3.114   4.375
    1C        C  194   4.511   3.317   4.493
    1C        C  195   4.467   3.183   4.496
    1C        C  196   4.529   3.390   4.612
    1C        C  197   4.515   3.322   4.735
    1C        C  198   4.561   3.537   4.854
    1C        C  199   4.534   3.396   4.856
    1C        C  200   4.593   3.623   4.964
    1C        C  201   3.617   2.419   2.075
    1C        C  202   3.828   2.511   2.185
    1C        C  203   3.695   2.459   2.189
    1C        C  204   3.901   2.542   2.303
    1C        C  205   3.832   2.521   2.424
    1C        C  206   4.020   2.623   2.544
    1C        C  207   3.897   2.554   2.545
    1C        C  208   4.083   2.660   2.665
    1C        C  209   4.021   2.629   2.788
    1C        C  210   4.194   2.752   2.909
    1C        C  211   4.082   2.666   2.910
    1C        C  212   4.248   2.796   3.032
    1C        C  213   4.198   2.749   3.155
    1C        C  214   4.331   2.914   3.275
    1C        C  215   4.247   2.801   3.277
    1C        C  216   4.368   2.975   3.397
    1C        C  217   4.332   2.918   3.521
    1C        C  218   4.436   3.103   3.643
    1C        C  219   4.374   2.977   3.642
    1C        C  220   4.471   3.172   3.761
    1C        C  221   4.448   3.106   3.884
    1C        C  222   4.508   3.307   4.006
    1C        C  223   4.478   3.169   4.007
    1C        C  224   4.522   3.380   4.126
    1C        C  225   4.506   3.312   4.248
    1C        C  226   4.528   3.525   4.367
    1C        C  227   4.520   3.384   4.369
    1C        C  228   4.534   3.601   4.487
    1C        C  229   4.539   3.531   4.610
    1C        C  230   4.510   3.742   4.727
    1C        C  231   4.543   3.604   4.730
    1C        C  232   4.499   3.819   4.845
    1C        C  233   4.549   3.755   4.960
    1C        C  234   4.019   2.613   2.065
    1C        C  235   3.902   2.537   2.069
    1C        C  236   4.087   2.650   2.181
    1C        C  237   4.028   2.606   2.302
    1C        C  238   4.200   2.736   2.422
    1C        C  239   4.084   2.654   2.422
    1C        C  240   4.251   2.790   2.543
    1C        C  241   4.192   2.750   2.665
    1C        C  242   4.332   2.911   2.787
    1C        C  243   4.245   2.800   2.786
    1C        C  244   4.373   2.967   2.910
    1C        C  245   4.332   2.910   3.033
    1C        C  246   4.441   3.095   3.151
    1C        C  247   4.375   2.970   3.153
    1C        C  248   4.456   3.165   3.274
    1C        C  249   4.429   3.103   3.398
    1C        C  250   4.498   3.304   3.516
    1C        C  251   4.457   3.169   3.519
    1C        C  252   4.510   3.376   3.637
    1C        C  253   4.505   3.309   3.762
    1C        C  254   4.528   3.519   3.880
    1C        C  255   4.518   3.378   3.885
    1C        C  256   4.522   3.592   4.001
    1C        C  257   4.523   3.522   4.123
    1C        C  258   4.503   3.734   4.243
    1C        C  259   4.523   3.594   4.244
    1C        C  260   4.480   3.805   4.363
    1C        C  261   4.502   3.738   4.485
    1C        C  262   4.430   3.940   4.603
    1C        C  263   4.478   3.807   4.606
    1C        C  264   4.404   4.009   4.723
    1C        C  265   4.438   3.946   4.844
    1C        C  266   4.325   4.132   4.958
    1C        C  267   4.394   4.011   4.960
    1C        C  268   4.261   2.782   2.063
    1C        C  269   4.199   2.736   2.180
    1C        C  270   4.343   2.895   2.300
    1C        C  271   4.253   2.785   2.301
    1C        C  272   4.381   2.960   2.420
    1C        C  273   4.341   2.899   2.541
    1C        C  274   4.437   3.090   2.664
    1C        C  275   4.372   2.964   2.662
    1C        C  276   4.468   3.157   2.784
    1C        C  277   4.441   3.091   2.906
    1C        C  278   4.506   3.293   3.026
    1C        C  279   4.470   3.157   3.027
    1C        C  280   4.512   3.367   3.147
    1C        C  281   4.497   3.300   3.270
    1C        C  282   4.520   3.511   3.394
    1C        C  283   4.512   3.370   3.392
    1C        C  284   4.526   3.586   3.513
    1C        C  285   4.523   3.516   3.636
    1C        C  286   4.495   3.727   3.756
    1C        C  287   4.524   3.589   3.757
    1C        C  288   4.478   3.797   3.877
    1C        C  289   4.498   3.731   4.001
    1C        C  290   4.432   3.934   4.119
    1C        C  291   4.485   3.804   4.121
    1C        C  292   4.396   3.998   4.240
    1C        C  293   4.425   3.936   4.363
    1C        C  294   4.319   4.123   4.481
    1C        C  295   4.393   4.003   4.482
    1C        C  296   4.285   4.188   4.602
    1C        C  297   4.330   4.131   4.723
    1C        C  298   4.199   4.312   4.841
    1C        C  299   4.279   4.193   4.840
    1C        C  300   4.172   4.399   4.951
    1C        C  301   4.348   2.890   2.062
    1C        C  302   4.467   3.073   2.176
    1C        C  303   4.396   2.949   2.180
    1C        C  304   4.478   3.147   2.297
    1C        C  305   4.448   3.084   2.420
    1C        C  306   4.507   3.288   2.537
    1C        C  307   4.471   3.151   2.542
    1C        C  308   4.516   3.362   2.657
    1C        C  309   4.509   3.293   2.780
    1C        C  310   4.526   3.502   2.904
    1C        C  311   4.520   3.361   2.903
    1C        C  312   4.527   3.576   3.024
    1C        C  313   4.525   3.508   3.148
    1C        C  314   4.492   3.718   3.264
    1C        C  315   4.515   3.579   3.270
    1C        C  316   4.483   3.790   3.386
    1C        C  317   4.501   3.725   3.510
    1C        C  318   4.435   3.928   3.632
    1C        C  319   4.479   3.794   3.632
    1C        C  320   4.400   3.992   3.753
    1C        C  321   4.432   3.931   3.875
    1C        C  322   4.325   4.116   3.990
    1C        C  323   4.402   3.998   3.996
    1C        C  324   4.281   4.171   4.112
    1C        C  325   4.325   4.120   4.237
    1C        C  326   4.182   4.281   4.354
    1C        C  327   4.281   4.180   4.357
    1C        C  328   4.137   4.337   4.476
    1C        C  329   4.194   4.295   4.598
    1C        C  330   4.024   4.430   4.715
    1C        C  331   4.140   4.349   4.717
    1C        C  332   3.973   4.493   4.831
    1C        C  333   4.055   4.476   4.944
    1C        C  334   4.555   3.271   2.060
    1C        C  335   4.536   3.133   2.066
    1C        C  336   4.535   3.352   2.173
    1C        C  337   4.514   3.285   2.295
    1C        C  338   4.528   3.499   2.411
    1C        C  339   4.524   3.358   2.416
    1C        C  340   4.528   3.571   2.532
    1C        C  341   4.526   3.503   2.656
    1C        C  342   4.497   3.709   2.775
    1C        C  343   4.525   3.570   2.780
    1C        C  344   4.480   3.781   2.896
    1C        C  345   4.496   3.713   3.019
    1C        C  346   4.426   3.916   3.141
    1C        C  347   4.473   3.782   3.140
    1C        C  348   4.397   3.981   3.263
    1C        C  349   4.430   3.921   3.386
    1C        C  350   4.324   4.104   3.503
    1C        C  351   4.405   3.988   3.508
    1C        C  352   4.274   4.159   3.623
    1C        C  353   4.320   4.109   3.747
    1C        C  354   4.172   4.263   3.871
    1C        C  355   4.276   4.167   3.868
    1C        C  356   4.125   4.320   3.991
    1C        C  357   4.183   4.273   4.111
    1C        C  358   4.014   4.406   4.231
    1C        C  359   4.130   4.325   4.231
    1C        C  360   3.954   4.444   4.353
    1C        C  361   4.016   4.409   4.476
    1C        C  362   3.829   4.519   4.594
    1C        C  363   3.958   4.460   4.594
    1C        C  364   3.765   4.551   4.716
    1C        C  365   3.841   4.541   4.834
    1C        C  366   3.631   4.600   4.951
    1C        C  367   3.767   4.574   4.949
    1C        C  368   4.508   3.567   2.051
    1C        C  369   4.531   3.493   2.168
    1C        C  370   4.512   3.708   2.287
    1C        C  371   4.532   3.568   2.287
    1C        C  372   4.494   3.780   2.407
    1C        C  373   4.504   3.710   2.529
    1C        C  374   4.432   3.908   2.650
    1C        C  375   4.481   3.776   2.652
    1C        C  376   4.397   3.973   2.771
    1C        C  377   4.430   3.913   2.894
    1C        C  378   4.322   4.095   3.011
    1C        C  379   4.398   3.976   3.016
    1C        C  380   4.278   4.150   3.133
    1C        C  381   4.318   4.098   3.258
    1C        C  382   4.178   4.257   3.379
    1C        C  383   4.277   4.155   3.380
    1C        C  384   4.126   4.308   3.500
    1C        C  385   4.178   4.263   3.624
    1C        C  386   4.007   4.388   3.742
    1C        C  387   4.122   4.306   3.746
    1C        C  388   3.949   4.434   3.862
    1C        C  389   4.010   4.402   3.985
    1C        C  390   3.821   4.493   4.111
    1C        C  391   3.951   4.437   4.108
    1C        C  392   3.753   4.514   4.233
    1C        C  393   3.824   4.499   4.355
    1C        C  394   3.616   4.555   4.474
    1C        C  395   3.756   4.531   4.474
    1C        C  396   3.549   4.571   4.597
    1C        C  397   3.625   4.571   4.716
    1C        C  398   3.413   4.557   4.839
    1C        C  399   3.552   4.583   4.836
    1C        C  400   3.345   4.516   4.955
    1C        C  401   4.513   3.706   2.054
    1C        C  402   4.463   3.920   2.168
    1C        C  403   4.504   3.785   2.169
    1C        C  404   4.417   3.980   2.287
    1C        C  405   4.442   3.911   2.408
    1C        C  406   4.332   4.095   2.527
    1C        C  407   4.407   3.976   2.528
    1C        C  408   4.279   4.148   2.647
    1C        C  409   4.319   4.091   2.770
    1C        C  410   4.172   4.247   2.890
    1C        C  411   4.274   4.150   2.890
    1C        C  412   4.122   4.294   3.014
    1C        C  413   4.182   4.254   3.135
    1C        C  414   4.006   4.377   3.255
    1C        C  415   4.124   4.299   3.256
    1C        C  416   3.943   4.414   3.376
    1C        C  417   4.005   4.382   3.499
    1C        C  418   3.816   4.480   3.617
    1C        C  419   3.945   4.423   3.620
    1C        C  420   3.750   4.502   3.741
    1C        C  421   3.817   4.486   3.863
    1C        C  422   3.616   4.538   3.989
    1C        C  423   3.755   4.513   3.988
    1C        C  424   3.541   4.539   4.108
    1C        C  425   3.614   4.538   4.229
    1C        C  426   3.404   4.547   4.358
    1C        C  427   3.545   4.550   4.352
    1C        C  428   3.335   4.548   4.481
    1C        C  429   3.408   4.562   4.601
    1C        C  430   3.196   4.522   4.723
    1C        C  431   3.335   4.554   4.722
    1C        C  432   3.127   4.497   4.845
    1C        C  433   3.208   4.496   4.960
    1C        C  434   4.384   4.121   2.052
    1C        C  435   4.452   3.999   2.053
    1C        C  436   4.303   4.160   2.163
    1C        C  437   4.338   4.099   2.287
    1C        C  438   4.187   4.254   2.405
    1C        C  439   4.287   4.154   2.407
    1C        C  440   4.128   4.299   2.525
    1C        C  441   4.181   4.249   2.646
    1C        C  442   4.002   4.370   2.768
    1C        C  443   4.119   4.291   2.766
    1C        C  444   3.943   4.410   2.890
    1C        C  445   4.004   4.372   3.012
    1C        C  446   3.816   4.472   3.132
    1C        C  447   3.943   4.410   3.133
    1C        C  448   3.746   4.497   3.252
    1C        C  449   3.814   4.472   3.373
    1C        C  450   3.611   4.533   3.497
    1C        C  451   3.747   4.497   3.495
    1C        C  452   3.541   4.543   3.620
    1C        C  453   3.612   4.531   3.742
    1C        C  454   3.404   4.541   3.869
    1C        C  455   3.545   4.543   3.867
    1C        C  456   3.332   4.532   3.990
    1C        C  457   3.400   4.543   4.113
    1C        C  458   3.195   4.506   4.240
    1C        C  459   3.333   4.539   4.237
    1C        C  460   3.129   4.486   4.363
    1C        C  461   3.198   4.515   4.483
    1C        C  462   2.999   4.434   4.605
    1C        C  463   3.127   4.493   4.604
    1C        C  464   2.930   4.405   4.726
    1C        C  465   2.994   4.444   4.847
    1C        C  466   2.803   4.339   4.958
    1C        C  467   2.910   4.429   4.962
    1C        C  468   4.127   4.287   2.043
    1C        C  469   4.186   4.242   2.163
    1C        C  470   4.009   4.369   2.280
    1C        C  471   4.130   4.294   2.282
    1C        C  472   3.941   4.399   2.401
    1C        C  473   4.007   4.370   2.523
    1C        C  474   3.816   4.464   2.644
    1C        C  475   3.944   4.406   2.644
    1C        C  476   3.745   4.485   2.765
    1C        C  477   3.813   4.466   2.887
    1C        C  478   3.611   4.523   3.009
    1C        C  479   3.749   4.494   3.009
    1C        C  480   3.537   4.526   3.130
    1C        C  481   3.606   4.519   3.253
    1C        C  482   3.397   4.533   3.380
    1C        C  483   3.538   4.529   3.376
    1C        C  484   3.327   4.535   3.503
    1C        C  485   3.400   4.542   3.624
    1C        C  486   3.193   4.506   3.751
    1C        C  487   3.332   4.532   3.747
    1C        C  488   3.125   4.485   3.873
    1C        C  489   3.193   4.503   3.995
    1C        C  490   3.003   4.416   4.119
    1C        C  491   3.128   4.481   4.118
    1C        C  492   2.942   4.382   4.242
    1C        C  493   3.002   4.424   4.363
    1C        C  494   2.827   4.306   4.484
    1C        C  495   2.937   4.394   4.485
    1C        C  496   2.770   4.260   4.606
    1C        C  497   2.813   4.325   4.724
    1C        C  498   2.662   4.170   4.843
    1C        C  499   2.750   4.281   4.842
    1C        C  500   2.601   4.116   4.958
    1C        C  501   4.005   4.353   2.041
    1C        C  502   3.816   4.457   2.158
    1C        C  503   3.944   4.399   2.158
    1C        C  504   3.744   4.479   2.278
    1C        C  505   3.810   4.452   2.400
    1C        C  506   3.608   4.511   2.525
    1C        C  507   3.746   4.481   2.522
    1C        C  508   3.536   4.518   2.645
    1C        C  509   3.606   4.511   2.768
    1C        C  510   3.395   4.526   2.889
    1C        C  511   3.536   4.527   2.889
    1C        C  512   3.324   4.527   3.010
    1C        C  513   3.396   4.529   3.132
    1C        C  514   3.192   4.494   3.258
    1C        C  515   3.329   4.528   3.256
    1C        C  516   3.126   4.470   3.381
    1C        C  517   3.190   4.501   3.502
    1C        C  518   3.005   4.412   3.631
    1C        C  519   3.129   4.478   3.628
    1C        C  520   2.942   4.374   3.751
    1C        C  521   3.004   4.412   3.872
    1C        C  522   2.839   4.283   3.997
    1C        C  523   2.947   4.374   3.996
    1C        C  524   2.792   4.232   4.120
    1C        C  525   2.836   4.290   4.242
    1C        C  526   2.694   4.136   4.364
    1C        C  527   2.777   4.250   4.364
    1C        C  528   2.656   4.077   4.487
    1C        C  529   2.687   4.146   4.606
    1C        C  530   2.587   3.961   4.733
    1C        C  531   2.637   4.094   4.727
    1C        C  532   2.545   3.900   4.854
    1C        C  533   2.540   3.991   4.965
    1C        C  534   3.623   4.552   2.044
    1C        C  535   3.756   4.509   2.043
    1C        C  536   3.538   4.535   2.158
    1C        C  537   3.606   4.513   2.281
    1C        C  538   3.395   4.519   2.401
    1C        C  539   3.537   4.523   2.403
    1C        C  540   3.324   4.510   2.522
    1C        C  541   3.394   4.519   2.644
    1C        C  542   3.187   4.486   2.768
    1C        C  543   3.324   4.521   2.767
    1C        C  544   3.123   4.461   2.891
    1C        C  545   3.187   4.492   3.014
    1C        C  546   2.998   4.403   3.138
    1C        C  547   3.121   4.472   3.137
    1C        C  548   2.940   4.367   3.262
    1C        C  549   2.999   4.408   3.383
    1C        C  550   2.840   4.278   3.508
    1C        C  551   2.947   4.370   3.509
    1C        C  552   2.786   4.231   3.630
    1C        C  553   2.836   4.280   3.753
    1C        C  554   2.698   4.122   3.876
    1C        C  555   2.786   4.232   3.876
    1C        C  556   2.664   4.063   3.999
    1C        C  557   2.700   4.125   4.121
    1C        C  558   2.604   3.940   4.248
    1C        C  559   2.664   4.067   4.245
    1C        C  560   2.577   3.876   4.371
    1C        C  561   2.599   3.948   4.490
    1C        C  562   2.538   3.749   4.617
    1C        C  563   2.567   3.887   4.614
    1C        C  564   2.515   3.681   4.739
    1C        C  565   2.519   3.759   4.857
    1C        C  566   2.524   3.550   4.979
    1C        C  567   2.518   3.689   4.978
    1C        C  568   3.330   4.481   2.043
    1C        C  569   3.397   4.518   2.160
    1C        C  570   3.186   4.474   2.282
    1C        C  571   3.322   4.513   2.280
    1C        C  572   3.118   4.456   2.404
    1C        C  573   3.185   4.485   2.525
    1C        C  574   2.992   4.398   2.649
    1C        C  575   3.117   4.464   2.647
    1C        C  576   2.935   4.358   2.772
    1C        C  577   2.998   4.396   2.893
    1C        C  578   2.830   4.273   3.016
    1C        C  579   2.937   4.365   3.017
    1C        C  580   2.785   4.223   3.140
    1C        C  581   2.834   4.273   3.263
    1C        C  582   2.703   4.112   3.385
    1C        C  583   2.789   4.224   3.388
    1C        C  584   2.667   4.054   3.509
    1C        C  585   2.700   4.119   3.630
    1C        C  586   2.602   3.934   3.756
    1C        C  587   2.659   4.063   3.753
    1C        C  588   2.580   3.869   3.880
    1C        C  589   2.608   3.933   4.002
    1C        C  590   2.532   3.738   4.130
    1C        C  591   2.576   3.873   4.126
    1C        C  592   2.522   3.672   4.254
    1C        C  593   2.531   3.743   4.377
    1C        C  594   2.512   3.533   4.500
    1C        C  595   2.517   3.674   4.499
    1C        C  596   2.511   3.464   4.623
    1C        C  597   2.509   3.539   4.743
    1C        C  598   2.527   3.328   4.868
    1C        C  599   2.513   3.468   4.865
    1C        C  600   2.523   3.249   4.984
    1C        C  601   3.197   4.442   2.042
    1C        C  602   2.984   4.396   2.161
    1C        C  603   3.121   4.437   2.160
    1C        C  604   2.926   4.359   2.286
    1C        C  605   2.990   4.396   2.406
    1C        C  606   2.815   4.277   2.531
    1C        C  607   2.928   4.361   2.528
    1C        C  608   2.767   4.226   2.654
    1C        C  609   2.823   4.272   2.775
    1C        C  610   2.689   4.108   2.897
    1C        C  611   2.775   4.220   2.897
    1C        C  612   2.650   4.053   3.021
    1C        C  613   2.699   4.111   3.141
    1C        C  614   2.600   3.924   3.267
    1C        C  615   2.663   4.051   3.264
    1C        C  616   2.572   3.862   3.391
    1C        C  617   2.600   3.929   3.512
    1C        C  618   2.534   3.731   3.640
    1C        C  619   2.573   3.866   3.636
    1C        C  620   2.524   3.662   3.763
    1C        C  621   2.537   3.734   3.884
    1C        C  622   2.503   3.528   4.011
    1C        C  623   2.516   3.669   4.008
    1C        C  624   2.508   3.456   4.133
    1C        C  625   2.509   3.532   4.252
    1C        C  626   2.539   3.326   4.381
    1C        C  627   2.513   3.465   4.376
    1C        C  628   2.556   3.256   4.503
    1C        C  629   2.537   3.325   4.625
    1C        C  630   2.595   3.123   4.746
    1C        C  631   2.545   3.256   4.748
    1C        C  632   2.614   3.051   4.867
    1C        C  633   2.559   3.113   4.984
    1C        C  634   2.781   4.308   2.059
    1C        C  635   2.892   4.392   2.051
    1C        C  636   2.750   4.229   2.170
    1C        C  637   2.811   4.276   2.288
    1C        C  638   2.678   4.112   2.411
    1C        C  639   2.765   4.223   2.410
    1C        C  640   2.648   4.049   2.535
    1C        C  641   2.689   4.108   2.656
    1C        C  642   2.587   3.919   2.779
    1C        C  643   2.650   4.045   2.776
    1C        C  644   2.559   3.859   2.904
    1C        C  645   2.587   3.927   3.024
    1C        C  646   2.523   3.725   3.150
    1C        C  647   2.566   3.860   3.146
    1C        C  648   2.510   3.656   3.273
    1C        C  649   2.529   3.728   3.393
    1C        C  650   2.501   3.521   3.518
    1C        C  651   2.516   3.662   3.517
    1C        C  652   2.510   3.456   3.643
    1C        C  653   2.510   3.522   3.768
    1C        C  654   2.530   3.314   3.892
    1C        C  655   2.507   3.454   3.891
    1C        C  656   2.545   3.245   4.015
    1C        C  657   2.529   3.316   4.136
    1C        C  658   2.596   3.120   4.259
    1C        C  659   2.546   3.253   4.261
    1C        C  660   2.631   3.058   4.381
    1C        C  661   2.600   3.122   4.503
    1C        C  662   2.707   2.941   4.628
    1C        C  663   2.628   3.058   4.625
    1C        C  664   2.752   2.882   4.748
    1C        C  665   2.702   2.938   4.869
    1C        C  666   2.746   2.872   4.985
    1C        C  667   2.677   4.024   2.055
    1C        C  668   2.688   4.102   2.170
    1C        C  669   2.588   3.913   2.295
    1C        C  670   2.647   4.043   2.292
    1C        C  671   2.560   3.848   2.417
    1C        C  672   2.589   3.921   2.534
    1C        C  673   2.517   3.721   2.663
    1C        C  674   2.562   3.855   2.656
    1C        C  675   2.504   3.651   2.785
    1C        C  676   2.519   3.723   2.905
    1C        C  677   2.502   3.514   3.031
    1C        C  678   2.510   3.655   3.028
    1C        C  679   2.498   3.443   3.153
    1C        C  680   2.496   3.515   3.274
    1C        C  681   2.522   3.308   3.403
    1C        C  682   2.499   3.447   3.398
    1C        C  683   2.546   3.242   3.526
    1C        C  684   2.533   3.316   3.646
    1C        C  685   2.600   3.117   3.771
    1C        C  686   2.547   3.248   3.769
    1C        C  687   2.638   3.057   3.893
    1C        C  688   2.600   3.115   4.016
    1C        C  689   2.715   2.940   4.141
    1C        C  690   2.633   3.055   4.139
    1C        C  691   2.756   2.884   4.264
    1C        C  692   2.711   2.942   4.385
    1C        C  693   2.752   2.884   4.507
    1C        C  694   2.624   3.894   2.057
    1C        C  695   2.522   3.708   2.178
    1C        C  696   2.574   3.839   2.176
    1C        C  697   2.494   3.642   2.300
    1C        C  698   2.511   3.715   2.420
    1C        C  699   2.490   3.507   2.544
    1C        C  700   2.498   3.648   2.543
    1C        C  701   2.503   3.438   2.667
    1C        C  702   2.495   3.510   2.788
    1C        C  703   2.524   3.301   2.914
    1C        C  704   2.501   3.440   2.910
    1C        C  705   2.544   3.235   3.037
    1C        C  706   2.528   3.305   3.159
    1C        C  707   2.592   3.105   3.283
    1C        C  708   2.544   3.238   3.282
    1C        C  709   2.627   3.044   3.405
    1C        C  710   2.600   3.112   3.527
    1C        C  711   2.720   2.941   3.651
    1C        C  712   2.632   3.051   3.650
    1C        C  713   2.763   2.885   3.773
    1C        C  714   2.717   2.939   3.895
    1C        C  715   2.761   2.886   4.019
    1C        C  716   2.449   3.501   2.067
    1C        C  717   2.492   3.634   2.063
    1C        C  718   2.469   3.423   2.185
    1C        C  719   2.479   3.501   2.303
    1C        C  720   2.518   3.293   2.427
    1C        C  721   2.488   3.431   2.425
    1C        C  722   2.540   3.226   2.549
    1C        C  723   2.522   3.298   2.670
    1C        C  724   2.594   3.099   2.793
    1C        C  725   2.541   3.230   2.792
    1C        C  726   2.623   3.036   2.916
    1C        C  727   2.590   3.101   3.037
    1C        C  728   2.707   2.928   3.162
    1C        C  729   2.622   3.041   3.161
    1C        C  730   2.757   2.878   3.284
    1C        C  731   2.714   2.933   3.407
    1C        C  732   2.764   2.883   3.530
    1C        C  733   2.494   3.197   2.078
    1C        C  734   2.497   3.282   2.189
    1C        C  735   2.586   3.084   2.310
    1C        C  736   2.533   3.216   2.309
    1C        C  737   2.620   3.022   2.432
    1C        C  738   2.596   3.096   2.549
    1C        C  739   2.702   2.915   2.672
    1C        C  740   2.625   3.033   2.672
    1C        C  741   2.741   2.858   2.795
    1C        C  742   2.698   2.917   2.916
    1C        C  743   2.750   2.872   3.040
    1C        C  744   2.551   3.070   2.075
    1C        C  745   2.686   2.895   2.188
    1C        C  746   2.610   3.014   2.189
    1C        C  747   2.730   2.837   2.309
    1C        C  748   2.693   2.901   2.430
    1C        C  749   2.746   2.855   2.552
    1C        C  750   2.738   2.842   2.070
    1C        C  751   3.664   2.313   1.983
    1C        O  752   3.717   2.210   2.033
    1C        O  753   3.697   2.361   1.856
    1C        C  754   4.648   3.057   2.005
    1C        O  755   4.648   3.033   1.881
    1C        O  756   4.767   3.021   2.069
    1C        C  757   4.454   4.220   1.968
    1C        O  758   4.510   4.322   2.016
    1C        O  759   4.443   4.228   1.828
    1C        C  760   3.587   4.660   1.948
    1C        O  761   3.620   4.782   1.951
    1C        O  762   3.540   4.631   1.820
    1C        C  763   2.879   4.507   1.958
    1C        O  764   2.937   4.495   1.847
    1C        O  765   2.861   4.640   1.999
    1C        C  766   2.346   3.472   1.964
    1C        O  767   2.374   3.389   1.874
    1C        O  768   2.228   3.545   1.943
    1C        C  769   4.719   3.596   5.037
    1C        O  770   4.724   3.632   5.158
    1C        O  771   4.842   3.618   4.973
    1C        C  772   4.283   4.446   5.036
    1C        O  773   4.265   4.491   5.153
    1C        O  774   4.399   4.502   4.981
    1C        C  775   4.140   2.503   5.065
    1C        O  776   4.119   2.380   5.083
    1C        O  777   4.189   2.548   5.189
    1C        C  778   2.881   4.537   5.059
    1C        O  779   2.827   4.646   5.028
    1C        O  780   2.954   4.544   5.178
    1C        C  781   2.491   3.032   5.087
    1C        O  782   2.384   2.974   5.054
    1C        O  783   2.488   3.067   5.222
    1C        C  784   2.412   4.000   5.039
    1C        O  785   2.324   4.077   4.993
    1C        O  786   2.416   3.995   5.179
    1C        C  787   2.939   2.443   2.001
    1C        O  788   2.889   2.495   1.898
    1C        O  789   2.877   2.324   2.035
    1C        C  790   3.183   2.388   5.083
    1C        O  791   3.149   2.271   5.050
    1C        O  792   3.151   2.422   5.215
    1C        H  793   4.290   3.028   5.064
    1C        H  794   4.121   2.871   5.030
    1C        H  795   4.529   3.123   5.042
    1C        H  796   4.500   3.383   5.064
    1C        H  797   4.552   3.815   5.049
    1C        H  798   4.447   3.997   5.052
    1C        H  799   4.349   4.198   5.038
    1C        H  800   4.015   4.512   5.037
    1C        H  801   3.812   4.559   5.045
    1C        H  802   3.611   4.683   5.015
    1C        H  803   3.396   4.514   5.049
    1C        H  804   3.162   4.479   5.055
    1C        H  805   3.897   2.498   5.075
    1C        H  806   3.680   2.427   5.068
    1C        H  807   2.997   2.559   5.058
    1C        H  808   3.449   2.504   5.072
    1C        H  809   2.909   2.775   5.073
    1C        H  810   2.678   2.868   5.068
    1C        H  811   2.479   3.294   5.070
    1C        H  812   2.485   3.506   5.069
    1C        H  813   2.558   3.735   5.066
    1C        H  814   2.618   4.157   5.055
    1C        H  815   2.730   4.350   5.035
    1C        H  816   2.700   2.877   1.976
    1C        H  817   2.902   2.729   1.994
    1C        H  818   3.219   2.460   1.988
    1C        H  819   3.435   2.444   1.980
    1C        H  820   3.852   2.520   1.975
    1C        H  821   4.069   2.630   1.972
    1C        H  822   4.290   2.708   1.991
    1C        H  823   4.410   2.892   1.974
    1C        H  824   4.624   3.309   1.987
    1C        H  825   4.455   3.520   1.971
    1C        H  826   4.564   3.746   1.969
    1C        H  827   3.820   4.530   1.960
    1C        H  828   3.996   4.418   1.956
    1C        H  829   4.184   4.276   1.953
    1C        H  830   4.499   3.963   1.964
    1C        H  831   2.673   3.824   1.992
    1C        H  832   2.742   4.050   1.974
    1C        H  833   2.700   4.326   1.990
    1C        H  834   3.377   4.490   1.947
    1C        H  835   3.144   4.424   1.951
    1C        H  836   2.521   3.006   1.995
    1C        H  837   2.415   3.210   2.007
    1C        H  838   2.484   3.682   1.967
    2V3OU   H29  839   2.808   3.547   4.691
    2V3OU   C27  840   2.792   3.504   4.793
    2V3OU   H27  841   2.741   3.572   4.866
    2V3OU   H28  842   2.737   3.408   4.778
    2V3OU   O11  843   2.916   3.473   4.857
    2V3OU   C15  844   2.920   3.404   4.977
    2V3OU   C13  845   3.052   3.377   5.017
    2V3OU   C14  846   3.083   3.271   5.103
    2V3OU   C16  847   2.979   3.193   5.151
    2V3OU    H6  848   2.992   3.104   5.215
    2V3OU   C12  849   3.223   3.234   5.131
    2V3OU    O2  850   3.241   3.130   5.198
    2V3OU   C10  851   3.331   3.313   5.070
    2V3OU    C8  852   3.462   3.272   5.091
    2V3OU   O10  853   3.488   3.153   5.151
    2V3OU   H26  854   3.406   3.120   5.191
    2V3OU    C6  855   3.567   3.352   5.038
    2V3OU    C5  856   3.538   3.472   4.973
    2V3OU    C4  857   3.704   3.294   5.028
    2V3OU    H4  858   3.723   3.222   5.113
    2V3OU    H5  859   3.710   3.231   4.934
    2V3OU    C2  860   3.816   3.398   5.036
    2V3OU    O6  861   3.805   3.469   5.159
    2V3OU   H21  862   3.758   3.552   5.140
    2V3OU    C3  863   3.783   3.497   4.925
    2V3OU    H2  864   3.861   3.577   4.914
    2V3OU    H3  865   3.776   3.438   4.830
    2V3OU   C25  866   3.950   3.332   5.002
    2V3OU    O7  867   3.992   3.299   4.891
    2V3OU   C26  868   4.032   3.291   5.123
    2V3OU   H22  869   4.080   3.380   5.171
    2V3OU   H23  870   4.118   3.227   5.089
    2V3OU    O8  871   3.964   3.208   5.214
    2V3OU   H24  872   3.924   3.261   5.284
    2V3OU    C1  873   3.649   3.568   4.943
    2V3OU    H1  874   3.624   3.624   4.848
    2V3OU    O3  875   3.659   3.656   5.056
    2V3OU   C19  876   3.624   3.794   5.046
    2V3OU    H9  877   3.526   3.801   4.989
    2V3OU    O4  878   3.718   3.853   4.959
    2V3OU   C20  879   3.850   3.880   5.008
    2V3OU   H10  880   3.903   3.784   5.033
    2V3OU   C24  881   3.613   3.859   5.184
    2V3OU   H16  882   3.546   3.795   5.246
    2V3OU   H17  883   3.573   3.963   5.174
    2V3OU   C23  884   3.754   3.876   5.240
    2V3OU   H15  885   3.798   3.773   5.261
    2V3OU    N1  886   3.739   3.958   5.359
    2V3OU   H19  887   3.812   3.925   5.420
    2V3OU   H20  888   3.647   3.927   5.385
    2V3OU   C21  889   3.846   3.954   5.141
    2V3OU   H11  890   3.952   3.935   5.175
    2V3OU    O5  891   3.828   4.095   5.147
    2V3OU   H18  892   3.784   4.107   5.233
    2V3OU   C22  893   3.919   3.953   4.894
    2V3OU   H12  894   3.865   4.048   4.872
    2V3OU   H13  895   3.907   3.897   4.797
    2V3OU   H14  896   4.027   3.967   4.920
    2V3OU   C11  897   3.157   3.474   4.982
    2V3OU    O1  898   3.129   3.585   4.932
    2V3OU    C9  899   3.298   3.429   4.993
    2V3OU    C7  900   3.402   3.510   4.951
    2V3OU    O9  901   3.393   3.612   4.859
    2V3OU   H25  902   3.297   3.626   4.859
    2V3OU   C17  903   2.821   3.319   5.031
    2V3OU    H7  904   2.721   3.360   5.048
    2V3OU   C18  905   2.846   3.211   5.115
    2V3OU    H8  906   2.760   3.165   5.166
    3SOL     OW  907   3.384   4.113   4.976
    3SOL    HW1  908   3.482   4.118   4.957
    3SOL    HW2  909   3.363   4.172   5.055
    4SOL     OW  910   6.709   0.226   0.506
    4SOL    HW1  911   6.701   0.240   0.605
    4SOL    HW2  912   6.784   0.162   0.488
    5SOL     OW  913   4.473   0.901   1.466
    5SOL    HW1  914   4.561   0.856   1.482
    5SOL    HW2  915   4.411   0.880   1.542
    6SOL     OW  916   5.588   0.748   3.152
    6SOL    HW1  917   5.519   0.728   3.221
    6SOL    HW2  918   5.620   0.663   3.111
    7SOL     OW  919   1.143   4.365   4.874
    7SOL    HW1  920   1.128   4.404   4.784
    7SOL    HW2  921   1.055   4.344   4.917
    8SOL     OW  922   2.015   2.770   5.885
    8SOL    HW1  923   1.930   2.731   5.848
    8SOL    HW2  924   2.000   2.867   5.906
    9SOL     OW  925   6.191   1.533   6.559
    9SOL    HW1  926   6.253   1.458   6.533
    9SOL    HW2  927   6.097   1.506   6.541
   10SOL     OW  928   4.942   4.573   3.032
   10SOL    HW1  929   4.970   4.668   3.018
   10SOL    HW2  930   4.982   4.516   2.960
   11SOL     OW  931   2.374   1.259   0.387
   11SOL    HW1  932   2.457   1.246   0.442
   11SOL    HW2  933   2.347   1.355   0.390
   12SOL     OW  934   3.171   4.918   3.399
   12SOL    HW1  935   3.096   4.856   3.423
   12SOL    HW2  936   3.205   4.962   3.481
   13SOL     OW  937   4.475   6.022   2.354
   13SOL    HW1  938   4.391   6.002   2.303
   13SOL    HW2  939   4.453   6.073   2.437
   14SOL     OW  940   4.878   4.874   4.798
   14SOL    HW1  941   4.867   4.776   4.780
   14SOL    HW2  942   4.942   4.886   4.874
   15SOL     OW  943   0.724   5.582   5.790
   15SOL    HW1  944   0.645   5.636   5.760
   15SOL    HW2  945   0.753   5.522   5.716
   16SOL     OW  946   6.883   2.764   5.675
   16SOL    HW1  947   6.979   2.762   5.705
   16SOL    HW2  948   6.823   2.763   5.756
   17SOL     OW  949   6.118   0.514   5.570
   17SOL    HW1  950   6.103   0.565   5.654
   17SOL    HW2  951   6.195   0.452   5.581
   18SOL     OW  952   3.265   7.000   5.065
   18SOL    HW1  953   3.191   0.037   5.087
   18SOL    HW2  954   3.232   6.906   5.073
   19SOL     OW  955   1.051   1.373   3.034
   19SOL    HW1  956   1.018   1.405   3.122
   19SOL    HW2  957   1.034   1.443   2.964
   20SOL     OW  958   5.731   2.879   5.393
   20SOL    HW1  959   5.695   2.946   5.458
   20SOL    HW2  960   5.828   2.864   5.411
   21SOL     OW  961   4.211   6.757   2.821
   21SOL    HW1  962   4.159   6.764   2.736
   21SOL    HW2  963   4.308   6.767   2.802
   22SOL     OW  964   2.323   6.654   5.078
   22SOL    HW1  965   2.224   6.661   5.088
   22SOL    HW2  966   2.355   6.570   5.121
   23SOL     OW  967   5.466   4.281   2.117
   23SOL    HW1  968   5.407   4.296   2.037
   23SOL    HW2  969   5.411   4.242   2.191
   24SOL     OW  970   4.197   0.508   1.730
   24SOL    HW1  971   4.138   0.570   1.678
   24SOL    HW2  972   4.278   0.488   1.676
   25SOL     OW  973   2.941   6.792   3.316
   25SOL    HW1  974   3.016   6.831   3.371
   25SOL    HW2  975   2.858   6.787   3.371
   26SOL     OW  976   0.833   2.715   6.594
   26SOL    HW1  977   0.872   2.680   6.679
   26SOL    HW2  978   0.755   2.658   6.568
   27SOL     OW  979   6.312   1.201   1.854
   27SOL    HW1  980   6.357   1.128   1.802
   27SOL    HW2  981   6.324   1.185   1.952
   28SOL     OW  982   1.985   0.525   4.343
   28SOL    HW1  983   2.024   0.606   4.387
   28SOL    HW2  984   2.050   0.449   4.348
   29SOL     OW  985   6.899   0.782   0.405
   29SOL    HW1  986   6.914   0.714   0.477
   29SOL    HW2  987   6.817   0.758   0.353
   30SOL     OW  988   4.317   0.511   5.199
   30SOL    HW1  989   4.239   0.453   5.176
   30SOL    HW2  990   4.310   0.598   5.151
   31SOL     OW  991   0.791   2.890   5.675
   31SOL    HW1  992   0.814   2.923   5.584
   31SOL    HW2  993   0.721   2.949   5.716
   32SOL     OW  994   1.426   0.544   1.329
   32SOL    HW1  995   1.394   0.612   1.394
   32SOL    HW2  996   1.486   0.479   1.375
   33SOL     OW  997   0.705   3.961   6.414
   33SOL    HW1  998   0.752   3.925   6.334
   33SOL    HW2  999   0.633   3.898   6.442
   34SOL     OW 1000   1.651   5.376   4.934
   34SOL    HW1 1001   1.703   5.417   4.859
   34SOL    HW2 1002   1.554   5.394   4.921
   35SOL     OW 1003   4.027   3.314   7.012
   35SOL    HW1 1004   3.957   3.374   6.975
   35SOL    HW2 1005   4.045   3.338   0.081
   36SOL     OW 1006   4.930   0.908   3.750
   36SOL    HW1 1007   4.986   0.922   3.669
   36SOL    HW2 1008   4.859   0.978   3.755
   37SOL     OW 1009   1.961   1.162   3.788
   37SOL    HW1 1010   1.940   1.257   3.811
   37SOL    HW2 1011   2.014   1.120   3.861
   38SOL     OW 1012   1.264   5.170   2.197
   38SOL    HW1 1013   1.278   5.108   2.120
   38SOL    HW2 1014   1.334   5.155   2.266
   39SOL     OW 1015   5.933   5.186   6.498
   39SOL    HW1 1016   6.009   5.148   6.551
   39SOL    HW2 1017   5.916   5.128   6.419
   40SOL     OW 1018   3.325   0.924   6.122
   40SOL    HW1 1019   3.345   0.932   6.024
   40SOL    HW2 1020   3.304   1.014   6.159
   41SOL     OW 1021   6.158   4.181   1.804
   41SOL    HW1 1022   6.058   4.184   1.804
   41SOL    HW2 1023   6.190   4.128   1.883
   42SOL     OW 1024   2.419   5.944   4.904
   42SOL    HW1 1025   2.511   5.918   4.874
   42SOL    HW2 1026   2.390   5.883   4.978
   43SOL     OW 1027   4.917   6.725   5.021
   43SOL    HW1 1028   4.932   6.642   5.074
   43SOL    HW2 1029   4.969   6.721   4.936
   44SOL     OW 1030   5.861   2.413   5.429
   44SOL    HW1 1031   5.940   2.352   5.429
   44SOL    HW2 1032   5.777   2.358   5.436
   45SOL     OW 1033   4.097   5.244   0.600
   45SOL    HW1 1034   4.071   5.335   0.631
   45SOL    HW2 1035   4.106   5.244   0.500
   46SOL     OW 1036   0.744   3.210   4.667
   46SOL    HW1 1037   0.759   3.192   4.570
   46SOL    HW2 1038   0.646   3.219   4.686
   47SOL     OW 1039   5.610   3.233   1.710
   47SOL    HW1 1040   5.531   3.196   1.759
   47SOL    HW2 1041   5.655   3.302   1.766
   48SOL     OW 1042   6.356   4.102   6.743
   48SOL    HW1 1043   6.430   4.162   6.713
   48SOL    HW2 1044   6.390   4.008   6.748
   49SOL     OW 1045   4.820   3.049   0.228
   49SOL    HW1 1046   4.779   3.028   0.139
   49SOL    HW2 1047   4.818   2.967   0.285
   50SOL     OW 1048   6.434   2.429   6.674
   50SOL    HW1 1049   6.505   2.385   6.619
   50SOL    HW2 1050   6.364   2.362   6.697
   51SOL     OW 1051   1.767   4.799   3.268
   51SOL    HW1 1052   1.719   4.816   3.181
   51SOL    HW2 1053   1.792   4.887   3.309
   52SOL     OW 1054   5.797   2.930   1.659
   52SOL    HW1 1055   5.845   2.860   1.711
   52SOL    HW2 1056   5.780   3.010   1.717
   53SOL     OW 1057   4.606   0.726   2.913
   53SOL    HW1 1058   4.594   0.817   2.954
   53SOL    HW2 1059   4.530   0.708   2.851
   54SOL     OW 1060   5.323   6.285   6.958
   54SOL    HW1 1061   5.256   6.294   0.005
   54SOL    HW2 1062   5.416   6.290   6.997
   55SOL     OW 1063   1.994   2.805   6.495
   55SOL    HW1 1064   1.947   2.849   6.571
   55SOL    HW2 1065   2.093   2.817   6.505
   56SOL     OW 1066   1.592   2.352   6.870
   56SOL    HW1 1067   1.629   2.260   6.870
   56SOL    HW2 1068   1.556   2.373   6.961
   57SOL     OW 1069   4.003   0.731   0.550
   57SOL    HW1 1070   3.921   0.785   0.571
   57SOL    HW2 1071   4.076   0.792   0.518
   58SOL     OW 1072   0.900   1.038   6.450
   58SOL    HW1 1073   0.980   0.983   6.427
   58SOL    HW2 1074   0.869   1.088   6.369
   59SOL     OW 1075   5.990   3.478   6.277
   59SOL    HW1 1076   5.896   3.473   6.310
   59SOL    HW2 1077   6.000   3.424   6.194
   60SOL     OW 1078   5.358   0.798   2.869
   60SOL    HW1 1079   5.310   0.725   2.822
   60SOL    HW2 1080   5.444   0.818   2.823
   61SOL     OW 1081   0.202   0.517   5.124
   61SOL    HW1 1082   0.126   0.505   5.188
   61SOL    HW2 1083   0.288   0.518   5.175
   62SOL     OW 1084   0.013   2.044   2.411
   62SOL    HW1 1085   6.972   2.084   2.473
   62SOL    HW2 1086   0.033   2.108   2.337
   63SOL     OW 1087   4.008   6.667   4.988
   63SOL    HW1 1088   3.957   6.649   4.903
   63SOL    HW2 1089   4.067   6.747   4.974
   64SOL     OW 1090   1.422   4.035   6.441
   64SOL    HW1 1091   1.507   4.056   6.392
   64SOL    HW2 1092   1.443   4.015   6.536
   65SOL     OW 1093   0.556   0.353   5.459
   65SOL    HW1 1094   0.608   0.358   5.374
   65SOL    HW2 1095   0.620   0.353   5.536
   66SOL     OW 1096   4.115   0.180   2.204
   66SOL    HW1 1097   4.058   0.261   2.190
   66SOL    HW2 1098   4.156   0.152   2.117
   67SOL     OW 1099   0.439   2.624   1.102
   67SOL    HW1 1100   0.511   2.689   1.126
   67SOL    HW2 1101   0.479   2.533   1.090
   68SOL     OW 1102   6.877   2.439   5.626
   68SOL    HW1 1103   6.967   2.462   5.663
   68SOL    HW2 1104   6.841   2.518   5.576
   69SOL     OW 1105   0.892   5.159   5.696
   69SOL    HW1 1106   0.800   5.195   5.708
   69SOL    HW2 1107   0.955   5.209   5.755
   70SOL     OW 1108   5.510   3.583   5.157
   70SOL    HW1 1109   5.527   3.624   5.247
   70SOL    HW2 1110   5.512   3.483   5.165
   71SOL     OW 1111   4.675   2.184   4.578
   71SOL    HW1 1112   4.765   2.141   4.573
   71SOL    HW2 1113   4.644   2.186   4.673
   72SOL     OW 1114   6.583   0.259   3.720
   72SOL    HW1 1115   6.664   0.269   3.777
   72SOL    HW2 1116   6.575   0.338   3.659
   73SOL     OW 1117   2.702   0.655   0.915
   73SOL    HW1 1118   2.620   0.606   0.944
   73SOL    HW2 1119   2.741   0.705   0.993
   74SOL     OW 1120   1.993   1.684   6.862
   74SOL    HW1 1121   1.920   1.708   6.798
   74SOL    HW2 1122   2.081   1.708   6.823
   75SOL     OW 1123   4.462   1.474   0.945
   75SOL    HW1 1124   4.372   1.454   0.907
   75SOL    HW2 1125   4.460   1.466   1.044
   76SOL     OW 1126   3.045   4.347   5.309
   76SOL    HW1 1127   3.141   4.367   5.331
   76SOL    HW2 1128   3.009   4.420   5.250
   77SOL     OW 1129   1.699   5.232   4.532
   77SOL    HW1 1130   1.773   5.213   4.597
   77SOL    HW2 1131   1.624   5.277   4.579
   78SOL     OW 1132   4.503   1.327   1.554
   78SOL    HW1 1133   4.432   1.339   1.624
   78SOL    HW2 1134   4.538   1.233   1.557
   79SOL     OW 1135   2.219   5.207   1.990
   79SOL    HW1 1136   2.146   5.154   1.947
   79SOL    HW2 1137   2.242   5.285   1.932
   80SOL     OW 1138   4.847   1.960   5.408
   80SOL    HW1 1139   4.829   1.869   5.371
   80SOL    HW2 1140   4.800   1.970   5.496
   81SOL     OW 1141   2.922   5.982   1.670
   81SOL    HW1 1142   2.945   5.893   1.710
   81SOL    HW2 1143   3.001   6.042   1.677
   82SOL     OW 1144   1.157   5.997   1.539
   82SOL    HW1 1145   1.172   5.922   1.603
   82SOL    HW2 1146   1.232   6.062   1.546
   83SOL     OW 1147   5.565   2.063   5.406
   83SOL    HW1 1148   5.553   2.134   5.475
   83SOL    HW2 1149   5.475   2.028   5.379
   84SOL     OW 1150   6.037   2.959   3.319
   84SOL    HW1 1151   6.116   2.913   3.360
   84SOL    HW2 1152   5.953   2.912   3.345
   85SOL     OW 1153   2.223   0.227   4.038
   85SOL    HW1 1154   2.217   0.165   3.960
   85SOL    HW2 1155   2.312   0.273   4.037
   86SOL     OW 1156   5.616   1.457   6.335
   86SOL    HW1 1157   5.587   1.511   6.415
   86SOL    HW2 1158   5.539   1.400   6.304
   87SOL     OW 1159   3.543   4.244   6.458
   87SOL    HW1 1160   3.564   4.209   6.549
   87SOL    HW2 1161   3.562   4.342   6.455
   88SOL     OW 1162   3.312   3.245   6.758
   88SOL    HW1 1163   3.227   3.215   6.801
   88SOL    HW2 1164   3.309   3.344   6.745
   89SOL     OW 1165   2.947   3.246   3.019
   89SOL    HW1 1166   3.012   3.173   3.035
   89SOL    HW2 1167   2.925   3.250   2.922
   90SOL     OW 1168   5.040   3.522   2.677
   90SOL    HW1 1169   5.014   3.479   2.591
   90SOL    HW2 1170   4.974   3.594   2.700
   91SOL     OW 1171   5.348   4.832   5.723
   91SOL    HW1 1172   5.431   4.853   5.671
   91SOL    HW2 1173   5.269   4.875   5.679
   92SOL     OW 1174   5.307   4.416   6.903
   92SOL    HW1 1175   5.403   4.390   6.897
   92SOL    HW2 1176   5.297   4.496   6.961
   93SOL     OW 1177   2.191   2.950   1.237
   93SOL    HW1 1178   2.151   3.038   1.210
   93SOL    HW2 1179   2.240   2.960   1.323
   94SOL     OW 1180   3.226   0.690   5.806
   94SOL    HW1 1181   3.283   0.646   5.875
   94SOL    HW2 1182   3.265   0.673   5.715
   95SOL     OW 1183   0.252   0.581   4.169
   95SOL    HW1 1184   0.303   0.592   4.084
   95SOL    HW2 1185   0.164   0.539   4.150
   96SOL     OW 1186   4.810   4.784   0.138
   96SOL    HW1 1187   4.771   4.746   0.222
   96SOL    HW2 1188   4.876   4.856   0.162
   97SOL     OW 1189   2.065   5.469   5.400
   97SOL    HW1 1190   2.160   5.474   5.368
   97SOL    HW2 1191   2.024   5.383   5.368
   98SOL     OW 1192   1.332   2.824   2.529
   98SOL    HW1 1193   1.409   2.878   2.494
   98SOL    HW2 1194   1.325   2.740   2.477
   99SOL     OW 1195   3.512   2.927   3.993
   99SOL    HW1 1196   3.566   2.972   4.065
   99SOL    HW2 1197   3.540   2.831   3.987
  100SOL     OW 1198   0.035   0.037   4.030
  100SOL    HW1 1199   6.986   7.000   4.013
  100SOL    HW2 1200   0.021   0.120   3.977
  101SOL     OW 1201   0.626   4.134   3.068
  101SOL    HW1 1202   0.547   4.168   3.119
  101SOL    HW2 1203   0.679   4.072   3.125
  102SOL     OW 1204   2.561   6.506   1.454
  102SOL    HW1 1205   2.464   6.523   1.473
  102SOL    HW2 1206   2.609   6.486   1.540
  103SOL     OW 1207   1.885   0.477   2.256
  103SOL    HW1 1208   1.960   0.509   2.198
  103SOL    HW2 1209   1.798   0.501   2.213
  104SOL     OW 1210   1.282   4.479   2.029
  104SOL    HW1 1211   1.365   4.534   2.019
  104SOL    HW2 1212   1.306   4.389   2.066
  105SOL     OW 1213   4.660   1.484   6.345
  105SOL    HW1 1214   4.725   1.473   6.270
  105SOL    HW2 1215   4.699   1.445   6.428
  106SOL     OW 1216   5.440   5.301   2.336
  106SOL    HW1 1217   5.395   5.249   2.265
  106SOL    HW2 1218   5.484   5.382   2.296
  107SOL     OW 1219   5.819   1.080   0.515
  107SOL    HW1 1220   5.749   1.129   0.566
  107SOL    HW2 1221   5.811   0.982   0.533
  108SOL     OW 1222   1.372   0.785   5.237
  108SOL    HW1 1223   1.332   0.703   5.278
  108SOL    HW2 1224   1.449   0.816   5.293
  109SOL     OW 1225   3.072   1.168   3.234
  109SOL    HW1 1226   3.013   1.167   3.314
  109SOL    HW2 1227   3.137   1.244   3.241
  110SOL     OW 1228   2.843   4.724   5.711
  110SOL    HW1 1229   2.763   4.710   5.652
  110SOL    HW2 1230   2.915   4.769   5.659
  111SOL     OW 1231   6.210   1.475   2.328
  111SOL    HW1 1232   6.210   1.386   2.374
  111SOL    HW2 1233   6.151   1.472   2.248
  112SOL     OW 1234   4.200   0.161   6.665
  112SOL    HW1 1235   4.137   0.203   6.731
  112SOL    HW2 1236   4.154   0.085   6.620
  113SOL     OW 1237   6.344   5.778   2.905
  113SOL    HW1 1238   6.368   5.848   2.973
  113SOL    HW2 1239   6.416   5.708   2.902
  114SOL     OW 1240   1.482   4.066   4.052
  114SOL    HW1 1241   1.448   3.981   4.013
  114SOL    HW2 1242   1.559   4.099   3.997
  115SOL     OW 1243   5.820   1.047   3.400
  115SOL    HW1 1244   5.827   1.081   3.494
  115SOL    HW2 1245   5.886   1.094   3.342
  116SOL     OW 1246   1.080   5.383   0.684
  116SOL    HW1 1247   1.086   5.412   0.588
  116SOL    HW2 1248   1.158   5.421   0.734
  117SOL     OW 1249   2.243   1.404   6.929
  117SOL    HW1 1250   2.265   1.308   6.918
  117SOL    HW2 1251   2.153   1.414   6.972
  118SOL     OW 1252   1.201   1.990   4.479
  118SOL    HW1 1253   1.239   1.978   4.387
  118SOL    HW2 1254   1.227   1.912   4.536
  119SOL     OW 1255   6.849   6.647   6.362
  119SOL    HW1 1256   6.865   6.745   6.373
  119SOL    HW2 1257   6.816   6.629   6.269
  120SOL     OW 1258   4.638   1.490   4.509
  120SOL    HW1 1259   4.670   1.447   4.594
  120SOL    HW2 1260   4.588   1.574   4.532
  121SOL     OW 1261   1.219   3.500   6.419
  121SOL    HW1 1262   1.137   3.547   6.385
  121SOL    HW2 1263   1.294   3.512   6.353
  122SOL     OW 1264   0.919   4.376   0.107
  122SOL    HW1 1265   0.905   4.475   0.117
  122SOL    HW2 1266   1.009   4.352   0.143
  123SOL     OW 1267   1.027   1.424   1.786
  123SOL    HW1 1268   1.025   1.480   1.869
  123SOL    HW2 1269   1.121   1.403   1.762
  124SOL     OW 1270   3.080   2.595   0.918
  124SOL    HW1 1271   3.013   2.613   0.991
  124SOL    HW2 1272   3.158   2.658   0.930
  125SOL     OW 1273   3.451   2.368   0.060
  125SOL    HW1 1274   3.387   2.348   7.012
  125SOL    HW2 1275   3.538   2.321   0.042
  126SOL     OW 1276   4.115   3.322   4.036
  126SOL    HW1 1277   4.215   3.320   4.044
  126SOL    HW2 1278   4.078   3.232   4.056
  127SOL     OW 1279   0.386   6.132   6.116
  127SOL    HW1 1280   0.388   6.135   6.216
  127SOL    HW2 1281   0.292   6.116   6.085
  128SOL     OW 1282   4.835   3.591   1.218
  128SOL    HW1 1283   4.742   3.556   1.229
  128SOL    HW2 1284   4.859   3.648   1.297
  129SOL     OW 1285   2.145   6.124   0.987
  129SOL    HW1 1286   2.229   6.159   0.946
  129SOL    HW2 1287   2.133   6.028   0.962
  130SOL     OW 1288   5.528   2.475   4.662
  130SOL    HW1 1289   5.547   2.378   4.646
  130SOL    HW2 1290   5.431   2.492   4.651
  131SOL     OW 1291   0.018   2.370   3.528
  131SOL    HW1 1292   0.102   2.380   3.581
  131SOL    HW2 1293   0.034   2.309   3.450
  132SOL     OW 1294   3.803   4.093   2.027
  132SOL    HW1 1295   3.868   4.147   2.080
  132SOL    HW2 1296   3.796   4.130   1.935
  133SOL     OW 1297   5.422   6.912   5.239
  133SOL    HW1 1298   5.501   6.895   5.297
  133SOL    HW2 1299   5.447   6.898   5.143
  134SOL     OW 1300   5.460   1.150   2.108
  134SOL    HW1 1301   5.472   1.070   2.167
  134SOL    HW2 1302   5.366   1.152   2.074
  135SOL     OW 1303   5.064   3.479   4.300
  135SOL    HW1 1304   5.055   3.552   4.368
  135SOL    HW2 1305   5.044   3.515   4.209
  136SOL     OW 1306   3.287   6.759   5.346
  136SOL    HW1 1307   3.355   6.810   5.399
  136SOL    HW2 1308   3.212   6.821   5.320
  137SOL     OW 1309   3.501   1.991   4.960
  137SOL    HW1 1310   3.571   2.057   4.934
  137SOL    HW2 1311   3.413   2.019   4.923
  138SOL     OW 1312   0.687   5.625   5.013
  138SOL    HW1 1313   0.596   5.662   5.032
  138SOL    HW2 1314   0.680   5.527   4.992
  139SOL     OW 1315   2.338   6.469   6.292
  139SOL    HW1 1316   2.334   6.517   6.205
  139SOL    HW2 1317   2.386   6.382   6.280
  140SOL     OW 1318   1.994   1.016   3.124
  140SOL    HW1 1319   1.900   1.040   3.147
  140SOL    HW2 1320   2.048   1.099   3.112
  141SOL     OW 1321   6.787   4.355   0.142
  141SOL    HW1 1322   6.721   4.399   0.203
  141SOL    HW2 1323   6.738   4.297   0.077
  142SOL     OW 1324   1.414   4.112   1.829
  142SOL    HW1 1325   1.369   4.151   1.910
  142SOL    HW2 1326   1.444   4.019   1.850
  143SOL     OW 1327   5.153   6.787   1.745
  143SOL    HW1 1328   5.229   6.742   1.697
  143SOL    HW2 1329   5.190   6.851   1.813
  144SOL     OW 1330   3.154   4.862   3.036
  144SOL    HW1 1331   3.238   4.815   3.063
  144SOL    HW2 1332   3.156   4.956   3.069
  145SOL     OW 1333   6.721   4.710   3.003
  145SOL    HW1 1334   6.695   4.613   3.008
  145SOL    HW2 1335   6.728   4.737   2.907
  146SOL     OW 1336   6.047   1.734   5.836
  146SOL    HW1 1337   5.968   1.675   5.820
  146SOL    HW2 1338   6.054   1.801   5.761
  147SOL     OW 1339   4.659   1.226   5.926
  147SOL    HW1 1340   4.655   1.128   5.906
  147SOL    HW2 1341   4.746   1.263   5.892
  148SOL     OW 1342   1.217   4.893   1.319
  148SOL    HW1 1343   1.231   4.804   1.276
  148SOL    HW2 1344   1.244   4.965   1.255
  149SOL     OW 1345   2.260   2.291   5.837
  149SOL    HW1 1346   2.213   2.224   5.779
  149SOL    HW2 1347   2.197   2.366   5.858
  150SOL     OW 1348   4.390   1.098   4.683
  150SOL    HW1 1349   4.456   1.157   4.729
  150SOL    HW2 1350   4.367   1.136   4.593
  151SOL     OW 1351   3.828   2.115   0.741
  151SOL    HW1 1352   3.750   2.081   0.793
  151SOL    HW2 1353   3.913   2.077   0.778
  152SOL     OW 1354   1.084   0.833   0.071
  152SOL    HW1 1355   1.166   0.879   0.038
  152SOL    HW2 1356   1.110   0.747   0.115
  153SOL     OW 1357   2.526   1.303   4.053
  153SOL    HW1 1358   2.597   1.234   4.066
  153SOL    HW2 1359   2.566   1.394   4.061
  154SOL     OW 1360   6.017   2.276   1.207
  154SOL    HW1 1361   6.007   2.196   1.265
  154SOL    HW2 1362   6.076   2.255   1.130
  155SOL     OW 1363   0.627   6.770   1.424
  155SOL    HW1 1364   0.555   6.710   1.459
  155SOL    HW2 1365   0.642   6.845   1.489
  156SOL     OW 1366   4.552   1.495   0.519
  156SOL    HW1 1367   4.635   1.532   0.559
  156SOL    HW2 1368   4.516   1.421   0.577
  157SOL     OW 1369   5.359   4.507   1.011
  157SOL    HW1 1370   5.281   4.456   0.974
  157SOL    HW2 1371   5.330   4.599   1.035
  158SOL     OW 1372   0.752   2.752   3.321
  158SOL    HW1 1373   0.673   2.752   3.383
  158SOL    HW2 1374   0.836   2.738   3.373
  159SOL     OW 1375   5.627   5.574   0.578
  159SOL    HW1 1376   5.711   5.601   0.531
  159SOL    HW2 1377   5.560   5.648   0.572
  160SOL     OW 1378   6.145   6.742   0.905
  160SOL    HW1 1379   6.212   6.803   0.948
  160SOL    HW2 1380   6.105   6.789   0.826
  161SOL     OW 1381   0.803   0.270   0.496
  161SOL    HW1 1382   0.710   0.269   0.533
  161SOL    HW2 1383   0.846   0.181   0.512
  162SOL     OW 1384   3.135   6.431   0.410
  162SOL    HW1 1385   3.039   6.411   0.392
  162SOL    HW2 1386   3.193   6.367   0.359
  163SOL     OW 1387   6.994   3.728   3.922
  163SOL    HW1 1388   6.971   3.791   3.848
  163SOL    HW2 1389   7.004   3.636   3.885
  164SOL     OW 1390   1.936   1.709   3.095
  164SOL    HW1 1391   1.926   1.776   3.168
  164SOL    HW2 1392   2.016   1.652   3.113
  165SOL     OW 1393   0.585   5.546   2.428
  165SOL    HW1 1394   0.651   5.477   2.400
  165SOL    HW2 1395   0.554   5.527   2.521
  166SOL     OW 1396   6.720   4.043   2.780
  166SOL    HW1 1397   6.621   4.055   2.773
  166SOL    HW2 1398   6.765   4.078   2.698
  167SOL     OW 1399   4.924   1.981   0.426
  167SOL    HW1 1400   4.936   2.076   0.457
  167SOL    HW2 1401   5.014   1.938   0.419
  168SOL     OW 1402   5.054   4.093   2.028
  168SOL    HW1 1403   5.006   4.167   2.074
  168SOL    HW2 1404   5.053   4.109   1.929
  169SOL     OW 1405   5.801   2.533   1.203
  169SOL    HW1 1406   5.720   2.495   1.250
  169SOL    HW2 1407   5.840   2.463   1.143
  170SOL     OW 1408   0.626   5.221   1.957
  170SOL    HW1 1409   0.575   5.154   1.903
  170SOL    HW2 1410   0.562   5.273   2.013
  171SOL     OW 1411   2.739   4.299   0.782
  171SOL    HW1 1412   2.674   4.229   0.809
  171SOL    HW2 1413   2.707   4.388   0.815
  172SOL     OW 1414   6.141   2.179   1.645
  172SOL    HW1 1415   6.068   2.230   1.599
  172SOL    HW2 1416   6.221   2.175   1.585
  173SOL     OW 1417   6.742   1.259   5.678
  173SOL    HW1 1418   6.692   1.211   5.606
  173SOL    HW2 1419   6.679   1.283   5.752
  174SOL     OW 1420   5.643   5.459   5.210
  174SOL    HW1 1421   5.735   5.422   5.220
  174SOL    HW2 1422   5.576   5.384   5.211
  175SOL     OW 1423   1.137   0.421   0.528
  175SOL    HW1 1424   1.058   0.364   0.503
  175SOL    HW2 1425   1.107   0.492   0.591
  176SOL     OW 1426   5.204   5.043   2.742
  176SOL    HW1 1427   5.163   4.967   2.691
  176SOL    HW2 1428   5.279   5.009   2.798
  177SOL     OW 1429   5.787   2.234   4.453
  177SOL    HW1 1430   5.731   2.244   4.535
  177SOL    HW2 1431   5.736   2.267   4.373
  178SOL     OW 1432   1.933   6.618   5.392
  178SOL    HW1 1433   1.878   6.690   5.350
  178SOL    HW2 1434   1.873   6.546   5.425
  179SOL     OW 1435   4.330   5.312   0.712
  179SOL    HW1 1436   4.387   5.269   0.781
  179SOL    HW2 1437   4.242   5.266   0.707
  180SOL     OW 1438   4.370   0.934   1.188
  180SOL    HW1 1439   4.411   0.940   1.279
  180SOL    HW2 1440   4.322   1.020   1.167
  181SOL     OW 1441   3.611   2.800   5.237
  181SOL    HW1 1442   3.516   2.767   5.233
  181SOL    HW2 1443   3.656   2.762   5.317
  182SOL     OW 1444   5.103   2.548   6.662
  182SOL    HW1 1445   5.091   2.502   6.750
  182SOL    HW2 1446   5.198   2.539   6.632
  183SOL     OW 1447   3.260   1.504   3.772
  183SOL    HW1 1448   3.316   1.587   3.773
  183SOL    HW2 1449   3.205   1.499   3.855
  184SOL     OW 1450   7.002   6.695   2.886
  184SOL    HW1 1451   6.960   6.770   2.937
  184SOL    HW2 1452   0.036   6.732   2.816
  185SOL     OW 1453   0.385   1.447   4.012
  185SOL    HW1 1454   0.477   1.423   3.982
  185SOL    HW2 1455   0.383   1.451   4.112
  186SOL     OW 1456   4.363   5.251   4.380
  186SOL    HW1 1457   4.338   5.342   4.347
  186SOL    HW2 1458   4.447   5.258   4.435
  187SOL     OW 1459   4.151   5.702   2.466
  187SOL    HW1 1460   4.191   5.776   2.521
  187SOL    HW2 1461   4.052   5.711   2.464
  188SOL     OW 1462   2.593   2.373   2.655
  188SOL    HW1 1463   2.648   2.334   2.581
  188SOL    HW2 1464   2.653   2.417   2.721
  189SOL     OW 1465   6.352   5.584   6.536
  189SOL    HW1 1466   6.391   5.579   6.628
  189SOL    HW2 1467   6.425   5.581   6.468
  190SOL     OW 1468   5.533   6.212   0.268
  190SOL    HW1 1469   5.530   6.297   0.322
  190SOL    HW2 1470   5.480   6.141   0.315
  191SOL     OW 1471   5.907   0.763   5.976
  191SOL    HW1 1472   5.999   0.753   6.015
  191SOL    HW2 1473   5.839   0.747   6.048
  192SOL     OW 1474   0.205   5.336   0.978
  192SOL    HW1 1475   0.232   5.284   0.896
  192SOL    HW2 1476   0.218   5.434   0.961
  193SOL     OW 1477   3.215   5.124   6.473
  193SOL    HW1 1478   3.129   5.087   6.440
  193SOL    HW2 1479   3.288   5.058   6.456
  194SOL     OW 1480   4.278   6.826   2.037
  194SOL    HW1 1481   4.184   6.829   2.004
  194SOL    HW2 1482   4.304   6.916   2.073
  195SOL     OW 1483   3.033   0.919   1.357
  195SOL    HW1 1484   3.090   0.841   1.330
  195SOL    HW2 1485   2.946   0.885   1.394
  196SOL     OW 1486   2.211   0.984   6.455
  196SOL    HW1 1487   2.288   0.967   6.516
  196SOL    HW2 1488   2.165   1.069   6.481
  197SOL     OW 1489   2.752   5.309   0.429
  197SOL    HW1 1490   2.794   5.339   0.344
  197SOL    HW2 1491   2.820   5.266   0.487
  198SOL     OW 1492   4.123   6.596   0.165
  198SOL    HW1 1493   4.101   6.549   0.250
  198SOL    HW2 1494   4.174   6.534   0.105
  199SOL     OW 1495   5.957   7.013   2.669
  199SOL    HW1 1496   5.904   7.026   2.753
  199SOL    HW2 1497   5.896   7.022   2.590
  200SOL     OW 1498   1.266   3.909   3.013
  200SOL    HW1 1499   1.291   3.991   3.063
  200SOL    HW2 1500   1.213   3.934   2.932
  201SOL     OW 1501   2.793   0.860   6.986
  201SOL    HW1 1502   2.809   0.954   7.016
  201SOL    HW2 1503   2.818   0.850   6.890
  202SOL     OW 1504   3.847   6.884   3.785
  202SOL    HW1 1505   3.839   6.917   3.691
  202SOL    HW2 1506   3.827   6.958   3.849
  203SOL     OW 1507   5.500   3.381   6.347
  203SOL    HW1 1508   5.475   3.317   6.420
  203SOL    HW2 1509   5.418   3.408   6.297
  204SOL     OW 1510   1.855   0.018   0.318
  204SOL    HW1 1511   1.870   6.950   0.291
  204SOL    HW2 1512   1.943   0.064   0.329
  205SOL     OW 1513   5.772   1.706   1.282
  205SOL    HW1 1514   5.793   1.736   1.189
  205SOL    HW2 1515   5.696   1.760   1.318
  206SOL     OW 1516   0.545   4.940   1.323
  206SOL    HW1 1517   0.563   4.844   1.339
  206SOL    HW2 1518   0.551   4.991   1.409
  207SOL     OW 1519   4.469   0.470   5.599
  207SOL    HW1 1520   4.479   0.370   5.592
  207SOL    HW2 1521   4.540   0.506   5.660
  208SOL     OW 1522   5.091   4.940   6.113
  208SOL    HW1 1523   5.119   4.992   6.032
  208SOL    HW2 1524   5.016   4.987   6.159
  209SOL     OW 1525   0.059   6.156   5.787
  209SOL    HW1 1526   0.112   6.084   5.741
  209SOL    HW2 1527   0.095   6.246   5.760
  210SOL     OW 1528   3.944   1.816   1.858
  210SOL    HW1 1529   3.946   1.766   1.772
  210SOL    HW2 1530   3.873   1.886   1.854
  211SOL     OW 1531   0.810   1.459   1.317
  211SOL    HW1 1532   0.865   1.405   1.381
  211SOL    HW2 1533   0.870   1.517   1.263
  212SOL     OW 1534   0.637   4.893   2.975
  212SOL    HW1 1535   0.709   4.961   2.992
  212SOL    HW2 1536   0.555   4.918   3.027
  213SOL     OW 1537   4.971   1.471   0.164
  213SOL    HW1 1538   4.998   1.444   0.256
  213SOL    HW2 1539   4.998   1.566   0.148
  214SOL     OW 1540   0.629   6.462   2.443
  214SOL    HW1 1541   0.606   6.437   2.349
  214SOL    HW2 1542   0.622   6.561   2.454
  215SOL     OW 1543   3.844   2.995   1.917
  215SOL    HW1 1544   3.783   2.937   1.970
  215SOL    HW2 1545   3.790   3.048   1.851
  216SOL     OW 1546   1.097   0.225   5.073
  216SOL    HW1 1547   1.013   0.176   5.098
  216SOL    HW2 1548   1.089   0.256   4.978
  217SOL     OW 1549   1.734   2.575   3.974
  217SOL    HW1 1550   1.743   2.592   3.876
  217SOL    HW2 1551   1.739   2.476   3.991
  218SOL     OW 1552   1.114   2.790   4.985
  218SOL    HW1 1553   1.023   2.750   4.982
  218SOL    HW2 1554   1.121   2.851   5.064
  219SOL     OW 1555   4.159   4.101   0.445
  219SOL    HW1 1556   4.226   4.134   0.379
  219SOL    HW2 1557   4.173   4.003   0.461
  220SOL     OW 1558   2.825   5.384   0.195
  220SOL    HW1 1559   2.868   5.449   0.132
  220SOL    HW2 1560   2.726   5.384   0.181
  221SOL     OW 1561   5.321   3.395   3.784
  221SOL    HW1 1562   5.257   3.344   3.842
  221SOL    HW2 1563   5.328   3.489   3.817
  222SOL     OW 1564   1.094   6.020   5.542
  222SOL    HW1 1565   1.134   5.935   5.509
  222SOL    HW2 1566   1.112   6.030   5.640
  223SOL     OW 1567   0.199   3.286   2.153
  223SOL    HW1 1568   0.295   3.274   2.128
  223SOL    HW2 1569   0.156   3.348   2.087
  224SOL     OW 1570   2.698   2.181   1.886
  224SOL    HW1 1571   2.747   2.256   1.931
  224SOL    HW2 1572   2.743   2.094   1.907
  225SOL     OW 1573   5.789   0.579   6.979
  225SOL    HW1 1574   5.734   0.497   6.993
  225SOL    HW2 1575   5.731   0.660   6.987
  226SOL     OW 1576   0.573   6.326   0.348
  226SOL    HW1 1577   0.613   6.343   0.258
  226SOL    HW2 1578   0.635   6.269   0.402
  227SOL     OW 1579   2.106   3.812   3.701
  227SOL    HW1 1580   2.171   3.842   3.631
  227SOL    HW2 1581   2.054   3.734   3.668
  228SOL     OW 1582   3.915   6.780   4.111
  228SOL    HW1 1583   3.867   6.755   4.027
  228SOL    HW2 1584   4.004   6.736   4.114
  229SOL     OW 1585   6.085   5.761   1.947
  229SOL    HW1 1586   6.168   5.815   1.965
  229SOL    HW2 1587   6.060   5.770   1.851
  230SOL     OW 1588   2.199   4.106   4.759
  230SOL    HW1 1589   2.128   4.036   4.764
  230SOL    HW2 1590   2.244   4.115   4.848
  231SOL     OW 1591   0.114   3.392   6.609
  231SOL    HW1 1592   0.140   3.421   6.517
  231SOL    HW2 1593   0.038   3.328   6.604
  232SOL     OW 1594   1.214   3.682   6.753
  232SOL    HW1 1595   1.136   3.649   6.700
  232SOL    HW2 1596   1.297   3.636   6.722
  233SOL     OW 1597   2.552   1.388   5.682
  233SOL    HW1 1598   2.602   1.406   5.767
  233SOL    HW2 1599   2.504   1.471   5.654
  234SOL     OW 1600   2.907   5.104   0.094
  234SOL    HW1 1601   2.920   5.031   0.027
  234SOL    HW2 1602   2.879   5.188   0.048
  235SOL     OW 1603   3.164   3.113   4.054
  235SOL    HW1 1604   3.172   3.212   4.047
  235SOL    HW2 1605   3.129   3.088   4.144
  236SOL     OW 1606   6.842   2.641   5.439
  236SOL    HW1 1607   6.840   2.699   5.520
  236SOL    HW2 1608   6.767   2.667   5.378
  237SOL     OW 1609   0.182   6.882   1.155
  237SOL    HW1 1610   0.214   6.793   1.186
  237SOL    HW2 1611   0.176   6.945   1.233
  238SOL     OW 1612   6.177   3.473   1.876
  238SOL    HW1 1613   6.226   3.461   1.962
  238SOL    HW2 1614   6.229   3.433   1.801
  239SOL     OW 1615   6.636   5.626   6.759
  239SOL    HW1 1616   6.697   5.693   6.715
  239SOL    HW2 1617   6.643   5.539   6.711
  240SOL     OW 1618   0.438   3.829   6.402
  240SOL    HW1 1619   0.394   3.791   6.483
  240SOL    HW2 1620   0.378   3.897   6.360
  241SOL     OW 1621   0.453   1.141   3.642
  241SOL    HW1 1622   0.537   1.110   3.597
  241SOL    HW2 1623   0.440   1.089   3.727
  242SOL     OW 1624   1.476   3.664   4.924
  242SOL    HW1 1625   1.458   3.752   4.968
  242SOL    HW2 1626   1.389   3.618   4.905
  243SOL     OW 1627   5.592   0.147   5.540
  243SOL    HW1 1628   5.678   0.156   5.490
  243SOL    HW2 1629   5.525   0.212   5.506
  244SOL     OW 1630   5.763   2.158   5.227
  244SOL    HW1 1631   5.819   2.087   5.269
  244SOL    HW2 1632   5.678   2.168   5.279
  245SOL     OW 1633   6.562   2.690   4.673
  245SOL    HW1 1634   6.514   2.606   4.648
  245SOL    HW2 1635   6.619   2.720   4.596
  246SOL     OW 1636   4.824   3.808   3.385
  246SOL    HW1 1637   4.914   3.850   3.388
  246SOL    HW2 1638   4.826   3.727   3.327
  247SOL     OW 1639   1.716   1.323   4.183
  247SOL    HW1 1640   1.794   1.292   4.237
  247SOL    HW2 1641   1.724   1.422   4.167
  248SOL     OW 1642   4.889   1.958   4.141
  248SOL    HW1 1643   4.831   1.971   4.060
  248SOL    HW2 1644   4.979   1.923   4.113
  249SOL     OW 1645   3.059   6.689   4.589
  249SOL    HW1 1646   3.125   6.722   4.522
  249SOL    HW2 1647   3.077   6.594   4.611
  250SOL     OW 1648   5.242   3.801   5.431
  250SOL    HW1 1649   5.300   3.858   5.373
  250SOL    HW2 1650   5.204   3.726   5.376
  251SOL     OW 1651   4.590   2.996   6.641
  251SOL    HW1 1652   4.570   3.076   6.698
  251SOL    HW2 1653   4.525   2.923   6.663
  252SOL     OW 1654   6.407   1.222   6.031
  252SOL    HW1 1655   6.434   1.212   6.126
  252SOL    HW2 1656   6.483   1.259   5.978
  253SOL     OW 1657   2.805   3.124   0.524
  253SOL    HW1 1658   2.764   3.035   0.502
  253SOL    HW2 1659   2.904   3.120   0.506
  254SOL     OW 1660   6.590   3.506   4.481
  254SOL    HW1 1661   6.572   3.595   4.440
  254SOL    HW2 1662   6.639   3.448   4.415
  255SOL     OW 1663   2.659   2.309   3.256
  255SOL    HW1 1664   2.721   2.247   3.209
  255SOL    HW2 1665   2.701   2.341   3.341
  256SOL     OW 1666   6.171   5.381   0.060
  256SOL    HW1 1667   6.160   5.285   0.087
  256SOL    HW2 1668   6.127   5.440   0.127
  257SOL     OW 1669   3.261   5.470   6.214
  257SOL    HW1 1670   3.208   5.502   6.293
  257SOL    HW2 1671   3.358   5.479   6.234
  258SOL     OW 1672   5.761   4.007   4.270
  258SOL    HW1 1673   5.733   4.029   4.176
  258SOL    HW2 1674   5.837   4.066   4.296
  259SOL     OW 1675   1.609   2.750   2.687
  259SOL    HW1 1676   1.628   2.836   2.641
  259SOL    HW2 1677   1.687   2.689   2.677
  260SOL     OW 1678   5.628   0.231   6.108
  260SOL    HW1 1679   5.685   0.266   6.182
  260SOL    HW2 1680   5.617   0.132   6.116
  261SOL     OW 1681   0.990   3.879   1.952
  261SOL    HW1 1682   0.897   3.890   1.917
  261SOL    HW2 1683   1.050   3.850   1.877
  262SOL     OW 1684   1.135   3.389   2.036
  262SOL    HW1 1685   1.185   3.372   1.950
  262SOL    HW2 1686   1.060   3.452   2.019
  263SOL     OW 1687   0.562   2.234   5.165
  263SOL    HW1 1688   0.463   2.240   5.175
  263SOL    HW2 1689   0.587   2.249   5.070
  264SOL     OW 1690   1.644   4.410   5.748
  264SOL    HW1 1691   1.552   4.449   5.752
  264SOL    HW2 1692   1.644   4.320   5.792
  265SOL     OW 1693   5.204   4.668   3.712
  265SOL    HW1 1694   5.133   4.722   3.666
  265SOL    HW2 1695   5.267   4.729   3.759
  266SOL     OW 1696   4.211   1.157   0.832
  266SOL    HW1 1697   4.132   1.122   0.781
  266SOL    HW2 1698   4.186   1.243   0.876
  267SOL     OW 1699   1.656   2.064   6.203
  267SOL    HW1 1700   1.673   2.007   6.284
  267SOL    HW2 1701   1.709   2.149   6.211
  268SOL     OW 1702   4.238   4.759   4.254
  268SOL    HW1 1703   4.188   4.761   4.340
  268SOL    HW2 1704   4.309   4.688   4.258
  269SOL     OW 1705   0.882   2.079   6.319
  269SOL    HW1 1706   0.872   2.172   6.354
  269SOL    HW2 1707   0.861   2.013   6.391
  270SOL     OW 1708   4.864   0.842   2.075
  270SOL    HW1 1709   4.956   0.822   2.109
  270SOL    HW2 1710   4.831   0.927   2.115
  271SOL     OW 1711   1.488   0.150   0.115
  271SOL    HW1 1712   1.464   0.053   0.107
  271SOL    HW2 1713   1.572   0.159   0.169
  272SOL     OW 1714   3.481   5.486   3.213
  272SOL    HW1 1715   3.396   5.528   3.244
  272SOL    HW2 1716   3.474   5.386   3.220
  273SOL     OW 1717   1.869   5.968   4.957
  273SOL    HW1 1718   1.867   6.061   4.920
  273SOL    HW2 1719   1.964   5.937   4.963
  274SOL     OW 1720   6.215   2.729   2.692
  274SOL    HW1 1721   6.119   2.738   2.665
  274SOL    HW2 1722   6.223   2.739   2.791
  275SOL     OW 1723   6.472   6.417   5.491
  275SOL    HW1 1724   6.564   6.400   5.527
  275SOL    HW2 1725   6.471   6.504   5.442
  276SOL     OW 1726   6.347   5.887   3.987
  276SOL    HW1 1727   6.406   5.880   4.067
  276SOL    HW2 1728   6.382   5.958   3.926
  277SOL     OW 1729   3.390   1.723   5.203
  277SOL    HW1 1730   3.464   1.718   5.136
  277SOL    HW2 1731   3.318   1.784   5.169
  278SOL     OW 1732   5.699   3.641   2.355
  278SOL    HW1 1733   5.721   3.737   2.337
  278SOL    HW2 1734   5.751   3.584   2.291
  279SOL     OW 1735   0.135   2.693   3.304
  279SOL    HW1 1736   0.204   2.739   3.361
  279SOL    HW2 1737   0.180   2.623   3.248
  280SOL     OW 1738   4.775   0.291   4.287
  280SOL    HW1 1739   4.837   0.369   4.281
  280SOL    HW2 1740   4.686   0.316   4.251
  281SOL     OW 1741   5.025   6.280   4.275
  281SOL    HW1 1742   5.011   6.322   4.186
  281SOL    HW2 1743   4.987   6.340   4.347
  282SOL     OW 1744   4.609   2.071   6.545
  282SOL    HW1 1745   4.529   2.125   6.572
  282SOL    HW2 1746   4.596   1.976   6.575
  283SOL     OW 1747   6.490   0.941   4.688
  283SOL    HW1 1748   6.561   1.002   4.651
  283SOL    HW2 1749   6.443   0.896   4.612
  284SOL     OW 1750   6.492   4.986   4.449
  284SOL    HW1 1751   6.465   4.903   4.401
  284SOL    HW2 1752   6.506   4.966   4.545
  285SOL     OW 1753   3.970   0.519   6.929
  285SOL    HW1 1754   3.913   0.592   6.891
  285SOL    HW2 1755   4.053   0.510   6.874
  286SOL     OW 1756   3.875   4.892   4.571
  286SOL    HW1 1757   3.837   4.936   4.489
  286SOL    HW2 1758   3.933   4.815   4.543
  287SOL     OW 1759   3.050   6.200   6.038
  287SOL    HW1 1760   2.960   6.242   6.051
  287SOL    HW2 1761   3.048   6.141   5.957
  288SOL     OW 1762   3.584   0.879   0.952
  288SOL    HW1 1763   3.506   0.942   0.959
  288SOL    HW2 1764   3.553   0.792   0.913
  289SOL     OW 1765   0.433   6.329   4.242
  289SOL    HW1 1766   0.519   6.321   4.192
  289SOL    HW2 1767   0.358   6.298   4.184
  290SOL     OW 1768   3.637   0.923   3.619
  290SOL    HW1 1769   3.700   0.921   3.542
  290SOL    HW2 1770   3.644   1.011   3.666
  291SOL     OW 1771   4.857   0.521   4.142
  291SOL    HW1 1772   4.912   0.584   4.088
  291SOL    HW2 1773   4.780   0.570   4.183
  292SOL     OW 1774   3.622   0.095   3.623
  292SOL    HW1 1775   3.703   0.076   3.568
  292SOL    HW2 1776   3.635   0.061   3.716
  293SOL     OW 1777   5.872   6.585   3.019
  293SOL    HW1 1778   5.946   6.527   3.053
  293SOL    HW2 1779   5.845   6.556   2.928
  294SOL     OW 1780   5.743   1.069   5.410
  294SOL    HW1 1781   5.648   1.045   5.390
  294SOL    HW2 1782   5.798   1.063   5.327
  295SOL     OW 1783   1.106   1.992   5.366
  295SOL    HW1 1784   1.082   1.953   5.277
  295SOL    HW2 1785   1.201   2.023   5.364
  296SOL     OW 1786   6.354   1.585   1.702
  296SOL    HW1 1787   6.412   1.667   1.698
  296SOL    HW2 1788   6.410   1.507   1.730
  297SOL     OW 1789   5.601   4.096   3.639
  297SOL    HW1 1790   5.548   4.047   3.707
  297SOL    HW2 1791   5.541   4.125   3.564
  298SOL     OW 1792   4.171   0.302   0.622
  298SOL    HW1 1793   4.213   0.370   0.562
  298SOL    HW2 1794   4.149   0.345   0.710
  299SOL     OW 1795   2.884   1.313   6.443
  299SOL    HW1 1796   2.953   1.309   6.516
  299SOL    HW2 1797   2.899   1.395   6.388
  300SOL     OW 1798   3.432   1.312   2.583
  300SOL    HW1 1799   3.458   1.229   2.533
  300SOL    HW2 1800   3.440   1.296   2.681
  301SOL     OW 1801   5.756   5.995   1.835
  301SOL    HW1 1802   5.774   5.929   1.908
  301SOL    HW2 1803   5.813   6.076   1.847
  302SOL     OW 1804   6.903   6.465   1.719
  302SOL    HW1 1805   6.808   6.487   1.741
  302SOL    HW2 1806   6.964   6.525   1.769
  303SOL     OW 1807   6.483   5.970   2.535
  303SOL    HW1 1808   6.485   6.006   2.628
  303SOL    HW2 1809   6.449   6.041   2.472
  304SOL     OW 1810   1.368   0.315   5.125
  304SOL    HW1 1811   1.409   0.242   5.180
  304SOL    HW2 1812   1.276   0.287   5.097
  305SOL     OW 1813   1.884   2.402   2.006
  305SOL    HW1 1814   1.786   2.414   1.989
  305SOL    HW2 1815   1.926   2.491   2.025
  306SOL     OW 1816   6.445   0.777   3.504
  306SOL    HW1 1817   6.517   0.760   3.436
  306SOL    HW2 1818   6.395   0.860   3.478
  307SOL     OW 1819   3.166   3.577   2.096
  307SOL    HW1 1820   3.213   3.547   2.014
  307SOL    HW2 1821   3.073   3.541   2.097
  308SOL     OW 1822   5.503   1.040   4.014
  308SOL    HW1 1823   5.514   0.940   4.016
  308SOL    HW2 1824   5.583   1.083   4.053
  309SOL     OW 1825   0.858   6.557   6.366
  309SOL    HW1 1826   0.833   6.616   6.289
  309SOL    HW2 1827   0.838   6.462   6.343
  310SOL     OW 1828   5.116   5.340   4.612
  310SOL    HW1 1829   5.099   5.393   4.529
  310SOL    HW2 1830   5.096   5.243   4.595
  311SOL     OW 1831   1.339   5.479   2.945
  311SOL    HW1 1832   1.362   5.415   2.872
  311SOL    HW2 1833   1.310   5.566   2.904
  312SOL     OW 1834   4.524   2.158   3.238
  312SOL    HW1 1835   4.543   2.238   3.181
  312SOL    HW2 1836   4.427   2.136   3.234
  313SOL     OW 1837   3.601   3.775   2.881
  313SOL    HW1 1838   3.597   3.713   2.959
  313SOL    HW2 1839   3.608   3.869   2.914
  314SOL     OW 1840   1.658   6.638   4.969
  314SOL    HW1 1841   1.590   6.708   4.950
  314SOL    HW2 1842   1.707   6.662   5.053
  315SOL     OW 1843   6.301   1.026   3.479
  315SOL    HW1 1844   6.383   1.082   3.477
  315SOL    HW2 1845   6.225   1.077   3.439
  316SOL     OW 1846   4.155   1.330   5.043
  316SOL    HW1 1847   4.224   1.258   5.046
  316SOL    HW2 1848   4.074   1.302   5.095
  317SOL     OW 1849   1.305   1.379   1.730
  317SOL    HW1 1850   1.365   1.444   1.685
  317SOL    HW2 1851   1.336   1.286   1.712
  318SOL     OW 1852   6.780   0.536   5.895
  318SOL    HW1 1853   6.814   0.454   5.940
  318SOL    HW2 1854   6.710   0.579   5.952
  319SOL     OW 1855   1.368   2.151   2.829
  319SOL    HW1 1856   1.386   2.145   2.730
  319SOL    HW2 1857   1.387   2.244   2.861
  320SOL     OW 1858   5.311   2.260   6.940
  320SOL    HW1 1859   5.267   2.244   6.852
  320SOL    HW2 1860   5.392   2.318   6.926
  321SOL     OW 1861   4.175   3.155   0.822
  321SOL    HW1 1862   4.150   3.182   0.729
  321SOL    HW2 1863   4.145   3.061   0.839
  322SOL     OW 1864   4.550   3.449   0.101
  322SOL    HW1 1865   4.556   3.530   0.042
  322SOL    HW2 1866   4.625   3.387   0.079
  323SOL     OW 1867   0.256   3.058   3.392
  323SOL    HW1 1868   0.232   3.149   3.424
  323SOL    HW2 1869   0.253   2.993   3.468
  324SOL     OW 1870   1.519   0.136   3.030
  324SOL    HW1 1871   1.615   0.159   3.012
  324SOL    HW2 1872   1.490   0.178   3.116
  325SOL     OW 1873   1.056   3.523   2.328
  325SOL    HW1 1874   1.079   3.491   2.420
  325SOL    HW2 1875   1.136   3.512   2.269
  326SOL     OW 1876   2.115   5.626   6.253
  326SOL    HW1 1877   2.133   5.703   6.192
  326SOL    HW2 1878   2.110   5.542   6.200
  327SOL     OW 1879   3.607   5.695   3.116
  327SOL    HW1 1880   3.559   5.617   3.157
  327SOL    HW2 1881   3.634   5.759   3.188
  328SOL     OW 1882   2.228   4.514   1.820
  328SOL    HW1 1883   2.220   4.443   1.750
  328SOL    HW2 1884   2.228   4.472   1.911
  329SOL     OW 1885   3.272   4.138   1.864
  329SOL    HW1 1886   3.181   4.171   1.840
  329SOL    HW2 1887   3.339   4.179   1.803
  330SOL     OW 1888   3.946   4.848   0.279
  330SOL    HW1 1889   3.886   4.928   0.267
  330SOL    HW2 1890   3.989   4.826   0.192
  331SOL     OW 1891   4.972   5.237   0.681
  331SOL    HW1 1892   5.018   5.276   0.761
  331SOL    HW2 1893   4.881   5.278   0.672
  332SOL     OW 1894   5.509   2.228   3.572
  332SOL    HW1 1895   5.512   2.273   3.483
  332SOL    HW2 1896   5.590   2.251   3.624
  333SOL     OW 1897   3.725   0.809   5.292
  333SOL    HW1 1898   3.789   0.885   5.277
  333SOL    HW2 1899   3.638   0.830   5.249
  334SOL     OW 1900   4.045   3.174   2.906
  334SOL    HW1 1901   4.076   3.264   2.936
  334SOL    HW2 1902   4.008   3.124   2.984
  335SOL     OW 1903   3.344   0.008   6.766
  335SOL    HW1 1904   3.314   0.045   6.854
  335SOL    HW2 1905   3.292   6.953   6.744
  336SOL     OW 1906   2.373   1.297   3.533
  336SOL    HW1 1907   2.403   1.333   3.621
  336SOL    HW2 1908   2.446   1.307   3.466
  337SOL     OW 1909   1.786   1.735   6.064
  337SOL    HW1 1910   1.769   1.827   6.031
  337SOL    HW2 1911   1.746   1.669   6.001
  338SOL     OW 1912   4.430   2.731   1.519
  338SOL    HW1 1913   4.474   2.810   1.561
  338SOL    HW2 1914   4.398   2.756   1.427
  339SOL     OW 1915   4.193   4.813   4.538
  339SOL    HW1 1916   4.222   4.905   4.510
  339SOL    HW2 1917   4.224   4.795   4.631
  340SOL     OW 1918   4.747   2.487   5.039
  340SOL    HW1 1919   4.814   2.552   5.003
  340SOL    HW2 1920   4.655   2.513   5.010
  341SOL     OW 1921   5.778   6.375   3.873
  341SOL    HW1 1922   5.787   6.348   3.970
  341SOL    HW2 1923   5.862   6.421   3.844
  342SOL     OW 1924   4.924   3.455   1.004
  342SOL    HW1 1925   4.861   3.384   0.974
  342SOL    HW2 1926   4.872   3.526   1.053
  343SOL     OW 1927   0.917   5.394   2.790
  343SOL    HW1 1928   0.976   5.422   2.714
  343SOL    HW2 1929   0.840   5.341   2.754
  344SOL     OW 1930   1.484   1.552   1.555
  344SOL    HW1 1931   1.568   1.607   1.552
  344SOL    HW2 1932   1.405   1.613   1.569
  345SOL     OW 1933   6.857   2.260   4.472
  345SOL    HW1 1934   6.889   2.166   4.478
  345SOL    HW2 1935   6.761   2.265   4.499
  346SOL     OW 1936   1.826   0.115   2.766
  346SOL    HW1 1937   1.926   0.111   2.765
  346SOL    HW2 1938   1.794   0.137   2.859
  347SOL     OW 1939   2.788   5.746   0.381
  347SOL    HW1 1940   2.738   5.809   0.321
  347SOL    HW2 1941   2.886   5.757   0.366
  348SOL     OW 1942   4.931   5.215   2.303
  348SOL    HW1 1943   4.969   5.238   2.214
  348SOL    HW2 1944   4.873   5.291   2.334
  349SOL     OW 1945   6.939   4.087   1.366
  349SOL    HW1 1946   6.968   4.114   1.458
  349SOL    HW2 1947   6.991   4.138   1.298
  350SOL     OW 1948   3.998   3.115   0.285
  350SOL    HW1 1949   4.024   3.204   0.248
  350SOL    HW2 1950   4.080   3.060   0.302
  351SOL     OW 1951   3.309   3.724   0.745
  351SOL    HW1 1952   3.342   3.711   0.838
  351SOL    HW2 1953   3.300   3.635   0.700
  352SOL     OW 1954   4.393   5.891   3.799
  352SOL    HW1 1955   4.492   5.895   3.780
  352SOL    HW2 1956   4.366   5.795   3.808
  353SOL     OW 1957   2.714   6.657   5.900
  353SOL    HW1 1958   2.745   6.748   5.872
  353SOL    HW2 1959   2.624   6.665   5.943
  354SOL     OW 1960   5.508   2.692   1.072
  354SOL    HW1 1961   5.575   2.713   1.143
  354SOL    HW2 1962   5.542   2.618   1.014
  355SOL     OW 1963   1.893   3.276   2.588
  355SOL    HW1 1964   1.825   3.275   2.515
  355SOL    HW2 1965   1.972   3.330   2.560
  356SOL     OW 1966   1.676   0.503   5.247
  356SOL    HW1 1967   1.636   0.418   5.280
  356SOL    HW2 1968   1.622   0.538   5.170
  357SOL     OW 1969   6.032   6.977   4.484
  357SOL    HW1 1970   5.978   6.896   4.464
  357SOL    HW2 1971   6.045   0.003   4.401
  358SOL     OW 1972   5.238   5.645   0.670
  358SOL    HW1 1973   5.259   5.550   0.646
  358SOL    HW2 1974   5.206   5.693   0.588
  359SOL     OW 1975   3.105   1.476   2.220
  359SOL    HW1 1976   3.027   1.455   2.279
  359SOL    HW2 1977   3.114   1.575   2.209
  360SOL     OW 1978   0.876   5.181   4.424
  360SOL    HW1 1979   0.900   5.090   4.392
  360SOL    HW2 1980   0.954   5.221   4.473
  361SOL     OW 1981   6.605   6.013   3.142
  361SOL    HW1 1982   6.650   5.923   3.144
  361SOL    HW2 1983   6.639   6.064   3.063
  362SOL     OW 1984   3.823   4.015   0.805
  362SOL    HW1 1985   3.742   3.993   0.860
  362SOL    HW2 1986   3.806   4.098   0.752
  363SOL     OW 1987   6.451   4.707   2.796
  363SOL    HW1 1988   6.458   4.714   2.896
  363SOL    HW2 1989   6.370   4.654   2.771
  364SOL     OW 1990   0.279   4.699   6.698
  364SOL    HW1 1991   0.343   4.642   6.644
  364SOL    HW2 1992   0.299   4.687   6.795
  365SOL     OW 1993   3.478   0.762   2.010
  365SOL    HW1 1994   3.468   0.710   1.925
  365SOL    HW2 1995   3.422   0.720   2.081
  366SOL     OW 1996   6.013   3.365   6.958
  366SOL    HW1 1997   6.044   3.371   0.026
  366SOL    HW2 1998   5.917   3.394   6.953
  367SOL     OW 1999   5.199   2.198   5.646
  367SOL    HW1 2000   5.236   2.248   5.568
  367SOL    HW2 2001   5.192   2.260   5.724
  368SOL     OW 2002   6.556   1.858   6.228
  368SOL    HW1 2003   6.506   1.919   6.167
  368SOL    HW2 2004   6.537   1.763   6.203
  369SOL     OW 2005   6.025   4.271   2.972
  369SOL    HW1 2006   5.986   4.189   3.013
  369SOL    HW2 2007   6.078   4.245   2.891
  370SOL     OW 2008   1.723   2.336   4.265
  370SOL    HW1 2009   1.738   2.424   4.311
  370SOL    HW2 2010   1.777   2.265   4.310
  371SOL     OW 2011   1.938   4.040   6.631
  371SOL    HW1 2012   2.035   4.066   6.634
  371SOL    HW2 2013   1.925   3.971   6.559
  372SOL     OW 2014   2.076   6.930   5.120
  372SOL    HW1 2015   2.008   6.864   5.088
  372SOL    HW2 2016   2.042   6.976   5.203
  373SOL     OW 2017   5.887   6.546   5.021
  373SOL    HW1 2018   5.841   6.510   5.102
  373SOL    HW2 2019   5.983   6.519   5.023
  374SOL     OW 2020   1.936   1.674   2.801
  374SOL    HW1 2021   2.028   1.643   2.778
  374SOL    HW2 2022   1.925   1.675   2.901
  375SOL     OW 2023   0.445   5.371   5.222
  375SOL    HW1 2024   0.512   5.439   5.254
  375SOL    HW2 2025   0.472   5.280   5.256
  376SOL     OW 2026   2.463   1.107   4.539
  376SOL    HW1 2027   2.526   1.080   4.466
  376SOL    HW2 2028   2.425   1.197   4.520
  377SOL     OW 2029   1.568   2.229   0.260
  377SOL    HW1 2030   1.617   2.146   0.234
  377SOL    HW2 2031   1.562   2.291   0.182
  378SOL     OW 2032   3.336   1.404   6.586
  378SOL    HW1 2033   3.424   1.371   6.553
  378SOL    HW2 2034   3.338   1.412   6.686
  379SOL     OW 2035   5.595   2.456   6.726
  379SOL    HW1 2036   5.667   2.431   6.661
  379SOL    HW2 2037   5.637   2.501   6.805
  380SOL     OW 2038   3.191   1.126   1.253
  380SOL    HW1 2039   3.156   1.043   1.297
  380SOL    HW2 2040   3.241   1.180   1.320
  381SOL     OW 2041   1.797   4.537   4.325
  381SOL    HW1 2042   1.812   4.588   4.410
  381SOL    HW2 2043   1.863   4.462   4.319
  382SOL     OW 2044   6.308   0.021   0.368
  382SOL    HW1 2045   6.367   0.074   0.429
  382SOL    HW2 2046   6.258   0.084   0.308
  383SOL     OW 2047   4.352   3.047   0.563
  383SOL    HW1 2048   4.361   2.956   0.603
  383SOL    HW2 2049   4.357   3.116   0.635
  384SOL     OW 2050   0.316   3.718   3.984
  384SOL    HW1 2051   0.329   3.620   3.973
  384SOL    HW2 2052   0.349   3.766   3.903
  385SOL     OW 2053   4.048   5.373   6.385
  385SOL    HW1 2054   4.116   5.444   6.367
  385SOL    HW2 2055   4.017   5.335   6.298
  386SOL     OW 2056   4.239   0.594   3.734
  386SOL    HW1 2057   4.177   0.636   3.801
  386SOL    HW2 2058   4.197   0.510   3.698
  387SOL     OW 2059   1.668   4.901   2.817
  387SOL    HW1 2060   1.623   4.814   2.797
  387SOL    HW2 2061   1.730   4.890   2.895
  388SOL     OW 2062   2.260   2.185   6.718
  388SOL    HW1 2063   2.276   2.159   6.623
  388SOL    HW2 2064   2.294   2.112   6.778
  389SOL     OW 2065   3.600   3.653   3.172
  389SOL    HW1 2066   3.556   3.573   3.213
  389SOL    HW2 2067   3.687   3.670   3.218
  390SOL     OW 2068   2.656   1.010   3.829
  390SOL    HW1 2069   2.675   0.920   3.867
  390SOL    HW2 2070   2.560   1.014   3.800
  391SOL     OW 2071   1.634   3.236   6.441
  391SOL    HW1 2072   1.681   3.318   6.475
  391SOL    HW2 2073   1.670   3.212   6.351
  392SOL     OW 2074   2.028   4.958   1.587
  392SOL    HW1 2075   2.034   5.004   1.676
  392SOL    HW2 2076   2.003   5.025   1.517
  393SOL     OW 2077   6.247   4.578   5.583
  393SOL    HW1 2078   6.224   4.651   5.646
  393SOL    HW2 2079   6.266   4.616   5.492
  394SOL     OW 2080   0.912   6.862   0.363
  394SOL    HW1 2081   0.816   6.883   0.346
  394SOL    HW2 2082   0.969   6.908   0.294
  395SOL     OW 2083   5.114   4.152   2.394
  395SOL    HW1 2084   5.031   4.191   2.354
  395SOL    HW2 2085   5.116   4.170   2.492
  396SOL     OW 2086   3.853   3.989   3.063
  396SOL    HW1 2087   3.787   4.053   3.023
  396SOL    HW2 2088   3.890   3.931   2.991
  397SOL     OW 2089   4.094   2.951   5.882
  397SOL    HW1 2090   4.042   2.888   5.825
  397SOL    HW2 2091   4.036   3.028   5.908
  398SOL     OW 2092   1.181   5.636   2.107
  398SOL    HW1 2093   1.202   5.582   2.026
  398SOL    HW2 2094   1.150   5.576   2.180
  399SOL     OW 2095   5.468   6.172   2.812
  399SOL    HW1 2096   5.524   6.090   2.822
  399SOL    HW2 2097   5.457   6.217   2.901
  400SOL     OW 2098   0.356   0.020   6.195
  400SOL    HW1 2099   0.276   0.016   6.134
  400SOL    HW2 2100   0.439   0.012   6.141
  401SOL     OW 2101   4.697   0.679   6.156
  401SOL    HW1 2102   4.766   0.612   6.131
  401SOL    HW2 2103   4.738   0.750   6.214
  402SOL     OW 2104   6.192   6.457   3.169
  402SOL    HW1 2105   6.216   6.478   3.074
  402SOL    HW2 2106   6.116   6.392   3.170
  403SOL     OW 2107   4.440   2.633   6.027
  403SOL    HW1 2108   4.490   2.555   6.063
  403SOL    HW2 2109   4.345   2.631   6.059
  404SOL     OW 2110   1.643   6.663   3.527
  404SOL    HW1 2111   1.615   6.597   3.457
  404SOL    HW2 2112   1.573   6.734   3.535
  405SOL     OW 2113   1.892   2.096   1.305
  405SOL    HW1 2114   1.948   2.039   1.245
  405SOL    HW2 2115   1.839   2.161   1.249
  406SOL     OW 2116   1.477   2.656   3.907
  406SOL    HW1 2117   1.564   2.624   3.946
  406SOL    HW2 2118   1.452   2.743   3.949
  407SOL     OW 2119   2.474   0.365   4.026
  407SOL    HW1 2120   2.527   0.442   3.991
  407SOL    HW2 2121   2.466   0.372   4.125
  408SOL     OW 2122   1.353   0.741   3.102
  408SOL    HW1 2123   1.419   0.816   3.092
  408SOL    HW2 2124   1.263   0.772   3.073
  409SOL     OW 2125   5.891   2.773   2.367
  409SOL    HW1 2126   5.808   2.790   2.312
  409SOL    HW2 2127   5.951   2.711   2.317
  410SOL     OW 2128   2.437   0.151   0.015
  410SOL    HW1 2129   2.365   0.221   0.016
  410SOL    HW2 2130   2.398   0.064   7.012
  411SOL     OW 2131   5.865   6.453   6.722
  411SOL    HW1 2132   5.792   6.385   6.729
  411SOL    HW2 2133   5.901   6.453   6.629
  412SOL     OW 2134   4.483   0.116   3.228
  412SOL    HW1 2135   4.563   0.169   3.256
  412SOL    HW2 2136   4.495   0.084   3.134
  413SOL     OW 2137   4.000   4.445   1.255
  413SOL    HW1 2138   3.957   4.494   1.330
  413SOL    HW2 2139   4.039   4.359   1.289
  414SOL     OW 2140   4.011   5.181   2.704
  414SOL    HW1 2141   4.093   5.206   2.755
  414SOL    HW2 2142   4.023   5.088   2.666
  415SOL     OW 2143   1.206   6.050   0.549
  415SOL    HW1 2144   1.142   6.097   0.610
  415SOL    HW2 2145   1.217   6.103   0.465
  416SOL     OW 2146   4.297   5.795   5.100
  416SOL    HW1 2147   4.295   5.707   5.146
  416SOL    HW2 2148   4.204   5.831   5.092
  417SOL     OW 2149   2.940   6.517   0.782
  417SOL    HW1 2150   3.012   6.554   0.724
  417SOL    HW2 2151   2.931   6.573   0.864
  418SOL     OW 2152   4.844   6.044   0.353
  418SOL    HW1 2153   4.933   6.013   0.319
  418SOL    HW2 2154   4.836   6.142   0.338
  419SOL     OW 2155   0.890   0.280   1.226
  419SOL    HW1 2156   0.901   0.180   1.217
  419SOL    HW2 2157   0.793   0.302   1.231
  420SOL     OW 2158   6.274   3.524   1.344
  420SOL    HW1 2159   6.306   3.595   1.282
  420SOL    HW2 2160   6.212   3.564   1.411
  421SOL     OW 2161   0.780   4.840   6.286
  421SOL    HW1 2162   0.705   4.892   6.245
  421SOL    HW2 2163   0.867   4.874   6.250
  422SOL     OW 2164   6.156   5.882   0.589
  422SOL    HW1 2165   6.171   5.833   0.675
  422SOL    HW2 2166   6.116   5.971   0.607
  423SOL     OW 2167   6.620   3.490   0.137
  423SOL    HW1 2168   6.584   3.524   0.224
  423SOL    HW2 2169   6.700   3.543   0.111
  424SOL     OW 2170   2.982   3.499   1.183
  424SOL    HW1 2171   3.054   3.535   1.242
  424SOL    HW2 2172   3.019   3.427   1.125
  425SOL     OW 2173   5.217   1.103   2.033
  425SOL    HW1 2174   5.126   1.129   2.066
  425SOL    HW2 2175   5.208   1.052   1.948
  426SOL     OW 2176   5.790   2.306   4.995
  426SOL    HW1 2177   5.830   2.398   4.997
  426SOL    HW2 2178   5.796   2.265   5.086
  427SOL     OW 2179   5.595   5.201   2.630
  427SOL    HW1 2180   5.550   5.286   2.655
  427SOL    HW2 2181   5.545   5.157   2.556
  428SOL     OW 2182   4.615   0.243   5.099
  428SOL    HW1 2183   4.703   0.207   5.067
  428SOL    HW2 2184   4.576   0.301   5.029
  429SOL     OW 2185   2.925   4.844   1.299
  429SOL    HW1 2186   2.833   4.838   1.260
  429SOL    HW2 2187   2.970   4.754   1.291
  430SOL     OW 2188   0.546   6.658   4.038
  430SOL    HW1 2189   0.451   6.633   4.019
  430SOL    HW2 2190   0.559   6.755   4.020
  431SOL     OW 2191   3.544   0.707   0.387
  431SOL    HW1 2192   3.533   0.608   0.394
  431SOL    HW2 2193   3.457   0.752   0.408
  432SOL     OW 2194   6.877   2.350   1.166
  432SOL    HW1 2195   6.846   2.271   1.219
  432SOL    HW2 2196   6.799   2.391   1.118
  433SOL     OW 2197   2.905   6.790   3.736
  433SOL    HW1 2198   2.944   6.790   3.828
  433SOL    HW2 2199   2.860   6.702   3.718
  434SOL     OW 2200   4.920   5.102   1.641
  434SOL    HW1 2201   4.861   5.075   1.566
  434SOL    HW2 2202   5.016   5.087   1.616
  435SOL     OW 2203   3.729   2.687   5.459
  435SOL    HW1 2204   3.690   2.720   5.545
  435SOL    HW2 2205   3.821   2.651   5.475
  436SOL     OW 2206   2.571   6.706   1.250
  436SOL    HW1 2207   2.593   6.625   1.305
  436SOL    HW2 2208   2.472   6.716   1.242
  437SOL     OW 2209   0.750   0.115   6.338
  437SOL    HW1 2210   0.821   0.063   6.387
  437SOL    HW2 2211   0.681   0.052   6.303
  438SOL     OW 2212   1.928   3.181   2.272
  438SOL    HW1 2213   2.020   3.220   2.278
  438SOL    HW2 2214   1.932   3.094   2.222
  439SOL     OW 2215   6.226   4.154   3.502
  439SOL    HW1 2216   6.314   4.115   3.472
  439SOL    HW2 2217   6.239   4.204   3.587
  440SOL     OW 2218   0.770   2.079   4.736
  440SOL    HW1 2219   0.719   2.160   4.766
  440SOL    HW2 2220   0.865   2.104   4.718
  441SOL     OW 2221   0.841   2.285   3.072
  441SOL    HW1 2222   0.940   2.277   3.074
  441SOL    HW2 2223   0.799   2.203   3.111
  442SOL     OW 2224   2.113   5.196   7.014
  442SOL    HW1 2225   2.160   5.115   0.022
  442SOL    HW2 2226   2.173   5.244   6.949
  443SOL     OW 2227   1.052   3.930   4.669
  443SOL    HW1 2228   1.011   3.981   4.745
  443SOL    HW2 2229   1.150   3.949   4.665
  444SOL     OW 2230   5.299   2.414   5.898
  444SOL    HW1 2231   5.299   2.509   5.866
  444SOL    HW2 2232   5.343   2.409   5.988
  445SOL     OW 2233   1.589   5.678   3.207
  445SOL    HW1 2234   1.597   5.594   3.154
  445SOL    HW2 2235   1.594   5.757   3.146
  446SOL     OW 2236   3.972   4.908   3.344
  446SOL    HW1 2237   4.032   4.891   3.265
  446SOL    HW2 2238   3.892   4.959   3.314
  447SOL     OW 2239   0.288   3.515   0.192
  447SOL    HW1 2240   0.294   3.446   0.120
  447SOL    HW2 2241   0.315   3.475   0.279
  448SOL     OW 2242   3.268   0.486   4.910
  448SOL    HW1 2243   3.249   0.520   4.818
  448SOL    HW2 2244   3.229   0.549   4.977
  449SOL     OW 2245   4.566   1.111   5.227
  449SOL    HW1 2246   4.586   1.018   5.259
  449SOL    HW2 2247   4.613   1.177   5.286
  450SOL     OW 2248   0.918   6.054   3.354
  450SOL    HW1 2249   0.984   6.009   3.415
  450SOL    HW2 2250   0.905   5.997   3.273
  451SOL     OW 2251   1.945   2.137   3.104
  451SOL    HW1 2252   1.871   2.203   3.112
  451SOL    HW2 2253   1.921   2.053   3.154
  452SOL     OW 2254   6.327   5.800   1.153
  452SOL    HW1 2255   6.307   5.880   1.211
  452SOL    HW2 2256   6.399   5.824   1.088
  453SOL     OW 2257   3.096   0.284   4.967
  453SOL    HW1 2258   3.047   0.271   4.881
  453SOL    HW2 2259   3.156   0.363   4.960
  454SOL     OW 2260   0.493   5.230   6.219
  454SOL    HW1 2261   0.397   5.256   6.232
  454SOL    HW2 2262   0.550   5.312   6.219
  455SOL     OW 2263   0.228   0.823   4.278
  455SOL    HW1 2264   0.224   0.743   4.219
  455SOL    HW2 2265   0.136   0.844   4.313
  456SOL     OW 2266   4.462   5.581   4.269
  456SOL    HW1 2267   4.536   5.516   4.287
  456SOL    HW2 2268   4.492   5.647   4.200
  457SOL     OW 2269   2.114   3.405   3.491
  457SOL    HW1 2270   2.077   3.458   3.567
  457SOL    HW2 2271   2.135   3.466   3.415
  458SOL     OW 2272   5.003   6.197   4.747
  458SOL    HW1 2273   4.926   6.135   4.736
  458SOL    HW2 2274   5.072   6.177   4.677
  459SOL     OW 2275   1.492   0.339   3.913
  459SOL    HW1 2276   1.402   0.314   3.878
  459SOL    HW2 2277   1.483   0.416   3.976
  460SOL     OW 2278   1.256   0.662   2.450
  460SOL    HW1 2279   1.336   0.702   2.406
  460SOL    HW2 2280   1.239   0.571   2.413
  461SOL     OW 2281   5.763   6.269   4.697
  461SOL    HW1 2282   5.777   6.366   4.674
  461SOL    HW2 2283   5.820   6.213   4.637
  462SOL     OW 2284   4.159   2.298   5.911
  462SOL    HW1 2285   4.221   2.222   5.888
  462SOL    HW2 2286   4.064   2.268   5.897
  463SOL     OW 2287   5.962   6.248   3.477
  463SOL    HW1 2288   6.011   6.185   3.417
  463SOL    HW2 2289   5.886   6.201   3.520
  464SOL     OW 2290   2.926   1.974   6.378
  464SOL    HW1 2291   2.845   2.033   6.389
  464SOL    HW2 2292   2.920   1.897   6.442
  465SOL     OW 2293   1.385   2.201   4.776
  465SOL    HW1 2294   1.384   2.102   4.789
  465SOL    HW2 2295   1.318   2.226   4.706
  466SOL     OW 2296   0.903   5.481   3.292
  466SOL    HW1 2297   0.861   5.561   3.335
  466SOL    HW2 2298   0.865   5.398   3.331
  467SOL     OW 2299   1.094   0.875   6.362
  467SOL    HW1 2300   1.181   0.854   6.408
  467SOL    HW2 2301   1.096   0.836   6.270
  468SOL     OW 2302   3.120   6.283   0.026
  468SOL    HW1 2303   3.120   6.285   6.953
  468SOL    HW2 2304   3.039   6.235   0.059
  469SOL     OW 2305   2.523   4.779   0.716
  469SOL    HW1 2306   2.542   4.767   0.619
  469SOL    HW2 2307   2.609   4.793   0.765
  470SOL     OW 2308   3.796   0.460   2.365
  470SOL    HW1 2309   3.777   0.545   2.416
  470SOL    HW2 2310   3.892   0.434   2.377
  471SOL     OW 2311   1.846   2.217   4.508
  471SOL    HW1 2312   1.908   2.144   4.535
  471SOL    HW2 2313   1.836   2.282   4.583
  472SOL     OW 2314   4.970   3.987   6.813
  472SOL    HW1 2315   5.035   3.951   6.881
  472SOL    HW2 2316   4.977   3.934   6.729
  473SOL     OW 2317   0.614   3.430   1.636
  473SOL    HW1 2318   0.557   3.456   1.558
  473SOL    HW2 2319   0.568   3.457   1.721
  474SOL     OW 2320   4.565   5.238   3.742
  474SOL    HW1 2321   4.502   5.161   3.750
  474SOL    HW2 2322   4.580   5.259   3.645
  475SOL     OW 2323   6.043   1.650   6.094
  475SOL    HW1 2324   6.084   1.665   6.004
  475SOL    HW2 2325   5.953   1.607   6.084
  476SOL     OW 2326   0.574   4.190   2.162
  476SOL    HW1 2327   0.645   4.119   2.165
  476SOL    HW2 2328   0.604   4.269   2.215
  477SOL     OW 2329   2.427   4.842   5.169
  477SOL    HW1 2330   2.332   4.842   5.200
  477SOL    HW2 2331   2.485   4.883   5.240
  478SOL     OW 2332   3.097   6.685   2.740
  478SOL    HW1 2333   3.109   6.733   2.653
  478SOL    HW2 2334   3.123   6.745   2.815
  479SOL     OW 2335   4.604   2.083   0.075
  479SOL    HW1 2336   4.533   2.062   0.008
  479SOL    HW2 2337   4.655   1.999   0.096
  480SOL     OW 2338   2.320   0.910   0.090
  480SOL    HW1 2339   2.386   0.838   0.073
  480SOL    HW2 2340   2.238   0.894   0.034
  481SOL     OW 2341   2.061   0.227   6.836
  481SOL    HW1 2342   2.104   0.243   6.925
  481SOL    HW2 2343   2.084   0.302   6.775
  482SOL     OW 2344   4.300   4.830   2.840
  482SOL    HW1 2345   4.386   4.876   2.864
  482SOL    HW2 2346   4.319   4.737   2.809
  483SOL     OW 2347   6.611   1.640   2.297
  483SOL    HW1 2348   6.634   1.594   2.383
  483SOL    HW2 2349   6.690   1.692   2.264
  484SOL     OW 2350   0.712   2.836   5.142
  484SOL    HW1 2351   0.742   2.932   5.143
  484SOL    HW2 2352   0.783   2.779   5.102
  485SOL     OW 2353   4.454   5.493   2.378
  485SOL    HW1 2354   4.504   5.430   2.438
  485SOL    HW2 2355   4.519   5.555   2.334
  486SOL     OW 2356   6.783   1.208   1.309
  486SOL    HW1 2357   6.836   1.287   1.341
  486SOL    HW2 2358   6.689   1.215   1.344
  487SOL     OW 2359   0.983   2.009   0.531
  487SOL    HW1 2360   1.037   1.998   0.447
  487SOL    HW2 2361   0.971   2.106   0.550
  488SOL     OW 2362   0.237   1.602   1.171
  488SOL    HW1 2363   0.299   1.634   1.242
  488SOL    HW2 2364   0.203   1.511   1.195
  489SOL     OW 2365   3.494   6.401   6.278
  489SOL    HW1 2366   3.418   6.456   6.312
  489SOL    HW2 2367   3.566   6.461   6.242
  490SOL     OW 2368   6.772   5.878   3.573
  490SOL    HW1 2369   6.732   5.816   3.641
  490SOL    HW2 2370   6.810   5.958   3.619
  491SOL     OW 2371   0.279   3.097   2.378
  491SOL    HW1 2372   0.212   3.029   2.408
  491SOL    HW2 2373   0.239   3.155   2.307
  492SOL     OW 2374   3.208   0.472   4.560
  492SOL    HW1 2375   3.251   0.522   4.484
  492SOL    HW2 2376   3.124   0.429   4.528
  493SOL     OW 2377   5.389   6.389   5.225
  493SOL    HW1 2378   5.453   6.317   5.200
  493SOL    HW2 2379   5.308   6.348   5.267
  494SOL     OW 2380   0.338   0.196   6.937
  494SOL    HW1 2381   0.339   0.152   7.027
  494SOL    HW2 2382   0.428   0.237   6.919
  495SOL     OW 2383   5.051   6.076   3.043
  495SOL    HW1 2384   4.975   6.141   3.047
  495SOL    HW2 2385   5.061   6.031   3.131
  496SOL     OW 2386   5.379   3.750   2.571
  496SOL    HW1 2387   5.444   3.675   2.555
  496SOL    HW2 2388   5.402   3.828   2.513
  497SOL     OW 2389   3.484   1.210   4.858
  497SOL    HW1 2390   3.557   1.142   4.869
  497SOL    HW2 2391   3.456   1.213   4.762
  498SOL     OW 2392   1.678   3.945   1.713
  498SOL    HW1 2393   1.607   3.890   1.757
  498SOL    HW2 2394   1.751   3.885   1.679
  499SOL     OW 2395   2.937   0.014   4.115
  499SOL    HW1 2396   2.981   0.028   4.026
  499SOL    HW2 2397   2.983   6.967   4.163
  500SOL     OW 2398   1.187   3.309   2.516
  500SOL    HW1 2399   1.155   3.283   2.607
  500SOL    HW2 2400   1.274   3.262   2.497
  501SOL     OW 2401   2.912   6.719   0.303
  501SOL    HW1 2402   2.915   6.622   0.281
  501SOL    HW2 2403   2.853   6.733   0.383
  502SOL     OW 2404   6.840   4.421   6.387
  502SOL    HW1 2405   6.831   4.323   6.405
  502SOL    HW2 2406   6.902   4.461   6.454
  503SOL     OW 2407   5.632   5.959   5.680
  503SOL    HW1 2408   5.576   5.922   5.605
  503SOL    HW2 2409   5.580   5.958   5.765
  504SOL     OW 2410   2.165   5.231   3.221
  504SOL    HW1 2411   2.122   5.237   3.131
  504SOL    HW2 2412   2.224   5.311   3.235
  505SOL     OW 2413   3.471   6.375   5.368
  505SOL    HW1 2414   3.435   6.307   5.432
  505SOL    HW2 2415   3.394   6.425   5.327
  506SOL     OW 2416   1.118   5.290   4.647
  506SOL    HW1 2417   1.069   5.360   4.699
  506SOL    HW2 2418   1.135   5.211   4.706
  507SOL     OW 2419   2.969   0.851   3.522
  507SOL    HW1 2420   2.989   0.917   3.594
  507SOL    HW2 2421   3.048   0.840   3.462
  508SOL     OW 2422   6.432   3.584   2.538
  508SOL    HW1 2423   6.350   3.528   2.527
  508SOL    HW2 2424   6.513   3.528   2.521
  509SOL     OW 2425   2.734   0.963   0.988
  509SOL    HW1 2426   2.770   1.006   0.905
  509SOL    HW2 2427   2.635   0.952   0.980
  510SOL     OW 2428   6.707   4.943   5.988
  510SOL    HW1 2429   6.683   4.847   6.005
  510SOL    HW2 2430   6.754   4.980   6.069
  511SOL     OW 2431   0.105   6.725   6.601
  511SOL    HW1 2432   0.165   6.759   6.673
  511SOL    HW2 2433   0.152   6.731   6.513
  512SOL     OW 2434   0.243   3.003   0.440
  512SOL    HW1 2435   0.217   3.081   0.497
  512SOL    HW2 2436   0.162   2.948   0.420
  513SOL     OW 2437   5.650   6.333   3.027
  513SOL    HW1 2438   5.652   6.306   3.123
  513SOL    HW2 2439   5.714   6.278   2.975
  514SOL     OW 2440   6.988   2.785   3.533
  514SOL    HW1 2441   6.901   2.834   3.530
  514SOL    HW2 2442   6.980   2.698   3.485
  515SOL     OW 2443   2.089   1.215   6.479
  515SOL    HW1 2444   2.078   1.271   6.397
  515SOL    HW2 2445   2.075   1.271   6.561
  516SOL     OW 2446   2.651   4.489   1.763
  516SOL    HW1 2447   2.623   4.542   1.843
  516SOL    HW2 2448   2.751   4.488   1.759
  517SOL     OW 2449   4.863   6.171   1.782
  517SOL    HW1 2450   4.913   6.208   1.860
  517SOL    HW2 2451   4.773   6.138   1.812
  518SOL     OW 2452   3.185   2.143   2.434
  518SOL    HW1 2453   3.180   2.171   2.530
  518SOL    HW2 2454   3.109   2.183   2.384
  519SOL     OW 2455   0.689   0.967   4.567
  519SOL    HW1 2456   0.664   0.981   4.471
  519SOL    HW2 2457   0.606   0.960   4.623
  520SOL     OW 2458   6.264   4.849   0.075
  520SOL    HW1 2459   6.169   4.881   0.081
  520SOL    HW2 2460   6.300   4.835   0.168
  521SOL     OW 2461   6.556   3.329   6.646
  521SOL    HW1 2462   6.610   3.358   6.725
  521SOL    HW2 2463   6.460   3.321   6.672
  522SOL     OW 2464   3.564   3.602   5.467
  522SOL    HW1 2465   3.592   3.507   5.486
  522SOL    HW2 2466   3.484   3.601   5.408
  523SOL     OW 2467   0.708   4.613   2.286
  523SOL    HW1 2468   0.699   4.609   2.386
  523SOL    HW2 2469   0.696   4.707   2.256
  524SOL     OW 2470   1.797   0.856   6.879
  524SOL    HW1 2471   1.774   0.953   6.870
  524SOL    HW2 2472   1.762   0.806   6.799
  525SOL     OW 2473   2.651   4.090   7.003
  525SOL    HW1 2474   2.582   4.124   0.039
  525SOL    HW2 2475   2.668   3.993   7.020
  526SOL     OW 2476   3.379   0.172   4.227
  526SOL    HW1 2477   3.340   0.138   4.312
  526SOL    HW2 2478   3.307   0.215   4.173
  527SOL     OW 2479   6.091   3.125   6.110
  527SOL    HW1 2480   6.162   3.064   6.147
  527SOL    HW2 2481   6.016   3.132   6.176
  528SOL     OW 2482   0.859   2.079   4.369
  528SOL    HW1 2483   0.777   2.122   4.406
  528SOL    HW2 2484   0.930   2.149   4.354
  529SOL     OW 2485   0.905   6.085   4.545
  529SOL    HW1 2486   0.970   6.049   4.612
  529SOL    HW2 2487   0.856   6.009   4.502
  530SOL     OW 2488   2.643   3.079   5.445
  530SOL    HW1 2489   2.600   3.078   5.355
  530SOL    HW2 2490   2.625   2.993   5.492
  531SOL     OW 2491   0.060   0.698   1.570
  531SOL    HW1 2492   0.033   0.602   1.568
  531SOL    HW2 2493   7.008   0.754   1.594
  532SOL     OW 2494   1.049   2.337   6.848
  532SOL    HW1 2495   1.109   2.262   6.819
  532SOL    HW2 2496   1.050   2.410   6.780
  533SOL     OW 2497   3.775   6.269   3.993
  533SOL    HW1 2498   3.768   6.341   3.923
  533SOL    HW2 2499   3.798   6.182   3.949
  534SOL     OW 2500   5.224   5.205   3.234
  534SOL    HW1 2501   5.256   5.246   3.149
  534SOL    HW2 2502   5.211   5.106   3.221
  535SOL     OW 2503   0.892   3.697   4.622
  535SOL    HW1 2504   0.867   3.690   4.526
  535SOL    HW2 2505   0.946   3.779   4.637
  536SOL     OW 2506   0.300   4.695   2.190
  536SOL    HW1 2507   0.370   4.639   2.146
  536SOL    HW2 2508   0.338   4.786   2.208
  537SOL     OW 2509   1.493   6.239   3.443
  537SOL    HW1 2510   1.442   6.170   3.494
  537SOL    HW2 2511   1.569   6.272   3.500
  538SOL     OW 2512   2.143   4.976   3.897
  538SOL    HW1 2513   2.208   4.927   3.839
  538SOL    HW2 2514   2.186   5.058   3.934
  539SOL     OW 2515   0.600   6.047   0.244
  539SOL    HW1 2516   0.642   6.123   0.195
  539SOL    HW2 2517   0.583   5.972   0.180
  540SOL     OW 2518   6.887   1.009   2.058
  540SOL    HW1 2519   6.852   0.936   2.116
  540SOL    HW2 2520   6.945   1.070   2.111
  541SOL     OW 2521   2.780   6.707   4.750
  541SOL    HW1 2522   2.778   6.611   4.775
  541SOL    HW2 2523   2.693   6.731   4.705
  542SOL     OW 2524   6.645   0.268   0.153
  542SOL    HW1 2525   6.681   0.281   0.246
  542SOL    HW2 2526   6.550   0.298   0.151
  543SOL     OW 2527   1.021   5.593   5.284
  543SOL    HW1 2528   1.045   5.538   5.364
  543SOL    HW2 2529   0.966   5.671   5.312
  544SOL     OW 2530   1.883   4.286   0.949
  544SOL    HW1 2531   1.830   4.314   1.029
  544SOL    HW2 2532   1.937   4.205   0.972
  545SOL     OW 2533   3.313   1.349   3.343
  545SOL    HW1 2534   3.393   1.405   3.365
  545SOL    HW2 2535   3.233   1.385   3.391
  546SOL     OW 2536   1.604   3.403   0.308
  546SOL    HW1 2537   1.677   3.451   0.358
  546SOL    HW2 2538   1.541   3.363   0.374
  547SOL     OW 2539   3.124   1.172   6.521
  547SOL    HW1 2540   3.217   1.174   6.558
  547SOL    HW2 2541   3.085   1.081   6.534
  548SOL     OW 2542   3.864   3.049   2.646
  548SOL    HW1 2543   3.872   3.023   2.549
  548SOL    HW2 2544   3.951   3.086   2.678
  549SOL     OW 2545   4.618   3.229   1.553
  549SOL    HW1 2546   4.685   3.202   1.484
  549SOL    HW2 2547   4.574   3.314   1.526
  550SOL     OW 2548   6.865   4.368   3.359
  550SOL    HW1 2549   6.956   4.332   3.341
  550SOL    HW2 2550   6.872   4.464   3.385
  551SOL     OW 2551   6.945   1.103   1.055
  551SOL    HW1 2552   6.888   1.136   1.130
  551SOL    HW2 2553   0.013   1.098   1.086
  552SOL     OW 2554   4.658   5.061   0.659
  552SOL    HW1 2555   4.581   5.081   0.599
  552SOL    HW2 2556   4.715   4.991   0.618
  553SOL     OW 2557   2.057   0.096   1.936
  553SOL    HW1 2558   2.023   0.034   2.008
  553SOL    HW2 2559   2.130   0.050   1.885
  554SOL     OW 2560   5.013   6.465   6.114
  554SOL    HW1 2561   4.923   6.505   6.131
  554SOL    HW2 2562   5.026   6.385   6.173
  555SOL     OW 2563   2.401   5.513   4.151
  555SOL    HW1 2564   2.333   5.451   4.189
  555SOL    HW2 2565   2.447   5.469   4.073
  556SOL     OW 2566   6.136   2.428   4.194
  556SOL    HW1 2567   6.068   2.468   4.132
  556SOL    HW2 2568   6.180   2.502   4.246
  557SOL     OW 2569   0.562   5.279   6.606
  557SOL    HW1 2570   0.499   5.329   6.547
  557SOL    HW2 2571   0.539   5.296   6.702
  558SOL     OW 2572   3.447   4.164   4.168
  558SOL    HW1 2573   3.468   4.137   4.262
  558SOL    HW2 2574   3.531   4.167   4.114
  559SOL     OW 2575   6.173   6.559   6.742
  559SOL    HW1 2576   6.196   6.494   6.670
  559SOL    HW2 2577   6.075   6.552   6.763
  560SOL     OW 2578   4.005   6.400   0.372
  560SOL    HW1 2579   4.070   6.420   0.446
  560SOL    HW2 2580   3.945   6.325   0.401
  561SOL     OW 2581   6.797   0.263   6.688
  561SOL    HW1 2582   6.700   0.284   6.696
  561SOL    HW2 2583   6.830   0.224   6.774
  562SOL     OW 2584   4.813   0.258   6.622
  562SOL    HW1 2585   4.793   0.351   6.592
  562SOL    HW2 2586   4.856   0.261   6.713
  563SOL     OW 2587   2.742   0.432   3.412
  563SOL    HW1 2588   2.693   0.346   3.422
  563SOL    HW2 2589   2.747   0.457   3.315
  564SOL     OW 2590   2.828   2.432   6.239
  564SOL    HW1 2591   2.766   2.508   6.259
  564SOL    HW2 2592   2.777   2.346   6.240
  565SOL     OW 2593   4.308   3.245   5.468
  565SOL    HW1 2594   4.235   3.212   5.527
  565SOL    HW2 2595   4.284   3.334   5.430
  566SOL     OW 2596   5.065   3.946   3.356
  566SOL    HW1 2597   5.127   3.997   3.415
  566SOL    HW2 2598   5.052   3.995   3.270
  567SOL     OW 2599   2.858   3.564   3.273
  567SOL    HW1 2600   2.841   3.652   3.316
  567SOL    HW2 2601   2.884   3.497   3.343
  568SOL     OW 2602   3.644   2.444   1.019
  568SOL    HW1 2603   3.656   2.533   0.976
  568SOL    HW2 2604   3.730   2.392   1.012
  569SOL     OW 2605   1.885   2.995   0.351
  569SOL    HW1 2606   1.794   2.986   0.311
  569SOL    HW2 2607   1.954   2.988   0.279
  570SOL     OW 2608   1.981   6.328   5.928
  570SOL    HW1 2609   1.989   6.396   5.854
  570SOL    HW2 2610   1.886   6.297   5.934
  571SOL     OW 2611   3.798   6.690   2.669
  571SOL    HW1 2612   3.881   6.716   2.619
  571SOL    HW2 2613   3.823   6.633   2.747
  572SOL     OW 2614   2.947   5.159   5.926
  572SOL    HW1 2615   2.860   5.208   5.919
  572SOL    HW2 2616   3.013   5.199   5.862
  573SOL     OW 2617   3.919   2.206   5.070
  573SOL    HW1 2618   3.855   2.222   5.145
  573SOL    HW2 2619   3.992   2.274   5.074
  574SOL     OW 2620   2.251   2.257   3.719
  574SOL    HW1 2621   2.193   2.266   3.801
  574SOL    HW2 2622   2.218   2.320   3.648
  575SOL     OW 2623   6.064   3.877   6.057
  575SOL    HW1 2624   6.156   3.842   6.076
  575SOL    HW2 2625   6.022   3.823   5.985
  576SOL     OW 2626   1.427   2.253   1.767
  576SOL    HW1 2627   1.462   2.262   1.861
  576SOL    HW2 2628   1.455   2.332   1.713
  577SOL     OW 2629   2.008   1.539   3.695
  577SOL    HW1 2630   2.083   1.581   3.746
  577SOL    HW2 2631   1.923   1.547   3.748
  578SOL     OW 2632   6.746   3.345   3.763
  578SOL    HW1 2633   6.804   3.267   3.786
  578SOL    HW2 2634   6.779   3.389   3.679
  579SOL     OW 2635   3.469   2.369   1.238
  579SOL    HW1 2636   3.428   2.286   1.201
  579SOL    HW2 2637   3.537   2.404   1.174
  580SOL     OW 2638   0.973   4.475   6.330
  580SOL    HW1 2639   0.974   4.575   6.332
  580SOL    HW2 2640   0.880   4.443   6.347
  581SOL     OW 2641   3.212   3.365   2.803
  581SOL    HW1 2642   3.155   3.392   2.881
  581SOL    HW2 2643   3.216   3.440   2.737
  582SOL     OW 2644   5.460   5.028   2.462
  582SOL    HW1 2645   5.374   4.983   2.438
  582SOL    HW2 2646   5.501   5.068   2.380
  583SOL     OW 2647   2.962   4.875   6.699
  583SOL    HW1 2648   2.989   4.846   6.608
  583SOL    HW2 2649   2.914   4.963   6.694
  584SOL     OW 2650   1.089   5.354   5.520
  584SOL    HW1 2651   1.007   5.395   5.559
  584SOL    HW2 2652   1.068   5.316   5.430
  585SOL     OW 2653   6.682   2.694   6.283
  585SOL    HW1 2654   6.775   2.693   6.320
  585SOL    HW2 2655   6.648   2.788   6.280
  586SOL     OW 2656   3.656   0.160   0.329
  586SOL    HW1 2657   3.735   0.206   0.370
  586SOL    HW2 2658   3.641   0.195   0.237
  587SOL     OW 2659   1.842   2.211   5.524
  587SOL    HW1 2660   1.756   2.250   5.556
  587SOL    HW2 2661   1.893   2.281   5.473
  588SOL     OW 2662   3.146   6.404   1.107
  588SOL    HW1 2663   3.175   6.476   1.170
  588SOL    HW2 2664   3.051   6.420   1.080
  589SOL     OW 2665   3.844   5.167   1.997
  589SOL    HW1 2666   3.829   5.264   2.014
  589SOL    HW2 2667   3.759   5.117   2.011
  590SOL     OW 2668   6.773   2.917   1.780
  590SOL    HW1 2669   6.792   2.854   1.855
  590SOL    HW2 2670   6.766   3.010   1.815
  591SOL     OW 2671   3.383   6.921   3.959
  591SOL    HW1 2672   3.308   6.900   4.022
  591SOL    HW2 2673   3.346   6.929   3.866
  592SOL     OW 2674   4.187   0.713   0.788
  592SOL    HW1 2675   4.190   0.616   0.812
  592SOL    HW2 2676   4.130   0.725   0.707
  593SOL     OW 2677   4.436   1.952   3.936
  593SOL    HW1 2678   4.444   2.045   3.972
  593SOL    HW2 2679   4.528   1.913   3.923
  594SOL     OW 2680   4.263   3.108   6.724
  594SOL    HW1 2681   4.319   3.108   6.640
  594SOL    HW2 2682   4.309   3.053   6.794
  595SOL     OW 2683   4.748   6.601   4.235
  595SOL    HW1 2684   4.840   6.586   4.272
  595SOL    HW2 2685   4.754   6.647   4.147
  596SOL     OW 2686   1.187   4.049   1.675
  596SOL    HW1 2687   1.200   4.106   1.756
  596SOL    HW2 2688   1.276   4.028   1.635
  597SOL     OW 2689   4.240   6.597   5.889
  597SOL    HW1 2690   4.289   6.682   5.908
  597SOL    HW2 2691   4.167   6.614   5.823
  598SOL     OW 2692   3.554   4.069   0.477
  598SOL    HW1 2693   3.472   4.100   0.428
  598SOL    HW2 2694   3.530   4.045   0.570
  599SOL     OW 2695   0.539   0.842   2.987
  599SOL    HW1 2696   0.628   0.806   2.957
  599SOL    HW2 2697   0.514   0.919   2.929
  600SOL     OW 2698   0.620   0.041   0.763
  600SOL    HW1 2699   0.576   0.123   0.801
  600SOL    HW2 2700   0.719   0.049   0.772
  601SOL     OW 2701   3.222   5.961   3.047
  601SOL    HW1 2702   3.254   5.931   3.137
  601SOL    HW2 2703   3.169   5.888   3.005
  602SOL     OW 2704   0.777   1.076   0.439
  602SOL    HW1 2705   0.873   1.048   0.432
  602SOL    HW2 2706   0.722   1.020   0.377
  603SOL     OW 2707   4.029   1.652   3.898
  603SOL    HW1 2708   4.106   1.600   3.861
  603SOL    HW2 2709   4.061   1.742   3.926
  604SOL     OW 2710   0.607   2.944   0.420
  604SOL    HW1 2711   0.615   3.029   0.368
  604SOL    HW2 2712   0.519   2.943   0.468
  605SOL     OW 2713   6.846   5.555   3.266
  605SOL    HW1 2714   6.785   5.499   3.209
  605SOL    HW2 2715   6.892   5.497   3.333
  606SOL     OW 2716   4.670   0.568   5.764
  606SOL    HW1 2717   4.603   0.631   5.803
  606SOL    HW2 2718   4.685   0.492   5.827
  607SOL     OW 2719   5.591   1.074   4.475
  607SOL    HW1 2720   5.594   1.012   4.553
  607SOL    HW2 2721   5.673   1.061   4.418
  608SOL     OW 2722   3.204   6.898   0.438
  608SOL    HW1 2723   3.262   6.979   0.425
  608SOL    HW2 2724   3.212   6.838   0.359
  609SOL     OW 2725   3.644   3.308   4.643
  609SOL    HW1 2726   3.575   3.262   4.700
  609SOL    HW2 2727   3.731   3.260   4.651
  610SOL     OW 2728   5.565   2.213   2.958
  610SOL    HW1 2729   5.630   2.250   3.025
  610SOL    HW2 2730   5.526   2.288   2.905
  611SOL     OW 2731   0.849   0.456   0.081
  611SOL    HW1 2732   0.770   0.517   0.074
  611SOL    HW2 2733   0.824   0.375   0.133
  612SOL     OW 2734   3.629   5.755   5.887
  612SOL    HW1 2735   3.583   5.710   5.810
  612SOL    HW2 2736   3.560   5.788   5.952
  613SOL     OW 2737   4.338   1.088   5.448
  613SOL    HW1 2738   4.350   1.179   5.408
  613SOL    HW2 2739   4.427   1.044   5.458
  614SOL     OW 2740   5.855   4.964   1.149
  614SOL    HW1 2741   5.896   4.988   1.061
  614SOL    HW2 2742   5.927   4.950   1.216
  615SOL     OW 2743   1.033   0.598   6.725
  615SOL    HW1 2744   1.007   0.689   6.756
  615SOL    HW2 2745   0.953   0.537   6.731
  616SOL     OW 2746   6.013   1.930   3.739
  616SOL    HW1 2747   5.987   1.833   3.735
  616SOL    HW2 2748   5.931   1.986   3.749
  617SOL     OW 2749   0.311   4.339   6.926
  617SOL    HW1 2750   0.388   4.302   6.873
  617SOL    HW2 2751   0.308   4.438   6.916
  618SOL     OW 2752   5.999   3.465   1.254
  618SOL    HW1 2753   6.052   3.381   1.239
  618SOL    HW2 2754   5.990   3.482   1.352
  619SOL     OW 2755   3.552   0.088   6.611
  619SOL    HW1 2756   3.488   0.054   6.680
  619SOL    HW2 2757   3.631   0.027   6.605
  620SOL     OW 2758   5.898   3.498   1.519
  620SOL    HW1 2759   5.800   3.511   1.534
  620SOL    HW2 2760   5.948   3.579   1.550
  621SOL     OW 2761   2.618   0.283   5.086
  621SOL    HW1 2762   2.699   0.330   5.050
  621SOL    HW2 2763   2.598   0.317   5.178
  622SOL     OW 2764   0.773   2.625   5.452
  622SOL    HW1 2765   0.708   2.676   5.395
  622SOL    HW2 2766   0.828   2.565   5.394
  623SOL     OW 2767   6.232   6.680   5.234
  623SOL    HW1 2768   6.217   6.749   5.163
  623SOL    HW2 2769   6.203   6.717   5.322
  624SOL     OW 2770   6.569   1.353   7.016
  624SOL    HW1 2771   6.619   1.412   0.052
  624SOL    HW2 2772   6.606   1.260   7.022
  625SOL     OW 2773   1.841   0.806   0.117
  625SOL    HW1 2774   1.863   0.891   0.165
  625SOL    HW2 2775   1.816   0.828   0.022
  626SOL     OW 2776   1.107   5.361   2.991
  626SOL    HW1 2777   1.194   5.409   2.984
  626SOL    HW2 2778   1.040   5.403   2.929
  627SOL     OW 2779   6.556   6.109   0.098
  627SOL    HW1 2780   6.554   6.010   0.112
  627SOL    HW2 2781   6.469   6.148   0.129
  628SOL     OW 2782   5.511   3.762   4.953
  628SOL    HW1 2783   5.494   3.683   5.013
  628SOL    HW2 2784   5.466   3.747   4.865
  629SOL     OW 2785   0.477   1.187   0.068
  629SOL    HW1 2786   0.486   1.175   6.996
  629SOL    HW2 2787   0.487   1.284   0.090
  630SOL     OW 2788   6.269   1.109   0.698
  630SOL    HW1 2789   6.218   1.084   0.781
  630SOL    HW2 2790   6.206   1.142   0.628
  631SOL     OW 2791   2.776   2.075   4.649
  631SOL    HW1 2792   2.793   2.146   4.717
  631SOL    HW2 2793   2.781   2.115   4.557
  632SOL     OW 2794   4.669   2.854   0.365
  632SOL    HW1 2795   4.624   2.808   0.289
  632SOL    HW2 2796   4.654   2.802   0.449
  633SOL     OW 2797   2.201   5.082   1.205
  633SOL    HW1 2798   2.219   5.028   1.288
  633SOL    HW2 2799   2.270   5.154   1.196
  634SOL     OW 2800   3.437   3.187   3.191
  634SOL    HW1 2801   3.491   3.183   3.106
  634SOL    HW2 2802   3.471   3.118   3.255
  635SOL     OW 2803   4.710   0.296   0.030
  635SOL    HW1 2804   4.613   0.272   0.034
  635SOL    HW2 2805   4.732   0.356   0.107
  636SOL     OW 2806   3.521   0.380   5.161
  636SOL    HW1 2807   3.453   0.446   5.192
  636SOL    HW2 2808   3.532   0.387   5.062
  637SOL     OW 2809   5.940   1.661   2.620
  637SOL    HW1 2810   5.851   1.648   2.663
  637SOL    HW2 2811   5.984   1.572   2.607
  638SOL     OW 2812   5.757   3.464   3.779
  638SOL    HW1 2813   5.818   3.516   3.840
  638SOL    HW2 2814   5.764   3.366   3.802
  639SOL     OW 2815   5.416   4.668   3.159
  639SOL    HW1 2816   5.330   4.674   3.209
  639SOL    HW2 2817   5.439   4.757   3.121
  640SOL     OW 2818   0.415   3.650   3.482
  640SOL    HW1 2819   0.498   3.692   3.445
  640SOL    HW2 2820   0.366   3.603   3.409
  641SOL     OW 2821   1.495   4.826   5.248
  641SOL    HW1 2822   1.451   4.747   5.290
  641SOL    HW2 2823   1.503   4.899   5.316
  642SOL     OW 2824   1.311   2.988   4.532
  642SOL    HW1 2825   1.403   2.959   4.509
  642SOL    HW2 2826   1.275   3.048   4.460
  643SOL     OW 2827   6.883   6.604   6.920
  643SOL    HW1 2828   6.861   6.666   6.845
  643SOL    HW2 2829   6.903   6.513   6.883
  644SOL     OW 2830   0.928   0.626   4.628
  644SOL    HW1 2831   0.872   0.639   4.547
  644SOL    HW2 2832   0.886   0.672   4.706
  645SOL     OW 2833   3.371   4.917   3.216
  645SOL    HW1 2834   3.336   4.880   3.302
  645SOL    HW2 2835   3.366   5.017   3.219
  646SOL     OW 2836   4.029   0.827   4.569
  646SOL    HW1 2837   3.997   0.734   4.550
  646SOL    HW2 2838   4.061   0.869   4.484
  647SOL     OW 2839   4.690   1.872   4.915
  647SOL    HW1 2840   4.757   1.923   4.969
  647SOL    HW2 2841   4.737   1.798   4.866
  648SOL     OW 2842   6.263   2.849   3.383
  648SOL    HW1 2843   6.342   2.813   3.332
  648SOL    HW2 2844   6.279   2.946   3.405
  649SOL     OW 2845   2.020   4.755   0.153
  649SOL    HW1 2846   2.014   4.655   0.143
  649SOL    HW2 2847   1.928   4.793   0.160
  650SOL     OW 2848   6.827   5.451   0.565
  650SOL    HW1 2849   6.865   5.407   0.647
  650SOL    HW2 2850   6.902   5.479   0.505
  651SOL     OW 2851   1.906   0.677   5.989
  651SOL    HW1 2852   2.001   0.668   6.020
  651SOL    HW2 2853   1.845   0.653   6.064
  652SOL     OW 2854   4.021   6.913   1.964
  652SOL    HW1 2855   3.989   6.852   1.891
  652SOL    HW2 2856   4.009   7.008   1.935
  653SOL     OW 2857   0.768   6.715   0.691
  653SOL    HW1 2858   0.863   6.690   0.674
  653SOL    HW2 2859   0.711   6.632   0.693
  654SOL     OW 2860   6.963   6.523   5.898
  654SOL    HW1 2861   7.025   6.565   5.831
  654SOL    HW2 2862   6.894   6.590   5.925
  655SOL     OW 2863   6.938   5.603   1.923
  655SOL    HW1 2864   6.849   5.557   1.931
  655SOL    HW2 2865   6.981   5.575   1.837
  656SOL     OW 2866   2.433   6.178   0.939
  656SOL    HW1 2867   2.511   6.142   0.990
  656SOL    HW2 2868   2.402   6.263   0.981
  657SOL     OW 2869   2.949   3.272   1.425
  657SOL    HW1 2870   3.014   3.298   1.497
  657SOL    HW2 2871   2.949   3.343   1.354
  658SOL     OW 2872   1.607   4.513   4.747
  658SOL    HW1 2873   1.667   4.471   4.679
  658SOL    HW2 2874   1.598   4.450   4.825
  659SOL     OW 2875   3.150   5.922   4.896
  659SOL    HW1 2876   3.077   5.855   4.910
  659SOL    HW2 2877   3.138   5.968   4.808
  660SOL     OW 2878   4.992   5.565   2.280
  660SOL    HW1 2879   4.913   5.535   2.333
  660SOL    HW2 2880   5.041   5.637   2.330
  661SOL     OW 2881   4.828   3.970   4.585
  661SOL    HW1 2882   4.919   3.927   4.583
  661SOL    HW2 2883   4.792   3.978   4.493
  662SOL     OW 2884   4.360   2.247   6.597
  662SOL    HW1 2885   4.298   2.169   6.605
  662SOL    HW2 2886   4.395   2.271   6.687
  663SOL     OW 2887   0.482   4.899   6.926
  663SOL    HW1 2888   0.505   4.946   6.841
  663SOL    HW2 2889   0.531   4.812   6.930
  664SOL     OW 2890   1.679   5.675   0.137
  664SOL    HW1 2891   1.619   5.612   0.088
  664SOL    HW2 2892   1.729   5.731   0.070
  665SOL     OW 2893   4.407   5.559   1.418
  665SOL    HW1 2894   4.399   5.624   1.494
  665SOL    HW2 2895   4.385   5.605   1.333
  666SOL     OW 2896   3.342   1.489   0.232
  666SOL    HW1 2897   3.366   1.580   0.201
  666SOL    HW2 2898   3.246   1.487   0.259
  667SOL     OW 2899   0.393   2.936   4.227
  667SOL    HW1 2900   0.401   2.847   4.182
  667SOL    HW2 2901   0.309   2.939   4.281
  668SOL     OW 2902   4.473   5.871   6.965
  668SOL    HW1 2903   4.469   5.818   0.022
  668SOL    HW2 2904   4.381   5.898   6.938
  669SOL     OW 2905   1.736   6.771   3.185
  669SOL    HW1 2906   1.653   6.714   3.188
  669SOL    HW2 2907   1.816   6.712   3.177
  670SOL     OW 2908   2.891   3.571   3.007
  670SOL    HW1 2909   2.897   3.483   2.960
  670SOL    HW2 2910   2.864   3.556   3.103
  671SOL     OW 2911   2.558   5.963   5.896
  671SOL    HW1 2912   2.552   6.018   5.813
  671SOL    HW2 2913   2.558   5.866   5.873
  672SOL     OW 2914   1.232   3.594   3.898
  672SOL    HW1 2915   1.138   3.584   3.867
  672SOL    HW2 2916   1.291   3.533   3.844
  673SOL     OW 2917   4.518   6.896   6.620
  673SOL    HW1 2918   4.554   6.968   6.560
  673SOL    HW2 2919   4.592   6.838   6.652
  674SOL     OW 2920   0.677   2.893   4.253
  674SOL    HW1 2921   0.713   2.938   4.171
  674SOL    HW2 2922   0.577   2.897   4.252
  675SOL     OW 2923   1.039   2.097   4.838
  675SOL    HW1 2924   1.103   2.020   4.840
  675SOL    HW2 2925   1.054   2.155   4.917
  676SOL     OW 2926   3.021   5.019   4.360
  676SOL    HW1 2927   3.082   4.990   4.434
  676SOL    HW2 2928   2.968   4.940   4.327
  677SOL     OW 2929   6.026   0.554   0.093
  677SOL    HW1 2930   6.111   0.552   0.041
  677SOL    HW2 2931   5.950   0.572   0.030
  678SOL     OW 2932   2.832   1.704   5.338
  678SOL    HW1 2933   2.747   1.731   5.385
  678SOL    HW2 2934   2.893   1.660   5.403
  679SOL     OW 2935   4.373   1.457   4.308
  679SOL    HW1 2936   4.309   1.500   4.372
  679SOL    HW2 2937   4.408   1.372   4.347
  680SOL     OW 2938   5.761   4.655   5.779
  680SOL    HW1 2939   5.842   4.627   5.831
  680SOL    HW2 2940   5.701   4.576   5.767
  681SOL     OW 2941   6.583   6.585   0.761
  681SOL    HW1 2942   6.664   6.574   0.819
  681SOL    HW2 2943   6.611   6.586   0.665
  682SOL     OW 2944   2.598   6.732   6.338
  682SOL    HW1 2945   2.643   6.654   6.296
  682SOL    HW2 2946   2.509   6.746   6.295
  683SOL     OW 2947   3.469   0.295   5.862
  683SOL    HW1 2948   3.382   0.270   5.905
  683SOL    HW2 2949   3.461   0.283   5.763
  684SOL     OW 2950   6.816   1.167   6.394
  684SOL    HW1 2951   6.854   1.242   6.339
  684SOL    HW2 2952   6.818   1.083   6.340
  685SOL     OW 2953   4.772   0.703   5.553
  685SOL    HW1 2954   4.737   0.635   5.617
  685SOL    HW2 2955   4.717   0.786   5.560
  686SOL     OW 2956   5.836   3.404   3.288
  686SOL    HW1 2957   5.870   3.324   3.337
  686SOL    HW2 2958   5.908   3.473   3.283
  687SOL     OW 2959   6.785   3.467   6.478
  687SOL    HW1 2960   6.814   3.373   6.455
  687SOL    HW2 2961   6.789   3.480   6.577
  688SOL     OW 2962   2.017   3.735   0.309
  688SOL    HW1 2963   1.984   3.822   0.345
  688SOL    HW2 2964   2.025   3.740   0.209
  689SOL     OW 2965   1.422   4.591   5.354
  689SOL    HW1 2966   1.328   4.572   5.324
  689SOL    HW2 2967   1.475   4.506   5.350
  690SOL     OW 2968   0.860   3.104   3.070
  690SOL    HW1 2969   0.952   3.082   3.103
  690SOL    HW2 2970   0.864   3.126   2.973
  691SOL     OW 2971   2.037   2.436   6.439
  691SOL    HW1 2972   1.967   2.409   6.506
  691SOL    HW2 2973   2.113   2.480   6.487
  692SOL     OW 2974   3.126   6.983   3.419
  692SOL    HW1 2975   3.084   6.986   3.510
  692SOL    HW2 2976   3.088   0.030   3.363
  693SOL     OW 2977   6.737   1.573   3.651
  693SOL    HW1 2978   6.697   1.657   3.616
  693SOL    HW2 2979   6.709   1.559   3.746
  694SOL     OW 2980   3.929   5.770   1.902
  694SOL    HW1 2981   3.983   5.758   1.819
  694SOL    HW2 2982   3.981   5.827   1.966
  695SOL     OW 2983   4.494   5.179   4.834
  695SOL    HW1 2984   4.576   5.146   4.788
  695SOL    HW2 2985   4.510   5.179   4.933
  696SOL     OW 2986   3.117   5.266   2.180
  696SOL    HW1 2987   3.162   5.355   2.177
  696SOL    HW2 2988   3.081   5.244   2.089
  697SOL     OW 2989   1.252   2.961   5.734
  697SOL    HW1 2990   1.253   3.059   5.753
  697SOL    HW2 2991   1.259   2.911   5.820
  698SOL     OW 2992   5.430   0.203   4.418
  698SOL    HW1 2993   5.431   0.114   4.463
  698SOL    HW2 2994   5.474   0.196   4.329
  699SOL     OW 2995   1.615   4.623   0.645
  699SOL    HW1 2996   1.627   4.557   0.572
  699SOL    HW2 2997   1.644   4.583   0.732
  700SOL     OW 2998   2.798   1.957   3.604
  700SOL    HW1 2999   2.788   2.042   3.552
  700SOL    HW2 3000   2.788   1.977   3.702
  701SOL     OW 3001   1.483   4.854   6.896
  701SOL    HW1 3002   1.506   4.806   6.812
  701SOL    HW2 3003   1.389   4.890   6.889
  702SOL     OW 3004   5.540   6.298   5.688
  702SOL    HW1 3005   5.548   6.226   5.619
  702SOL    HW2 3006   5.443   6.317   5.704
  703SOL     OW 3007   4.344   3.415   0.299
  703SOL    HW1 3008   4.373   3.503   0.337
  703SOL    HW2 3009   4.404   3.391   0.223
  704SOL     OW 3010   1.416   1.117   5.914
  704SOL    HW1 3011   1.473   1.100   5.994
  704SOL    HW2 3012   1.371   1.205   5.924
  705SOL     OW 3013   4.744   0.294   3.762
  705SOL    HW1 3014   4.810   0.325   3.694
  705SOL    HW2 3015   4.792   0.263   3.844
  706SOL     OW 3016   4.289   1.617   3.639
  706SOL    HW1 3017   4.301   1.571   3.551
  706SOL    HW2 3018   4.329   1.562   3.712
  707SOL     OW 3019   4.497   0.058   2.189
  707SOL    HW1 3020   4.432   0.017   2.253
  707SOL    HW2 3021   4.577   7.025   2.180
  708SOL     OW 3022   4.436   0.185   0.870
  708SOL    HW1 3023   4.445   0.136   0.783
  708SOL    HW2 3024   4.372   0.136   0.930
  709SOL     OW 3025   1.234   5.219   0.978
  709SOL    HW1 3026   1.292   5.208   0.898
  709SOL    HW2 3027   1.183   5.305   0.970
  710SOL     OW 3028   3.645   4.047   2.920
  710SOL    HW1 3029   3.590   4.094   2.851
  710SOL    HW2 3030   3.608   4.066   3.011
  711SOL     OW 3031   0.269   2.396   6.086
  711SOL    HW1 3032   0.174   2.378   6.060
  711SOL    HW2 3033   0.305   2.472   6.033
  712SOL     OW 3034   1.581   4.059   1.096
  712SOL    HW1 3035   1.608   3.971   1.136
  712SOL    HW2 3036   1.607   4.061   0.999
  713SOL     OW 3037   3.138   3.934   1.253
  713SOL    HW1 3038   3.121   3.998   1.328
  713SOL    HW2 3039   3.138   3.840   1.289
  714SOL     OW 3040   5.832   4.295   5.425
  714SOL    HW1 3041   5.755   4.339   5.471
  714SOL    HW2 3042   5.906   4.361   5.412
  715SOL     OW 3043   5.031   5.861   6.961
  715SOL    HW1 3044   5.089   5.813   6.897
  715SOL    HW2 3045   5.028   5.958   6.938
  716SOL     OW 3046   1.051   5.536   1.123
  716SOL    HW1 3047   0.988   5.613   1.115
  716SOL    HW2 3048   1.006   5.452   1.093
  717SOL     OW 3049   6.254   4.694   6.362
  717SOL    HW1 3050   6.262   4.602   6.322
  717SOL    HW2 3051   6.294   4.761   6.299
  718SOL     OW 3052   4.130   2.367   6.337
  718SOL    HW1 3053   4.216   2.317   6.347
  718SOL    HW2 3054   4.124   2.406   6.245
  719SOL     OW 3055   6.671   2.409   1.772
  719SOL    HW1 3056   6.611   2.459   1.709
  719SOL    HW2 3057   6.644   2.312   1.775
  720SOL     OW 3058   2.413   1.635   5.591
  720SOL    HW1 3059   2.409   1.702   5.666
  720SOL    HW2 3060   2.339   1.654   5.526
  721SOL     OW 3061   1.587   1.105   4.851
  721SOL    HW1 3062   1.628   1.118   4.941
  721SOL    HW2 3063   1.658   1.084   4.785
  722SOL     OW 3064   4.307   6.705   5.004
  722SOL    HW1 3065   4.298   6.683   5.101
  722SOL    HW2 3066   4.352   6.794   4.994
  723SOL     OW 3067   1.977   2.668   2.010
  723SOL    HW1 3068   2.056   2.709   1.966
  723SOL    HW2 3069   2.000   2.643   2.104
  724SOL     OW 3070   1.702   1.566   5.418
  724SOL    HW1 3071   1.616   1.514   5.417
  724SOL    HW2 3072   1.687   1.656   5.378
  725SOL     OW 3073   2.658   4.931   2.196
  725SOL    HW1 3074   2.584   4.944   2.263
  725SOL    HW2 3075   2.626   4.960   2.106
  726SOL     OW 3076   3.786   4.562   0.287
  726SOL    HW1 3077   3.770   4.661   0.279
  726SOL    HW2 3078   3.883   4.543   0.270
  727SOL     OW 3079   3.960   6.112   4.357
  727SOL    HW1 3080   4.047   6.158   4.336
  727SOL    HW2 3081   3.885   6.175   4.339
  728SOL     OW 3082   6.891   3.965   5.260
  728SOL    HW1 3083   6.906   4.014   5.174
  728SOL    HW2 3084   6.970   3.907   5.280
  729SOL     OW 3085   2.261   0.619   0.469
  729SOL    HW1 3086   2.279   0.579   0.379
  729SOL    HW2 3087   2.200   0.697   0.459
  730SOL     OW 3088   5.732   0.702   3.424
  730SOL    HW1 3089   5.753   0.710   3.327
  730SOL    HW2 3090   5.637   0.731   3.440
  731SOL     OW 3091   5.536   3.201   5.996
  731SOL    HW1 3092   5.507   3.295   5.978
  731SOL    HW2 3093   5.564   3.157   5.910
  732SOL     OW 3094   0.752   3.783   1.253
  732SOL    HW1 3095   0.715   3.692   1.235
  732SOL    HW2 3096   0.751   3.837   1.168
  733SOL     OW 3097   5.924   4.294   4.499
  733SOL    HW1 3098   5.971   4.292   4.587
  733SOL    HW2 3099   5.987   4.265   4.427
  734SOL     OW 3100   6.967   5.119   2.463
  734SOL    HW1 3101   6.935   5.132   2.370
  734SOL    HW2 3102   6.899   5.068   2.516
  735SOL     OW 3103   2.882   2.873   0.855
  735SOL    HW1 3104   2.807   2.934   0.831
  735SOL    HW2 3105   2.882   2.794   0.794
  736SOL     OW 3106   6.585   6.963   3.098
  736SOL    HW1 3107   6.560   0.025   3.137
  736SOL    HW2 3108   6.528   6.891   3.137
  737SOL     OW 3109   5.084   3.401   1.352
  737SOL    HW1 3110   5.040   3.470   1.411
  737SOL    HW2 3111   5.140   3.448   1.284
  738SOL     OW 3112   1.743   4.951   4.161
  738SOL    HW1 3113   1.722   5.048   4.170
  738SOL    HW2 3114   1.782   4.934   4.070
  739SOL     OW 3115   4.660   6.574   5.818
  739SOL    HW1 3116   4.706   6.639   5.877
  739SOL    HW2 3117   4.639   6.617   5.730
  740SOL     OW 3118   5.395   0.300   0.619
  740SOL    HW1 3119   5.310   0.252   0.597
  740SOL    HW2 3120   5.376   0.373   0.684
  741SOL     OW 3121   1.850   6.385   3.388
  741SOL    HW1 3122   1.850   6.332   3.473
  741SOL    HW2 3123   1.758   6.419   3.370
  742SOL     OW 3124   2.317   0.143   2.307
  742SOL    HW1 3125   2.263   0.227   2.314
  742SOL    HW2 3126   2.373   0.145   2.224
  743SOL     OW 3127   1.939   4.221   4.293
  743SOL    HW1 3128   1.949   4.164   4.375
  743SOL    HW2 3129   1.874   4.178   4.230
  744SOL     OW 3130   6.918   6.560   6.613
  744SOL    HW1 3131   6.874   6.585   6.526
  744SOL    HW2 3132   7.004   6.610   6.623
  745SOL     OW 3133   1.490   6.628   3.885
  745SOL    HW1 3134   1.480   6.694   3.810
  745SOL    HW2 3135   1.588   6.610   3.899
  746SOL     OW 3136   0.080   6.546   5.092
  746SOL    HW1 3137   0.060   6.561   4.995
  746SOL    HW2 3138   0.024   6.608   5.147
  747SOL     OW 3139   4.402   5.139   4.043
  747SOL    HW1 3140   4.460   5.097   4.114
  747SOL    HW2 3141   4.318   5.174   4.084
  748SOL     OW 3142   4.267   5.049   2.419
  748SOL    HW1 3143   4.302   5.074   2.329
  748SOL    HW2 3144   4.174   5.012   2.410
  749SOL     OW 3145   7.022   3.261   5.007
  749SOL    HW1 3146   0.052   3.266   4.925
  749SOL    HW2 3147   6.975   3.348   5.019
  750SOL     OW 3148   2.192   3.192   0.687
  750SOL    HW1 3149   2.182   3.154   0.595
  750SOL    HW2 3150   2.288   3.215   0.704
  751SOL     OW 3151   3.909   1.843   6.014
  751SOL    HW1 3152   3.815   1.831   5.981
  751SOL    HW2 3153   3.915   1.928   6.067
  752SOL     OW 3154   4.616   2.393   1.948
  752SOL    HW1 3155   4.518   2.374   1.948
  752SOL    HW2 3156   4.632   2.484   1.909
  753SOL     OW 3157   2.064   3.243   4.234
  753SOL    HW1 3158   2.111   3.205   4.155
  753SOL    HW2 3159   2.013   3.325   4.206
  754SOL     OW 3160   5.690   3.481   6.703
  754SOL    HW1 3161   5.683   3.441   6.794
  754SOL    HW2 3162   5.601   3.519   6.676
  755SOL     OW 3163   1.298   5.666   6.874
  755SOL    HW1 3164   1.239   5.586   6.883
  755SOL    HW2 3165   1.331   5.674   6.780
  756SOL     OW 3166   4.947   6.954   1.159
  756SOL    HW1 3167   4.946   6.960   1.258
  756SOL    HW2 3168   4.891   0.000   1.120
  757SOL     OW 3169   0.910   6.279   3.191
  757SOL    HW1 3170   0.884   6.237   3.278
  757SOL    HW2 3171   0.911   6.209   3.119
  758SOL     OW 3172   3.974   1.103   1.783
  758SOL    HW1 3173   3.985   1.151   1.696
  758SOL    HW2 3174   3.906   1.151   1.839
  759SOL     OW 3175   6.937   1.290   0.463
  759SOL    HW1 3176   6.965   1.308   0.369
  759SOL    HW2 3177   6.888   1.370   0.499
  760SOL     OW 3178   4.268   1.513   6.567
  760SOL    HW1 3179   4.323   1.480   6.490
  760SOL    HW2 3180   4.237   1.606   6.548
  761SOL     OW 3181   5.091   3.497   6.813
  761SOL    HW1 3182   5.142   3.580   6.793
  761SOL    HW2 3183   5.103   3.431   6.738
  762SOL     OW 3184   2.031   5.815   3.384
  762SOL    HW1 3185   1.986   5.740   3.335
  762SOL    HW2 3186   1.973   5.846   3.459
  763SOL     OW 3187   4.141   5.355   6.856
  763SOL    HW1 3188   4.185   5.372   6.768
  763SOL    HW2 3189   4.208   5.368   6.929
  764SOL     OW 3190   4.150   0.067   4.310
  764SOL    HW1 3191   4.076   0.053   4.377
  764SOL    HW2 3192   4.206   7.011   4.306
  765SOL     OW 3193   1.395   6.242   1.189
  765SOL    HW1 3194   1.296   6.232   1.187
  765SOL    HW2 3195   1.435   6.197   1.110
  766SOL     OW 3196   6.863   1.960   6.923
  766SOL    HW1 3197   6.836   1.869   6.890
  766SOL    HW2 3198   6.809   1.984   7.004
  767SOL     OW 3199   1.314   6.398   2.139
  767SOL    HW1 3200   1.261   6.367   2.060
  767SOL    HW2 3201   1.401   6.349   2.142
  768SOL     OW 3202   2.002   0.762   2.480
  768SOL    HW1 3203   1.936   0.793   2.547
  768SOL    HW2 3204   1.960   0.694   2.420
  769SOL     OW 3205   3.035   6.513   4.291
  769SOL    HW1 3206   3.114   6.572   4.307
  769SOL    HW2 3207   2.952   6.560   4.322
  770SOL     OW 3208   2.142   4.492   3.194
  770SOL    HW1 3209   2.111   4.554   3.267
  770SOL    HW2 3210   2.118   4.398   3.218
  771SOL     OW 3211   2.044   5.453   2.661
  771SOL    HW1 3212   1.963   5.418   2.709
  771SOL    HW2 3213   2.121   5.391   2.676
  772SOL     OW 3214   6.427   5.184   0.715
  772SOL    HW1 3215   6.392   5.252   0.779
  772SOL    HW2 3216   6.370   5.102   0.718
  773SOL     OW 3217   0.592   3.274   3.602
  773SOL    HW1 3218   0.600   3.298   3.505
  773SOL    HW2 3219   0.583   3.175   3.611
  774SOL     OW 3220   1.254   1.677   1.634
  774SOL    HW1 3221   1.215   1.606   1.576
  774SOL    HW2 3222   1.192   1.754   1.639
  775SOL     OW 3223   1.342   2.385   3.895
  775SOL    HW1 3224   1.350   2.296   3.939
  775SOL    HW2 3225   1.377   2.456   3.957
  776SOL     OW 3226   0.030   0.611   6.486
  776SOL    HW1 3227   0.080   0.605   6.400
  776SOL    HW2 3228   0.047   0.699   6.529
  777SOL     OW 3229   3.723   0.180   0.853
  777SOL    HW1 3230   3.661   0.200   0.929
  777SOL    HW2 3231   3.671   0.146   0.775
  778SOL     OW 3232   3.514   1.542   3.361
  778SOL    HW1 3233   3.605   1.514   3.329
  778SOL    HW2 3234   3.524   1.614   3.429
  779SOL     OW 3235   0.476   1.845   2.615
  779SOL    HW1 3236   0.440   1.850   2.522
  779SOL    HW2 3237   0.575   1.835   2.613
  780SOL     OW 3238   5.779   3.407   4.988
  780SOL    HW1 3239   5.853   3.365   5.041
  780SOL    HW2 3240   5.790   3.507   4.990
  781SOL     OW 3241   5.969   1.238   6.013
  781SOL    HW1 3242   6.000   1.189   5.931
  781SOL    HW2 3243   6.048   1.277   6.060
  782SOL     OW 3244   1.582   4.243   0.339
  782SOL    HW1 3245   1.640   4.166   0.315
  782SOL    HW2 3246   1.511   4.255   0.268
  783SOL     OW 3247   3.810   4.238   0.641
  783SOL    HW1 3248   3.804   4.235   0.541
  783SOL    HW2 3249   3.887   4.295   0.669
  784SOL     OW 3250   5.096   0.219   5.474
  784SOL    HW1 3251   5.102   0.119   5.470
  784SOL    HW2 3252   5.076   0.248   5.567
  785SOL     OW 3253   6.714   1.994   3.034
  785SOL    HW1 3254   6.809   2.018   3.052
  785SOL    HW2 3255   6.709   1.902   2.994
  786SOL     OW 3256   0.480   0.765   0.930
  786SOL    HW1 3257   0.409   0.735   0.866
  786SOL    HW2 3258   0.462   0.859   0.959
  787SOL     OW 3259   3.148   1.198   5.884
  787SOL    HW1 3260   3.071   1.179   5.824
  787SOL    HW2 3261   3.216   1.125   5.874
  788SOL     OW 3262   2.426   2.542   4.805
  788SOL    HW1 3263   2.471   2.548   4.716
  788SOL    HW2 3264   2.484   2.490   4.868
  789SOL     OW 3265   6.037   4.412   1.641
  789SOL    HW1 3266   6.051   4.313   1.649
  789SOL    HW2 3267   6.109   4.461   1.691
  790SOL     OW 3268   2.132   1.473   4.392
  790SOL    HW1 3269   2.087   1.395   4.349
  790SOL    HW2 3270   2.067   1.521   4.451
  791SOL     OW 3271   3.610   0.024   3.879
  791SOL    HW1 3272   3.647   0.080   3.953
  791SOL    HW2 3273   3.526   7.005   3.910
  792SOL     OW 3274   6.688   7.017   1.342
  792SOL    HW1 3275   6.751   6.989   1.269
  792SOL    HW2 3276   6.660   0.084   1.326
  793SOL     OW 3277   4.546   6.561   2.233
  793SOL    HW1 3278   4.483   6.515   2.295
  793SOL    HW2 3279   4.494   6.608   2.161
  794SOL     OW 3280   2.339   3.780   5.315
  794SOL    HW1 3281   2.356   3.817   5.407
  794SOL    HW2 3282   2.366   3.848   5.247
  795SOL     OW 3283   2.885   5.385   5.059
  795SOL    HW1 3284   2.948   5.331   5.003
  795SOL    HW2 3285   2.837   5.325   5.123
  796SOL     OW 3286   0.489   2.495   6.370
  796SOL    HW1 3287   0.568   2.480   6.310
  796SOL    HW2 3288   0.424   2.419   6.358
  797SOL     OW 3289   5.335   2.763   2.273
  797SOL    HW1 3290   5.377   2.854   2.269
  797SOL    HW2 3291   5.299   2.746   2.364
  798SOL     OW 3292   4.853   0.147   1.024
  798SOL    HW1 3293   4.792   0.084   0.977
  798SOL    HW2 3294   4.909   0.196   0.957
  799SOL     OW 3295   6.601   1.158   3.709
  799SOL    HW1 3296   6.573   1.223   3.780
  799SOL    HW2 3297   6.701   1.151   3.708
  800SOL     OW 3298   5.535   0.798   2.239
  800SOL    HW1 3299   5.626   0.835   2.258
  800SOL    HW2 3300   5.466   0.855   2.283
  801SOL     OW 3301   1.376   3.624   2.967
  801SOL    HW1 3302   1.342   3.715   2.947
  801SOL    HW2 3303   1.399   3.577   2.882
  802SOL     OW 3304   4.358   0.947   0.809
  802SOL    HW1 3305   4.298   0.875   0.776
  802SOL    HW2 3306   4.304   1.028   0.832
  803SOL     OW 3307   7.016   5.646   5.240
  803SOL    HW1 3308   6.963   5.605   5.166
  803SOL    HW2 3309   0.081   5.607   5.241
  804SOL     OW 3310   6.423   6.112   6.772
  804SOL    HW1 3311   6.381   6.166   6.845
  804SOL    HW2 3312   6.388   6.018   6.777
  805SOL     OW 3313   4.394   2.196   5.832
  805SOL    HW1 3314   4.358   2.121   5.777
  805SOL    HW2 3315   4.463   2.246   5.780
  806SOL     OW 3316   4.114   1.989   4.846
  806SOL    HW1 3317   4.207   1.992   4.882
  806SOL    HW2 3318   4.049   1.993   4.921
  807SOL     OW 3319   0.838   2.402   3.548
  807SOL    HW1 3320   0.836   2.422   3.450
  807SOL    HW2 3321   0.900   2.326   3.566
  808SOL     OW 3322   5.234   3.213   6.424
  808SOL    HW1 3323   5.243   3.301   6.470
  808SOL    HW2 3324   5.281   3.216   6.336
  809SOL     OW 3325   1.315   4.941   1.582
  809SOL    HW1 3326   1.234   4.957   1.638
  809SOL    HW2 3327   1.288   4.921   1.488
  810SOL     OW 3328   4.177   2.709   0.550
  810SOL    HW1 3329   4.117   2.735   0.474
  810SOL    HW2 3330   4.263   2.675   0.512
  811SOL     OW 3331   4.584   5.191   3.469
  811SOL    HW1 3332   4.488   5.179   3.447
  811SOL    HW2 3333   4.634   5.220   3.387
  812SOL     OW 3334   0.110   0.728   1.960
  812SOL    HW1 3335   0.068   0.639   1.977
  812SOL    HW2 3336   0.131   0.738   1.863
  813SOL     OW 3337   3.845   5.383   3.797
  813SOL    HW1 3338   3.851   5.416   3.891
  813SOL    HW2 3339   3.763   5.327   3.785
  814SOL     OW 3340   4.994   6.639   3.818
  814SOL    HW1 3341   5.081   6.688   3.816
  814SOL    HW2 3342   5.008   6.546   3.783
  815SOL     OW 3343   6.622   3.030   2.141
  815SOL    HW1 3344   6.662   3.074   2.222
  815SOL    HW2 3345   6.525   3.056   2.134
  816SOL     OW 3346   0.316   6.664   7.003
  816SOL    HW1 3347   0.361   6.585   6.962
  816SOL    HW2 3348   0.282   6.640   0.067
  817SOL     OW 3349   1.811   3.912   2.444
  817SOL    HW1 3350   1.892   3.957   2.406
  817SOL    HW2 3351   1.804   3.935   2.541
  818SOL     OW 3352   6.704   2.810   0.672
  818SOL    HW1 3353   6.749   2.721   0.667
  818SOL    HW2 3354   6.666   2.823   0.764
  819SOL     OW 3355   6.005   3.214   3.993
  819SOL    HW1 3356   6.090   3.169   4.021
  819SOL    HW2 3357   5.984   3.190   3.898
  820SOL     OW 3358   1.507   2.632   6.068
  820SOL    HW1 3359   1.489   2.722   6.028
  820SOL    HW2 3360   1.433   2.608   6.130
  821SOL     OW 3361   2.537   4.421   0.088
  821SOL    HW1 3362   2.563   4.517   0.094
  821SOL    HW2 3363   2.437   4.413   0.098
  822SOL     OW 3364   0.650   5.505   4.535
  822SOL    HW1 3365   0.572   5.561   4.508
  822SOL    HW2 3366   0.717   5.505   4.461
  823SOL     OW 3367   4.187   4.321   6.767
  823SOL    HW1 3368   4.107   4.262   6.781
  823SOL    HW2 3369   4.268   4.275   6.803
  824SOL     OW 3370   5.140   1.187   5.640
  824SOL    HW1 3371   5.212   1.208   5.706
  824SOL    HW2 3372   5.161   1.099   5.596
  825SOL     OW 3373   2.185   3.068   1.918
  825SOL    HW1 3374   2.199   3.135   1.845
  825SOL    HW2 3375   2.144   3.112   1.997
  826SOL     OW 3376   6.027   4.390   0.716
  826SOL    HW1 3377   6.012   4.292   0.722
  826SOL    HW2 3378   5.949   4.434   0.671
  827SOL     OW 3379   3.063   5.641   5.433
  827SOL    HW1 3380   3.122   5.609   5.359
  827SOL    HW2 3381   2.987   5.576   5.444
  828SOL     OW 3382   6.357   0.499   5.075
  828SOL    HW1 3383   6.361   0.506   4.976
  828SOL    HW2 3384   6.447   0.473   5.111
  829SOL     OW 3385   3.014   3.693   4.503
  829SOL    HW1 3386   2.993   3.715   4.408
  829SOL    HW2 3387   3.028   3.778   4.554
  830SOL     OW 3388   4.971   4.398   6.092
  830SOL    HW1 3389   4.966   4.488   6.048
  830SOL    HW2 3390   4.969   4.327   6.021
  831SOL     OW 3391   0.246   0.004   4.739
  831SOL    HW1 3392   0.188   6.950   4.727
  831SOL    HW2 3393   0.280   0.033   4.649
  832SOL     OW 3394   1.970   1.119   0.213
  832SOL    HW1 3395   1.898   1.082   0.273
  832SOL    HW2 3396   2.060   1.097   0.252
  833SOL     OW 3397   0.715   5.350   5.965
  833SOL    HW1 3398   0.653   5.282   5.927
  833SOL    HW2 3399   0.729   5.424   5.898
  834SOL     OW 3400   3.805   3.609   1.790
  834SOL    HW1 3401   3.769   3.700   1.808
  834SOL    HW2 3402   3.832   3.602   1.694
  835SOL     OW 3403   3.828   6.567   4.355
  835SOL    HW1 3404   3.895   6.538   4.425
  835SOL    HW2 3405   3.820   6.666   4.356
  836SOL     OW 3406   3.152   6.035   6.564
  836SOL    HW1 3407   3.172   6.068   6.656
  836SOL    HW2 3408   3.214   5.959   6.542
  837SOL     OW 3409   4.924   0.245   6.904
  837SOL    HW1 3410   4.832   0.270   6.934
  837SOL    HW2 3411   4.981   0.326   6.901
  838SOL     OW 3412   0.840   0.071   5.051
  838SOL    HW1 3413   0.808   0.132   4.979
  838SOL    HW2 3414   0.766   0.010   5.078
  839SOL     OW 3415   2.847   1.274   2.306
  839SOL    HW1 3416   2.827   1.179   2.331
  839SOL    HW2 3417   2.890   1.320   2.384
  840SOL     OW 3418   6.246   0.995   5.180
  840SOL    HW1 3419   6.181   0.923   5.155
  840SOL    HW2 3420   6.286   1.034   5.097
  841SOL     OW 3421   6.134   4.600   0.258
  841SOL    HW1 3422   6.035   4.603   0.249
  841SOL    HW2 3423   6.163   4.658   0.335
  842SOL     OW 3424   4.303   5.156   3.402
  842SOL    HW1 3425   4.289   5.180   3.306
  842SOL    HW2 3426   4.259   5.225   3.460
  843SOL     OW 3427   5.414   1.982   0.306
  843SOL    HW1 3428   5.494   1.924   0.294
  843SOL    HW2 3429   5.364   1.988   0.219
  844SOL     OW 3430   4.621   6.458   0.499
  844SOL    HW1 3431   4.602   6.394   0.574
  844SOL    HW2 3432   4.539   6.470   0.444
  845SOL     OW 3433   5.955   3.123   4.267
  845SOL    HW1 3434   6.040   3.077   4.291
  845SOL    HW2 3435   5.952   3.137   4.168
  846SOL     OW 3436   5.214   1.301   6.497
  846SOL    HW1 3437   5.131   1.245   6.505
  846SOL    HW2 3438   5.193   1.395   6.523
  847SOL     OW 3439   6.304   3.577   1.044
  847SOL    HW1 3440   6.234   3.620   1.100
  847SOL    HW2 3441   6.279   3.481   1.027
  848SOL     OW 3442   5.805   1.294   6.477
  848SOL    HW1 3443   5.733   1.297   6.408
  848SOL    HW2 3444   5.829   1.199   6.496
  849SOL     OW 3445   0.262   5.564   5.325
  849SOL    HW1 3446   0.319   5.491   5.287
  849SOL    HW2 3447   0.202   5.527   5.395
  850SOL     OW 3448   4.507   0.790   3.288
  850SOL    HW1 3449   4.550   0.728   3.353
  850SOL    HW2 3450   4.418   0.753   3.260
  851SOL     OW 3451   0.444   1.434   0.584
  851SOL    HW1 3452   0.359   1.422   0.532
  851SOL    HW2 3453   0.468   1.348   0.628
  852SOL     OW 3454   2.618   2.655   0.120
  852SOL    HW1 3455   2.545   2.713   0.083
  852SOL    HW2 3456   2.658   2.601   0.046
  853SOL     OW 3457   0.776   3.741   3.596
  853SOL    HW1 3458   0.832   3.775   3.672
  853SOL    HW2 3459   0.722   3.663   3.628
  854SOL     OW 3460   5.319   6.092   2.312
  854SOL    HW1 3461   5.270   6.159   2.369
  854SOL    HW2 3462   5.274   6.085   2.223
  855SOL     OW 3463   6.056   7.002   1.140
  855SOL    HW1 3464   5.960   6.973   1.141
  855SOL    HW2 3465   6.067   0.048   1.072
  856SOL     OW 3466   1.762   0.781   4.920
  856SOL    HW1 3467   1.732   0.752   5.011
  856SOL    HW2 3468   1.733   0.713   4.853
  857SOL     OW 3469   5.736   5.207   1.746
  857SOL    HW1 3470   5.755   5.122   1.697
  857SOL    HW2 3471   5.819   5.262   1.751
  858SOL     OW 3472   2.591   4.639   1.989
  858SOL    HW1 3473   2.561   4.556   2.037
  858SOL    HW2 3474   2.687   4.656   2.011
  859SOL     OW 3475   5.861   5.415   6.651
  859SOL    HW1 3476   5.952   5.456   6.651
  859SOL    HW2 3477   5.866   5.320   6.621
  860SOL     OW 3478   4.980   3.839   0.422
  860SOL    HW1 3479   5.066   3.889   0.412
  860SOL    HW2 3480   4.946   3.848   0.516
  861SOL     OW 3481   2.017   0.226   4.586
  861SOL    HW1 3482   2.006   0.187   4.677
  861SOL    HW2 3483   2.103   0.277   4.581
  862SOL     OW 3484   6.101   4.043   4.965
  862SOL    HW1 3485   6.184   4.000   4.929
  862SOL    HW2 3486   6.120   4.139   4.984
  863SOL     OW 3487   1.234   6.957   0.664
  863SOL    HW1 3488   1.276   6.891   0.602
  863SOL    HW2 3489   1.138   6.971   0.638
  864SOL     OW 3490   5.281   4.422   3.572
  864SOL    HW1 3491   5.254   4.474   3.491
  864SOL    HW2 3492   5.285   4.483   3.652
  865SOL     OW 3493   0.346   6.689   4.483
  865SOL    HW1 3494   0.378   6.723   4.571
  865SOL    HW2 3495   0.408   6.617   4.451
  866SOL     OW 3496   2.517   1.413   2.106
  866SOL    HW1 3497   2.463   1.428   2.024
  866SOL    HW2 3498   2.597   1.474   2.105
  867SOL     OW 3499   3.314   2.778   0.957
  867SOL    HW1 3500   3.327   2.723   1.040
  867SOL    HW2 3501   3.314   2.875   0.981
  868SOL     OW 3502   6.024   6.987   1.596
  868SOL    HW1 3503   6.078   6.909   1.565
  868SOL    HW2 3504   5.947   7.001   1.533
  869SOL     OW 3505   6.418   5.378   2.775
  869SOL    HW1 3506   6.378   5.452   2.720
  869SOL    HW2 3507   6.500   5.344   2.730
  870SOL     OW 3508   6.356   3.905   1.528
  870SOL    HW1 3509   6.307   3.862   1.604
  870SOL    HW2 3510   6.418   3.975   1.564
  871SOL     OW 3511   0.094   3.315   1.747
  871SOL    HW1 3512   0.103   3.365   1.660
  871SOL    HW2 3513   0.148   3.232   1.742
  872SOL     OW 3514   6.281   3.457   4.306
  872SOL    HW1 3515   6.221   3.399   4.362
  872SOL    HW2 3516   6.285   3.548   4.346
  873SOL     OW 3517   4.378   0.742   2.778
  873SOL    HW1 3518   4.351   0.720   2.684
  873SOL    HW2 3519   4.345   0.834   2.801
  874SOL     OW 3520   1.688   4.162   5.128
  874SOL    HW1 3521   1.773   4.207   5.154
  874SOL    HW2 3522   1.613   4.196   5.185
  875SOL     OW 3523   5.115   4.395   0.620
  875SOL    HW1 3524   5.031   4.446   0.640
  875SOL    HW2 3525   5.093   4.303   0.588
  876SOL     OW 3526   6.601   4.282   3.331
  876SOL    HW1 3527   6.558   4.360   3.286
  876SOL    HW2 3528   6.700   4.295   3.333
  877SOL     OW 3529   4.640   4.949   7.004
  877SOL    HW1 3530   4.686   4.879   0.031
  877SOL    HW2 3531   4.683   5.038   7.021
  878SOL     OW 3532   3.493   5.256   0.150
  878SOL    HW1 3533   3.543   5.249   0.063
  878SOL    HW2 3534   3.404   5.297   0.134
  879SOL     OW 3535   4.475   2.060   2.619
  879SOL    HW1 3536   4.467   2.085   2.715
  879SOL    HW2 3537   4.419   2.121   2.564
  880SOL     OW 3538   3.182   4.318   0.060
  880SOL    HW1 3539   3.123   4.377   0.005
  880SOL    HW2 3540   3.259   4.372   0.095
  881SOL     OW 3541   4.286   4.747   4.788
  881SOL    HW1 3542   4.326   4.813   4.852
  881SOL    HW2 3543   4.279   4.658   4.833
  882SOL     OW 3544   1.979   1.590   4.582
  882SOL    HW1 3545   1.893   1.551   4.615
  882SOL    HW2 3546   2.049   1.581   4.653
  883SOL     OW 3547   4.294   5.025   5.544
  883SOL    HW1 3548   4.198   5.021   5.517
  883SOL    HW2 3549   4.317   5.119   5.571
  884SOL     OW 3550   6.797   3.271   1.907
  884SOL    HW1 3551   6.704   3.265   1.871
  884SOL    HW2 3552   6.855   3.320   1.841
  885SOL     OW 3553   5.786   6.581   0.092
  885SOL    HW1 3554   5.813   6.556   0.185
  885SOL    HW2 3555   5.688   6.565   0.081
  886SOL     OW 3556   4.187   1.053   0.353
  886SOL    HW1 3557   4.233   0.964   0.359
  886SOL    HW2 3558   4.088   1.040   0.362
  887SOL     OW 3559   3.953   6.474   6.188
  887SOL    HW1 3560   3.998   6.536   6.252
  887SOL    HW2 3561   4.022   6.437   6.125
  888SOL     OW 3562   6.907   6.226   3.460
  888SOL    HW1 3563   6.944   6.310   3.502
  888SOL    HW2 3564   6.808   6.224   3.471
  889SOL     OW 3565   0.352   6.789   5.840
  889SOL    HW1 3566   0.303   6.869   5.806
  889SOL    HW2 3567   0.301   6.747   5.915
  890SOL     OW 3568   2.828   4.734   2.260
  890SOL    HW1 3569   2.786   4.825   2.253
  890SOL    HW2 3570   2.852   4.702   2.168
  891SOL     OW 3571   5.719   3.876   1.358
  891SOL    HW1 3572   5.723   3.780   1.385
  891SOL    HW2 3573   5.677   3.930   1.431
  892SOL     OW 3574   3.690   3.848   0.447
  892SOL    HW1 3575   3.634   3.922   0.484
  892SOL    HW2 3576   3.631   3.771   0.421
  893SOL     OW 3577   1.503   0.614   0.205
  893SOL    HW1 3578   1.588   0.581   0.247
  893SOL    HW2 3579   1.425   0.565   0.244
  894SOL     OW 3580   1.693   4.792   4.378
  894SOL    HW1 3581   1.713   4.835   4.290
  894SOL    HW2 3582   1.779   4.776   4.427
  895SOL     OW 3583   2.263   0.098   4.414
  895SOL    HW1 3584   2.360   0.116   4.426
  895SOL    HW2 3585   2.227   0.158   4.342
  896SOL     OW 3586   5.713   6.270   4.186
  896SOL    HW1 3587   5.672   6.209   4.253
  896SOL    HW2 3588   5.805   6.296   4.217
  897SOL     OW 3589   4.999   1.604   0.403
  897SOL    HW1 3590   5.073   1.671   0.393
  897SOL    HW2 3591   5.032   1.526   0.456
  898SOL     OW 3592   5.303   6.098   3.806
  898SOL    HW1 3593   5.387   6.152   3.814
  898SOL    HW2 3594   5.248   6.108   3.889
  899SOL     OW 3595   0.389   5.139   0.305
  899SOL    HW1 3596   0.374   5.237   0.314
  899SOL    HW2 3597   0.320   5.089   0.357
  900SOL     OW 3598   6.309   5.922   1.915
  900SOL    HW1 3599   6.344   5.982   1.986
  900SOL    HW2 3600   6.385   5.893   1.856
  901SOL     OW 3601   0.130   1.312   4.274
  901SOL    HW1 3602   0.127   1.226   4.325
  901SOL    HW2 3603   0.187   1.378   4.322
  902SOL     OW 3604   6.970   0.482   6.704
  902SOL    HW1 3605   7.010   0.529   6.626
  902SOL    HW2 3606   6.922   0.399   6.673
  903SOL     OW 3607   6.392   4.792   0.806
  903SOL    HW1 3608   6.485   4.773   0.775
  903SOL    HW2 3609   6.350   4.708   0.840
  904SOL     OW 3610   1.453   1.968   3.732
  904SOL    HW1 3611   1.510   1.913   3.670
  904SOL    HW2 3612   1.369   1.994   3.686
  905SOL     OW 3613   5.131   2.224   6.731
  905SOL    HW1 3614   5.064   2.276   6.784
  905SOL    HW2 3615   5.085   2.149   6.683
  906SOL     OW 3616   0.128   4.707   0.186
  906SOL    HW1 3617   0.029   4.719   0.178
  906SOL    HW2 3618   0.148   4.611   0.207
  907SOL     OW 3619   5.941   2.125   2.908
  907SOL    HW1 3620   5.866   2.177   2.868
  907SOL    HW2 3621   5.965   2.049   2.847
  908SOL     OW 3622   0.844   6.868   4.139
  908SOL    HW1 3623   0.888   6.935   4.079
  908SOL    HW2 3624   0.862   6.891   4.235
  909SOL     OW 3625   2.565   1.031   0.187
  909SOL    HW1 3626   2.497   0.978   0.138
  909SOL    HW2 3627   2.567   1.002   0.283
  910SOL     OW 3628   1.503   0.507   0.717
  910SOL    HW1 3629   1.599   0.492   0.694
  910SOL    HW2 3630   1.446   0.491   0.636
  911SOL     OW 3631   6.981   5.013   1.546
  911SOL    HW1 3632   7.010   4.918   1.546
  911SOL    HW2 3633   0.034   5.073   1.548
  912SOL     OW 3634   0.071   1.554   5.430
  912SOL    HW1 3635   0.011   1.632   5.415
  912SOL    HW2 3636   0.018   1.479   5.470
  913SOL     OW 3637   2.158   0.394   3.716
  913SOL    HW1 3638   2.082   0.333   3.737
  913SOL    HW2 3639   2.132   0.489   3.737
  914SOL     OW 3640   2.392   5.833   4.427
  914SOL    HW1 3641   2.465   5.858   4.363
  914SOL    HW2 3642   2.400   5.737   4.451
  915SOL     OW 3643   0.377   3.385   0.426
  915SOL    HW1 3644   0.459   3.338   0.394
  915SOL    HW2 3645   0.328   3.326   0.490
  916SOL     OW 3646   2.332   1.848   2.499
  916SOL    HW1 3647   2.389   1.771   2.469
  916SOL    HW2 3648   2.371   1.887   2.582
  917SOL     OW 3649   3.843   0.798   1.497
  917SOL    HW1 3650   3.798   0.792   1.408
  917SOL    HW2 3651   3.805   0.875   1.548
  918SOL     OW 3652   3.017   6.221   6.385
  918SOL    HW1 3653   3.057   6.141   6.430
  918SOL    HW2 3654   2.931   6.195   6.341
  919SOL     OW 3655   1.643   5.940   2.152
  919SOL    HW1 3656   1.614   6.036   2.151
  919SOL    HW2 3657   1.566   5.882   2.123
  920SOL     OW 3658   2.570   0.579   2.971
  920SOL    HW1 3659   2.520   0.661   2.943
  920SOL    HW2 3660   2.521   0.534   3.046
  921SOL     OW 3661   5.968   4.605   4.364
  921SOL    HW1 3662   5.987   4.566   4.275
  921SOL    HW2 3663   5.886   4.563   4.403
  922SOL     OW 3664   3.196   3.838   0.281
  922SOL    HW1 3665   3.295   3.832   0.267
  922SOL    HW2 3666   3.162   3.923   0.240
  923SOL     OW 3667   2.635   5.550   0.483
  923SOL    HW1 3668   2.687   5.465   0.493
  923SOL    HW2 3669   2.697   5.624   0.454
  924SOL     OW 3670   5.460   2.993   2.310
  924SOL    HW1 3671   5.439   3.020   2.404
  924SOL    HW2 3672   5.404   3.047   2.247
  925SOL     OW 3673   0.070   1.791   6.152
  925SOL    HW1 3674   0.053   1.816   6.247
  925SOL    HW2 3675   0.111   1.700   6.148
  926SOL     OW 3676   5.751   6.743   0.961
  926SOL    HW1 3677   5.688   6.777   0.891
  926SOL    HW2 3678   5.705   6.672   1.015
  927SOL     OW 3679   4.846   4.171   3.940
  927SOL    HW1 3680   4.849   4.200   3.844
  927SOL    HW2 3681   4.805   4.080   3.947
  928SOL     OW 3682   1.702   6.939   0.513
  928SOL    HW1 3683   1.771   6.984   0.457
  928SOL    HW2 3684   1.611   6.969   0.484
  929SOL     OW 3685   0.393   2.947   2.041
  929SOL    HW1 3686   0.466   2.916   2.102
  929SOL    HW2 3687   0.304   2.926   2.081
  930SOL     OW 3688   5.597   5.136   3.721
  930SOL    HW1 3689   5.684   5.088   3.729
  930SOL    HW2 3690   5.523   5.070   3.709
  931SOL     OW 3691   0.659   2.877   2.840
  931SOL    HW1 3692   0.589   2.947   2.834
  931SOL    HW2 3693   0.733   2.898   2.776
  932SOL     OW 3694   3.830   6.177   1.819
  932SOL    HW1 3695   3.791   6.085   1.812
  932SOL    HW2 3696   3.909   6.185   1.759
  933SOL     OW 3697   1.306   4.072   3.238
  933SOL    HW1 3698   1.209   4.095   3.241
  933SOL    HW2 3699   1.361   4.155   3.249
  934SOL     OW 3700   3.083   0.833   4.544
  934SOL    HW1 3701   3.125   0.765   4.604
  934SOL    HW2 3702   3.099   0.925   4.580
  935SOL     OW 3703   4.648   3.735   6.505
  935SOL    HW1 3704   4.639   3.834   6.497
  935SOL    HW2 3705   4.738   3.707   6.473
  936SOL     OW 3706   0.708   6.867   1.192
  936SOL    HW1 3707   0.694   6.835   1.285
  936SOL    HW2 3708   0.774   6.807   1.146
  937SOL     OW 3709   5.226   1.586   4.333
  937SOL    HW1 3710   5.302   1.648   4.354
  937SOL    HW2 3711   5.215   1.578   4.234
  938SOL     OW 3712   0.258   4.241   6.102
  938SOL    HW1 3713   0.193   4.240   6.178
  938SOL    HW2 3714   0.302   4.151   6.095
  939SOL     OW 3715   4.722   1.139   6.277
  939SOL    HW1 3716   4.654   1.188   6.223
  939SOL    HW2 3717   4.719   1.170   6.371
  940SOL     OW 3718   0.255   1.149   2.607
  940SOL    HW1 3719   0.171   1.139   2.552
  940SOL    HW2 3720   0.271   1.246   2.626
  941SOL     OW 3721   5.460   1.057   3.370
  941SOL    HW1 3722   5.372   1.091   3.337
  941SOL    HW2 3723   5.524   1.051   3.293
  942SOL     OW 3724   5.142   0.137   4.967
  942SOL    HW1 3725   5.091   0.068   5.020
  942SOL    HW2 3726   5.078   0.200   4.923
  943SOL     OW 3727   6.681   3.401   2.527
  943SOL    HW1 3728   6.714   3.366   2.614
  943SOL    HW2 3729   6.749   3.462   2.487
  944SOL     OW 3730   6.124   3.354   4.680
  944SOL    HW1 3731   6.103   3.326   4.586
  944SOL    HW2 3732   6.045   3.337   4.739
  945SOL     OW 3733   4.336   4.645   4.000
  945SOL    HW1 3734   4.253   4.686   4.038
  945SOL    HW2 3735   4.333   4.546   4.015
  946SOL     OW 3736   5.789   2.344   6.581
  946SOL    HW1 3737   5.751   2.366   6.491
  946SOL    HW2 3738   5.863   2.407   6.602
  947SOL     OW 3739   3.083   3.433   6.404
  947SOL    HW1 3740   3.094   3.532   6.399
  947SOL    HW2 3741   3.008   3.404   6.344
  948SOL     OW 3742   3.179   1.046   0.293
  948SOL    HW1 3743   3.079   1.047   0.291
  948SOL    HW2 3744   3.215   1.103   0.219
  949SOL     OW 3745   6.174   5.354   6.111
  949SOL    HW1 3746   6.195   5.262   6.142
  949SOL    HW2 3747   6.258   5.407   6.104
  950SOL     OW 3748   4.064   5.097   2.134
  950SOL    HW1 3749   3.985   5.128   2.082
  950SOL    HW2 3750   4.054   5.000   2.157
  951SOL     OW 3751   0.436   0.579   1.354
  951SOL    HW1 3752   0.493   0.553   1.432
  951SOL    HW2 3753   0.376   0.502   1.329
  952SOL     OW 3754   5.259   1.475   2.548
  952SOL    HW1 3755   5.250   1.504   2.453
  952SOL    HW2 3756   5.191   1.404   2.568
  953SOL     OW 3757   4.225   5.765   5.514
  953SOL    HW1 3758   4.316   5.800   5.494
  953SOL    HW2 3759   4.170   5.836   5.558
  954SOL     OW 3760   6.227   0.134   1.326
  954SOL    HW1 3761   6.178   0.063   1.276
  954SOL    HW2 3762   6.314   0.099   1.359
  955SOL     OW 3763   1.076   5.291   3.855
  955SOL    HW1 3764   1.110   5.271   3.947
  955SOL    HW2 3765   1.153   5.296   3.792
  956SOL     OW 3766   0.960   1.290   1.532
  956SOL    HW1 3767   0.994   1.352   1.602
  956SOL    HW2 3768   1.027   1.218   1.515
  957SOL     OW 3769   1.390   5.331   5.889
  957SOL    HW1 3770   1.482   5.298   5.868
  957SOL    HW2 3771   1.368   5.310   5.984
  958SOL     OW 3772   4.922   2.247   0.952
  958SOL    HW1 3773   4.863   2.218   1.027
  958SOL    HW2 3774   4.895   2.338   0.921
  959SOL     OW 3775   2.890   4.873   2.988
  959SOL    HW1 3776   2.855   4.891   3.081
  959SOL    HW2 3777   2.988   4.856   2.992
  960SOL     OW 3778   1.540   6.221   3.938
  960SOL    HW1 3779   1.474   6.284   3.978
  960SOL    HW2 3780   1.631   6.263   3.939
  961SOL     OW 3781   4.341   6.939   2.349
  961SOL    HW1 3782   4.415   6.919   2.414
  961SOL    HW2 3783   4.277   6.862   2.347
  962SOL     OW 3784   1.690   0.819   3.389
  962SOL    HW1 3785   1.759   0.891   3.390
  962SOL    HW2 3786   1.605   0.856   3.351
  963SOL     OW 3787   6.268   0.072   0.685
  963SOL    HW1 3788   6.283   0.171   0.683
  963SOL    HW2 3789   6.354   0.025   0.665
  964SOL     OW 3790   5.490   2.970   0.894
  964SOL    HW1 3791   5.497   2.884   0.944
  964SOL    HW2 3792   5.449   3.040   0.952
  965SOL     OW 3793   6.263   1.258   1.096
  965SOL    HW1 3794   6.167   1.275   1.076
  965SOL    HW2 3795   6.281   1.274   1.193
  966SOL     OW 3796   6.334   1.722   2.966
  966SOL    HW1 3797   6.290   1.634   2.986
  966SOL    HW2 3798   6.305   1.754   2.876
  967SOL     OW 3799   1.318   5.589   0.592
  967SOL    HW1 3800   1.395   5.617   0.649
  967SOL    HW2 3801   1.351   5.531   0.517
  968SOL     OW 3802   5.193   2.971   2.520
  968SOL    HW1 3803   5.133   2.989   2.597
  968SOL    HW2 3804   5.262   3.043   2.513
  969SOL     OW 3805   3.699   6.084   5.914
  969SOL    HW1 3806   3.644   6.040   5.843
  969SOL    HW2 3807   3.671   6.179   5.925
  970SOL     OW 3808   4.121   1.941   5.279
  970SOL    HW1 3809   4.125   1.984   5.369
  970SOL    HW2 3810   4.036   1.967   5.233
  971SOL     OW 3811   6.889   1.347   2.733
  971SOL    HW1 3812   6.893   1.352   2.633
  971SOL    HW2 3813   6.795   1.358   2.763
  972SOL     OW 3814   6.233   4.994   0.685
  972SOL    HW1 3815   6.215   5.004   0.587
  972SOL    HW2 3816   6.269   4.903   0.704
  973SOL     OW 3817   0.741   4.428   6.426
  973SOL    HW1 3818   0.767   4.502   6.487
  973SOL    HW2 3819   0.647   4.398   6.447
  974SOL     OW 3820   3.243   0.611   2.541
  974SOL    HW1 3821   3.335   0.649   2.549
  974SOL    HW2 3822   3.218   0.566   2.626
  975SOL     OW 3823   3.199   6.433   6.282
  975SOL    HW1 3824   3.129   6.361   6.280
  975SOL    HW2 3825   3.241   6.441   6.192
  976SOL     OW 3826   6.988   2.785   2.372
  976SOL    HW1 3827   6.932   2.819   2.448
  976SOL    HW2 3828   6.939   2.712   2.324
  977SOL     OW 3829   1.812   0.955   4.037
  977SOL    HW1 3830   1.726   0.973   3.989
  977SOL    HW2 3831   1.796   0.959   4.136
  978SOL     OW 3832   5.258   4.208   4.695
  978SOL    HW1 3833   5.174   4.155   4.684
  978SOL    HW2 3834   5.333   4.161   4.648
  979SOL     OW 3835   6.427   1.632   3.533
  979SOL    HW1 3836   6.424   1.567   3.457
  979SOL    HW2 3837   6.493   1.704   3.512
  980SOL     OW 3838   5.338   2.544   3.723
  980SOL    HW1 3839   5.404   2.563   3.651
  980SOL    HW2 3840   5.376   2.476   3.786
  981SOL     OW 3841   1.227   1.876   4.927
  981SOL    HW1 3842   1.305   1.924   4.965
  981SOL    HW2 3843   1.259   1.802   4.868
  982SOL     OW 3844   1.732   2.812   2.280
  982SOL    HW1 3845   1.658   2.869   2.314
  982SOL    HW2 3846   1.780   2.859   2.206
  983SOL     OW 3847   5.840   2.386   3.532
  983SOL    HW1 3848   5.868   2.340   3.448
  983SOL    HW2 3849   5.782   2.465   3.510
  984SOL     OW 3850   3.931   0.647   5.359
  984SOL    HW1 3851   3.973   0.643   5.269
  984SOL    HW2 3852   3.838   0.681   5.351
  985SOL     OW 3853   4.345   4.925   0.062
  985SOL    HW1 3854   4.421   4.937   7.025
  985SOL    HW2 3855   4.374   4.865   0.137
  986SOL     OW 3856   5.420   5.695   6.145
  986SOL    HW1 3857   5.444   5.733   6.235
  986SOL    HW2 3858   5.431   5.596   6.147
  987SOL     OW 3859   3.345   6.668   1.727
  987SOL    HW1 3860   3.353   6.760   1.689
  987SOL    HW2 3861   3.435   6.638   1.759
  988SOL     OW 3862   3.898   2.462   0.562
  988SOL    HW1 3863   3.894   2.434   0.658
  988SOL    HW2 3864   3.876   2.559   0.555
  989SOL     OW 3865   0.491   0.892   6.172
  989SOL    HW1 3866   0.392   0.898   6.171
  989SOL    HW2 3867   0.520   0.827   6.242
  990SOL     OW 3868   4.681   0.044   3.896
  990SOL    HW1 3869   4.682   6.982   3.849
  990SOL    HW2 3870   4.661   0.116   3.830
  991SOL     OW 3871   1.805   2.065   5.143
  991SOL    HW1 3872   1.885   2.108   5.099
  991SOL    HW2 3873   1.792   1.973   5.107
  992SOL     OW 3874   0.257   2.661   6.833
  992SOL    HW1 3875   0.210   2.669   6.744
  992SOL    HW2 3876   0.250   2.567   6.865
  993SOL     OW 3877   2.294   5.520   2.418
  993SOL    HW1 3878   2.297   5.420   2.414
  993SOL    HW2 3879   2.200   5.551   2.405
  994SOL     OW 3880   3.818   4.037   2.587
  994SOL    HW1 3881   3.868   3.950   2.590
  994SOL    HW2 3882   3.883   4.113   2.591
  995SOL     OW 3883   2.079   2.594   6.213
  995SOL    HW1 3884   2.058   2.556   6.303
  995SOL    HW2 3885   2.054   2.691   6.210
  996SOL     OW 3886   1.619   3.359   4.006
  996SOL    HW1 3887   1.549   3.350   3.935
  996SOL    HW2 3888   1.704   3.317   3.976
  997SOL     OW 3889   0.449   7.009   1.330
  997SOL    HW1 3890   0.492   0.022   1.249
  997SOL    HW2 3891   0.468   0.041   1.409
  998SOL     OW 3892   4.519   0.087   2.950
  998SOL    HW1 3893   4.431   0.040   2.942
  998SOL    HW2 3894   4.581   0.054   2.879
  999SOL     OW 3895   5.242   5.947   1.221
  999SOL    HW1 3896   5.273   5.856   1.247
  999SOL    HW2 3897   5.253   6.010   1.299
 1000SOL     OW 3898   1.252   1.868   2.538
 1000SOL    HW1 3899   1.342   1.857   2.580
 1000SOL    HW2 3900   1.258   1.848   2.440
 1001SOL     OW 3901   4.213   6.087   6.318
 1001SOL    HW1 3902   4.192   6.053   6.226
 1001SOL    HW2 3903   4.143   6.153   6.346
 1002SOL     OW 3904   5.471   1.552   6.544
 1002SOL    HW1 3905   5.377   1.580   6.525
 1002SOL    HW2 3906   5.496   1.581   6.637
 1003SOL     OW 3907   2.451   6.763   1.870
 1003SOL    HW1 3908   2.502   6.760   1.784
 1003SOL    HW2 3909   2.510   6.733   1.945
 1004SOL     OW 3910   6.616   0.692   0.334
 1004SOL    HW1 3911   6.540   0.653   0.284
 1004SOL    HW2 3912   6.602   0.791   0.345
 1005SOL     OW 3913   0.166   0.920   2.845
 1005SOL    HW1 3914   0.104   0.942   2.770
 1005SOL    HW2 3915   0.251   0.973   2.835
 1006SOL     OW 3916   2.654   5.708   1.738
 1006SOL    HW1 3917   2.698   5.660   1.662
 1006SOL    HW2 3918   2.555   5.713   1.721
 1007SOL     OW 3919   6.064   0.114   3.401
 1007SOL    HW1 3920   6.147   0.100   3.347
 1007SOL    HW2 3921   6.020   0.026   3.419
 1008SOL     OW 3922   1.087   2.737   4.261
 1008SOL    HW1 3923   1.040   2.757   4.347
 1008SOL    HW2 3924   1.147   2.658   4.274
 1009SOL     OW 3925   6.201   5.329   3.726
 1009SOL    HW1 3926   6.173   5.331   3.822
 1009SOL    HW2 3927   6.288   5.375   3.715
 1010SOL     OW 3928   4.214   1.994   0.214
 1010SOL    HW1 3929   4.244   1.913   0.264
 1010SOL    HW2 3930   4.259   1.996   0.124
 1011SOL     OW 3931   3.201   5.486   3.414
 1011SOL    HW1 3932   3.118   5.441   3.446
 1011SOL    HW2 3933   3.273   5.476   3.483
 1012SOL     OW 3934   6.082   5.538   0.257
 1012SOL    HW1 3935   6.084   5.619   0.199
 1012SOL    HW2 3936   6.004   5.543   0.319
 1013SOL     OW 3937   0.521   1.208   6.802
 1013SOL    HW1 3938   0.587   1.213   6.727
 1013SOL    HW2 3939   0.508   1.299   6.842
 1014SOL     OW 3940   5.549   5.435   6.249
 1014SOL    HW1 3941   5.513   5.342   6.241
 1014SOL    HW2 3942   5.576   5.453   6.343
 1015SOL     OW 3943   3.776   6.762   5.100
 1015SOL    HW1 3944   3.698   6.708   5.068
 1015SOL    HW2 3945   3.856   6.741   5.044
 1016SOL     OW 3946   2.227   2.778   1.008
 1016SOL    HW1 3947   2.187   2.847   1.068
 1016SOL    HW2 3948   2.204   2.687   1.043
 1017SOL     OW 3949   5.055   2.823   0.926
 1017SOL    HW1 3950   5.130   2.801   0.988
 1017SOL    HW2 3951   5.003   2.900   0.963
 1018SOL     OW 3952   1.847   3.443   4.410
 1018SOL    HW1 3953   1.791   3.364   4.432
 1018SOL    HW2 3954   1.846   3.508   4.486
 1019SOL     OW 3955   0.475   1.156   0.662
 1019SOL    HW1 3956   0.554   1.097   0.681
 1019SOL    HW2 3957   0.412   1.109   0.601
 1020SOL     OW 3958   0.937   6.469   0.823
 1020SOL    HW1 3959   0.990   6.508   0.748
 1020SOL    HW2 3960   0.982   6.489   0.910
 1021SOL     OW 3961   5.659   1.210   1.630
 1021SOL    HW1 3962   5.723   1.287   1.630
 1021SOL    HW2 3963   5.657   1.168   1.720
 1022SOL     OW 3964   4.061   4.846   6.521
 1022SOL    HW1 3965   4.000   4.808   6.591
 1022SOL    HW2 3966   4.155   4.818   6.541
 1023SOL     OW 3967   6.862   0.488   2.561
 1023SOL    HW1 3968   6.902   0.563   2.613
 1023SOL    HW2 3969   6.795   0.440   2.618
 1024SOL     OW 3970   6.785   2.831   4.109
 1024SOL    HW1 3971   6.772   2.743   4.156
 1024SOL    HW2 3972   6.876   2.867   4.130
 1025SOL     OW 3973   3.634   4.334   0.361
 1025SOL    HW1 3974   3.555   4.333   0.300
 1025SOL    HW2 3975   3.701   4.401   0.328
 1026SOL     OW 3976   1.064   0.844   0.823
 1026SOL    HW1 3977   0.982   0.805   0.781
 1026SOL    HW2 3978   1.042   0.932   0.865
 1027SOL     OW 3979   3.156   5.800   1.534
 1027SOL    HW1 3980   3.221   5.871   1.563
 1027SOL    HW2 3981   3.140   5.738   1.610
 1028SOL     OW 3982   3.154   5.990   0.570
 1028SOL    HW1 3983   3.142   6.076   0.618
 1028SOL    HW2 3984   3.068   5.940   0.568
 1029SOL     OW 3985   1.850   0.438   0.207
 1029SOL    HW1 3986   1.934   0.488   0.185
 1029SOL    HW2 3987   1.812   0.472   0.292
 1030SOL     OW 3988   3.846   2.932   3.486
 1030SOL    HW1 3989   3.821   2.855   3.546
 1030SOL    HW2 3990   3.945   2.945   3.490
 1031SOL     OW 3991   4.392   5.619   1.123
 1031SOL    HW1 3992   4.333   5.645   1.047
 1031SOL    HW2 3993   4.483   5.657   1.109
 1032SOL     OW 3994   2.156   1.487   5.095
 1032SOL    HW1 3995   2.065   1.520   5.122
 1032SOL    HW2 3996   2.171   1.507   4.998
 1033SOL     OW 3997   1.908   6.684   1.398
 1033SOL    HW1 3998   1.931   6.781   1.406
 1033SOL    HW2 3999   1.952   6.633   1.472
 1034SOL     OW 4000   1.560   6.201   4.644
 1034SOL    HW1 4001   1.642   6.226   4.696
 1034SOL    HW2 4002   1.572   6.108   4.607
 1035SOL     OW 4003   2.485   1.694   3.894
 1035SOL    HW1 4004   2.544   1.712   3.815
 1035SOL    HW2 4005   2.533   1.721   3.978
 1036SOL     OW 4006   3.895   0.672   1.025
 1036SOL    HW1 4007   3.992   0.652   1.038
 1036SOL    HW2 4008   3.849   0.591   0.987
 1037SOL     OW 4009   1.140   1.087   1.542
 1037SOL    HW1 4010   1.162   1.005   1.489
 1037SOL    HW2 4011   1.075   1.063   1.614
 1038SOL     OW 4012   0.537   1.106   5.648
 1038SOL    HW1 4013   0.519   1.156   5.732
 1038SOL    HW2 4014   0.480   1.141   5.574
 1039SOL     OW 4015   4.547   1.751   5.395
 1039SOL    HW1 4016   4.550   1.698   5.480
 1039SOL    HW2 4017   4.641   1.766   5.362
 1040SOL     OW 4018   5.561   3.494   3.067
 1040SOL    HW1 4019   5.569   3.518   3.163
 1040SOL    HW2 4020   5.650   3.461   3.034
 1041SOL     OW 4021   6.403   0.133   4.254
 1041SOL    HW1 4022   6.410   0.205   4.185
 1041SOL    HW2 4023   6.320   0.145   4.308
 1042SOL     OW 4024   3.806   4.820   2.502
 1042SOL    HW1 4025   3.904   4.804   2.492
 1042SOL    HW2 4026   3.760   4.801   2.415
 1043SOL     OW 4027   3.889   1.409   6.505
 1043SOL    HW1 4028   3.966   1.381   6.563
 1043SOL    HW2 4029   3.816   1.339   6.511
 1044SOL     OW 4030   3.738   2.609   1.457
 1044SOL    HW1 4031   3.694   2.665   1.387
 1044SOL    HW2 4032   3.693   2.519   1.462
 1045SOL     OW 4033   3.248   0.488   1.827
 1045SOL    HW1 4034   3.246   0.533   1.917
 1045SOL    HW2 4035   3.274   0.554   1.757
 1046SOL     OW 4036   2.709   6.927   6.078
 1046SOL    HW1 4037   2.764   6.852   6.115
 1046SOL    HW2 4038   2.678   6.986   6.153
 1047SOL     OW 4039   1.352   5.400   2.678
 1047SOL    HW1 4040   1.402   5.335   2.621
 1047SOL    HW2 4041   1.258   5.408   2.646
 1048SOL     OW 4042   4.920   5.664   5.365
 1048SOL    HW1 4043   4.824   5.652   5.341
 1048SOL    HW2 4044   4.956   5.747   5.321
 1049SOL     OW 4045   0.450   3.985   4.663
 1049SOL    HW1 4046   0.374   3.931   4.700
 1049SOL    HW2 4047   0.470   3.955   4.570
 1050SOL     OW 4048   3.633   5.802   0.560
 1050SOL    HW1 4049   3.550   5.835   0.604
 1050SOL    HW2 4050   3.651   5.708   0.588
 1051SOL     OW 4051   3.908   4.308   0.171
 1051SOL    HW1 4052   3.882   4.259   0.254
 1051SOL    HW2 4053   3.849   4.279   0.095
 1052SOL     OW 4054   4.191   0.774   4.204
 1052SOL    HW1 4055   4.145   0.847   4.253
 1052SOL    HW2 4056   4.139   0.750   4.122
 1053SOL     OW 4057   5.847   5.868   3.594
 1053SOL    HW1 4058   5.805   5.783   3.627
 1053SOL    HW2 4059   5.945   5.867   3.612
 1054SOL     OW 4060   2.309   5.086   5.540
 1054SOL    HW1 4061   2.311   5.113   5.443
 1054SOL    HW2 4062   2.303   4.987   5.546
 1055SOL     OW 4063   5.588   5.882   4.519
 1055SOL    HW1 4064   5.680   5.847   4.505
 1055SOL    HW2 4065   5.568   5.886   4.617
 1056SOL     OW 4066   1.553   6.673   5.321
 1056SOL    HW1 4067   1.529   6.679   5.418
 1056SOL    HW2 4068   1.482   6.620   5.273
 1057SOL     OW 4069   3.424   3.966   3.405
 1057SOL    HW1 4070   3.339   4.003   3.442
 1057SOL    HW2 4071   3.412   3.942   3.309
 1058SOL     OW 4072   4.882   1.403   2.244
 1058SOL    HW1 4073   4.809   1.339   2.267
 1058SOL    HW2 4074   4.902   1.462   2.322
 1059SOL     OW 4075   3.509   0.640   1.758
 1059SOL    HW1 4076   3.504   0.726   1.707
 1059SOL    HW2 4077   3.602   0.604   1.753
 1060SOL     OW 4078   6.692   3.440   5.878
 1060SOL    HW1 4079   6.679   3.380   5.957
 1060SOL    HW2 4080   6.664   3.533   5.902
 1061SOL     OW 4081   3.951   4.265   1.013
 1061SOL    HW1 4082   3.997   4.341   1.058
 1061SOL    HW2 4083   3.863   4.295   0.977
 1062SOL     OW 4084   6.588   5.916   5.767
 1062SOL    HW1 4085   6.565   6.010   5.791
 1062SOL    HW2 4086   6.648   5.877   5.838
 1063SOL     OW 4087   1.479   4.184   0.621
 1063SOL    HW1 4088   1.553   4.161   0.684
 1063SOL    HW2 4089   1.513   4.186   0.527
 1064SOL     OW 4090   1.161   3.589   2.623
 1064SOL    HW1 4091   1.231   3.635   2.569
 1064SOL    HW2 4092   1.191   3.496   2.644
 1065SOL     OW 4093   4.960   0.674   3.957
 1065SOL    HW1 4094   4.961   0.759   3.905
 1065SOL    HW2 4095   4.922   0.601   3.900
 1066SOL     OW 4096   5.256   0.564   3.992
 1066SOL    HW1 4097   5.256   0.526   4.085
 1066SOL    HW2 4098   5.175   0.621   3.979
 1067SOL     OW 4099   0.991   2.739   0.632
 1067SOL    HW1 4100   1.015   2.685   0.551
 1067SOL    HW2 4101   0.976   2.834   0.606
 1068SOL     OW 4102   6.917   3.882   1.996
 1068SOL    HW1 4103   6.983   3.890   2.071
 1068SOL    HW2 4104   6.824   3.897   2.032
 1069SOL     OW 4105   4.363   4.287   1.058
 1069SOL    HW1 4106   4.274   4.259   1.020
 1069SOL    HW2 4107   4.406   4.208   1.102
 1070SOL     OW 4108   1.720   1.147   6.676
 1070SOL    HW1 4109   1.655   1.160   6.601
 1070SOL    HW2 4110   1.762   1.057   6.669
 1071SOL     OW 4111   3.850   0.533   3.491
 1071SOL    HW1 4112   3.859   0.462   3.561
 1071SOL    HW2 4113   3.757   0.531   3.454
 1072SOL     OW 4114   2.365   6.068   2.294
 1072SOL    HW1 4115   2.340   6.105   2.383
 1072SOL    HW2 4116   2.339   5.972   2.289
 1073SOL     OW 4117   3.851   5.773   2.393
 1073SOL    HW1 4118   3.806   5.836   2.329
 1073SOL    HW2 4119   3.807   5.780   2.483
 1074SOL     OW 4120   1.820   5.731   1.811
 1074SOL    HW1 4121   1.893   5.765   1.870
 1074SOL    HW2 4122   1.860   5.678   1.736
 1075SOL     OW 4123   4.762   5.143   3.248
 1075SOL    HW1 4124   4.679   5.094   3.222
 1075SOL    HW2 4125   4.842   5.089   3.221
 1076SOL     OW 4126   0.638   4.187   5.079
 1076SOL    HW1 4127   0.608   4.169   4.986
 1076SOL    HW2 4128   0.559   4.200   5.138
 1077SOL     OW 4129   6.034   6.974   0.038
 1077SOL    HW1 4130   6.050   6.918   0.120
 1077SOL    HW2 4131   6.008   6.914   6.989
 1078SOL     OW 4132   1.829   1.704   2.151
 1078SOL    HW1 4133   1.828   1.649   2.235
 1078SOL    HW2 4134   1.854   1.798   2.172
 1079SOL     OW 4135   2.112   4.819   3.505
 1079SOL    HW1 4136   2.208   4.828   3.533
 1079SOL    HW2 4137   2.086   4.898   3.451
 1080SOL     OW 4138   2.411   5.065   3.203
 1080SOL    HW1 4139   2.322   5.078   3.158
 1080SOL    HW2 4140   2.432   5.146   3.259
 1081SOL     OW 4141   0.778   1.539   5.529
 1081SOL    HW1 4142   0.799   1.444   5.549
 1081SOL    HW2 4143   0.823   1.598   5.597
 1082SOL     OW 4144   1.523   7.011   5.773
 1082SOL    HW1 4145   1.436   6.974   5.805
 1082SOL    HW2 4146   1.532   0.079   5.803
 1083SOL     OW 4147   4.125   3.368   2.097
 1083SOL    HW1 4148   4.150   3.362   2.194
 1083SOL    HW2 4149   4.048   3.431   2.087
 1084SOL     OW 4150   6.470   5.585   1.268
 1084SOL    HW1 4151   6.410   5.662   1.246
 1084SOL    HW2 4152   6.415   5.506   1.295
 1085SOL     OW 4153   2.302   4.622   3.933
 1085SOL    HW1 4154   2.269   4.626   4.028
 1085SOL    HW2 4155   2.336   4.530   3.914
 1086SOL     OW 4156   6.027   5.694   3.425
 1086SOL    HW1 4157   6.015   5.652   3.335
 1086SOL    HW2 4158   6.122   5.720   3.437
 1087SOL     OW 4159   4.723   3.033   5.750
 1087SOL    HW1 4160   4.725   3.095   5.829
 1087SOL    HW2 4161   4.635   2.986   5.746
 1088SOL     OW 4162   5.537   4.587   3.582
 1088SOL    HW1 4163   5.526   4.556   3.488
 1088SOL    HW2 4164   5.519   4.511   3.644
 1089SOL     OW 4165   0.412   0.592   4.431
 1089SOL    HW1 4166   0.502   0.568   4.395
 1089SOL    HW2 4167   0.350   0.613   4.355
 1090SOL     OW 4168   3.223   1.056   4.711
 1090SOL    HW1 4169   3.252   0.962   4.731
 1090SOL    HW2 4170   3.298   1.105   4.666
 1091SOL     OW 4171   1.650   2.084   3.875
 1091SOL    HW1 4172   1.734   2.039   3.845
 1091SOL    HW2 4173   1.574   2.054   3.817
 1092SOL     OW 4174   2.224   3.947   1.338
 1092SOL    HW1 4175   2.210   3.887   1.259
 1092SOL    HW2 4176   2.257   3.893   1.415
 1093SOL     OW 4177   1.405   1.431   2.390
 1093SOL    HW1 4178   1.473   1.458   2.458
 1093SOL    HW2 4179   1.357   1.513   2.358
 1094SOL     OW 4180   6.869   6.670   1.546
 1094SOL    HW1 4181   6.897   6.590   1.598
 1094SOL    HW2 4182   6.916   6.751   1.583
 1095SOL     OW 4183   6.340   2.277   6.258
 1095SOL    HW1 4184   6.242   2.292   6.260
 1095SOL    HW2 4185   6.388   2.362   6.277
 1096SOL     OW 4186   3.929   5.196   1.403
 1096SOL    HW1 4187   3.946   5.098   1.388
 1096SOL    HW2 4188   3.950   5.218   1.499
 1097SOL     OW 4189   1.188   5.143   4.863
 1097SOL    HW1 4190   1.116   5.148   4.932
 1097SOL    HW2 4191   1.201   5.048   4.835
 1098SOL     OW 4192   5.384   2.195   1.135
 1098SOL    HW1 4193   5.297   2.239   1.108
 1098SOL    HW2 4194   5.365   2.121   1.199
 1099SOL     OW 4195   4.145   1.931   4.527
 1099SOL    HW1 4196   4.083   1.918   4.605
 1099SOL    HW2 4197   4.236   1.955   4.561
 1100SOL     OW 4198   0.555   1.468   6.560
 1100SOL    HW1 4199   0.465   1.484   6.600
 1100SOL    HW2 4200   0.593   1.384   6.597
 1101SOL     OW 4201   5.733   3.414   1.212
 1101SOL    HW1 4202   5.829   3.435   1.193
 1101SOL    HW2 4203   5.727   3.360   1.296
 1102SOL     OW 4204   0.997   4.958   4.275
 1102SOL    HW1 4205   1.092   4.974   4.247
 1102SOL    HW2 4206   0.960   4.881   4.224
 1103SOL     OW 4207   1.984   1.686   1.774
 1103SOL    HW1 4208   1.997   1.783   1.792
 1103SOL    HW2 4209   1.918   1.648   1.838
 1104SOL     OW 4210   1.828   3.762   5.869
 1104SOL    HW1 4211   1.926   3.779   5.859
 1104SOL    HW2 4212   1.806   3.669   5.840
 1105SOL     OW 4213   4.892   4.212   6.956
 1105SOL    HW1 4214   4.892   4.137   6.890
 1105SOL    HW2 4215   4.982   4.218   7.000
 1106SOL     OW 4216   0.503   1.727   6.446
 1106SOL    HW1 4217   0.518   1.631   6.467
 1106SOL    HW2 4218   0.509   1.741   6.347
 1107SOL     OW 4219   0.997   0.211   6.770
 1107SOL    HW1 4220   0.979   0.309   6.762
 1107SOL    HW2 4221   1.096   0.195   6.772
 1108SOL     OW 4222   2.473   0.652   4.832
 1108SOL    HW1 4223   2.468   0.665   4.931
 1108SOL    HW2 4224   2.465   0.741   4.787
 1109SOL     OW 4225   3.743   5.565   4.694
 1109SOL    HW1 4226   3.764   5.467   4.696
 1109SOL    HW2 4227   3.650   5.579   4.662
 1110SOL     OW 4228   2.798   2.347   1.446
 1110SOL    HW1 4229   2.753   2.383   1.528
 1110SOL    HW2 4230   2.897   2.362   1.453
 1111SOL     OW 4231   5.039   6.710   6.350
 1111SOL    HW1 4232   5.023   6.808   6.365
 1111SOL    HW2 4233   4.973   6.675   6.284
 1112SOL     OW 4234   5.916   1.000   2.755
 1112SOL    HW1 4235   5.852   1.073   2.732
 1112SOL    HW2 4236   6.001   1.040   2.789
 1113SOL     OW 4237   6.174   3.211   2.295
 1113SOL    HW1 4238   6.158   3.300   2.251
 1113SOL    HW2 4239   6.143   3.215   2.390
 1114SOL     OW 4240   5.155   0.439   6.164
 1114SOL    HW1 4241   5.200   0.414   6.249
 1114SOL    HW2 4242   5.141   0.538   6.162
 1115SOL     OW 4243   3.950   2.066   0.195
 1115SOL    HW1 4244   3.951   2.109   0.285
 1115SOL    HW2 4245   4.041   2.029   0.175
 1116SOL     OW 4246   5.222   5.221   3.838
 1116SOL    HW1 4247   5.173   5.218   3.925
 1116SOL    HW2 4248   5.221   5.314   3.803
 1117SOL     OW 4249   2.675   2.816   1.369
 1117SOL    HW1 4250   2.740   2.875   1.322
 1117SOL    HW2 4251   2.691   2.721   1.343
 1118SOL     OW 4252   1.377   4.601   3.216
 1118SOL    HW1 4253   1.306   4.672   3.223
 1118SOL    HW2 4254   1.439   4.609   3.294
 1119SOL     OW 4255   4.277   3.993   1.565
 1119SOL    HW1 4256   4.282   4.087   1.601
 1119SOL    HW2 4257   4.192   3.982   1.513
 1120SOL     OW 4258   5.274   6.688   6.117
 1120SOL    HW1 4259   5.237   6.767   6.166
 1120SOL    HW2 4260   5.368   6.671   6.147
 1121SOL     OW 4261   5.090   2.831   2.137
 1121SOL    HW1 4262   5.010   2.835   2.196
 1121SOL    HW2 4263   5.172   2.823   2.193
 1122SOL     OW 4264   5.597   2.966   6.742
 1122SOL    HW1 4265   5.630   3.037   6.680
 1122SOL    HW2 4266   5.514   2.925   6.705
 1123SOL     OW 4267   5.037   1.507   1.620
 1123SOL    HW1 4268   5.080   1.575   1.561
 1123SOL    HW2 4269   4.939   1.503   1.600
 1124SOL     OW 4270   6.697   3.600   4.776
 1124SOL    HW1 4271   6.733   3.540   4.848
 1124SOL    HW2 4272   6.665   3.544   4.700
 1125SOL     OW 4273   3.032   2.123   5.225
 1125SOL    HW1 4274   3.056   2.208   5.178
 1125SOL    HW2 4275   2.993   2.144   5.315
 1126SOL     OW 4276   4.807   6.811   6.592
 1126SOL    HW1 4277   4.848   6.876   6.528
 1126SOL    HW2 4278   4.787   6.725   6.545
 1127SOL     OW 4279   2.805   4.297   6.077
 1127SOL    HW1 4280   2.742   4.239   6.026
 1127SOL    HW2 4281   2.831   4.376   6.021
 1128SOL     OW 4282   4.269   2.333   4.302
 1128SOL    HW1 4283   4.353   2.387   4.296
 1128SOL    HW2 4284   4.216   2.345   4.217
 1129SOL     OW 4285   4.052   0.030   0.249
 1129SOL    HW1 4286   4.109   0.106   0.217
 1129SOL    HW2 4287   4.036   0.041   0.348
 1130SOL     OW 4288   1.717   4.357   1.430
 1130SOL    HW1 4289   1.735   4.295   1.506
 1130SOL    HW2 4290   1.704   4.450   1.465
 1131SOL     OW 4291   0.534   5.978   5.915
 1131SOL    HW1 4292   0.478   5.899   5.894
 1131SOL    HW2 4293   0.492   6.030   5.990
 1132SOL     OW 4294   5.103   0.027   6.071
 1132SOL    HW1 4295   5.102   0.105   6.009
 1132SOL    HW2 4296   5.012   0.015   6.111
 1133SOL     OW 4297   0.191   2.455   1.795
 1133SOL    HW1 4298   0.173   2.488   1.702
 1133SOL    HW2 4299   0.105   2.431   1.839
 1134SOL     OW 4300   5.799   2.141   6.747
 1134SOL    HW1 4301   5.744   2.057   6.745
 1134SOL    HW2 4302   5.773   2.200   6.671
 1135SOL     OW 4303   2.892   2.204   3.138
 1135SOL    HW1 4304   2.865   2.140   3.067
 1135SOL    HW2 4305   2.962   2.266   3.102
 1136SOL     OW 4306   2.570   5.124   4.131
 1136SOL    HW1 4307   2.546   5.049   4.193
 1136SOL    HW2 4308   2.488   5.155   4.083
 1137SOL     OW 4309   1.047   2.042   6.665
 1137SOL    HW1 4310   1.135   2.048   6.618
 1137SOL    HW2 4311   0.979   2.004   6.604
 1138SOL     OW 4312   2.039   3.234   6.029
 1138SOL    HW1 4313   2.115   3.269   5.974
 1138SOL    HW2 4314   1.961   3.296   6.023
 1139SOL     OW 4315   1.886   6.160   3.199
 1139SOL    HW1 4316   1.807   6.107   3.229
 1139SOL    HW2 4317   1.895   6.242   3.256
 1140SOL     OW 4318   4.052   2.179   2.937
 1140SOL    HW1 4319   4.053   2.214   3.030
 1140SOL    HW2 4320   4.139   2.200   2.891
 1141SOL     OW 4321   5.236   5.797   5.743
 1141SOL    HW1 4322   5.321   5.834   5.781
 1141SOL    HW2 4323   5.241   5.697   5.743
 1142SOL     OW 4324   5.124   0.212   4.514
 1142SOL    HW1 4325   5.191   0.226   4.441
 1142SOL    HW2 4326   5.151   0.135   4.571
 1143SOL     OW 4327   4.210   2.135   2.224
 1143SOL    HW1 4328   4.181   2.099   2.312
 1143SOL    HW2 4329   4.176   2.076   2.151
 1144SOL     OW 4330   0.208   4.357   4.139
 1144SOL    HW1 4331   0.159   4.291   4.195
 1144SOL    HW2 4332   0.152   4.381   4.059
 1145SOL     OW 4333   6.944   5.372   3.437
 1145SOL    HW1 4334   7.000   5.293   3.415
 1145SOL    HW2 4335   6.893   5.355   3.521
 1146SOL     OW 4336   5.481   1.749   1.047
 1146SOL    HW1 4337   5.383   1.731   1.037
 1146SOL    HW2 4338   5.498   1.847   1.035
 1147SOL     OW 4339   1.126   3.697   1.653
 1147SOL    HW1 4340   1.080   3.758   1.588
 1147SOL    HW2 4341   1.058   3.641   1.700
 1148SOL     OW 4342   3.400   5.732   6.448
 1148SOL    HW1 4343   3.332   5.659   6.439
 1148SOL    HW2 4344   3.365   5.816   6.408
 1149SOL     OW 4345   6.258   3.574   2.910
 1149SOL    HW1 4346   6.172   3.536   2.877
 1149SOL    HW2 4347   6.324   3.500   2.925
 1150SOL     OW 4348   2.334   4.691   1.110
 1150SOL    HW1 4349   2.300   4.762   1.048
 1150SOL    HW2 4350   2.376   4.734   1.189
 1151SOL     OW 4351   5.775   5.851   6.167
 1151SOL    HW1 4352   5.762   5.889   6.075
 1151SOL    HW2 4353   5.744   5.756   6.168
 1152SOL     OW 4354   1.413   6.877   4.451
 1152SOL    HW1 4355   1.497   6.837   4.416
 1152SOL    HW2 4356   1.393   6.838   4.541
 1153SOL     OW 4357   2.412   6.337   3.070
 1153SOL    HW1 4358   2.465   6.321   2.987
 1153SOL    HW2 4359   2.339   6.269   3.077
 1154SOL     OW 4360   0.335   3.675   1.498
 1154SOL    HW1 4361   0.414   3.727   1.530
 1154SOL    HW2 4362   0.281   3.732   1.436
 1155SOL     OW 4363   3.348   5.976   0.237
 1155SOL    HW1 4364   3.375   5.914   0.310
 1155SOL    HW2 4365   3.408   5.962   0.158
 1156SOL     OW 4366   1.919   0.267   3.715
 1156SOL    HW1 4367   1.949   0.175   3.687
 1156SOL    HW2 4368   1.844   0.296   3.656
 1157SOL     OW 4369   6.991   2.135   5.135
 1157SOL    HW1 4370   6.960   2.209   5.195
 1157SOL    HW2 4371   0.058   2.154   5.107
 1158SOL     OW 4372   5.952   4.762   5.567
 1158SOL    HW1 4373   5.919   4.729   5.478
 1158SOL    HW2 4374   5.877   4.761   5.633
 1159SOL     OW 4375   4.015   0.088   2.757
 1159SOL    HW1 4376   3.977   0.094   2.664
 1159SOL    HW2 4377   3.971   0.157   2.815
 1160SOL     OW 4378   4.037   3.910   2.012
 1160SOL    HW1 4379   4.040   3.915   1.912
 1160SOL    HW2 4380   3.951   3.949   2.045
 1161SOL     OW 4381   5.183   0.299   5.222
 1161SOL    HW1 4382   5.168   0.226   5.155
 1161SOL    HW2 4383   5.150   0.269   5.312
 1162SOL     OW 4384   3.287   3.076   0.990
 1162SOL    HW1 4385   3.269   3.080   1.088
 1162SOL    HW2 4386   3.211   3.118   0.940
 1163SOL     OW 4387   5.016   2.459   1.782
 1163SOL    HW1 4388   4.970   2.477   1.869
 1163SOL    HW2 4389   4.949   2.460   1.708
 1164SOL     OW 4390   5.140   2.813   3.120
 1164SOL    HW1 4391   5.226   2.853   3.153
 1164SOL    HW2 4392   5.159   2.721   3.085
 1165SOL     OW 4393   1.251   3.555   4.156
 1165SOL    HW1 4394   1.258   3.576   4.058
 1165SOL    HW2 4395   1.310   3.478   4.178
 1166SOL     OW 4396   4.255   1.766   6.477
 1166SOL    HW1 4397   4.157   1.744   6.476
 1166SOL    HW2 4398   4.276   1.826   6.399
 1167SOL     OW 4399   3.687   0.410   5.492
 1167SOL    HW1 4400   3.747   0.392   5.569
 1167SOL    HW2 4401   3.594   0.380   5.515
 1168SOL     OW 4402   6.197   6.898   2.846
 1168SOL    HW1 4403   6.241   6.982   2.813
 1168SOL    HW2 4404   6.108   6.887   2.801
 1169SOL     OW 4405   0.187   3.224   0.608
 1169SOL    HW1 4406   0.184   3.321   0.633
 1169SOL    HW2 4407   0.136   3.170   0.676
 1170SOL     OW 4408   3.570   0.973   2.187
 1170SOL    HW1 4409   3.543   0.888   2.141
 1170SOL    HW2 4410   3.515   0.984   2.270
 1171SOL     OW 4411   2.921   5.807   1.158
 1171SOL    HW1 4412   2.864   5.746   1.103
 1171SOL    HW2 4413   2.868   5.841   1.236
 1172SOL     OW 4414   3.596   3.926   3.677
 1172SOL    HW1 4415   3.498   3.908   3.681
 1172SOL    HW2 4416   3.643   3.874   3.749
 1173SOL     OW 4417   3.447   0.290   5.580
 1173SOL    HW1 4418   3.361   0.332   5.553
 1173SOL    HW2 4419   3.458   0.202   5.534
 1174SOL     OW 4420   2.530   5.735   0.693
 1174SOL    HW1 4421   2.434   5.721   0.716
 1174SOL    HW2 4422   2.555   5.675   0.616
 1175SOL     OW 4423   5.959   4.845   0.077
 1175SOL    HW1 4424   5.909   4.865   0.161
 1175SOL    HW2 4425   5.935   4.753   0.045
 1176SOL     OW 4426   5.865   5.364   0.822
 1176SOL    HW1 4427   5.926   5.341   0.898
 1176SOL    HW2 4428   5.828   5.456   0.835
 1177SOL     OW 4429   0.085   2.608   5.438
 1177SOL    HW1 4430   0.110   2.560   5.522
 1177SOL    HW2 4431   7.012   2.611   5.430
 1178SOL     OW 4432   4.801   4.142   2.310
 1178SOL    HW1 4433   4.734   4.210   2.280
 1178SOL    HW2 4434   4.796   4.061   2.253
 1179SOL     OW 4435   1.891   4.268   0.603
 1179SOL    HW1 4436   1.885   4.334   0.678
 1179SOL    HW2 4437   1.900   4.316   0.516
 1180SOL     OW 4438   2.396   1.022   3.724
 1180SOL    HW1 4439   2.301   0.994   3.738
 1180SOL    HW2 4440   2.424   1.000   3.631
 1181SOL     OW 4441   0.842   4.818   4.482
 1181SOL    HW1 4442   0.809   4.852   4.571
 1181SOL    HW2 4443   0.886   4.893   4.433
 1182SOL     OW 4444   2.267   4.169   3.412
 1182SOL    HW1 4445   2.175   4.207   3.407
 1182SOL    HW2 4446   2.320   4.198   3.332
 1183SOL     OW 4447   4.434   5.818   1.660
 1183SOL    HW1 4448   4.488   5.861   1.589
 1183SOL    HW2 4449   4.494   5.785   1.733
 1184SOL     OW 4450   3.401   3.218   5.568
 1184SOL    HW1 4451   3.398   3.119   5.577
 1184SOL    HW2 4452   3.313   3.251   5.532
 1185SOL     OW 4453   2.372   0.549   0.217
 1185SOL    HW1 4454   2.386   0.556   0.118
 1185SOL    HW2 4455   2.410   0.462   0.250
 1186SOL     OW 4456   6.217   0.285   5.415
 1186SOL    HW1 4457   6.175   0.199   5.385
 1186SOL    HW2 4458   6.190   0.359   5.354
 1187SOL     OW 4459   5.159   5.797   4.599
 1187SOL    HW1 4460   5.215   5.732   4.650
 1187SOL    HW2 4461   5.074   5.752   4.570
 1188SOL     OW 4462   2.967   6.682   6.359
 1188SOL    HW1 4463   3.013   6.730   6.285
 1188SOL    HW2 4464   3.022   6.688   6.442
 1189SOL     OW 4465   5.433   1.746   2.254
 1189SOL    HW1 4466   5.442   1.804   2.173
 1189SOL    HW2 4467   5.336   1.732   2.274
 1190SOL     OW 4468   3.714   5.487   3.428
 1190SOL    HW1 4469   3.654   5.487   3.348
 1190SOL    HW2 4470   3.772   5.405   3.427
 1191SOL     OW 4471   3.792   5.397   6.080
 1191SOL    HW1 4472   3.883   5.357   6.094
 1191SOL    HW2 4473   3.723   5.341   6.125
 1192SOL     OW 4474   5.504   4.464   3.325
 1192SOL    HW1 4475   5.549   4.382   3.291
 1192SOL    HW2 4476   5.502   4.533   3.252
 1193SOL     OW 4477   5.320   6.967   4.517
 1193SOL    HW1 4478   5.315   6.981   4.616
 1193SOL    HW2 4479   5.312   6.869   4.496
 1194SOL     OW 4480   6.972   1.023   0.563
 1194SOL    HW1 4481   6.974   1.107   0.508
 1194SOL    HW2 4482   6.949   0.946   0.503
 1195SOL     OW 4483   6.288   1.332   6.430
 1195SOL    HW1 4484   6.234   1.327   6.346
 1195SOL    HW2 4485   6.377   1.289   6.415
 1196SOL     OW 4486   0.370   4.953   2.154
 1196SOL    HW1 4487   0.383   5.043   2.113
 1196SOL    HW2 4488   0.340   4.888   2.084
 1197SOL     OW 4489   3.881   5.758   5.569
 1197SOL    HW1 4490   3.935   5.754   5.484
 1197SOL    HW2 4491   3.915   5.833   5.625
 1198SOL     OW 4492   2.766   2.283   2.418
 1198SOL    HW1 4493   2.677   2.284   2.372
 1198SOL    HW2 4494   2.838   2.267   2.350
 1199SOL     OW 4495   3.560   4.122   2.663
 1199SOL    HW1 4496   3.653   4.093   2.641
 1199SOL    HW2 4497   3.523   4.176   2.587
 1200SOL     OW 4498   4.233   4.022   5.363
 1200SOL    HW1 4499   4.264   4.116   5.378
 1200SOL    HW2 4500   4.171   3.996   5.437
 1201SOL     OW 4501   1.730   1.831   5.047
 1201SOL    HW1 4502   1.764   1.738   5.036
 1201SOL    HW2 4503   1.645   1.842   4.996
 1202SOL     OW 4504   5.561   7.001   6.151
 1202SOL    HW1 4505   5.541   6.947   6.233
 1202SOL    HW2 4506   5.493   6.981   6.080
 1203SOL     OW 4507   5.502   0.338   1.230
 1203SOL    HW1 4508   5.579   0.355   1.168
 1203SOL    HW2 4509   5.424   0.396   1.203
 1204SOL     OW 4510   3.733   1.242   0.516
 1204SOL    HW1 4511   3.706   1.336   0.494
 1204SOL    HW2 4512   3.704   1.181   0.442
 1205SOL     OW 4513   5.816   2.776   6.832
 1205SOL    HW1 4514   5.839   2.717   6.754
 1205SOL    HW2 4515   5.747   2.843   6.803
 1206SOL     OW 4516   1.788   1.577   5.016
 1206SOL    HW1 4517   1.855   1.548   5.084
 1206SOL    HW2 4518   1.798   1.522   4.933
 1207SOL     OW 4519   6.634   6.426   0.351
 1207SOL    HW1 4520   6.654   6.507   0.406
 1207SOL    HW2 4521   6.596   6.454   0.262
 1208SOL     OW 4522   3.134   3.816   2.678
 1208SOL    HW1 4523   3.085   3.806   2.765
 1208SOL    HW2 4524   3.215   3.872   2.692
 1209SOL     OW 4525   6.502   5.576   5.182
 1209SOL    HW1 4526   6.411   5.611   5.206
 1209SOL    HW2 4527   6.566   5.597   5.256
 1210SOL     OW 4528   3.996   0.707   2.673
 1210SOL    HW1 4529   3.898   0.690   2.668
 1210SOL    HW2 4530   4.038   0.688   2.583
 1211SOL     OW 4531   1.409   3.393   3.820
 1211SOL    HW1 4532   1.330   3.332   3.818
 1211SOL    HW2 4533   1.476   3.362   3.753
 1212SOL     OW 4534   1.085   2.637   5.428
 1212SOL    HW1 4535   1.111   2.636   5.525
 1212SOL    HW2 4536   0.988   2.656   5.420
 1213SOL     OW 4537   6.418   2.723   4.920
 1213SOL    HW1 4538   6.325   2.758   4.921
 1213SOL    HW2 4539   6.453   2.725   4.826
 1214SOL     OW 4540   1.894   3.206   4.757
 1214SOL    HW1 4541   1.888   3.236   4.852
 1214SOL    HW2 4542   1.977   3.244   4.716
 1215SOL     OW 4543   2.386   4.370   2.480
 1215SOL    HW1 4544   2.319   4.438   2.452
 1215SOL    HW2 4545   2.464   4.416   2.522
 1216SOL     OW 4546   0.501   6.510   1.571
 1216SOL    HW1 4547   0.449   6.585   1.612
 1216SOL    HW2 4548   0.583   6.493   1.625
 1217SOL     OW 4549   0.942   6.209   0.034
 1217SOL    HW1 4550   0.956   6.209   0.133
 1217SOL    HW2 4551   1.021   6.168   7.016
 1218SOL     OW 4552   1.062   3.136   5.184
 1218SOL    HW1 4553   1.138   3.144   5.120
 1218SOL    HW2 4554   1.071   3.207   5.255
 1219SOL     OW 4555   4.713   4.712   0.403
 1219SOL    HW1 4556   4.658   4.660   0.468
 1219SOL    HW2 4557   4.768   4.779   0.452
 1220SOL     OW 4558   5.693   3.210   2.331
 1220SOL    HW1 4559   5.701   3.133   2.394
 1220SOL    HW2 4560   5.619   3.192   2.266
 1221SOL     OW 4561   5.972   3.785   0.212
 1221SOL    HW1 4562   5.881   3.794   0.172
 1221SOL    HW2 4563   6.029   3.729   0.153
 1222SOL     OW 4564   6.906   6.660   0.619
 1222SOL    HW1 4565   6.957   6.725   0.675
 1222SOL    HW2 4566   6.941   6.568   0.635
 1223SOL     OW 4567   5.882   0.237   6.724
 1223SOL    HW1 4568   5.860   0.185   6.807
 1223SOL    HW2 4569   5.907   0.173   6.651
 1224SOL     OW 4570   4.232   5.930   6.840
 1224SOL    HW1 4571   4.188   5.866   6.777
 1224SOL    HW2 4572   4.207   6.024   6.814
 1225SOL     OW 4573   3.946   1.658   1.134
 1225SOL    HW1 4574   3.905   1.647   1.043
 1225SOL    HW2 4575   3.986   1.572   1.164
 1226SOL     OW 4576   5.540   6.570   1.063
 1226SOL    HW1 4577   5.582   6.576   1.153
 1226SOL    HW2 4578   5.514   6.661   1.031
 1227SOL     OW 4579   5.827   4.668   5.283
 1227SOL    HW1 4580   5.751   4.632   5.228
 1227SOL    HW2 4581   5.894   4.595   5.298
 1228SOL     OW 4582   3.445   2.906   1.860
 1228SOL    HW1 4583   3.474   2.860   1.944
 1228SOL    HW2 4584   3.516   2.970   1.831
 1229SOL     OW 4585   1.124   6.707   1.877
 1229SOL    HW1 4586   1.105   6.632   1.940
 1229SOL    HW2 4587   1.166   6.783   1.926
 1230SOL     OW 4588   5.299   5.607   2.871
 1230SOL    HW1 4589   5.223   5.549   2.843
 1230SOL    HW2 4590   5.263   5.687   2.920
 1231SOL     OW 4591   2.009   2.865   6.241
 1231SOL    HW1 4592   1.922   2.830   6.206
 1231SOL    HW2 4593   2.019   2.838   6.336
 1232SOL     OW 4594   4.121   1.606   4.404
 1232SOL    HW1 4595   4.084   1.595   4.496
 1232SOL    HW2 4596   4.117   1.703   4.378
 1233SOL     OW 4597   1.637   4.760   3.746
 1233SOL    HW1 4598   1.637   4.694   3.822
 1233SOL    HW2 4599   1.668   4.714   3.663
 1234SOL     OW 4600   6.689   3.237   6.866
 1234SOL    HW1 4601   6.618   3.176   6.831
 1234SOL    HW2 4602   6.675   3.252   6.963
 1235SOL     OW 4603   6.098   5.150   0.212
 1235SOL    HW1 4604   6.081   5.067   0.265
 1235SOL    HW2 4605   6.030   5.157   0.139
 1236SOL     OW 4606   3.512   1.323   0.361
 1236SOL    HW1 4607   3.564   1.395   0.408
 1236SOL    HW2 4608   3.453   1.365   0.292
 1237SOL     OW 4609   1.394   0.615   4.560
 1237SOL    HW1 4610   1.469   0.573   4.509
 1237SOL    HW2 4611   1.376   0.707   4.525
 1238SOL     OW 4612   0.310   0.241   2.862
 1238SOL    HW1 4613   0.309   0.259   2.764
 1238SOL    HW2 4614   0.216   0.228   2.895
 1239SOL     OW 4615   0.016   5.070   4.382
 1239SOL    HW1 4616   7.003   5.077   4.474
 1239SOL    HW2 4617   0.067   4.985   4.374
 1240SOL     OW 4618   6.087   5.681   2.930
 1240SOL    HW1 4619   6.050   5.608   2.873
 1240SOL    HW2 4620   6.171   5.717   2.887
 1241SOL     OW 4621   0.041   5.269   4.187
 1241SOL    HW1 4622   0.051   5.187   4.245
 1241SOL    HW2 4623   6.971   5.292   4.178
 1242SOL     OW 4624   1.614   3.752   0.142
 1242SOL    HW1 4625   1.594   3.661   0.105
 1242SOL    HW2 4626   1.626   3.746   0.241
 1243SOL     OW 4627   0.634   3.218   5.832
 1243SOL    HW1 4628   0.690   3.156   5.886
 1243SOL    HW2 4629   0.584   3.280   5.893
 1244SOL     OW 4630   5.751   6.496   5.241
 1244SOL    HW1 4631   5.690   6.499   5.321
 1244SOL    HW2 4632   5.751   6.404   5.203
 1245SOL     OW 4633   5.372   5.683   1.188
 1245SOL    HW1 4634   5.322   5.611   1.236
 1245SOL    HW2 4635   5.365   5.669   1.089
 1246SOL     OW 4636   4.858   0.849   1.031
 1246SOL    HW1 4637   4.860   0.947   1.011
 1246SOL    HW2 4638   4.859   0.797   0.945
 1247SOL     OW 4639   6.908   6.482   4.141
 1247SOL    HW1 4640   6.986   6.444   4.191
 1247SOL    HW2 4641   6.880   6.568   4.183
 1248SOL     OW 4642   6.899   6.509   4.625
 1248SOL    HW1 4643   6.950   6.426   4.603
 1248SOL    HW2 4644   6.816   6.485   4.676
 1249SOL     OW 4645   0.632   4.449   1.538
 1249SOL    HW1 4646   0.597   4.404   1.620
 1249SOL    HW2 4647   0.645   4.381   1.466
 1250SOL     OW 4648   6.274   3.500   5.076
 1250SOL    HW1 4649   6.263   3.588   5.029
 1250SOL    HW2 4650   6.355   3.453   5.042
 1251SOL     OW 4651   2.102   1.474   3.191
 1251SOL    HW1 4652   2.091   1.410   3.115
 1251SOL    HW2 4653   2.147   1.426   3.267
 1252SOL     OW 4654   3.158   5.533   7.023
 1252SOL    HW1 4655   3.194   5.620   6.989
 1252SOL    HW2 4656   3.086   5.500   6.962
 1253SOL     OW 4657   3.114   0.681   1.099
 1253SOL    HW1 4658   3.022   0.711   1.121
 1253SOL    HW2 4659   3.151   0.738   1.026
 1254SOL     OW 4660   5.873   1.706   2.933
 1254SOL    HW1 4661   5.911   1.778   2.991
 1254SOL    HW2 4662   5.917   1.709   2.843
 1255SOL     OW 4663   5.735   2.698   5.028
 1255SOL    HW1 4664   5.714   2.648   4.943
 1255SOL    HW2 4665   5.798   2.644   5.083
 1256SOL     OW 4666   6.501   5.852   3.475
 1256SOL    HW1 4667   6.468   5.854   3.569
 1256SOL    HW2 4668   6.592   5.893   3.470
 1257SOL     OW 4669   0.659   4.767   3.840
 1257SOL    HW1 4670   0.568   4.809   3.847
 1257SOL    HW2 4671   0.652   4.681   3.790
 1258SOL     OW 4672   1.879   5.859   3.606
 1258SOL    HW1 4673   1.850   5.930   3.670
 1258SOL    HW2 4674   1.802   5.834   3.547
 1259SOL     OW 4675   4.624   0.542   5.288
 1259SOL    HW1 4676   4.627   0.544   5.388
 1259SOL    HW2 4677   4.536   0.507   5.257
 1260SOL     OW 4678   2.776   1.013   2.256
 1260SOL    HW1 4679   2.743   0.959   2.180
 1260SOL    HW2 4680   2.873   0.993   2.272
 1261SOL     OW 4681   0.225   3.967   6.782
 1261SOL    HW1 4682   0.174   3.950   6.866
 1261SOL    HW2 4683   0.179   3.922   6.706
 1262SOL     OW 4684   4.731   4.841   1.010
 1262SOL    HW1 4685   4.633   4.843   0.992
 1262SOL    HW2 4686   4.748   4.798   1.099
 1263SOL     OW 4687   6.579   2.149   1.045
 1263SOL    HW1 4688   6.619   2.236   1.016
 1263SOL    HW2 4689   6.603   2.077   0.980
 1264SOL     OW 4690   0.157   4.623   3.645
 1264SOL    HW1 4691   0.192   4.639   3.737
 1264SOL    HW2 4692   0.180   4.530   3.616
 1265SOL     OW 4693   0.599   4.055   3.988
 1265SOL    HW1 4694   0.529   4.008   4.043
 1265SOL    HW2 4695   0.661   4.104   4.049
 1266SOL     OW 4696   2.575   1.363   5.003
 1266SOL    HW1 4697   2.657   1.388   4.952
 1266SOL    HW2 4698   2.566   1.422   5.083
 1267SOL     OW 4699   6.913   5.592   2.654
 1267SOL    HW1 4700   6.921   5.508   2.601
 1267SOL    HW2 4701   6.867   5.662   2.599
 1268SOL     OW 4702   5.689   2.291   0.086
 1268SOL    HW1 4703   5.614   2.309   0.149
 1268SOL    HW2 4704   5.666   2.326   7.022
 1269SOL     OW 4705   6.482   6.643   5.342
 1269SOL    HW1 4706   6.385   6.634   5.322
 1269SOL    HW2 4707   6.511   6.738   5.326
 1270SOL     OW 4708   2.250   4.068   4.383
 1270SOL    HW1 4709   2.250   3.988   4.444
 1270SOL    HW2 4710   2.156   4.089   4.356
 1271SOL     OW 4711   3.388   1.904   3.289
 1271SOL    HW1 4712   3.311   1.954   3.329
 1271SOL    HW2 4713   3.353   1.829   3.233
 1272SOL     OW 4714   0.083   5.891   0.938
 1272SOL    HW1 4715   7.022   5.844   0.936
 1272SOL    HW2 4716   0.112   5.906   1.033
 1273SOL     OW 4717   2.022   4.017   0.339
 1273SOL    HW1 4718   2.099   4.059   0.387
 1273SOL    HW2 4719   1.999   4.072   0.259
 1274SOL     OW 4720   0.553   3.032   1.827
 1274SOL    HW1 4721   0.651   3.030   1.848
 1274SOL    HW2 4722   0.501   3.013   1.911
 1275SOL     OW 4723   4.400   0.935   3.690
 1275SOL    HW1 4724   4.403   1.009   3.757
 1275SOL    HW2 4725   4.418   0.971   3.599
 1276SOL     OW 4726   6.690   0.423   3.086
 1276SOL    HW1 4727   6.649   0.470   3.008
 1276SOL    HW2 4728   6.621   0.410   3.157
 1277SOL     OW 4729   0.537   1.166   4.991
 1277SOL    HW1 4730   0.606   1.238   4.980
 1277SOL    HW2 4731   0.559   1.110   5.070
 1278SOL     OW 4732   2.261   2.137   5.415
 1278SOL    HW1 4733   2.279   2.110   5.321
 1278SOL    HW2 4734   2.227   2.057   5.466
 1279SOL     OW 4735   2.553   0.145   0.899
 1279SOL    HW1 4736   2.471   0.202   0.908
 1279SOL    HW2 4737   2.574   0.102   0.986
 1280SOL     OW 4738   2.388   0.398   2.720
 1280SOL    HW1 4739   2.452   0.474   2.712
 1280SOL    HW2 4740   2.420   0.321   2.665
 1281SOL     OW 4741   1.008   5.679   3.124
 1281SOL    HW1 4742   0.922   5.723   3.149
 1281SOL    HW2 4743   1.030   5.607   3.189
 1282SOL     OW 4744   0.588   1.033   1.068
 1282SOL    HW1 4745   0.665   0.969   1.067
 1282SOL    HW2 4746   0.622   1.126   1.061
 1283SOL     OW 4747   5.649   3.729   5.383
 1283SOL    HW1 4748   5.730   3.673   5.402
 1283SOL    HW2 4749   5.587   3.726   5.462
 1284SOL     OW 4750   3.068   2.605   1.739
 1284SOL    HW1 4751   3.011   2.560   1.808
 1284SOL    HW2 4752   3.068   2.550   1.655
 1285SOL     OW 4753   5.741   3.512   6.413
 1285SOL    HW1 4754   5.650   3.478   6.390
 1285SOL    HW2 4755   5.751   3.518   6.512
 1286SOL     OW 4756   4.812   4.828   2.242
 1286SOL    HW1 4757   4.788   4.774   2.161
 1286SOL    HW2 4758   4.762   4.793   2.321
 1287SOL     OW 4759   5.938   4.654   6.878
 1287SOL    HW1 4760   5.967   4.737   6.831
 1287SOL    HW2 4761   5.849   4.624   6.842
 1288SOL     OW 4762   0.362   2.737   0.421
 1288SOL    HW1 4763   0.328   2.830   0.432
 1288SOL    HW2 4764   0.442   2.737   0.362
 1289SOL     OW 4765   0.115   5.802   1.418
 1289SOL    HW1 4766   0.110   5.712   1.375
 1289SOL    HW2 4767   0.053   5.805   1.497
 1290SOL     OW 4768   0.247   0.727   0.152
 1290SOL    HW1 4769   0.306   0.735   0.071
 1290SOL    HW2 4770   0.282   0.656   0.212
 1291SOL     OW 4771   2.035   4.903   6.200
 1291SOL    HW1 4772   2.132   4.927   6.200
 1291SOL    HW2 4773   2.019   4.826   6.138
 1292SOL     OW 4774   6.744   4.540   2.110
 1292SOL    HW1 4775   6.774   4.525   2.204
 1292SOL    HW2 4776   6.781   4.468   2.051
 1293SOL     OW 4777   2.599   1.102   6.067
 1293SOL    HW1 4778   2.656   1.072   5.990
 1293SOL    HW2 4779   2.509   1.059   6.059
 1294SOL     OW 4780   0.301   3.120   1.736
 1294SOL    HW1 4781   0.385   3.115   1.789
 1294SOL    HW2 4782   0.243   3.041   1.758
 1295SOL     OW 4783   6.109   3.917   2.547
 1295SOL    HW1 4784   6.169   3.854   2.597
 1295SOL    HW2 4785   6.162   3.996   2.517
 1296SOL     OW 4786   3.266   1.760   6.283
 1296SOL    HW1 4787   3.343   1.696   6.275
 1296SOL    HW2 4788   3.208   1.754   6.201
 1297SOL     OW 4789   5.837   1.564   5.812
 1297SOL    HW1 4790   5.771   1.638   5.799
 1297SOL    HW2 4791   5.812   1.510   5.892
 1298SOL     OW 4792   5.528   3.276   3.342
 1298SOL    HW1 4793   5.533   3.262   3.441
 1298SOL    HW2 4794   5.617   3.310   3.309
 1299SOL     OW 4795   1.904   3.962   3.146
 1299SOL    HW1 4796   1.888   4.060   3.135
 1299SOL    HW2 4797   1.997   3.939   3.115
 1300SOL     OW 4798   2.957   3.858   2.446
 1300SOL    HW1 4799   3.012   3.873   2.528
 1300SOL    HW2 4800   2.870   3.906   2.455
 1301SOL     OW 4801   1.376   6.389   2.392
 1301SOL    HW1 4802   1.377   6.291   2.409
 1301SOL    HW2 4803   1.323   6.407   2.309
 1302SOL     OW 4804   2.196   6.910   4.600
 1302SOL    HW1 4805   2.182   6.970   4.521
 1302SOL    HW2 4806   2.129   6.932   4.671
 1303SOL     OW 4807   3.992   1.013   1.121
 1303SOL    HW1 4808   4.031   0.925   1.094
 1303SOL    HW2 4809   4.066   1.075   1.146
 1304SOL     OW 4810   1.741   0.905   6.306
 1304SOL    HW1 4811   1.684   0.832   6.342
 1304SOL    HW2 4812   1.714   0.925   6.212
 1305SOL     OW 4813   5.710   5.723   5.140
 1305SOL    HW1 4814   5.706   5.625   5.158
 1305SOL    HW2 4815   5.718   5.739   5.041
 1306SOL     OW 4816   1.028   4.144   5.256
 1306SOL    HW1 4817   1.043   4.169   5.351
 1306SOL    HW2 4818   0.950   4.082   5.249
 1307SOL     OW 4819   1.679   2.920   4.725
 1307SOL    HW1 4820   1.672   2.839   4.783
 1307SOL    HW2 4821   1.695   3.000   4.783
 1308SOL     OW 4822   4.272   5.859   4.750
 1308SOL    HW1 4823   4.243   5.764   4.764
 1308SOL    HW2 4824   4.225   5.918   4.816
 1309SOL     OW 4825   5.561   3.356   5.490
 1309SOL    HW1 4826   5.558   3.347   5.390
 1309SOL    HW2 4827   5.585   3.268   5.530
 1310SOL     OW 4828   6.021   3.824   5.098
 1310SOL    HW1 4829   6.025   3.916   5.059
 1310SOL    HW2 4830   6.046   3.828   5.195
 1311SOL     OW 4831   6.010   6.571   4.094
 1311SOL    HW1 4832   5.917   6.598   4.118
 1311SOL    HW2 4833   6.026   6.476   4.120
 1312SOL     OW 4834   0.633   0.619   6.982
 1312SOL    HW1 4835   0.704   0.687   6.998
 1312SOL    HW2 4836   0.547   0.651   7.022
 1313SOL     OW 4837   2.625   5.691   5.589
 1313SOL    HW1 4838   2.697   5.670   5.523
 1313SOL    HW2 4839   2.538   5.705   5.541
 1314SOL     OW 4840   1.904   1.406   5.791
 1314SOL    HW1 4841   1.838   1.424   5.864
 1314SOL    HW2 4842   1.909   1.486   5.731
 1315SOL     OW 4843   1.072   1.044   0.350
 1315SOL    HW1 4844   1.146   1.102   0.316
 1315SOL    HW2 4845   1.100   0.948   0.343
 1316SOL     OW 4846   2.058   6.919   2.972
 1316SOL    HW1 4847   2.116   6.843   2.943
 1316SOL    HW2 4848   1.965   6.886   2.987
 1317SOL     OW 4849   0.605   4.568   4.546
 1317SOL    HW1 4850   0.587   4.635   4.618
 1317SOL    HW2 4851   0.619   4.615   4.459
 1318SOL     OW 4852   0.751   1.030   0.719
 1318SOL    HW1 4853   0.791   1.041   0.628
 1318SOL    HW2 4854   0.733   0.934   0.736
 1319SOL     OW 4855   6.062   1.281   0.042
 1319SOL    HW1 4856   6.007   1.261   0.123
 1319SOL    HW2 4857   6.134   1.345   0.065
 1320SOL     OW 4858   5.578   4.424   6.940
 1320SOL    HW1 4859   5.587   4.488   7.015
 1320SOL    HW2 4860   5.638   4.345   6.956
 1321SOL     OW 4861   4.552   2.711   0.161
 1321SOL    HW1 4862   4.548   2.613   0.144
 1321SOL    HW2 4863   4.474   2.756   0.117
 1322SOL     OW 4864   5.260   1.381   3.063
 1322SOL    HW1 4865   5.246   1.327   2.980
 1322SOL    HW2 4866   5.356   1.406   3.071
 1323SOL     OW 4867   5.486   1.535   5.244
 1323SOL    HW1 4868   5.445   1.575   5.326
 1323SOL    HW2 4869   5.524   1.445   5.266
 1324SOL     OW 4870   1.586   2.239   1.989
 1324SOL    HW1 4871   1.607   2.151   1.947
 1324SOL    HW2 4872   1.584   2.230   2.088
 1325SOL     OW 4873   2.253   0.337   2.944
 1325SOL    HW1 4874   2.301   0.383   2.869
 1325SOL    HW2 4875   2.320   0.301   3.009
 1326SOL     OW 4876   4.689   2.874   4.532
 1326SOL    HW1 4877   4.687   2.914   4.440
 1326SOL    HW2 4878   4.768   2.908   4.582
 1327SOL     OW 4879   2.466   5.411   2.876
 1327SOL    HW1 4880   2.464   5.511   2.884
 1327SOL    HW2 4881   2.484   5.386   2.781
 1328SOL     OW 4882   0.997   2.235   0.086
 1328SOL    HW1 4883   1.032   2.304   0.150
 1328SOL    HW2 4884   1.008   2.268   7.019
 1329SOL     OW 4885   6.563   1.656   0.895
 1329SOL    HW1 4886   6.625   1.619   0.964
 1329SOL    HW2 4887   6.469   1.630   0.917
 1330SOL     OW 4888   6.536   6.831   0.859
 1330SOL    HW1 4889   6.552   6.743   0.814
 1330SOL    HW2 4890   6.526   6.817   0.957
 1331SOL     OW 4891   5.043   1.903   3.144
 1331SOL    HW1 4892   5.098   1.833   3.099
 1331SOL    HW2 4893   5.082   1.993   3.126
 1332SOL     OW 4894   3.667   0.416   1.267
 1332SOL    HW1 4895   3.734   0.477   1.308
 1332SOL    HW2 4896   3.708   0.368   1.190
 1333SOL     OW 4897   3.665   4.173   4.936
 1333SOL    HW1 4898   3.745   4.118   4.961
 1333SOL    HW2 4899   3.687   4.270   4.945
 1334SOL     OW 4900   0.758   3.311   4.919
 1334SOL    HW1 4901   0.791   3.404   4.903
 1334SOL    HW2 4902   0.765   3.258   4.834
 1335SOL     OW 4903   2.034   6.486   2.887
 1335SOL    HW1 4904   2.052   6.401   2.837
 1335SOL    HW2 4905   1.936   6.496   2.902
 1336SOL     OW 4906   1.416   1.452   6.749
 1336SOL    HW1 4907   1.405   1.548   6.775
 1336SOL    HW2 4908   1.505   1.419   6.781
 1337SOL     OW 4909   1.282   2.567   5.267
 1337SOL    HW1 4910   1.245   2.542   5.177
 1337SOL    HW2 4911   1.210   2.604   5.324
 1338SOL     OW 4912   4.094   3.799   6.528
 1338SOL    HW1 4913   4.061   3.797   6.434
 1338SOL    HW2 4914   4.157   3.877   6.540
 1339SOL     OW 4915   0.003   4.512   6.591
 1339SOL    HW1 4916   6.968   4.451   6.640
 1339SOL    HW2 4917   0.051   4.570   6.656
 1340SOL     OW 4918   1.034   1.601   1.210
 1340SOL    HW1 4919   1.131   1.622   1.202
 1340SOL    HW2 4920   0.983   1.646   1.136
 1341SOL     OW 4921   4.325   1.111   5.064
 1341SOL    HW1 4922   4.407   1.119   5.120
 1341SOL    HW2 4923   4.330   1.028   5.009
 1342SOL     OW 4924   1.573   5.408   6.099
 1342SOL    HW1 4925   1.505   5.334   6.098
 1342SOL    HW2 4926   1.528   5.493   6.127
 1343SOL     OW 4927   3.432   6.813   2.361
 1343SOL    HW1 4928   3.459   6.856   2.447
 1343SOL    HW2 4929   3.515   6.787   2.310
 1344SOL     OW 4930   6.468   2.483   3.354
 1344SOL    HW1 4931   6.531   2.407   3.361
 1344SOL    HW2 4932   6.378   2.455   3.389
 1345SOL     OW 4933   0.753   1.383   3.610
 1345SOL    HW1 4934   0.827   1.449   3.616
 1345SOL    HW2 4935   0.760   1.318   3.686
 1346SOL     OW 4936   1.166   6.863   2.782
 1346SOL    HW1 4937   1.171   6.962   2.770
 1346SOL    HW2 4938   1.120   6.822   2.704
 1347SOL     OW 4939   6.171   6.810   3.657
 1347SOL    HW1 4940   6.100   6.878   3.642
 1347SOL    HW2 4941   6.151   6.759   3.741
 1348SOL     OW 4942   5.651   5.635   3.431
 1348SOL    HW1 4943   5.583   5.708   3.435
 1348SOL    HW2 4944   5.638   5.573   3.509
 1349SOL     OW 4945   4.842   2.907   6.569
 1349SOL    HW1 4946   4.913   2.973   6.592
 1349SOL    HW2 4947   4.756   2.934   6.612
 1350SOL     OW 4948   3.611   4.927   6.834
 1350SOL    HW1 4949   3.553   5.005   6.810
 1350SOL    HW2 4950   3.694   4.959   6.879
 1351SOL     OW 4951   0.945   0.896   2.749
 1351SOL    HW1 4952   1.008   0.885   2.672
 1351SOL    HW2 4953   0.936   0.993   2.771
 1352SOL     OW 4954   0.058   6.866   3.541
 1352SOL    HW1 4955   0.037   6.964   3.545
 1352SOL    HW2 4956   0.105   6.845   3.455
 1353SOL     OW 4957   6.616   4.561   5.508
 1353SOL    HW1 4958   6.553   4.558   5.431
 1353SOL    HW2 4959   6.579   4.506   5.584
 1354SOL     OW 4960   6.818   1.129   0.790
 1354SOL    HW1 4961   6.887   1.124   0.862
 1354SOL    HW2 4962   6.852   1.083   0.708
 1355SOL     OW 4963   5.274   3.882   0.354
 1355SOL    HW1 4964   5.314   3.935   0.279
 1355SOL    HW2 4965   5.259   3.943   0.433
 1356SOL     OW 4966   3.809   4.025   3.549
 1356SOL    HW1 4967   3.890   4.009   3.606
 1356SOL    HW2 4968   3.730   3.980   3.589
 1357SOL     OW 4969   2.856   3.363   6.301
 1357SOL    HW1 4970   2.788   3.400   6.238
 1357SOL    HW2 4971   2.814   3.291   6.356
 1358SOL     OW 4972   2.386   2.700   6.150
 1358SOL    HW1 4973   2.352   2.778   6.202
 1358SOL    HW2 4974   2.340   2.696   6.062
 1359SOL     OW 4975   6.826   3.647   1.531
 1359SOL    HW1 4976   6.845   3.549   1.527
 1359SOL    HW2 4977   6.870   3.686   1.612
 1360SOL     OW 4978   3.947   3.778   2.467
 1360SOL    HW1 4979   3.977   3.735   2.382
 1360SOL    HW2 4980   3.848   3.790   2.466
 1361SOL     OW 4981   0.646   6.871   5.780
 1361SOL    HW1 4982   0.639   6.958   5.730
 1361SOL    HW2 4983   0.590   6.802   5.734
 1362SOL     OW 4984   3.131   3.306   5.505
 1362SOL    HW1 4985   3.046   3.254   5.495
 1362SOL    HW2 4986   3.109   3.404   5.509
 1363SOL     OW 4987   6.122   5.967   3.685
 1363SOL    HW1 4988   6.112   6.016   3.772
 1363SOL    HW2 4989   6.173   6.024   3.620
 1364SOL     OW 4990   0.003   2.878   0.372
 1364SOL    HW1 4991   6.960   2.925   0.425
 1364SOL    HW2 4992   0.020   2.788   0.411
 1365SOL     OW 4993   1.076   4.179   5.525
 1365SOL    HW1 4994   1.038   4.087   5.535
 1365SOL    HW2 4995   1.063   4.229   5.611
 1366SOL     OW 4996   0.046   3.132   1.088
 1366SOL    HW1 4997   0.029   3.052   1.031
 1366SOL    HW2 4998   0.145   3.147   1.096
 1367SOL     OW 4999   1.344   5.115   3.590
 1367SOL    HW1 5000   1.433   5.070   3.598
 1367SOL    HW2 5001   1.271   5.047   3.598
 1368SOL     OW 5002   6.753   6.704   4.280
 1368SOL    HW1 5003   6.819   6.728   4.350
 1368SOL    HW2 5004   6.705   6.786   4.250
 1369SOL     OW 5005   2.747   6.151   1.527
 1369SOL    HW1 5006   2.804   6.180   1.450
 1369SOL    HW2 5007   2.788   6.071   1.570
 1370SOL     OW 5008   0.082   1.743   4.144
 1370SOL    HW1 5009   0.112   1.739   4.048
 1370SOL    HW2 5010   7.014   1.712   4.149
 1371SOL     OW 5011   5.199   1.064   5.301
 1371SOL    HW1 5012   5.199   0.981   5.356
 1371SOL    HW2 5013   5.107   1.080   5.263
 1372SOL     OW 5014   6.294   2.467   0.919
 1372SOL    HW1 5015   6.344   2.498   0.838
 1372SOL    HW2 5016   6.329   2.514   1.000
 1373SOL     OW 5017   4.708   1.881   0.823
 1373SOL    HW1 5018   4.734   1.829   0.904
 1373SOL    HW2 5019   4.778   1.950   0.804
 1374SOL     OW 5020   5.432   4.171   0.483
 1374SOL    HW1 5021   5.485   4.124   0.413
 1374SOL    HW2 5022   5.374   4.105   0.531
 1375SOL     OW 5023   0.079   6.133   6.064
 1375SOL    HW1 5024   0.071   6.118   5.966
 1375SOL    HW2 5025   7.026   6.095   6.110
 1376SOL     OW 5026   3.100   4.785   6.061
 1376SOL    HW1 5027   3.028   4.742   6.006
 1376SOL    HW2 5028   3.185   4.789   6.009
 1377SOL     OW 5029   1.219   2.478   4.302
 1377SOL    HW1 5030   1.306   2.449   4.261
 1377SOL    HW2 5031   1.221   2.458   4.400
 1378SOL     OW 5032   4.518   2.568   4.884
 1378SOL    HW1 5033   4.506   2.501   4.811
 1378SOL    HW2 5034   4.567   2.647   4.848
 1379SOL     OW 5035   5.089   6.010   2.610
 1379SOL    HW1 5036   4.997   6.042   2.586
 1379SOL    HW2 5037   5.129   6.071   2.679
 1380SOL     OW 5038   6.781   6.218   2.483
 1380SOL    HW1 5039   6.752   6.159   2.558
 1380SOL    HW2 5040   6.880   6.233   2.489
 1381SOL     OW 5041   5.650   1.910   6.769
 1381SOL    HW1 5042   5.567   1.905   6.826
 1381SOL    HW2 5043   5.711   1.834   6.792
 1382SOL     OW 5044   4.832   3.481   1.920
 1382SOL    HW1 5045   4.821   3.398   1.866
 1382SOL    HW2 5046   4.799   3.560   1.868
 1383SOL     OW 5047   0.820   6.153   1.615
 1383SOL    HW1 5048   0.730   6.187   1.586
 1383SOL    HW2 5049   0.827   6.056   1.593
 1384SOL     OW 5050   4.301   0.021   1.007
 1384SOL    HW1 5051   4.233   7.011   0.943
 1384SOL    HW2 5052   4.266   0.015   1.100
 1385SOL     OW 5053   2.311   4.870   3.702
 1385SOL    HW1 5054   2.324   4.955   3.652
 1385SOL    HW2 5055   2.400   4.834   3.730
 1386SOL     OW 5056   3.385   6.622   3.242
 1386SOL    HW1 5057   3.354   6.717   3.239
 1386SOL    HW2 5058   3.313   6.565   3.281
 1387SOL     OW 5059   3.221   6.052   1.718
 1387SOL    HW1 5060   3.233   5.992   1.797
 1387SOL    HW2 5061   3.262   6.141   1.738
 1388SOL     OW 5062   6.394   6.299   1.170
 1388SOL    HW1 5063   6.325   6.267   1.105
 1388SOL    HW2 5064   6.389   6.399   1.178
 1389SOL     OW 5065   5.725   1.957   3.316
 1389SOL    HW1 5066   5.775   1.928   3.235
 1389SOL    HW2 5067   5.767   1.917   3.397
 1390SOL     OW 5068   0.063   4.176   0.001
 1390SOL    HW1 5069   0.142   4.226   6.991
 1390SOL    HW2 5070   0.037   4.216   0.089
 1391SOL     OW 5071   6.507   0.329   4.037
 1391SOL    HW1 5072   6.577   0.259   4.031
 1391SOL    HW2 5073   6.460   0.338   3.949
 1392SOL     OW 5074   5.132   5.625   6.239
 1392SOL    HW1 5075   5.106   5.721   6.242
 1392SOL    HW2 5076   5.227   5.617   6.209
 1393SOL     OW 5077   6.223   4.814   5.051
 1393SOL    HW1 5078   6.291   4.756   5.005
 1393SOL    HW2 5079   6.151   4.838   4.986
 1394SOL     OW 5080   3.098   6.072   4.682
 1394SOL    HW1 5081   3.006   6.109   4.668
 1394SOL    HW2 5082   3.125   6.017   4.603
 1395SOL     OW 5083   2.549   4.000   6.383
 1395SOL    HW1 5084   2.607   4.040   6.312
 1395SOL    HW2 5085   2.466   3.963   6.341
 1396SOL     OW 5086   1.967   0.912   5.026
 1396SOL    HW1 5087   2.056   0.896   4.984
 1396SOL    HW2 5088   1.901   0.845   4.991
 1397SOL     OW 5089   0.426   0.380   3.884
 1397SOL    HW1 5090   0.335   0.421   3.874
 1397SOL    HW2 5091   0.486   0.442   3.933
 1398SOL     OW 5092   2.395   0.924   5.925
 1398SOL    HW1 5093   2.300   0.911   5.952
 1398SOL    HW2 5094   2.400   0.939   5.826
 1399SOL     OW 5095   4.043   6.495   0.824
 1399SOL    HW1 5096   3.987   6.412   0.831
 1399SOL    HW2 5097   4.077   6.519   0.915
 1400SOL     OW 5098   6.647   1.385   2.879
 1400SOL    HW1 5099   6.582   1.443   2.829
 1400SOL    HW2 5100   6.679   1.433   2.960
 1401SOL     OW 5101   0.116   1.799   4.864
 1401SOL    HW1 5102   0.088   1.796   4.960
 1401SOL    HW2 5103   0.119   1.894   4.834
 1402SOL     OW 5104   0.714   4.262   0.436
 1402SOL    HW1 5105   0.714   4.257   0.336
 1402SOL    HW2 5106   0.676   4.350   0.465
 1403SOL     OW 5107   3.004   1.774   1.709
 1403SOL    HW1 5108   3.054   1.834   1.771
 1403SOL    HW2 5109   2.963   1.829   1.636
 1404SOL     OW 5110   5.225   6.870   6.917
 1404SOL    HW1 5111   5.222   6.786   6.863
 1404SOL    HW2 5112   5.177   6.943   6.868
 1405SOL     OW 5113   2.152   3.743   1.175
 1405SOL    HW1 5114   2.056   3.733   1.201
 1405SOL    HW2 5115   2.161   3.736   1.076
 1406SOL     OW 5116   1.519   5.505   1.259
 1406SOL    HW1 5117   1.426   5.499   1.296
 1406SOL    HW2 5118   1.515   5.502   1.159
 1407SOL     OW 5119   0.636   2.301   1.962
 1407SOL    HW1 5120   0.659   2.292   1.865
 1407SOL    HW2 5121   0.714   2.271   2.018
 1408SOL     OW 5122   5.339   1.215   5.848
 1408SOL    HW1 5123   5.437   1.199   5.856
 1408SOL    HW2 5124   5.289   1.138   5.886
 1409SOL     OW 5125   0.527   0.198   5.186
 1409SOL    HW1 5126   0.612   0.153   5.215
 1409SOL    HW2 5127   0.536   0.227   5.091
 1410SOL     OW 5128   2.069   3.593   6.471
 1410SOL    HW1 5129   2.054   3.626   6.564
 1410SOL    HW2 5130   2.166   3.605   6.446
 1411SOL     OW 5131   2.643   6.646   2.066
 1411SOL    HW1 5132   2.565   6.661   2.126
 1411SOL    HW2 5133   2.671   6.550   2.071
 1412SOL     OW 5134   0.327   2.097   0.974
 1412SOL    HW1 5135   0.314   2.194   0.952
 1412SOL    HW2 5136   0.241   2.058   1.005
 1413SOL     OW 5137   1.983   1.266   5.314
 1413SOL    HW1 5138   2.042   1.185   5.318
 1413SOL    HW2 5139   1.910   1.257   5.382
 1414SOL     OW 5140   2.723   1.115   1.570
 1414SOL    HW1 5141   2.672   1.129   1.655
 1414SOL    HW2 5142   2.821   1.125   1.589
 1415SOL     OW 5143   2.515   0.885   4.692
 1415SOL    HW1 5144   2.610   0.874   4.663
 1415SOL    HW2 5145   2.485   0.978   4.671
 1416SOL     OW 5146   4.435   4.594   4.312
 1416SOL    HW1 5147   4.522   4.547   4.292
 1416SOL    HW2 5148   4.420   4.596   4.411
 1417SOL     OW 5149   3.024   1.704   7.002
 1417SOL    HW1 5150   3.094   1.634   7.014
 1417SOL    HW2 5151   2.988   1.700   6.908
 1418SOL     OW 5152   2.966   3.392   3.755
 1418SOL    HW1 5153   2.969   3.398   3.656
 1418SOL    HW2 5154   2.879   3.428   3.788
 1419SOL     OW 5155   2.272   6.631   4.789
 1419SOL    HW1 5156   2.284   6.709   4.851
 1419SOL    HW2 5157   2.270   6.663   4.694
 1420SOL     OW 5158   2.479   0.355   1.466
 1420SOL    HW1 5159   2.434   0.425   1.411
 1420SOL    HW2 5160   2.410   0.307   1.521
 1421SOL     OW 5161   1.887   3.308   3.301
 1421SOL    HW1 5162   1.962   3.284   3.238
 1421SOL    HW2 5163   1.902   3.264   3.389
 1422SOL     OW 5164   2.136   3.747   1.513
 1422SOL    HW1 5165   2.046   3.737   1.556
 1422SOL    HW2 5166   2.131   3.719   1.417
 1423SOL     OW 5167   5.315   6.490   3.092
 1423SOL    HW1 5168   5.348   6.503   3.186
 1423SOL    HW2 5169   5.384   6.522   3.028
 1424SOL     OW 5170   6.952   4.461   5.292
 1424SOL    HW1 5171   7.006   4.397   5.347
 1424SOL    HW2 5172   6.865   4.418   5.268
 1425SOL     OW 5173   0.928   6.505   4.478
 1425SOL    HW1 5174   0.857   6.515   4.409
 1425SOL    HW2 5175   0.984   6.588   4.480
 1426SOL     OW 5176   0.995   1.834   6.256
 1426SOL    HW1 5177   1.002   1.802   6.351
 1426SOL    HW2 5178   0.928   1.908   6.251
 1427SOL     OW 5179   0.213   6.812   3.297
 1427SOL    HW1 5180   0.311   6.830   3.292
 1427SOL    HW2 5181   0.195   6.715   3.280
 1428SOL     OW 5182   5.470   2.564   0.605
 1428SOL    HW1 5183   5.463   2.608   0.516
 1428SOL    HW2 5184   5.421   2.618   0.673
 1429SOL     OW 5185   5.629   1.803   0.347
 1429SOL    HW1 5186   5.650   1.711   0.379
 1429SOL    HW2 5187   5.603   1.860   0.425
 1430SOL     OW 5188   2.034   5.145   4.162
 1430SOL    HW1 5189   2.032   5.049   4.133
 1430SOL    HW2 5190   1.949   5.166   4.211
 1431SOL     OW 5191   2.254   1.853   0.569
 1431SOL    HW1 5192   2.289   1.830   0.479
 1431SOL    HW2 5193   2.177   1.793   0.592
 1432SOL     OW 5194   3.667   1.340   2.822
 1432SOL    HW1 5195   3.751   1.392   2.840
 1432SOL    HW2 5196   3.588   1.398   2.840
 1433SOL     OW 5197   4.313   1.425   4.636
 1433SOL    HW1 5198   4.373   1.358   4.680
 1433SOL    HW2 5199   4.359   1.513   4.631
 1434SOL     OW 5200   0.021   0.776   6.142
 1434SOL    HW1 5201   0.070   0.695   6.175
 1434SOL    HW2 5202   0.020   0.775   6.042
 1435SOL     OW 5203   6.192   0.173   2.332
 1435SOL    HW1 5204   6.204   0.113   2.253
 1435SOL    HW2 5205   6.114   0.234   2.315
 1436SOL     OW 5206   5.711   3.859   0.640
 1436SOL    HW1 5207   5.737   3.912   0.560
 1436SOL    HW2 5208   5.641   3.908   0.692
 1437SOL     OW 5209   2.529   2.559   3.393
 1437SOL    HW1 5210   2.613   2.510   3.415
 1437SOL    HW2 5211   2.499   2.612   3.472
 1438SOL     OW 5212   3.213   6.688   1.290
 1438SOL    HW1 5213   3.228   6.701   1.192
 1438SOL    HW2 5214   3.214   6.776   1.336
 1439SOL     OW 5215   6.729   5.711   1.178
 1439SOL    HW1 5216   6.744   5.772   1.256
 1439SOL    HW2 5217   6.652   5.651   1.198
 1440SOL     OW 5218   3.080   3.582   0.192
 1440SOL    HW1 5219   3.097   3.669   0.238
 1440SOL    HW2 5220   3.081   3.508   0.259
 1441SOL     OW 5221   5.879   0.734   2.740
 1441SOL    HW1 5222   5.948   0.706   2.674
 1441SOL    HW2 5223   5.863   0.833   2.732
 1442SOL     OW 5224   0.070   5.875   6.871
 1442SOL    HW1 5225   0.083   5.833   6.961
 1442SOL    HW2 5226   7.004   5.912   6.865
 1443SOL     OW 5227   0.362   2.692   2.512
 1443SOL    HW1 5228   0.435   2.705   2.445
 1443SOL    HW2 5229   0.346   2.595   2.526
 1444SOL     OW 5230   5.161   6.074   0.815
 1444SOL    HW1 5231   5.234   6.114   0.760
 1444SOL    HW2 5232   5.076   6.073   0.762
 1445SOL     OW 5233   0.654   2.761   2.496
 1445SOL    HW1 5234   0.647   2.731   2.591
 1445SOL    HW2 5235   0.743   2.802   2.480
 1446SOL     OW 5236   5.855   1.040   6.562
 1446SOL    HW1 5237   5.950   1.015   6.579
 1446SOL    HW2 5238   5.803   1.033   6.647
 1447SOL     OW 5239   5.718   5.922   4.197
 1447SOL    HW1 5240   5.813   5.926   4.227
 1447SOL    HW2 5241   5.662   5.984   4.251
 1448SOL     OW 5242   6.768   2.896   5.250
 1448SOL    HW1 5243   6.727   2.945   5.327
 1448SOL    HW2 5244   6.861   2.928   5.236
 1449SOL     OW 5245   1.426   4.023   5.705
 1449SOL    HW1 5246   1.518   3.984   5.696
 1449SOL    HW2 5247   1.417   4.100   5.642
 1450SOL     OW 5248   0.943   1.971   0.105
 1450SOL    HW1 5249   0.854   1.940   0.137
 1450SOL    HW2 5250   0.942   2.071   0.094
 1451SOL     OW 5251   1.406   6.672   2.091
 1451SOL    HW1 5252   1.402   6.573   2.074
 1451SOL    HW2 5253   1.496   6.706   2.067
 1452SOL     OW 5254   4.325   2.691   5.483
 1452SOL    HW1 5255   4.309   2.679   5.581
 1452SOL    HW2 5256   4.276   2.772   5.451
 1453SOL     OW 5257   0.719   4.220   6.060
 1453SOL    HW1 5258   0.755   4.198   5.969
 1453SOL    HW2 5259   0.790   4.203   6.128
 1454SOL     OW 5260   1.154   2.193   1.689
 1454SOL    HW1 5261   1.246   2.233   1.691
 1454SOL    HW2 5262   1.126   2.180   1.594
 1455SOL     OW 5263   1.838   6.854   2.296
 1455SOL    HW1 5264   1.844   6.874   2.394
 1455SOL    HW2 5265   1.812   6.937   2.247
 1456SOL     OW 5266   6.441   0.140   6.096
 1456SOL    HW1 5267   6.397   0.160   6.183
 1456SOL    HW2 5268   6.422   0.046   6.070
 1457SOL     OW 5269   1.115   5.798   0.551
 1457SOL    HW1 5270   1.181   5.727   0.575
 1457SOL    HW2 5271   1.163   5.885   0.541
 1458SOL     OW 5272   6.121   4.943   5.363
 1458SOL    HW1 5273   6.164   4.854   5.346
 1458SOL    HW2 5274   6.045   4.931   5.427
 1459SOL     OW 5275   4.164   6.672   5.581
 1459SOL    HW1 5276   4.172   6.757   5.529
 1459SOL    HW2 5277   4.093   6.683   5.650
 1460SOL     OW 5278   1.776   6.807   5.275
 1460SOL    HW1 5279   1.770   6.906   5.263
 1460SOL    HW2 5280   1.684   6.769   5.281
 1461SOL     OW 5281   6.821   4.242   2.943
 1461SOL    HW1 5282   6.743   4.292   2.979
 1461SOL    HW2 5283   6.790   4.156   2.902
 1462SOL     OW 5284   1.189   0.979   6.668
 1462SOL    HW1 5285   1.237   0.927   6.597
 1462SOL    HW2 5286   1.241   1.062   6.689
 1463SOL     OW 5287   1.172   5.034   5.850
 1463SOL    HW1 5288   1.138   5.128   5.848
 1463SOL    HW2 5289   1.252   5.029   5.910
 1464SOL     OW 5290   6.583   5.164   2.384
 1464SOL    HW1 5291   6.673   5.133   2.354
 1464SOL    HW2 5292   6.531   5.086   2.418
 1465SOL     OW 5293   1.550   1.089   4.094
 1465SOL    HW1 5294   1.617   1.140   4.147
 1465SOL    HW2 5295   1.465   1.142   4.089
 1466SOL     OW 5296   3.772   1.650   2.104
 1466SOL    HW1 5297   3.741   1.655   2.199
 1466SOL    HW2 5298   3.838   1.723   2.086
 1467SOL     OW 5299   1.715   0.974   3.737
 1467SOL    HW1 5300   1.753   0.882   3.738
 1467SOL    HW2 5301   1.790   1.041   3.747
 1468SOL     OW 5302   2.001   5.884   2.006
 1468SOL    HW1 5303   1.982   5.936   2.089
 1468SOL    HW2 5304   2.100   5.874   1.996
 1469SOL     OW 5305   6.864   6.695   2.483
 1469SOL    HW1 5306   6.854   6.789   2.451
 1469SOL    HW2 5307   6.816   6.633   2.421
 1470SOL     OW 5308   0.371   1.611   2.121
 1470SOL    HW1 5309   0.310   1.591   2.044
 1470SOL    HW2 5310   0.371   1.534   2.184
 1471SOL     OW 5311   1.197   0.091   0.184
 1471SOL    HW1 5312   1.180   0.111   0.281
 1471SOL    HW2 5313   1.249   0.167   0.143
 1472SOL     OW 5314   3.352   5.712   0.345
 1472SOL    HW1 5315   3.373   5.639   0.279
 1472SOL    HW2 5316   3.253   5.715   0.360
 1473SOL     OW 5317   2.589   6.149   5.138
 1473SOL    HW1 5318   2.601   6.077   5.070
 1473SOL    HW2 5319   2.636   6.124   5.222
 1474SOL     OW 5320   4.774   4.393   1.298
 1474SOL    HW1 5321   4.754   4.356   1.207
 1474SOL    HW2 5322   4.786   4.318   1.363
 1475SOL     OW 5323   5.556   0.988   0.392
 1475SOL    HW1 5324   5.629   0.938   0.346
 1475SOL    HW2 5325   5.547   0.956   0.486
 1476SOL     OW 5326   2.305   1.388   1.361
 1476SOL    HW1 5327   2.353   1.324   1.421
 1476SOL    HW2 5328   2.310   1.356   1.267
 1477SOL     OW 5329   3.319   6.294   6.534
 1477SOL    HW1 5330   3.265   6.333   6.459
 1477SOL    HW2 5331   3.264   6.292   6.617
 1478SOL     OW 5332   6.239   5.263   5.324
 1478SOL    HW1 5333   6.268   5.338   5.383
 1478SOL    HW2 5334   6.176   5.298   5.255
 1479SOL     OW 5335   3.177   3.595   1.328
 1479SOL    HW1 5336   3.178   3.620   1.425
 1479SOL    HW2 5337   3.269   3.570   1.299
 1480SOL     OW 5338   3.028   0.020   4.410
 1480SOL    HW1 5339   3.000   0.093   4.347
 1480SOL    HW2 5340   2.956   6.978   4.416
 1481SOL     OW 5341   5.838   3.343   6.011
 1481SOL    HW1 5342   5.774   3.395   6.067
 1481SOL    HW2 5343   5.835   3.247   6.037
 1482SOL     OW 5344   4.891   0.559   1.383
 1482SOL    HW1 5345   4.945   0.638   1.353
 1482SOL    HW2 5346   4.837   0.524   1.306
 1483SOL     OW 5347   5.902   2.546   5.156
 1483SOL    HW1 5348   5.937   2.511   5.244
 1483SOL    HW2 5349   5.978   2.580   5.102
 1484SOL     OW 5350   4.611   4.820   3.833
 1484SOL    HW1 5351   4.592   4.796   3.928
 1484SOL    HW2 5352   4.531   4.865   3.792
 1485SOL     OW 5353   5.248   0.486   4.247
 1485SOL    HW1 5354   5.185   0.522   4.316
 1485SOL    HW2 5355   5.332   0.454   4.291
 1486SOL     OW 5356   4.877   0.663   3.364
 1486SOL    HW1 5357   4.952   0.702   3.417
 1486SOL    HW2 5358   4.806   0.630   3.426
 1487SOL     OW 5359   0.260   2.034   0.118
 1487SOL    HW1 5360   0.226   2.087   0.196
 1487SOL    HW2 5361   0.189   1.970   0.087
 1488SOL     OW 5362   4.726   0.229   3.347
 1488SOL    HW1 5363   4.685   0.303   3.294
 1488SOL    HW2 5364   4.812   0.260   3.387
 1489SOL     OW 5365   3.591   4.619   6.053
 1489SOL    HW1 5366   3.612   4.710   6.017
 1489SOL    HW2 5367   3.551   4.563   5.980
 1490SOL     OW 5368   0.217   3.428   0.950
 1490SOL    HW1 5369   0.315   3.448   0.957
 1490SOL    HW2 5370   0.191   3.422   0.854
 1491SOL     OW 5371   6.431   4.049   2.795
 1491SOL    HW1 5372   6.383   4.045   2.882
 1491SOL    HW2 5373   6.400   3.975   2.736
 1492SOL     OW 5374   6.191   0.083   2.599
 1492SOL    HW1 5375   6.099   0.046   2.615
 1492SOL    HW2 5376   6.191   0.132   2.512
 1493SOL     OW 5377   3.741   0.587   6.190
 1493SOL    HW1 5378   3.759   0.686   6.193
 1493SOL    HW2 5379   3.662   0.566   6.247
 1494SOL     OW 5380   6.325   2.623   6.549
 1494SOL    HW1 5381   6.234   2.640   6.586
 1494SOL    HW2 5382   6.371   2.552   6.603
 1495SOL     OW 5383   0.050   4.301   5.445
 1495SOL    HW1 5384   0.127   4.332   5.501
 1495SOL    HW2 5385   0.083   4.237   5.375
 1496SOL     OW 5386   1.427   0.454   0.467
 1496SOL    HW1 5387   1.329   0.475   0.464
 1496SOL    HW2 5388   1.439   0.355   0.475
 1497SOL     OW 5389   5.330   3.121   1.927
 1497SOL    HW1 5390   5.254   3.113   1.992
 1497SOL    HW2 5391   5.333   3.039   1.870
 1498SOL     OW 5392   2.792   4.785   0.860
 1498SOL    HW1 5393   2.840   4.755   0.777
 1498SOL    HW2 5394   2.762   4.880   0.847
 1499SOL     OW 5395   0.069   3.472   5.577
 1499SOL    HW1 5396   0.084   3.570   5.565
 1499SOL    HW2 5397   0.156   3.424   5.571
 1500SOL     OW 5398   0.407   6.926   0.040
 1500SOL    HW1 5399   0.402   6.945   0.138
 1500SOL    HW2 5400   0.378   6.832   0.023
 1501SOL     OW 5401   5.796   1.811   6.251
 1501SOL    HW1 5402   5.818   1.713   6.255
 1501SOL    HW2 5403   5.744   1.837   6.332
 1502SOL     OW 5404   4.959   1.115   6.872
 1502SOL    HW1 5405   5.040   1.066   6.903
 1502SOL    HW2 5406   4.946   1.198   6.927
 1503SOL     OW 5407   1.659   3.250   2.297
 1503SOL    HW1 5408   1.758   3.238   2.287
 1503SOL    HW2 5409   1.631   3.335   2.252
 1504SOL     OW 5410   0.567   6.954   3.581
 1504SOL    HW1 5411   0.641   7.017   3.559
 1504SOL    HW2 5412   0.484   7.006   3.601
 1505SOL     OW 5413   5.104   6.967   5.538
 1505SOL    HW1 5414   5.202   6.965   5.557
 1505SOL    HW2 5415   5.053   6.961   5.624
 1506SOL     OW 5416   1.353   6.704   0.240
 1506SOL    HW1 5417   1.369   6.767   0.164
 1506SOL    HW2 5418   1.262   6.664   0.232
 1507SOL     OW 5419   0.043   1.991   5.722
 1507SOL    HW1 5420   0.022   1.904   5.767
 1507SOL    HW2 5421   0.137   2.018   5.743
 1508SOL     OW 5422   6.108   1.637   1.850
 1508SOL    HW1 5423   6.172   1.562   1.864
 1508SOL    HW2 5424   6.151   1.708   1.794
 1509SOL     OW 5425   4.823   2.076   5.029
 1509SOL    HW1 5426   4.748   2.130   5.066
 1509SOL    HW2 5427   4.875   2.131   4.964
 1510SOL     OW 5428   5.719   6.940   4.672
 1510SOL    HW1 5429   5.698   6.878   4.747
 1510SOL    HW2 5430   5.793   7.002   4.699
 1511SOL     OW 5431   4.064   3.500   3.820
 1511SOL    HW1 5432   4.093   3.410   3.852
 1511SOL    HW2 5433   3.967   3.496   3.795
 1512SOL     OW 5434   6.232   5.790   1.472
 1512SOL    HW1 5435   6.264   5.728   1.543
 1512SOL    HW2 5436   6.291   5.872   1.471
 1513SOL     OW 5437   3.507   0.349   4.454
 1513SOL    HW1 5438   3.578   0.279   4.459
 1513SOL    HW2 5439   3.419   0.309   4.479
 1514SOL     OW 5440   4.155   2.722   6.048
 1514SOL    HW1 5441   4.120   2.772   5.969
 1514SOL    HW2 5442   4.114   2.759   6.132
 1515SOL     OW 5443   5.672   1.294   2.493
 1515SOL    HW1 5444   5.650   1.384   2.456
 1515SOL    HW2 5445   5.714   1.305   2.583
 1516SOL     OW 5446   5.541   5.351   5.663
 1516SOL    HW1 5447   5.597   5.274   5.633
 1516SOL    HW2 5448   5.576   5.435   5.621
 1517SOL     OW 5449   4.349   6.076   2.870
 1517SOL    HW1 5450   4.376   6.049   2.963
 1517SOL    HW2 5451   4.256   6.043   2.852
 1518SOL     OW 5452   6.872   2.990   0.567
 1518SOL    HW1 5453   6.786   2.947   0.592
 1518SOL    HW2 5454   6.924   3.011   0.649
 1519SOL     OW 5455   6.343   4.598   0.977
 1519SOL    HW1 5456   6.356   4.508   0.935
 1519SOL    HW2 5457   6.323   4.586   1.075
 1520SOL     OW 5458   0.658   4.828   1.642
 1520SOL    HW1 5459   0.633   4.775   1.561
 1520SOL    HW2 5460   0.703   4.768   1.708
 1521SOL     OW 5461   2.206   4.736   6.639
 1521SOL    HW1 5462   2.163   4.808   6.585
 1521SOL    HW2 5463   2.301   4.761   6.658
 1522SOL     OW 5464   6.383   5.263   4.870
 1522SOL    HW1 5465   6.398   5.299   4.779
 1522SOL    HW2 5466   6.310   5.194   4.867
 1523SOL     OW 5467   3.726   6.242   6.878
 1523SOL    HW1 5468   3.742   6.326   6.931
 1523SOL    HW2 5469   3.764   6.164   6.928
 1524SOL     OW 5470   2.509   1.669   2.443
 1524SOL    HW1 5471   2.491   1.571   2.430
 1524SOL    HW2 5472   2.583   1.698   2.382
 1525SOL     OW 5473   6.160   2.867   0.614
 1525SOL    HW1 5474   6.149   2.800   0.540
 1525SOL    HW2 5475   6.150   2.959   0.577
 1526SOL     OW 5476   0.046   1.269   0.190
 1526SOL    HW1 5477   0.131   1.233   0.151
 1526SOL    HW2 5478   7.006   1.195   0.199
 1527SOL     OW 5479   3.523   1.033   4.127
 1527SOL    HW1 5480   3.442   1.040   4.068
 1527SOL    HW2 5481   3.602   1.004   4.073
 1528SOL     OW 5482   4.314   4.626   2.214
 1528SOL    HW1 5483   4.371   4.691   2.265
 1528SOL    HW2 5484   4.241   4.592   2.273
 1529SOL     OW 5485   4.679   1.052   6.904
 1529SOL    HW1 5486   4.626   1.127   6.865
 1529SOL    HW2 5487   4.772   1.054   6.867
 1530SOL     OW 5488   3.590   1.378   1.599
 1530SOL    HW1 5489   3.561   1.468   1.630
 1530SOL    HW2 5490   3.653   1.338   1.666
 1531SOL     OW 5491   4.838   0.707   4.903
 1531SOL    HW1 5492   4.854   0.638   4.974
 1531SOL    HW2 5493   4.829   0.797   4.946
 1532SOL     OW 5494   3.668   4.280   5.903
 1532SOL    HW1 5495   3.575   4.294   5.937
 1532SOL    HW2 5496   3.690   4.182   5.905
 1533SOL     OW 5497   5.872   5.722   0.175
 1533SOL    HW1 5498   5.907   5.804   0.220
 1533SOL    HW2 5499   5.873   5.736   0.076
 1534SOL     OW 5500   3.219   6.004   6.118
 1534SOL    HW1 5501   3.174   6.088   6.088
 1534SOL    HW2 5502   3.236   6.008   6.216
 1535SOL     OW 5503   4.973   5.483   4.413
 1535SOL    HW1 5504   5.026   5.472   4.329
 1535SOL    HW2 5505   4.888   5.533   4.393
 1536SOL     OW 5506   4.193   5.123   6.461
 1536SOL    HW1 5507   4.139   5.047   6.496
 1536SOL    HW2 5508   4.131   5.190   6.420
 1537SOL     OW 5509   4.728   6.043   4.205
 1537SOL    HW1 5510   4.812   6.064   4.154
 1537SOL    HW2 5511   4.659   6.007   4.143
 1538SOL     OW 5512   3.570   6.792   6.761
 1538SOL    HW1 5513   3.497   6.829   6.703
 1538SOL    HW2 5514   3.581   6.694   6.743
 1539SOL     OW 5515   4.950   3.567   2.167
 1539SOL    HW1 5516   4.918   3.653   2.206
 1539SOL    HW2 5517   4.902   3.549   2.081
 1540SOL     OW 5518   0.520   6.846   5.397
 1540SOL    HW1 5519   0.425   6.835   5.367
 1540SOL    HW2 5520   0.530   6.806   5.488
 1541SOL     OW 5521   3.364   2.953   4.265
 1541SOL    HW1 5522   3.269   2.965   4.293
 1541SOL    HW2 5523   3.370   2.955   4.165
 1542SOL     OW 5524   6.892   0.329   1.787
 1542SOL    HW1 5525   6.896   0.332   1.887
 1542SOL    HW2 5526   6.869   0.419   1.751
 1543SOL     OW 5527   3.929   4.988   4.833
 1543SOL    HW1 5528   3.833   4.977   4.857
 1543SOL    HW2 5529   3.942   4.968   4.736
 1544SOL     OW 5530   3.645   3.442   3.490
 1544SOL    HW1 5531   3.613   3.353   3.458
 1544SOL    HW2 5532   3.575   3.511   3.472
 1545SOL     OW 5533   4.173   0.746   3.154
 1545SOL    HW1 5534   4.174   0.686   3.234
 1545SOL    HW2 5535   4.199   0.693   3.073
 1546SOL     OW 5536   5.171   6.242   5.331
 1546SOL    HW1 5537   5.189   6.211   5.425
 1546SOL    HW2 5538   5.080   6.282   5.326
 1547SOL     OW 5539   1.558   3.772   1.160
 1547SOL    HW1 5540   1.464   3.789   1.129
 1547SOL    HW2 5541   1.577   3.674   1.156
 1548SOL     OW 5542   5.325   4.062   0.138
 1548SOL    HW1 5543   5.293   4.156   0.152
 1548SOL    HW2 5544   5.424   4.063   0.125
 1549SOL     OW 5545   3.843   1.673   1.580
 1549SOL    HW1 5546   3.765   1.663   1.642
 1549SOL    HW2 5547   3.847   1.596   1.518
 1550SOL     OW 5548   3.033   3.709   0.966
 1550SOL    HW1 5549   2.958   3.740   1.023
 1550SOL    HW2 5550   3.117   3.757   0.992
 1551SOL     OW 5551   2.165   4.605   6.329
 1551SOL    HW1 5552   2.191   4.582   6.235
 1551SOL    HW2 5553   2.247   4.632   6.381
 1552SOL     OW 5554   1.802   5.398   1.132
 1552SOL    HW1 5555   1.778   5.302   1.127
 1552SOL    HW2 5556   1.778   5.443   1.045
 1553SOL     OW 5557   6.539   1.760   6.502
 1553SOL    HW1 5558   6.512   1.663   6.503
 1553SOL    HW2 5559   6.585   1.781   6.416
 1554SOL     OW 5560   3.350   1.797   3.665
 1554SOL    HW1 5561   3.371   1.895   3.667
 1554SOL    HW2 5562   3.252   1.784   3.653
 1555SOL     OW 5563   5.725   3.385   6.959
 1555SOL    HW1 5564   5.722   3.434   0.019
 1555SOL    HW2 5565   5.682   3.295   6.969
 1556SOL     OW 5566   2.003   2.127   6.647
 1556SOL    HW1 5567   2.007   2.027   6.641
 1556SOL    HW2 5568   2.090   2.162   6.683
 1557SOL     OW 5569   1.757   2.755   5.222
 1557SOL    HW1 5570   1.661   2.730   5.216
 1557SOL    HW2 5571   1.765   2.849   5.255
 1558SOL     OW 5572   6.242   0.756   4.865
 1558SOL    HW1 5573   6.332   0.713   4.855
 1558SOL    HW2 5574   6.254   0.854   4.883
 1559SOL     OW 5575   1.748   2.985   6.575
 1559SOL    HW1 5576   1.750   3.066   6.516
 1559SOL    HW2 5577   1.784   3.008   6.665
 1560SOL     OW 5578   0.168   0.545   6.242
 1560SOL    HW1 5579   0.226   0.555   6.162
 1560SOL    HW2 5580   0.141   0.449   6.252
 1561SOL     OW 5581   5.137   6.122   4.018
 1561SOL    HW1 5582   5.064   6.190   4.025
 1561SOL    HW2 5583   5.119   6.048   4.083
 1562SOL     OW 5584   4.831   6.124   2.533
 1562SOL    HW1 5585   4.886   6.203   2.506
 1562SOL    HW2 5586   4.751   6.156   2.585
 1563SOL     OW 5587   2.530   0.382   4.826
 1563SOL    HW1 5588   2.506   0.479   4.825
 1563SOL    HW2 5589   2.534   0.349   4.921
 1564SOL     OW 5590   1.433   1.366   3.372
 1564SOL    HW1 5591   1.421   1.275   3.332
 1564SOL    HW2 5592   1.399   1.365   3.466
 1565SOL     OW 5593   5.052   4.394   3.366
 1565SOL    HW1 5594   4.975   4.331   3.368
 1565SOL    HW2 5595   5.124   4.357   3.306
 1566SOL     OW 5596   5.804   4.432   2.898
 1566SOL    HW1 5597   5.820   4.527   2.925
 1566SOL    HW2 5598   5.880   4.375   2.929
 1567SOL     OW 5599   6.627   6.229   0.876
 1567SOL    HW1 5600   6.608   6.264   0.785
 1567SOL    HW2 5601   6.647   6.305   0.938
 1568SOL     OW 5602   1.623   6.683   7.002
 1568SOL    HW1 5603   1.675   6.615   6.951
 1568SOL    HW2 5604   1.590   6.754   6.940
 1569SOL     OW 5605   4.168   6.142   3.420
 1569SOL    HW1 5606   4.116   6.199   3.483
 1569SOL    HW2 5607   4.142   6.161   3.326
 1570SOL     OW 5608   1.700   6.941   0.788
 1570SOL    HW1 5609   1.605   6.947   0.818
 1570SOL    HW2 5610   1.705   6.958   0.689
 1571SOL     OW 5611   5.541   2.467   0.901
 1571SOL    HW1 5612   5.464   2.410   0.872
 1571SOL    HW2 5613   5.603   2.481   0.823
 1572SOL     OW 5614   0.298   0.321   1.296
 1572SOL    HW1 5615   0.223   0.255   1.295
 1572SOL    HW2 5616   0.361   0.297   1.371
 1573SOL     OW 5617   5.286   1.869   2.047
 1573SOL    HW1 5618   5.201   1.914   2.074
 1573SOL    HW2 5619   5.274   1.827   1.957
 1574SOL     OW 5620   6.237   0.963   2.055
 1574SOL    HW1 5621   6.161   0.924   2.107
 1574SOL    HW2 5622   6.255   1.056   2.087
 1575SOL     OW 5623   3.097   1.507   0.441
 1575SOL    HW1 5624   3.029   1.446   0.398
 1575SOL    HW2 5625   3.108   1.481   0.537
 1576SOL     OW 5626   6.438   6.174   4.274
 1576SOL    HW1 5627   6.420   6.189   4.371
 1576SOL    HW2 5628   6.511   6.235   4.245
 1577SOL     OW 5629   3.204   1.566   4.262
 1577SOL    HW1 5630   3.147   1.616   4.327
 1577SOL    HW2 5631   3.288   1.618   4.246
 1578SOL     OW 5632   6.136   3.506   5.765
 1578SOL    HW1 5633   6.182   3.587   5.801
 1578SOL    HW2 5634   6.145   3.431   5.832
 1579SOL     OW 5635   7.025   1.645   3.450
 1579SOL    HW1 5636   6.961   1.569   3.442
 1579SOL    HW2 5637   0.058   1.630   3.529
 1580SOL     OW 5638   2.938   3.607   5.242
 1580SOL    HW1 5639   2.918   3.695   5.199
 1580SOL    HW2 5640   2.976   3.623   5.333
 1581SOL     OW 5641   0.181   4.592   4.914
 1581SOL    HW1 5642   0.231   4.515   4.953
 1581SOL    HW2 5643   0.124   4.634   4.985
 1582SOL     OW 5644   1.481   6.847   4.137
 1582SOL    HW1 5645   1.487   6.822   4.040
 1582SOL    HW2 5646   1.487   6.764   4.193
 1583SOL     OW 5647   0.790   2.912   3.938
 1583SOL    HW1 5648   0.804   2.994   3.994
 1583SOL    HW2 5649   0.872   2.895   3.884
 1584SOL     OW 5650   1.444   6.484   4.649
 1584SOL    HW1 5651   1.366   6.451   4.703
 1584SOL    HW2 5652   1.432   6.457   4.553
 1585SOL     OW 5653   5.978   1.536   3.374
 1585SOL    HW1 5654   5.976   1.531   3.275
 1585SOL    HW2 5655   6.003   1.629   3.402
 1586SOL     OW 5656   3.689   4.142   1.524
 1586SOL    HW1 5657   3.639   4.062   1.492
 1586SOL    HW2 5658   3.703   4.206   1.448
 1587SOL     OW 5659   3.276   4.944   0.191
 1587SOL    HW1 5660   3.356   4.977   0.240
 1587SOL    HW2 5661   3.298   4.936   0.093
 1588SOL     OW 5662   4.632   1.432   3.116
 1588SOL    HW1 5663   4.661   1.413   3.022
 1588SOL    HW2 5664   4.536   1.459   3.117
 1589SOL     OW 5665   5.690   3.976   3.370
 1589SOL    HW1 5666   5.676   3.962   3.468
 1589SOL    HW2 5667   5.780   3.943   3.343
 1590SOL     OW 5668   2.340   6.601   6.037
 1590SOL    HW1 5669   2.325   6.698   6.058
 1590SOL    HW2 5670   2.281   6.574   5.961
 1591SOL     OW 5671   0.967   4.864   3.199
 1591SOL    HW1 5672   0.911   4.906   3.128
 1591SOL    HW2 5673   0.909   4.841   3.278
 1592SOL     OW 5674   2.633   4.419   1.429
 1592SOL    HW1 5675   2.676   4.433   1.518
 1592SOL    HW2 5676   2.552   4.478   1.421
 1593SOL     OW 5677   1.349   6.652   3.436
 1593SOL    HW1 5678   1.297   6.567   3.426
 1593SOL    HW2 5679   1.287   6.729   3.441
 1594SOL     OW 5680   0.341   5.075   2.616
 1594SOL    HW1 5681   0.294   5.078   2.704
 1594SOL    HW2 5682   0.284   5.027   2.549
 1595SOL     OW 5683   0.727   4.702   6.526
 1595SOL    HW1 5684   0.772   4.758   6.596
 1595SOL    HW2 5685   0.753   4.735   6.435
 1596SOL     OW 5686   0.979   2.880   5.867
 1596SOL    HW1 5687   1.065   2.908   5.823
 1596SOL    HW2 5688   0.903   2.896   5.805
 1597SOL     OW 5689   3.027   5.350   0.964
 1597SOL    HW1 5690   2.972   5.399   1.031
 1597SOL    HW2 5691   3.115   5.326   1.004
 1598SOL     OW 5692   0.714   4.236   0.186
 1598SOL    HW1 5693   0.792   4.282   0.143
 1598SOL    HW2 5694   0.696   4.150   0.139
 1599SOL     OW 5695   4.740   3.915   6.028
 1599SOL    HW1 5696   4.783   3.914   6.118
 1599SOL    HW2 5697   4.704   3.824   6.007
 1600SOL     OW 5698   5.365   2.062   5.039
 1600SOL    HW1 5699   5.354   1.963   5.038
 1600SOL    HW2 5700   5.288   2.105   4.992
 1601SOL     OW 5701   0.339   5.422   4.579
 1601SOL    HW1 5702   0.297   5.333   4.560
 1601SOL    HW2 5703   0.361   5.468   4.494
 1602SOL     OW 5704   2.145   5.767   4.125
 1602SOL    HW1 5705   2.063   5.824   4.113
 1602SOL    HW2 5706   2.176   5.775   4.220
 1603SOL     OW 5707   0.828   6.003   1.905
 1603SOL    HW1 5708   0.752   6.062   1.934
 1603SOL    HW2 5709   0.915   6.048   1.926
 1604SOL     OW 5710   6.147   4.558   7.021
 1604SOL    HW1 5711   6.134   4.579   0.091
 1604SOL    HW2 5712   6.062   4.578   6.971
 1605SOL     OW 5713   6.130   0.075   1.820
 1605SOL    HW1 5714   6.107   0.053   1.725
 1605SOL    HW2 5715   6.173   0.165   1.824
 1606SOL     OW 5716   4.320   0.874   5.231
 1606SOL    HW1 5717   4.290   0.947   5.292
 1606SOL    HW2 5718   4.417   0.853   5.250
 1607SOL     OW 5719   4.901   2.722   0.732
 1607SOL    HW1 5720   4.966   2.750   0.803
 1607SOL    HW2 5721   4.846   2.801   0.704
 1608SOL     OW 5722   1.398   0.266   5.646
 1608SOL    HW1 5723   1.346   0.349   5.622
 1608SOL    HW2 5724   1.439   0.278   5.736
 1609SOL     OW 5725   4.482   0.867   6.838
 1609SOL    HW1 5726   4.398   0.917   6.859
 1609SOL    HW2 5727   4.561   0.919   6.871
 1610SOL     OW 5728   6.031   3.873   5.385
 1610SOL    HW1 5729   6.041   3.964   5.346
 1610SOL    HW2 5730   6.118   3.825   5.382
 1611SOL     OW 5731   3.430   3.483   2.098
 1611SOL    HW1 5732   3.371   3.471   2.178
 1611SOL    HW2 5733   3.383   3.449   2.017
 1612SOL     OW 5734   3.123   1.085   5.539
 1612SOL    HW1 5735   3.046   1.021   5.544
 1612SOL    HW2 5736   3.199   1.041   5.490
 1613SOL     OW 5737   1.805   6.071   1.252
 1613SOL    HW1 5738   1.904   6.075   1.264
 1613SOL    HW2 5739   1.764   6.157   1.282
 1614SOL     OW 5740   6.615   4.273   0.483
 1614SOL    HW1 5741   6.629   4.367   0.454
 1614SOL    HW2 5742   6.606   4.214   0.402
 1615SOL     OW 5743   6.208   5.040   1.112
 1615SOL    HW1 5744   6.221   5.075   1.205
 1615SOL    HW2 5745   6.297   5.026   1.069
 1616SOL     OW 5746   4.474   2.337   6.064
 1616SOL    HW1 5747   4.566   2.301   6.047
 1616SOL    HW2 5748   4.413   2.308   5.990
 1617SOL     OW 5749   5.626   0.011   1.258
 1617SOL    HW1 5750   5.585   0.082   1.200
 1617SOL    HW2 5751   5.699   6.993   1.208
 1618SOL     OW 5752   0.635   4.001   1.412
 1618SOL    HW1 5753   0.679   3.931   1.356
 1618SOL    HW2 5754   0.690   4.084   1.412
 1619SOL     OW 5755   1.506   2.362   4.566
 1619SOL    HW1 5756   1.601   2.390   4.579
 1619SOL    HW2 5757   1.473   2.317   4.649
 1620SOL     OW 5758   1.892   5.788   1.028
 1620SOL    HW1 5759   1.886   5.788   1.128
 1620SOL    HW2 5760   1.837   5.863   0.991
 1621SOL     OW 5761   0.393   0.823   0.589
 1621SOL    HW1 5762   0.428   0.774   0.508
 1621SOL    HW2 5763   0.337   0.900   0.559
 1622SOL     OW 5764   1.544   2.107   4.309
 1622SOL    HW1 5765   1.508   2.118   4.402
 1622SOL    HW2 5766   1.631   2.156   4.302
 1623SOL     OW 5767   2.415   3.006   5.950
 1623SOL    HW1 5768   2.415   3.065   5.869
 1623SOL    HW2 5769   2.444   2.914   5.924
 1624SOL     OW 5770   3.324   0.960   5.848
 1624SOL    HW1 5771   3.394   0.979   5.780
 1624SOL    HW2 5772   3.264   0.887   5.814
 1625SOL     OW 5773   1.264   5.403   2.355
 1625SOL    HW1 5774   1.356   5.442   2.355
 1625SOL    HW2 5775   1.257   5.330   2.287
 1626SOL     OW 5776   2.486   1.756   6.685
 1626SOL    HW1 5777   2.531   1.741   6.597
 1626SOL    HW2 5778   2.554   1.755   6.758
 1627SOL     OW 5779   0.037   2.654   4.597
 1627SOL    HW1 5780   0.029   2.684   4.502
 1627SOL    HW2 5781   0.084   2.566   4.600
 1628SOL     OW 5782   4.504   4.964   6.766
 1628SOL    HW1 5783   4.587   4.966   6.823
 1628SOL    HW2 5784   4.465   5.056   6.761
 1629SOL     OW 5785   2.911   2.203   4.142
 1629SOL    HW1 5786   2.991   2.247   4.101
 1629SOL    HW2 5787   2.833   2.213   4.081
 1630SOL     OW 5788   0.715   6.090   5.759
 1630SOL    HW1 5789   0.787   6.132   5.813
 1630SOL    HW2 5790   0.651   6.043   5.820
 1631SOL     OW 5791   6.566   0.895   6.239
 1631SOL    HW1 5792   6.657   0.892   6.279
 1631SOL    HW2 5793   6.570   0.864   6.144
 1632SOL     OW 5794   0.233   1.561   6.953
 1632SOL    HW1 5795   0.274   1.524   0.010
 1632SOL    HW2 5796   0.134   1.548   6.955
 1633SOL     OW 5797   5.312   2.207   4.004
 1633SOL    HW1 5798   5.251   2.129   3.994
 1633SOL    HW2 5799   5.259   2.292   4.004
 1634SOL     OW 5800   4.297   5.561   5.246
 1634SOL    HW1 5801   4.385   5.558   5.293
 1634SOL    HW2 5802   4.224   5.570   5.312
 1635SOL     OW 5803   6.559   4.918   4.734
 1635SOL    HW1 5804   6.623   4.846   4.757
 1635SOL    HW2 5805   6.598   5.007   4.758
 1636SOL     OW 5806   2.074   4.414   1.222
 1636SOL    HW1 5807   2.098   4.478   1.294
 1636SOL    HW2 5808   2.005   4.455   1.161
 1637SOL     OW 5809   6.260   1.329   2.761
 1637SOL    HW1 5810   6.298   1.379   2.683
 1637SOL    HW2 5811   6.321   1.253   2.785
 1638SOL     OW 5812   1.156   4.231   3.961
 1638SOL    HW1 5813   1.104   4.315   3.979
 1638SOL    HW2 5814   1.228   4.221   4.030
 1639SOL     OW 5815   4.717   6.482   2.423
 1639SOL    HW1 5816   4.665   6.399   2.441
 1639SOL    HW2 5817   4.664   6.543   2.364
 1640SOL     OW 5818   5.812   1.946   1.003
 1640SOL    HW1 5819   5.850   2.023   0.953
 1640SOL    HW2 5820   5.852   1.861   0.968
 1641SOL     OW 5821   5.792   2.734   3.704
 1641SOL    HW1 5822   5.734   2.718   3.784
 1641SOL    HW2 5823   5.757   2.681   3.627
 1642SOL     OW 5824   6.763   3.328   0.460
 1642SOL    HW1 5825   6.786   3.235   0.490
 1642SOL    HW2 5826   6.837   3.365   0.405
 1643SOL     OW 5827   3.060   6.286   4.083
 1643SOL    HW1 5828   3.041   6.371   4.132
 1643SOL    HW2 5829   2.978   6.229   4.082
 1644SOL     OW 5830   1.713   2.520   1.004
 1644SOL    HW1 5831   1.667   2.578   0.936
 1644SOL    HW2 5832   1.796   2.482   0.964
 1645SOL     OW 5833   3.040   6.462   5.025
 1645SOL    HW1 5834   3.097   6.422   4.952
 1645SOL    HW2 5835   2.973   6.395   5.055
 1646SOL     OW 5836   2.658   5.312   1.279
 1646SOL    HW1 5837   2.587   5.363   1.328
 1646SOL    HW2 5838   2.615   5.239   1.226
 1647SOL     OW 5839   5.589   2.588   4.392
 1647SOL    HW1 5840   5.673   2.633   4.365
 1647SOL    HW2 5841   5.589   2.572   4.491
 1648SOL     OW 5842   5.979   6.143   1.569
 1648SOL    HW1 5843   5.988   6.110   1.663
 1648SOL    HW2 5844   5.892   6.191   1.559
 1649SOL     OW 5845   3.438   0.463   3.231
 1649SOL    HW1 5846   3.348   0.505   3.230
 1649SOL    HW2 5847   3.449   0.409   3.314
 1650SOL     OW 5848   2.992   6.746   3.989
 1650SOL    HW1 5849   2.940   6.662   4.005
 1650SOL    HW2 5850   3.079   6.741   4.038
 1651SOL     OW 5851   0.798   0.861   1.071
 1651SOL    HW1 5852   0.776   0.779   1.125
 1651SOL    HW2 5853   0.883   0.901   1.104
 1652SOL     OW 5854   1.694   2.251   1.512
 1652SOL    HW1 5855   1.679   2.204   1.425
 1652SOL    HW2 5856   1.762   2.201   1.565
 1653SOL     OW 5857   0.941   5.579   1.407
 1653SOL    HW1 5858   0.949   5.543   1.314
 1653SOL    HW2 5859   0.882   5.659   1.407
 1654SOL     OW 5860   6.943   3.532   1.798
 1654SOL    HW1 5861   7.011   3.497   1.862
 1654SOL    HW2 5862   6.944   3.476   1.715
 1655SOL     OW 5863   5.338   3.777   6.080
 1655SOL    HW1 5864   5.348   3.698   6.019
 1655SOL    HW2 5865   5.319   3.858   6.026
 1656SOL     OW 5866   1.533   4.235   3.330
 1656SOL    HW1 5867   1.503   4.235   3.425
 1656SOL    HW2 5868   1.583   4.151   3.310
 1657SOL     OW 5869   0.173   1.593   4.678
 1657SOL    HW1 5870   0.147   1.637   4.592
 1657SOL    HW2 5871   0.163   1.659   4.753
 1658SOL     OW 5872   0.104   0.273   3.063
 1658SOL    HW1 5873   0.034   0.271   2.991
 1658SOL    HW2 5874   0.091   0.194   3.124
 1659SOL     OW 5875   4.235   1.973   6.308
 1659SOL    HW1 5876   4.292   2.053   6.290
 1659SOL    HW2 5877   4.160   1.970   6.241
 1660SOL     OW 5878   1.249   5.258   4.078
 1660SOL    HW1 5879   1.330   5.285   4.129
 1660SOL    HW2 5880   1.233   5.160   4.091
 1661SOL     OW 5881   3.499   1.886   1.856
 1661SOL    HW1 5882   3.588   1.925   1.880
 1661SOL    HW2 5883   3.453   1.946   1.791
 1662SOL     OW 5884   6.257   0.898   3.748
 1662SOL    HW1 5885   6.285   0.923   3.655
 1662SOL    HW2 5886   6.317   0.826   3.783
 1663SOL     OW 5887   2.316   1.053   3.107
 1663SOL    HW1 5888   2.267   1.101   3.180
 1663SOL    HW2 5889   2.414   1.074   3.113
 1664SOL     OW 5890   1.386   0.575   4.029
 1664SOL    HW1 5891   1.324   0.558   4.106
 1664SOL    HW2 5892   1.453   0.644   4.055
 1665SOL     OW 5893   0.144   1.738   2.999
 1665SOL    HW1 5894   0.055   1.709   2.962
 1665SOL    HW2 5895   0.188   1.661   3.046
 1666SOL     OW 5896   6.328   2.809   0.821
 1666SOL    HW1 5897   6.388   2.890   0.825
 1666SOL    HW2 5898   6.255   2.825   0.755
 1667SOL     OW 5899   5.376   6.241   0.725
 1667SOL    HW1 5900   5.335   6.317   0.776
 1667SOL    HW2 5901   5.475   6.241   0.739
 1668SOL     OW 5902   4.662   6.447   5.486
 1668SOL    HW1 5903   4.596   6.522   5.491
 1668SOL    HW2 5904   4.616   6.360   5.501
 1669SOL     OW 5905   6.265   6.795   0.490
 1669SOL    HW1 5906   6.294   6.890   0.484
 1669SOL    HW2 5907   6.183   6.788   0.546
 1670SOL     OW 5908   0.277   5.575   6.222
 1670SOL    HW1 5909   0.318   5.541   6.137
 1670SOL    HW2 5910   0.306   5.669   6.238
 1671SOL     OW 5911   4.241   2.173   1.134
 1671SOL    HW1 5912   4.292   2.215   1.209
 1671SOL    HW2 5913   4.189   2.095   1.169
 1672SOL     OW 5914   1.758   3.734   2.902
 1672SOL    HW1 5915   1.724   3.743   2.995
 1672SOL    HW2 5916   1.858   3.733   2.902
 1673SOL     OW 5917   0.674   2.311   4.419
 1673SOL    HW1 5918   0.596   2.361   4.456
 1673SOL    HW2 5919   0.708   2.357   4.337
 1674SOL     OW 5920   1.871   3.794   1.576
 1674SOL    HW1 5921   1.892   3.851   1.497
 1674SOL    HW2 5922   1.801   3.726   1.550
 1675SOL     OW 5923   4.106   0.129   6.223
 1675SOL    HW1 5924   4.172   0.204   6.226
 1675SOL    HW2 5925   4.072   0.118   6.129
 1676SOL     OW 5926   3.176   1.354   2.600
 1676SOL    HW1 5927   3.164   1.368   2.699
 1676SOL    HW2 5928   3.267   1.316   2.583
 1677SOL     OW 5929   4.921   2.308   5.764
 1677SOL    HW1 5930   4.834   2.299   5.814
 1677SOL    HW2 5931   4.909   2.372   5.689
 1678SOL     OW 5932   5.398   4.789   4.307
 1678SOL    HW1 5933   5.341   4.831   4.378
 1678SOL    HW2 5934   5.438   4.860   4.250
 1679SOL     OW 5935   1.903   3.570   5.471
 1679SOL    HW1 5936   2.000   3.583   5.493
 1679SOL    HW2 5937   1.894   3.550   5.374
 1680SOL     OW 5938   1.039   1.682   4.193
 1680SOL    HW1 5939   1.048   1.590   4.230
 1680SOL    HW2 5940   1.121   1.735   4.216
 1681SOL     OW 5941   6.810   5.779   0.927
 1681SOL    HW1 5942   6.801   5.753   1.023
 1681SOL    HW2 5943   6.784   5.702   0.868
 1682SOL     OW 5944   0.191   3.284   4.801
 1682SOL    HW1 5945   0.186   3.384   4.801
 1682SOL    HW2 5946   0.141   3.247   4.722
 1683SOL     OW 5947   4.510   5.192   1.063
 1683SOL    HW1 5948   4.501   5.094   1.080
 1683SOL    HW2 5949   4.591   5.208   1.006
 1684SOL     OW 5950   1.161   6.592   2.904
 1684SOL    HW1 5951   1.151   6.621   2.999
 1684SOL    HW2 5952   1.141   6.668   2.843
 1685SOL     OW 5953   1.971   1.339   6.737
 1685SOL    HW1 5954   2.042   1.410   6.735
 1685SOL    HW2 5955   2.000   1.265   6.797
 1686SOL     OW 5956   2.173   5.681   5.813
 1686SOL    HW1 5957   2.246   5.614   5.829
 1686SOL    HW2 5958   2.112   5.682   5.893
 1687SOL     OW 5959   1.739   3.338   1.671
 1687SOL    HW1 5960   1.734   3.336   1.571
 1687SOL    HW2 5961   1.832   3.317   1.701
 1688SOL     OW 5962   1.942   1.971   3.750
 1688SOL    HW1 5963   1.942   2.039   3.677
 1688SOL    HW2 5964   2.030   1.973   3.798
 1689SOL     OW 5965   3.363   1.038   1.920
 1689SOL    HW1 5966   3.433   0.981   1.963
 1689SOL    HW2 5967   3.394   1.134   1.919
 1690SOL     OW 5968   1.318   2.779   2.945
 1690SOL    HW1 5969   1.402   2.829   2.929
 1690SOL    HW2 5970   1.339   2.683   2.966
 1691SOL     OW 5971   5.090   4.032   3.099
 1691SOL    HW1 5972   5.134   3.971   3.034
 1691SOL    HW2 5973   4.990   4.023   3.091
 1692SOL     OW 5974   6.889   6.955   1.166
 1692SOL    HW1 5975   6.933   6.878   1.211
 1692SOL    HW2 5976   6.945   6.985   1.088
 1693SOL     OW 5977   1.964   2.740   2.672
 1693SOL    HW1 5978   1.925   2.648   2.663
 1693SOL    HW2 5979   1.890   2.808   2.667
 1694SOL     OW 5980   4.125   6.604   4.092
 1694SOL    HW1 5981   4.220   6.594   4.121
 1694SOL    HW2 5982   4.074   6.522   4.117
 1695SOL     OW 5983   2.814   0.840   4.566
 1695SOL    HW1 5984   2.811   0.921   4.626
 1695SOL    HW2 5985   2.909   0.821   4.541
 1696SOL     OW 5986   5.332   5.376   0.576
 1696SOL    HW1 5987   5.417   5.364   0.627
 1696SOL    HW2 5988   5.268   5.303   0.600
 1697SOL     OW 5989   6.988   6.713   1.294
 1697SOL    HW1 5990   6.913   6.708   1.360
 1697SOL    HW2 5991   0.047   6.694   1.341
 1698SOL     OW 5992   4.604   1.750   1.259
 1698SOL    HW1 5993   4.658   1.787   1.335
 1698SOL    HW2 5994   4.556   1.825   1.214
 1699SOL     OW 5995   2.804   1.585   2.097
 1699SOL    HW1 5996   2.794   1.603   1.999
 1699SOL    HW2 5997   2.813   1.486   2.112
 1700SOL     OW 5998   6.227   2.372   3.442
 1700SOL    HW1 5999   6.225   2.353   3.540
 1700SOL    HW2 6000   6.186   2.295   3.393
 1701SOL     OW 6001   4.972   3.034   5.155
 1701SOL    HW1 6002   5.057   3.084   5.138
 1701SOL    HW2 6003   4.899   3.072   5.099
 1702SOL     OW 6004   6.588   3.572   0.418
 1702SOL    HW1 6005   6.657   3.548   0.486
 1702SOL    HW2 6006   6.512   3.620   0.462
 1703SOL     OW 6007   3.529   4.128   3.139
 1703SOL    HW1 6008   3.573   4.142   3.227
 1703SOL    HW2 6009   3.454   4.063   3.149
 1704SOL     OW 6010   0.414   1.291   1.059
 1704SOL    HW1 6011   0.394   1.359   0.989
 1704SOL    HW2 6012   0.503   1.313   1.101
 1705SOL     OW 6013   3.214   2.038   2.092
 1705SOL    HW1 6014   3.265   2.124   2.101
 1705SOL    HW2 6015   3.274   1.961   2.112
 1706SOL     OW 6016   4.249   6.739   1.202
 1706SOL    HW1 6017   4.340   6.738   1.244
 1706SOL    HW2 6018   4.238   6.822   1.148
 1707SOL     OW 6019   4.260   1.390   2.106
 1707SOL    HW1 6020   4.344   1.410   2.156
 1707SOL    HW2 6021   4.279   1.321   2.035
 1708SOL     OW 6022   5.808   6.102   3.027
 1708SOL    HW1 6023   5.757   6.038   2.970
 1708SOL    HW2 6024   5.784   6.088   3.123
 1709SOL     OW 6025   2.936   6.245   2.020
 1709SOL    HW1 6026   2.902   6.274   1.931
 1709SOL    HW2 6027   2.934   6.145   2.026
 1710SOL     OW 6028   6.100   4.319   3.917
 1710SOL    HW1 6029   6.170   4.301   3.848
 1710SOL    HW2 6030   6.015   4.272   3.891
 1711SOL     OW 6031   1.558   4.353   4.971
 1711SOL    HW1 6032   1.466   4.371   5.006
 1711SOL    HW2 6033   1.604   4.286   5.030
 1712SOL     OW 6034   0.535   3.237   6.619
 1712SOL    HW1 6035   0.496   3.324   6.589
 1712SOL    HW2 6036   0.634   3.243   6.618
 1713SOL     OW 6037   2.567   2.073   1.174
 1713SOL    HW1 6038   2.651   2.104   1.217
 1713SOL    HW2 6039   2.542   2.137   1.101
 1714SOL     OW 6040   3.988   1.748   6.456
 1714SOL    HW1 6041   3.943   1.669   6.414
 1714SOL    HW2 6042   3.936   1.831   6.434
 1715SOL     OW 6043   6.795   3.279   2.744
 1715SOL    HW1 6044   6.893   3.285   2.764
 1715SOL    HW2 6045   6.748   3.230   2.818
 1716SOL     OW 6046   5.508   6.401   1.531
 1716SOL    HW1 6047   5.535   6.452   1.450
 1716SOL    HW2 6048   5.572   6.327   1.548
 1717SOL     OW 6049   2.419   6.480   6.568
 1717SOL    HW1 6050   2.422   6.565   6.620
 1717SOL    HW2 6051   2.358   6.490   6.490
 1718SOL     OW 6052   2.117   2.094   0.630
 1718SOL    HW1 6053   2.146   2.143   0.547
 1718SOL    HW2 6054   2.175   2.013   0.642
 1719SOL     OW 6055   2.860   4.092   1.575
 1719SOL    HW1 6056   2.778   4.132   1.615
 1719SOL    HW2 6057   2.901   4.158   1.512
 1720SOL     OW 6058   6.338   1.829   1.452
 1720SOL    HW1 6059   6.347   1.781   1.540
 1720SOL    HW2 6060   6.255   1.798   1.406
 1721SOL     OW 6061   1.218   6.737   2.265
 1721SOL    HW1 6062   1.293   6.727   2.199
 1721SOL    HW2 6063   1.193   6.648   2.301
 1722SOL     OW 6064   5.030   1.223   3.426
 1722SOL    HW1 6065   4.981   1.205   3.341
 1722SOL    HW2 6066   5.106   1.285   3.408
 1723SOL     OW 6067   6.650   2.264   3.351
 1723SOL    HW1 6068   6.694   2.296   3.267
 1723SOL    HW2 6069   6.603   2.177   3.333
 1724SOL     OW 6070   5.867   1.126   0.873
 1724SOL    HW1 6071   5.925   1.050   0.847
 1724SOL    HW2 6072   5.782   1.123   0.820
 1725SOL     OW 6073   3.121   4.095   0.193
 1725SOL    HW1 6074   3.040   4.099   0.251
 1725SOL    HW2 6075   3.134   4.182   0.146
 1726SOL     OW 6076   0.017   4.671   5.149
 1726SOL    HW1 6077   7.008   4.754   5.192
 1726SOL    HW2 6078   0.006   4.594   5.211
 1727SOL     OW 6079   3.657   2.956   4.235
 1727SOL    HW1 6080   3.562   2.924   4.243
 1727SOL    HW2 6081   3.691   2.982   4.326
 1728SOL     OW 6082   5.140   4.772   4.511
 1728SOL    HW1 6083   5.077   4.750   4.437
 1728SOL    HW2 6084   5.183   4.688   4.545
 1729SOL     OW 6085   2.152   4.044   3.856
 1729SOL    HW1 6086   2.120   3.976   3.791
 1729SOL    HW2 6087   2.074   4.082   3.906
 1730SOL     OW 6088   6.701   0.926   4.899
 1730SOL    HW1 6089   6.607   0.946   4.872
 1730SOL    HW2 6090   6.761   0.933   4.820
 1731SOL     OW 6091   0.991   5.123   2.306
 1731SOL    HW1 6092   0.924   5.087   2.241
 1731SOL    HW2 6093   1.079   5.133   2.261
 1732SOL     OW 6094   2.338   4.288   6.184
 1732SOL    HW1 6095   2.395   4.299   6.266
 1732SOL    HW2 6096   2.243   4.273   6.211
 1733SOL     OW 6097   1.373   3.658   2.471
 1733SOL    HW1 6098   1.400   3.753   2.479
 1733SOL    HW2 6099   1.344   3.639   2.377
 1734SOL     OW 6100   5.024   3.162   1.739
 1734SOL    HW1 6101   4.997   3.075   1.781
 1734SOL    HW2 6102   4.947   3.225   1.740
 1735SOL     OW 6103   5.701   5.507   1.553
 1735SOL    HW1 6104   5.661   5.597   1.536
 1735SOL    HW2 6105   5.640   5.454   1.611
 1736SOL     OW 6106   4.703   1.534   0.201
 1736SOL    HW1 6107   4.792   1.515   0.160
 1736SOL    HW2 6108   4.644   1.453   0.191
 1737SOL     OW 6109   2.728   0.621   4.260
 1737SOL    HW1 6110   2.815   0.661   4.289
 1737SOL    HW2 6111   2.737   0.585   4.167
 1738SOL     OW 6112   2.522   2.391   3.666
 1738SOL    HW1 6113   2.499   2.294   3.669
 1738SOL    HW2 6114   2.487   2.435   3.749
 1739SOL     OW 6115   4.818   2.771   5.448
 1739SOL    HW1 6116   4.730   2.751   5.406
 1739SOL    HW2 6117   4.810   2.770   5.547
 1740SOL     OW 6118   6.962   1.518   6.813
 1740SOL    HW1 6119   6.891   1.577   6.852
 1740SOL    HW2 6120   6.920   1.434   6.778
 1741SOL     OW 6121   2.308   1.082   2.320
 1741SOL    HW1 6122   2.276   0.991   2.347
 1741SOL    HW2 6123   2.334   1.081   2.223
 1742SOL     OW 6124   3.893   5.829   5.865
 1742SOL    HW1 6125   3.898   5.750   5.926
 1742SOL    HW2 6126   3.798   5.845   5.839
 1743SOL     OW 6127   2.242   1.344   2.355
 1743SOL    HW1 6128   2.277   1.250   2.357
 1743SOL    HW2 6129   2.314   1.408   2.381
 1744SOL     OW 6130   0.902   6.654   1.725
 1744SOL    HW1 6131   0.946   6.628   1.639
 1744SOL    HW2 6132   0.973   6.675   1.793
 1745SOL     OW 6133   0.075   1.342   4.668
 1745SOL    HW1 6134   0.142   1.312   4.736
 1745SOL    HW2 6135   0.083   1.440   4.654
 1746SOL     OW 6136   1.945   6.183   5.603
 1746SOL    HW1 6137   1.936   6.084   5.600
 1746SOL    HW2 6138   1.861   6.225   5.568
 1747SOL     OW 6139   4.899   6.768   2.450
 1747SOL    HW1 6140   4.978   6.742   2.395
 1747SOL    HW2 6141   4.842   6.687   2.467
 1748SOL     OW 6142   6.976   0.809   3.712
 1748SOL    HW1 6143   0.034   0.859   3.698
 1748SOL    HW2 6144   6.901   0.874   3.725
 1749SOL     OW 6145   3.252   6.488   5.225
 1749SOL    HW1 6146   3.247   6.581   5.260
 1749SOL    HW2 6147   3.209   6.484   5.135
 1750SOL     OW 6148   5.549   0.866   3.546
 1750SOL    HW1 6149   5.546   0.945   3.485
 1750SOL    HW2 6150   5.551   0.898   3.641
 1751SOL     OW 6151   3.234   5.229   4.729
 1751SOL    HW1 6152   3.258   5.317   4.769
 1751SOL    HW2 6153   3.150   5.194   4.772
 1752SOL     OW 6154   6.363   2.456   1.913
 1752SOL    HW1 6155   6.307   2.461   1.830
 1752SOL    HW2 6156   6.454   2.423   1.889
 1753SOL     OW 6157   0.758   1.365   0.334
 1753SOL    HW1 6158   0.734   1.275   0.370
 1753SOL    HW2 6159   0.694   1.390   0.261
 1754SOL     OW 6160   3.767   3.187   1.248
 1754SOL    HW1 6161   3.848   3.146   1.291
 1754SOL    HW2 6162   3.787   3.280   1.220
 1755SOL     OW 6163   5.786   5.041   2.171
 1755SOL    HW1 6164   5.808   5.033   2.268
 1755SOL    HW2 6165   5.865   5.011   2.116
 1756SOL     OW 6166   4.569   4.467   5.839
 1756SOL    HW1 6167   4.494   4.497   5.780
 1756SOL    HW2 6168   4.599   4.376   5.811
 1757SOL     OW 6169   2.230   6.425   4.469
 1757SOL    HW1 6170   2.158   6.494   4.476
 1757SOL    HW2 6171   2.224   6.362   4.546
 1758SOL     OW 6172   3.035   0.398   3.392
 1758SOL    HW1 6173   2.946   0.400   3.436
 1758SOL    HW2 6174   3.043   0.316   3.335
 1759SOL     OW 6175   1.097   5.066   6.688
 1759SOL    HW1 6176   1.066   5.159   6.709
 1759SOL    HW2 6177   1.167   5.039   6.753
 1760SOL     OW 6178   6.101   1.316   1.718
 1760SOL    HW1 6179   6.154   1.261   1.783
 1760SOL    HW2 6180   6.013   1.340   1.758
 1761SOL     OW 6181   6.913   6.886   0.435
 1761SOL    HW1 6182   6.828   6.935   0.458
 1761SOL    HW2 6183   6.904   6.791   0.463
 1762SOL     OW 6184   6.422   1.292   5.008
 1762SOL    HW1 6185   6.489   1.338   4.951
 1762SOL    HW2 6186   6.440   1.312   5.105
 1763SOL     OW 6187   1.862   3.770   4.497
 1763SOL    HW1 6188   1.908   3.745   4.582
 1763SOL    HW2 6189   1.928   3.766   4.421
 1764SOL     OW 6190   1.568   3.631   3.229
 1764SOL    HW1 6191   1.536   3.537   3.236
 1764SOL    HW2 6192   1.529   3.673   3.147
 1765SOL     OW 6193   3.680   2.197   6.811
 1765SOL    HW1 6194   3.635   2.266   6.754
 1765SOL    HW2 6195   3.774   2.183   6.780
 1766SOL     OW 6196   4.987   3.028   4.343
 1766SOL    HW1 6197   5.045   3.107   4.364
 1766SOL    HW2 6198   5.016   2.950   4.397
 1767SOL     OW 6199   5.562   4.187   2.986
 1767SOL    HW1 6200   5.547   4.227   2.896
 1767SOL    HW2 6201   5.523   4.095   2.989
 1768SOL     OW 6202   3.853   1.054   4.672
 1768SOL    HW1 6203   3.870   0.967   4.625
 1768SOL    HW2 6204   3.939   1.094   4.702
 1769SOL     OW 6205   4.456   2.404   4.664
 1769SOL    HW1 6206   4.385   2.352   4.616
 1769SOL    HW2 6207   4.505   2.343   4.727
 1770SOL     OW 6208   1.425   5.828   4.920
 1770SOL    HW1 6209   1.452   5.814   5.015
 1770SOL    HW2 6210   1.475   5.906   4.882
 1771SOL     OW 6211   2.988   5.232   6.786
 1771SOL    HW1 6212   3.002   5.226   6.688
 1771SOL    HW2 6213   3.068   5.195   6.834
 1772SOL     OW 6214   3.279   6.515   3.496
 1772SOL    HW1 6215   3.376   6.539   3.486
 1772SOL    HW2 6216   3.253   6.451   3.424
 1773SOL     OW 6217   2.245   5.072   5.911
 1773SOL    HW1 6218   2.205   5.088   5.820
 1773SOL    HW2 6219   2.236   4.975   5.934
 1774SOL     OW 6220   4.641   6.291   1.469
 1774SOL    HW1 6221   4.620   6.261   1.376
 1774SOL    HW2 6222   4.727   6.248   1.498
 1775SOL     OW 6223   1.913   4.110   3.962
 1775SOL    HW1 6224   1.886   4.065   4.047
 1775SOL    HW2 6225   1.830   4.140   3.913
 1776SOL     OW 6226   3.325   0.148   3.696
 1776SOL    HW1 6227   3.312   0.049   3.689
 1776SOL    HW2 6228   3.405   0.175   3.644
 1777SOL     OW 6229   3.357   5.293   5.729
 1777SOL    HW1 6230   3.339   5.272   5.633
 1777SOL    HW2 6231   3.456   5.297   5.744
 1778SOL     OW 6232   4.265   3.537   5.433
 1778SOL    HW1 6233   4.361   3.550   5.409
 1778SOL    HW2 6234   4.206   3.574   5.361
 1779SOL     OW 6235   4.085   0.993   4.355
 1779SOL    HW1 6236   4.029   1.025   4.278
 1779SOL    HW2 6237   4.108   1.071   4.414
 1780SOL     OW 6238   3.214   2.915   7.006
 1780SOL    HW1 6239   3.257   2.848   6.944
 1780SOL    HW2 6240   3.166   2.984   6.953
 1781SOL     OW 6241   4.498   5.802   4.123
 1781SOL    HW1 6242   4.408   5.841   4.144
 1781SOL    HW2 6243   4.514   5.806   4.024
 1782SOL     OW 6244   2.991   1.845   2.812
 1782SOL    HW1 6245   2.915   1.862   2.874
 1782SOL    HW2 6246   3.075   1.831   2.864
 1783SOL     OW 6247   1.663   4.750   6.341
 1783SOL    HW1 6248   1.586   4.752   6.404
 1783SOL    HW2 6249   1.741   4.798   6.381
 1784SOL     OW 6250   3.832   1.091   6.297
 1784SOL    HW1 6251   3.849   1.127   6.205
 1784SOL    HW2 6252   3.762   1.147   6.342
 1785SOL     OW 6253   6.133   4.317   3.290
 1785SOL    HW1 6254   6.206   4.295   3.226
 1785SOL    HW2 6255   6.143   4.262   3.373
 1786SOL     OW 6256   1.955   2.640   0.363
 1786SOL    HW1 6257   2.035   2.683   0.321
 1786SOL    HW2 6258   1.982   2.553   0.404
 1787SOL     OW 6259   3.430   0.861   4.897
 1787SOL    HW1 6260   3.504   0.928   4.903
 1787SOL    HW2 6261   3.466   0.770   4.919
 1788SOL     OW 6262   3.108   2.828   0.543
 1788SOL    HW1 6263   3.022   2.788   0.575
 1788SOL    HW2 6264   3.102   2.927   0.548
 1789SOL     OW 6265   6.011   2.320   3.216
 1789SOL    HW1 6266   6.089   2.257   3.221
 1789SOL    HW2 6267   6.025   2.384   3.140
 1790SOL     OW 6268   3.832   5.920   4.213
 1790SOL    HW1 6269   3.766   5.903   4.286
 1790SOL    HW2 6270   3.893   5.995   4.240
 1791SOL     OW 6271   5.981   0.821   3.526
 1791SOL    HW1 6272   5.884   0.820   3.501
 1791SOL    HW2 6273   6.033   0.869   3.455
 1792SOL     OW 6274   6.838   2.547   4.787
 1792SOL    HW1 6275   6.775   2.482   4.743
 1792SOL    HW2 6276   6.916   2.565   4.726
 1793SOL     OW 6277   6.819   6.678   3.537
 1793SOL    HW1 6278   6.785   6.660   3.445
 1793SOL    HW2 6279   6.880   6.757   3.536
 1794SOL     OW 6280   5.720   6.238   5.896
 1794SOL    HW1 6281   5.664   6.185   5.959
 1794SOL    HW2 6282   5.664   6.269   5.819
 1795SOL     OW 6283   1.468   2.576   0.544
 1795SOL    HW1 6284   1.565   2.593   0.527
 1795SOL    HW2 6285   1.419   2.571   0.457
 1796SOL     OW 6286   2.465   0.418   4.324
 1796SOL    HW1 6287   2.481   0.516   4.336
 1796SOL    HW2 6288   2.479   0.370   4.410
 1797SOL     OW 6289   1.667   6.993   6.730
 1797SOL    HW1 6290   1.685   0.012   6.817
 1797SOL    HW2 6291   1.740   6.926   6.712
 1798SOL     OW 6292   5.437   2.593   4.164
 1798SOL    HW1 6293   5.473   2.679   4.128
 1798SOL    HW2 6294   5.479   2.573   4.252
 1799SOL     OW 6295   6.764   1.824   5.804
 1799SOL    HW1 6296   6.714   1.863   5.727
 1799SOL    HW2 6297   6.764   1.889   5.880
 1800SOL     OW 6298   3.987   4.758   1.952
 1800SOL    HW1 6299   4.023   4.770   2.045
 1800SOL    HW2 6300   3.915   4.826   1.936
 1801SOL     OW 6301   0.313   0.576   2.120
 1801SOL    HW1 6302   0.232   0.623   2.156
 1801SOL    HW2 6303   0.285   0.499   2.064
 1802SOL     OW 6304   5.711   5.414   2.976
 1802SOL    HW1 6305   5.687   5.397   3.071
 1802SOL    HW2 6306   5.735   5.511   2.964
 1803SOL     OW 6307   0.767   5.840   6.859
 1803SOL    HW1 6308   0.810   5.750   6.870
 1803SOL    HW2 6309   0.837   5.908   6.838
 1804SOL     OW 6310   2.639   3.952   5.337
 1804SOL    HW1 6311   2.629   4.015   5.414
 1804SOL    HW2 6312   2.559   3.959   5.277
 1805SOL     OW 6313   6.148   3.979   5.681
 1805SOL    HW1 6314   6.172   3.981   5.584
 1805SOL    HW2 6315   6.074   4.045   5.698
 1806SOL     OW 6316   0.107   0.925   0.290
 1806SOL    HW1 6317   0.150   0.852   0.238
 1806SOL    HW2 6318   0.025   0.891   0.335
 1807SOL     OW 6319   5.061   2.795   5.255
 1807SOL    HW1 6320   4.979   2.775   5.309
 1807SOL    HW2 6321   5.046   2.879   5.203
 1808SOL     OW 6322   0.509   4.262   6.768
 1808SOL    HW1 6323   0.582   4.197   6.748
 1808SOL    HW2 6324   0.479   4.306   6.684
 1809SOL     OW 6325   2.196   2.225   4.635
 1809SOL    HW1 6326   2.186   2.324   4.649
 1809SOL    HW2 6327   2.141   2.176   4.702
 1810SOL     OW 6328   3.326   6.891   3.243
 1810SOL    HW1 6329   3.404   6.953   3.240
 1810SOL    HW2 6330   3.256   6.927   3.305
 1811SOL     OW 6331   5.813   5.648   3.194
 1811SOL    HW1 6332   5.906   5.613   3.193
 1811SOL    HW2 6333   5.780   5.650   3.289
 1812SOL     OW 6334   4.357   6.491   5.299
 1812SOL    HW1 6335   4.380   6.587   5.313
 1812SOL    HW2 6336   4.436   6.443   5.259
 1813SOL     OW 6337   6.558   5.267   1.119
 1813SOL    HW1 6338   6.612   5.236   1.041
 1813SOL    HW2 6339   6.618   5.284   1.197
 1814SOL     OW 6340   6.068   0.950   0.845
 1814SOL    HW1 6341   6.103   0.864   0.808
 1814SOL    HW2 6342   6.119   0.974   0.928
 1815SOL     OW 6343   7.026   2.354   2.422
 1815SOL    HW1 6344   6.933   2.324   2.443
 1815SOL    HW2 6345   0.034   2.409   2.498
 1816SOL     OW 6346   3.108   3.428   0.938
 1816SOL    HW1 6347   3.081   3.520   0.966
 1816SOL    HW2 6348   3.078   3.412   0.844
 1817SOL     OW 6349   3.145   0.034   2.795
 1817SOL    HW1 6350   3.125   0.017   2.699
 1817SOL    HW2 6351   3.193   6.981   2.833
 1818SOL     OW 6352   1.753   6.574   2.888
 1818SOL    HW1 6353   1.763   6.654   2.947
 1818SOL    HW2 6354   1.733   6.603   2.795
 1819SOL     OW 6355   1.511   4.951   1.763
 1819SOL    HW1 6356   1.455   4.943   1.681
 1819SOL    HW2 6357   1.548   4.861   1.787
 1820SOL     OW 6358   4.833   0.991   2.312
 1820SOL    HW1 6359   4.865   1.032   2.397
 1820SOL    HW2 6360   4.734   0.979   2.316
 1821SOL     OW 6361   0.680   1.137   2.190
 1821SOL    HW1 6362   0.737   1.078   2.133
 1821SOL    HW2 6363   0.677   1.229   2.151
 1822SOL     OW 6364   2.465   3.084   1.123
 1822SOL    HW1 6365   2.416   3.086   1.035
 1822SOL    HW2 6366   2.409   3.038   1.191
 1823SOL     OW 6367   3.135   5.747   2.921
 1823SOL    HW1 6368   3.079   5.747   2.838
 1823SOL    HW2 6369   3.169   5.655   2.939
 1824SOL     OW 6370   3.350   2.603   1.180
 1824SOL    HW1 6371   3.425   2.638   1.236
 1824SOL    HW2 6372   3.345   2.504   1.189
 1825SOL     OW 6373   1.665   1.644   3.049
 1825SOL    HW1 6374   1.653   1.579   2.973
 1825SOL    HW2 6375   1.759   1.678   3.049
 1826SOL     OW 6376   3.404   0.491   1.262
 1826SOL    HW1 6377   3.339   0.434   1.213
 1826SOL    HW2 6378   3.489   0.440   1.276
 1827SOL     OW 6379   0.337   5.578   2.330
 1827SOL    HW1 6380   0.300   5.613   2.416
 1827SOL    HW2 6381   0.419   5.523   2.349
 1828SOL     OW 6382   1.137   1.963   0.317
 1828SOL    HW1 6383   1.214   1.908   0.285
 1828SOL    HW2 6384   1.072   1.975   0.242
 1829SOL     OW 6385   4.081   0.353   3.691
 1829SOL    HW1 6386   3.985   0.366   3.713
 1829SOL    HW2 6387   4.091   0.334   3.593
 1830SOL     OW 6388   5.690   5.685   4.300
 1830SOL    HW1 6389   5.726   5.621   4.233
 1830SOL    HW2 6390   5.685   5.777   4.260
 1831SOL     OW 6391   6.073   0.655   2.561
 1831SOL    HW1 6392   6.023   0.582   2.514
 1831SOL    HW2 6393   6.166   0.661   2.525
 1832SOL     OW 6394   5.232   1.689   0.697
 1832SOL    HW1 6395   5.294   1.764   0.720
 1832SOL    HW2 6396   5.142   1.708   0.735
 1833SOL     OW 6397   5.422   0.802   5.176
 1833SOL    HW1 6398   5.325   0.788   5.198
 1833SOL    HW2 6399   5.459   0.718   5.136
 1834SOL     OW 6400   2.761   3.760   0.553
 1834SOL    HW1 6401   2.687   3.747   0.619
 1834SOL    HW2 6402   2.849   3.755   0.600
 1835SOL     OW 6403   1.255   4.520   1.478
 1835SOL    HW1 6404   1.216   4.467   1.553
 1835SOL    HW2 6405   1.254   4.465   1.395
 1836SOL     OW 6406   5.666   1.572   0.963
 1836SOL    HW1 6407   5.735   1.547   1.032
 1836SOL    HW2 6408   5.615   1.652   0.994
 1837SOL     OW 6409   0.867   2.215   3.914
 1837SOL    HW1 6410   0.835   2.162   3.992
 1837SOL    HW2 6411   0.930   2.286   3.945
 1838SOL     OW 6412   0.198   2.198   4.079
 1838SOL    HW1 6413   0.170   2.120   4.135
 1838SOL    HW2 6414   0.195   2.172   3.983
 1839SOL     OW 6415   4.431   2.459   5.118
 1839SOL    HW1 6416   4.457   2.486   5.025
 1839SOL    HW2 6417   4.340   2.495   5.138
 1840SOL     OW 6418   3.724   5.841   1.248
 1840SOL    HW1 6419   3.752   5.760   1.299
 1840SOL    HW2 6420   3.806   5.887   1.213
 1841SOL     OW 6421   2.405   2.757   4.303
 1841SOL    HW1 6422   2.403   2.813   4.386
 1841SOL    HW2 6423   2.369   2.810   4.227
 1842SOL     OW 6424   0.734   5.611   0.592
 1842SOL    HW1 6425   0.715   5.514   0.574
 1842SOL    HW2 6426   0.764   5.655   0.507
 1843SOL     OW 6427   0.545   1.953   4.636
 1843SOL    HW1 6428   0.521   1.991   4.547
 1843SOL    HW2 6429   0.618   2.008   4.677
 1844SOL     OW 6430   3.265   0.921   5.348
 1844SOL    HW1 6431   3.200   0.978   5.298
 1844SOL    HW2 6432   3.347   0.906   5.292
 1845SOL     OW 6433   2.164   6.720   5.500
 1845SOL    HW1 6434   2.128   6.804   5.541
 1845SOL    HW2 6435   2.089   6.671   5.454
 1846SOL     OW 6436   4.123   1.895   0.555
 1846SOL    HW1 6437   4.152   1.982   0.594
 1846SOL    HW2 6438   4.195   1.860   0.494
 1847SOL     OW 6439   1.464   0.874   6.430
 1847SOL    HW1 6440   1.390   0.807   6.436
 1847SOL    HW2 6441   1.515   0.875   6.516
 1848SOL     OW 6442   1.092   7.014   1.994
 1848SOL    HW1 6443   1.120   7.026   2.089
 1848SOL    HW2 6444   1.169   0.009   1.934
 1849SOL     OW 6445   3.655   1.805   0.671
 1849SOL    HW1 6446   3.683   1.762   0.585
 1849SOL    HW2 6447   3.560   1.779   0.691
 1850SOL     OW 6448   6.496   3.035   2.565
 1850SOL    HW1 6449   6.427   3.015   2.495
 1850SOL    HW2 6450   6.571   3.086   2.524
 1851SOL     OW 6451   0.537   1.919   1.393
 1851SOL    HW1 6452   0.509   1.969   1.312
 1851SOL    HW2 6453   0.621   1.868   1.374
 1852SOL     OW 6454   5.986   3.901   1.350
 1852SOL    HW1 6455   5.892   3.932   1.348
 1852SOL    HW2 6456   6.031   3.934   1.434
 1853SOL     OW 6457   0.487   3.010   2.604
 1853SOL    HW1 6458   0.414   3.022   2.537
 1853SOL    HW2 6459   0.558   3.078   2.589
 1854SOL     OW 6460   2.613   5.951   2.987
 1854SOL    HW1 6461   2.673   6.016   2.939
 1854SOL    HW2 6462   2.604   5.868   2.933
 1855SOL     OW 6463   4.459   4.199   6.866
 1855SOL    HW1 6464   4.549   4.160   6.845
 1855SOL    HW2 6465   4.422   4.155   6.948
 1856SOL     OW 6466   6.535   3.735   5.209
 1856SOL    HW1 6467   6.493   3.709   5.122
 1856SOL    HW2 6468   6.633   3.715   5.206
 1857SOL     OW 6469   3.363   0.759   6.351
 1857SOL    HW1 6470   3.272   0.736   6.385
 1857SOL    HW2 6471   3.355   0.810   6.265
 1858SOL     OW 6472   6.272   2.619   3.959
 1858SOL    HW1 6473   6.173   2.602   3.952
 1858SOL    HW2 6474   6.321   2.533   3.946
 1859SOL     OW 6475   4.356   1.467   3.081
 1859SOL    HW1 6476   4.258   1.462   3.064
 1859SOL    HW2 6477   4.374   1.542   3.145
 1860SOL     OW 6478   6.197   0.616   3.524
 1860SOL    HW1 6479   6.130   0.691   3.526
 1860SOL    HW2 6480   6.289   0.653   3.525
 1861SOL     OW 6481   5.270   6.744   2.577
 1861SOL    HW1 6482   5.188   6.687   2.583
 1861SOL    HW2 6483   5.281   6.795   2.662
 1862SOL     OW 6484   2.210   0.049   6.397
 1862SOL    HW1 6485   2.282   0.104   6.439
 1862SOL    HW2 6486   2.147   0.109   6.348
 1863SOL     OW 6487   1.720   1.782   7.008
 1863SOL    HW1 6488   1.651   1.729   0.029
 1863SOL    HW2 6489   1.795   1.722   6.979
 1864SOL     OW 6490   1.073   6.745   5.576
 1864SOL    HW1 6491   1.159   6.772   5.533
 1864SOL    HW2 6492   1.029   6.826   5.615
 1865SOL     OW 6493   3.324   7.009   5.961
 1865SOL    HW1 6494   3.233   0.022   5.967
 1865SOL    HW2 6495   3.323   6.930   5.901
 1866SOL     OW 6496   4.518   5.036   3.194
 1866SOL    HW1 6497   4.485   5.035   3.100
 1866SOL    HW2 6498   4.442   5.058   3.255
 1867SOL     OW 6499   1.061   4.553   0.371
 1867SOL    HW1 6500   0.973   4.595   0.352
 1867SOL    HW2 6501   1.047   4.464   0.415
 1868SOL     OW 6502   4.900   3.782   0.677
 1868SOL    HW1 6503   4.971   3.715   0.699
 1868SOL    HW2 6504   4.870   3.828   0.761
 1869SOL     OW 6505   6.194   2.435   5.725
 1869SOL    HW1 6506   6.235   2.464   5.639
 1869SOL    HW2 6507   6.255   2.459   5.801
 1870SOL     OW 6508   1.905   3.030   5.905
 1870SOL    HW1 6509   1.955   3.091   5.966
 1870SOL    HW2 6510   1.807   3.049   5.911
 1871SOL     OW 6511   0.499   0.423   6.863
 1871SOL    HW1 6512   0.567   0.490   6.894
 1871SOL    HW2 6513   0.409   0.466   6.858
 1872SOL     OW 6514   3.790   2.957   0.277
 1872SOL    HW1 6515   3.865   3.023   0.288
 1872SOL    HW2 6516   3.735   2.984   0.198
 1873SOL     OW 6517   4.799   1.537   5.470
 1873SOL    HW1 6518   4.752   1.603   5.528
 1873SOL    HW2 6519   4.890   1.570   5.447
 1874SOL     OW 6520   3.037   1.143   0.764
 1874SOL    HW1 6521   3.097   1.078   0.717
 1874SOL    HW2 6522   3.089   1.223   0.792
 1875SOL     OW 6523   0.550   1.490   6.894
 1875SOL    HW1 6524   0.645   1.459   6.906
 1875SOL    HW2 6525   0.549   1.588   6.875
 1876SOL     OW 6526   3.648   0.003   5.929
 1876SOL    HW1 6527   3.549   7.024   5.921
 1876SOL    HW2 6528   3.676   0.099   5.931
 1877SOL     OW 6529   0.576   0.210   2.846
 1877SOL    HW1 6530   0.478   0.209   2.865
 1877SOL    HW2 6531   0.617   0.293   2.886
 1878SOL     OW 6532   6.498   1.929   3.858
 1878SOL    HW1 6533   6.570   1.987   3.820
 1878SOL    HW2 6534   6.409   1.972   3.843
 1879SOL     OW 6535   0.992   4.439   4.323
 1879SOL    HW1 6536   0.978   4.527   4.367
 1879SOL    HW2 6537   1.086   4.408   4.339
 1880SOL     OW 6538   6.853   1.738   4.809
 1880SOL    HW1 6539   6.953   1.749   4.813
 1880SOL    HW2 6540   6.809   1.822   4.839
 1881SOL     OW 6541   5.949   1.933   3.099
 1881SOL    HW1 6542   5.927   2.017   3.051
 1881SOL    HW2 6543   6.048   1.925   3.109
 1882SOL     OW 6544   1.589   4.044   6.226
 1882SOL    HW1 6545   1.535   4.115   6.180
 1882SOL    HW2 6546   1.657   4.007   6.162
 1883SOL     OW 6547   6.814   2.010   3.386
 1883SOL    HW1 6548   6.722   2.043   3.368
 1883SOL    HW2 6549   6.847   1.957   3.307
 1884SOL     OW 6550   0.077   1.769   0.492
 1884SOL    HW1 6551   7.026   1.829   0.471
 1884SOL    HW2 6552   0.072   1.687   0.436
 1885SOL     OW 6553   2.228   1.889   6.312
 1885SOL    HW1 6554   2.236   1.791   6.295
 1885SOL    HW2 6555   2.137   1.920   6.283
 1886SOL     OW 6556   1.404   0.385   1.640
 1886SOL    HW1 6557   1.459   0.388   1.724
 1886SOL    HW2 6558   1.452   0.331   1.571
 1887SOL     OW 6559   1.144   5.738   5.571
 1887SOL    HW1 6560   1.212   5.678   5.613
 1887SOL    HW2 6561   1.092   5.784   5.644
 1888SOL     OW 6562   3.004   2.531   6.889
 1888SOL    HW1 6563   3.047   2.547   6.977
 1888SOL    HW2 6564   2.907   2.510   6.902
 1889SOL     OW 6565   0.642   3.566   5.160
 1889SOL    HW1 6566   0.603   3.509   5.088
 1889SOL    HW2 6567   0.574   3.578   5.233
 1890SOL     OW 6568   1.501   5.981   4.062
 1890SOL    HW1 6569   1.539   6.068   4.033
 1890SOL    HW2 6570   1.426   5.955   4.001
 1891SOL     OW 6571   5.032   2.780   1.681
 1891SOL    HW1 6572   5.019   2.824   1.770
 1891SOL    HW2 6573   4.943   2.760   1.640
 1892SOL     OW 6574   1.593   0.462   2.474
 1892SOL    HW1 6575   1.566   0.462   2.571
 1892SOL    HW2 6576   1.640   0.376   2.453
 1893SOL     OW 6577   3.274   3.415   1.842
 1893SOL    HW1 6578   3.232   3.324   1.845
 1893SOL    HW2 6579   3.357   3.412   1.787
 1894SOL     OW 6580   4.055   3.818   3.497
 1894SOL    HW1 6581   4.151   3.838   3.477
 1894SOL    HW2 6582   3.999   3.843   3.417
 1895SOL     OW 6583   4.071   0.330   1.068
 1895SOL    HW1 6584   4.140   0.377   1.123
 1895SOL    HW2 6585   4.066   0.234   1.096
 1896SOL     OW 6586   5.832   1.563   1.596
 1896SOL    HW1 6587   5.881   1.633   1.544
 1896SOL    HW2 6588   5.845   1.474   1.552
 1897SOL     OW 6589   2.076   5.344   1.472
 1897SOL    HW1 6590   2.172   5.318   1.486
 1897SOL    HW2 6591   2.024   5.264   1.440
 1898SOL     OW 6592   2.214   5.245   3.959
 1898SOL    HW1 6593   2.220   5.344   3.944
 1898SOL    HW2 6594   2.177   5.227   4.050
 1899SOL     OW 6595   0.190   1.201   1.174
 1899SOL    HW1 6596   0.214   1.117   1.223
 1899SOL    HW2 6597   0.272   1.241   1.132
 1900SOL     OW 6598   2.316   0.797   6.813
 1900SOL    HW1 6599   2.384   0.768   6.880
 1900SOL    HW2 6600   2.356   0.864   6.751
 1901SOL     OW 6601   1.852   1.990   0.662
 1901SOL    HW1 6602   1.790   2.028   0.730
 1901SOL    HW2 6603   1.935   2.046   0.658
 1902SOL     OW 6604   2.166   0.724   4.987
 1902SOL    HW1 6605   2.242   0.660   4.997
 1902SOL    HW2 6606   2.088   0.678   4.946
 1903SOL     OW 6607   0.447   3.383   3.185
 1903SOL    HW1 6608   0.545   3.366   3.200
 1903SOL    HW2 6609   0.436   3.472   3.140
 1904SOL     OW 6610   5.935   5.031   3.799
 1904SOL    HW1 6611   5.936   4.951   3.859
 1904SOL    HW2 6612   5.936   5.002   3.704
 1905SOL     OW 6613   0.709   0.129   3.450
 1905SOL    HW1 6614   0.683   0.120   3.354
 1905SOL    HW2 6615   0.690   0.222   3.481
 1906SOL     OW 6616   2.841   0.201   5.297
 1906SOL    HW1 6617   2.745   0.219   5.318
 1906SOL    HW2 6618   2.847   0.139   5.219
 1907SOL     OW 6619   4.276   2.090   1.816
 1907SOL    HW1 6620   4.372   2.063   1.824
 1907SOL    HW2 6621   4.247   2.083   1.721
 1908SOL     OW 6622   3.650   6.000   6.178
 1908SOL    HW1 6623   3.661   6.078   6.240
 1908SOL    HW2 6624   3.685   6.024   6.087
 1909SOL     OW 6625   0.857   3.241   3.658
 1909SOL    HW1 6626   0.769   3.288   3.668
 1909SOL    HW2 6627   0.843   3.156   3.607
 1910SOL     OW 6628   0.230   5.297   6.241
 1910SOL    HW1 6629   0.233   5.395   6.256
 1910SOL    HW2 6630   0.185   5.278   6.153
 1911SOL     OW 6631   0.309   3.532   4.579
 1911SOL    HW1 6632   0.385   3.493   4.527
 1911SOL    HW2 6633   0.335   3.542   4.675
 1912SOL     OW 6634   2.869   6.264   1.762
 1912SOL    HW1 6635   2.955   6.307   1.737
 1912SOL    HW2 6636   2.842   6.198   1.693
 1913SOL     OW 6637   2.981   0.731   4.292
 1913SOL    HW1 6638   3.043   0.679   4.233
 1913SOL    HW2 6639   3.032   0.768   4.369
 1914SOL     OW 6640   3.312   2.816   6.748
 1914SOL    HW1 6641   3.290   2.901   6.700
 1914SOL    HW2 6642   3.411   2.807   6.757
 1915SOL     OW 6643   3.920   2.492   5.625
 1915SOL    HW1 6644   3.870   2.509   5.710
 1915SOL    HW2 6645   3.886   2.408   5.582
 1916SOL     OW 6646   4.021   5.948   1.155
 1916SOL    HW1 6647   3.998   5.858   1.117
 1916SOL    HW2 6648   4.019   6.016   1.082
 1917SOL     OW 6649   2.181   3.586   0.100
 1917SOL    HW1 6650   2.241   3.661   0.071
 1917SOL    HW2 6651   2.180   3.516   0.029
 1918SOL     OW 6652   1.148   1.309   4.859
 1918SOL    HW1 6653   1.109   1.229   4.905
 1918SOL    HW2 6654   1.239   1.285   4.824
 1919SOL     OW 6655   1.700   1.720   1.566
 1919SOL    HW1 6656   1.714   1.705   1.664
 1919SOL    HW2 6657   1.742   1.807   1.539
 1920SOL     OW 6658   6.873   3.884   3.104
 1920SOL    HW1 6659   6.878   3.801   3.048
 1920SOL    HW2 6660   6.963   3.927   3.108
 1921SOL     OW 6661   1.847   3.258   7.025
 1921SOL    HW1 6662   1.938   3.299   0.007
 1921SOL    HW2 6663   1.791   3.315   6.964
 1922SOL     OW 6664   2.965   3.711   1.791
 1922SOL    HW1 6665   3.015   3.780   1.842
 1922SOL    HW2 6666   2.884   3.752   1.749
 1923SOL     OW 6667   4.234   2.011   6.625
 1923SOL    HW1 6668   4.236   1.959   6.540
 1923SOL    HW2 6669   4.224   1.948   6.702
 1924SOL     OW 6670   4.472   6.745   0.162
 1924SOL    HW1 6671   4.385   6.791   0.176
 1924SOL    HW2 6672   4.540   6.782   0.225
 1925SOL     OW 6673   1.249   5.268   1.428
 1925SOL    HW1 6674   1.176   5.330   1.457
 1925SOL    HW2 6675   1.318   5.261   1.500
 1926SOL     OW 6676   3.213   0.382   2.178
 1926SOL    HW1 6677   3.135   0.330   2.144
 1926SOL    HW2 6678   3.181   0.468   2.218
 1927SOL     OW 6679   2.254   4.345   0.636
 1927SOL    HW1 6680   2.353   4.346   0.628
 1927SOL    HW2 6681   2.229   4.335   0.733
 1928SOL     OW 6682   5.437   4.272   4.904
 1928SOL    HW1 6683   5.384   4.273   4.820
 1928SOL    HW2 6684   5.501   4.195   4.902
 1929SOL     OW 6685   2.229   0.546   1.705
 1929SOL    HW1 6686   2.269   0.596   1.629
 1929SOL    HW2 6687   2.130   0.564   1.709
 1930SOL     OW 6688   5.380   2.984   6.533
 1930SOL    HW1 6689   5.332   2.920   6.594
 1930SOL    HW2 6690   5.313   3.045   6.490
 1931SOL     OW 6691   0.985   1.695   0.181
 1931SOL    HW1 6692   0.977   1.791   0.156
 1931SOL    HW2 6693   0.910   1.670   0.242
 1932SOL     OW 6694   4.598   2.524   3.536
 1932SOL    HW1 6695   4.568   2.558   3.625
 1932SOL    HW2 6696   4.635   2.432   3.545
 1933SOL     OW 6697   1.277   2.772   0.701
 1933SOL    HW1 6698   1.360   2.717   0.699
 1933SOL    HW2 6699   1.199   2.715   0.677
 1934SOL     OW 6700   0.209   1.016   4.922
 1934SOL    HW1 6701   0.270   0.939   4.941
 1934SOL    HW2 6702   0.140   1.023   4.995
 1935SOL     OW 6703   4.299   4.767   3.708
 1935SOL    HW1 6704   4.306   4.667   3.711
 1935SOL    HW2 6705   4.330   4.800   3.619
 1936SOL     OW 6706   4.869   3.766   4.020
 1936SOL    HW1 6707   4.857   3.669   3.996
 1936SOL    HW2 6708   4.873   3.821   3.936
 1937SOL     OW 6709   4.528   6.280   0.212
 1937SOL    HW1 6710   4.599   6.217   0.179
 1937SOL    HW2 6711   4.462   6.297   0.139
 1938SOL     OW 6712   1.640   1.763   0.872
 1938SOL    HW1 6713   1.709   1.793   0.938
 1938SOL    HW2 6714   1.590   1.843   0.838
 1939SOL     OW 6715   0.207   6.263   4.083
 1939SOL    HW1 6716   0.153   6.347   4.077
 1939SOL    HW2 6717   0.147   6.185   4.100
 1940SOL     OW 6718   6.225   4.548   1.224
 1940SOL    HW1 6719   6.197   4.468   1.278
 1940SOL    HW2 6720   6.143   4.598   1.195
 1941SOL     OW 6721   1.338   3.130   3.407
 1941SOL    HW1 6722   1.318   3.088   3.496
 1941SOL    HW2 6723   1.346   3.058   3.338
 1942SOL     OW 6724   5.611   3.669   2.862
 1942SOL    HW1 6725   5.552   3.624   2.929
 1942SOL    HW2 6726   5.568   3.666   2.772
 1943SOL     OW 6727   0.890   1.127   2.572
 1943SOL    HW1 6728   0.936   1.164   2.653
 1943SOL    HW2 6729   0.902   1.027   2.570
 1944SOL     OW 6730   6.119   4.323   0.184
 1944SOL    HW1 6731   6.151   4.417   0.193
 1944SOL    HW2 6732   6.148   4.285   0.096
 1945SOL     OW 6733   3.882   6.277   0.603
 1945SOL    HW1 6734   3.956   6.213   0.585
 1945SOL    HW2 6735   3.853   6.270   0.698
 1946SOL     OW 6736   5.830   6.609   1.376
 1946SOL    HW1 6737   5.924   6.615   1.410
 1946SOL    HW2 6738   5.827   6.545   1.299
 1947SOL     OW 6739   5.881   5.589   4.122
 1947SOL    HW1 6740   5.938   5.556   4.047
 1947SOL    HW2 6741   5.908   5.682   4.147
 1948SOL     OW 6742   5.536   5.440   2.763
 1948SOL    HW1 6743   5.440   5.466   2.772
 1948SOL    HW2 6744   5.575   5.426   2.854
 1949SOL     OW 6745   4.198   3.775   0.438
 1949SOL    HW1 6746   4.266   3.711   0.475
 1949SOL    HW2 6747   4.120   3.723   0.404
 1950SOL     OW 6748   4.064   3.216   3.358
 1950SOL    HW1 6749   4.094   3.305   3.324
 1950SOL    HW2 6750   3.989   3.182   3.302
 1951SOL     OW 6751   0.101   4.232   6.349
 1951SOL    HW1 6752   0.131   4.324   6.376
 1951SOL    HW2 6753   0.163   4.164   6.387
 1952SOL     OW 6754   5.591   5.166   1.262
 1952SOL    HW1 6755   5.564   5.262   1.248
 1952SOL    HW2 6756   5.632   5.130   1.178
 1953SOL     OW 6757   6.663   1.521   6.338
 1953SOL    HW1 6758   6.745   1.569   6.368
 1953SOL    HW2 6759   6.658   1.432   6.383
 1954SOL     OW 6760   5.479   6.860   1.378
 1954SOL    HW1 6761   5.466   6.894   1.472
 1954SOL    HW2 6762   5.522   6.932   1.323
 1955SOL     OW 6763   0.039   1.000   1.806
 1955SOL    HW1 6764   7.005   0.959   1.874
 1955SOL    HW2 6765   7.026   0.986   1.715
 1956SOL     OW 6766   4.504   6.843   2.832
 1956SOL    HW1 6767   4.539   6.751   2.822
 1956SOL    HW2 6768   4.573   6.909   2.804
 1957SOL     OW 6769   5.413   3.953   3.792
 1957SOL    HW1 6770   5.346   4.004   3.846
 1957SOL    HW2 6771   5.374   3.865   3.764
 1958SOL     OW 6772   4.789   1.206   1.729
 1958SOL    HW1 6773   4.756   1.300   1.728
 1958SOL    HW2 6774   4.768   1.164   1.817
 1959SOL     OW 6775   6.781   6.480   3.893
 1959SOL    HW1 6776   6.848   6.478   3.967
 1959SOL    HW2 6777   6.815   6.428   3.815
 1960SOL     OW 6778   0.478   3.603   3.023
 1960SOL    HW1 6779   0.387   3.579   2.990
 1960SOL    HW2 6780   0.546   3.542   2.982
 1961SOL     OW 6781   6.396   4.375   4.532
 1961SOL    HW1 6782   6.338   4.436   4.478
 1961SOL    HW2 6783   6.490   4.409   4.532
 1962SOL     OW 6784   1.096   5.928   2.560
 1962SOL    HW1 6785   1.182   5.878   2.564
 1962SOL    HW2 6786   1.084   5.979   2.645
 1963SOL     OW 6787   1.568   2.136   1.228
 1963SOL    HW1 6788   1.488   2.192   1.208
 1963SOL    HW2 6789   1.544   2.039   1.224
 1964SOL     OW 6790   4.937   4.634   1.786
 1964SOL    HW1 6791   5.010   4.700   1.769
 1964SOL    HW2 6792   4.880   4.625   1.704
 1965SOL     OW 6793   1.833   2.812   4.112
 1965SOL    HW1 6794   1.923   2.782   4.144
 1965SOL    HW2 6795   1.787   2.735   4.066
 1966SOL     OW 6796   1.615   5.190   1.095
 1966SOL    HW1 6797   1.565   5.118   1.143
 1966SOL    HW2 6798   1.553   5.263   1.069
 1967SOL     OW 6799   6.295   2.663   4.245
 1967SOL    HW1 6800   6.314   2.660   4.147
 1967SOL    HW2 6801   6.328   2.749   4.283
 1968SOL     OW 6802   2.737   1.296   5.312
 1968SOL    HW1 6803   2.682   1.374   5.283
 1968SOL    HW2 6804   2.696   1.253   5.392
 1969SOL     OW 6805   3.233   0.702   1.648
 1969SOL    HW1 6806   3.185   0.714   1.561
 1969SOL    HW2 6807   3.322   0.748   1.642
 1970SOL     OW 6808   0.003   0.162   5.734
 1970SOL    HW1 6809   6.974   0.080   5.720
 1970SOL    HW2 6810   0.054   0.153   5.820
 1971SOL     OW 6811   0.484   0.756   5.459
 1971SOL    HW1 6812   0.582   0.768   5.444
 1971SOL    HW2 6813   0.469   0.675   5.517
 1972SOL     OW 6814   6.063   2.714   1.445
 1972SOL    HW1 6815   6.096   2.640   1.386
 1972SOL    HW2 6816   6.059   2.682   1.540
 1973SOL     OW 6817   2.591   4.133   1.637
 1973SOL    HW1 6818   2.537   4.083   1.705
 1973SOL    HW2 6819   2.534   4.205   1.596
 1974SOL     OW 6820   4.472   6.928   4.993
 1974SOL    HW1 6821   4.519   6.922   4.905
 1974SOL    HW2 6822   4.528   6.980   5.058
 1975SOL     OW 6823   2.103   2.668   4.195
 1975SOL    HW1 6824   2.072   2.603   4.265
 1975SOL    HW2 6825   2.182   2.718   4.229
 1976SOL     OW 6826   5.057   6.360   6.462
 1976SOL    HW1 6827   5.074   6.396   6.554
 1976SOL    HW2 6828   5.111   6.277   6.448
 1977SOL     OW 6829   2.223   3.335   5.856
 1977SOL    HW1 6830   2.247   3.290   5.770
 1977SOL    HW2 6831   2.296   3.398   5.882
 1978SOL     OW 6832   1.469   6.042   2.775
 1978SOL    HW1 6833   1.455   6.043   2.874
 1978SOL    HW2 6834   1.395   6.092   2.730
 1979SOL     OW 6835   5.432   5.209   0.038
 1979SOL    HW1 6836   5.446   5.241   6.971
 1979SOL    HW2 6837   5.339   5.174   0.047
 1980SOL     OW 6838   3.639   0.599   2.797
 1980SOL    HW1 6839   3.542   0.574   2.803
 1980SOL    HW2 6840   3.672   0.625   2.888
 1981SOL     OW 6841   5.548   2.636   2.124
 1981SOL    HW1 6842   5.463   2.683   2.145
 1981SOL    HW2 6843   5.552   2.549   2.173
 1982SOL     OW 6844   6.931   3.855   3.684
 1982SOL    HW1 6845   6.864   3.841   3.611
 1982SOL    HW2 6846   7.014   3.895   3.645
 1983SOL     OW 6847   0.589   0.290   1.279
 1983SOL    HW1 6848   0.596   0.208   1.222
 1983SOL    HW2 6849   0.553   0.366   1.224
 1984SOL     OW 6850   4.873   2.466   5.563
 1984SOL    HW1 6851   4.912   2.473   5.471
 1984SOL    HW2 6852   4.848   2.557   5.596
 1985SOL     OW 6853   6.718   5.554   2.165
 1985SOL    HW1 6854   6.708   5.652   2.152
 1985SOL    HW2 6855   6.787   5.537   2.236
 1986SOL     OW 6856   2.748   1.288   6.208
 1986SOL    HW1 6857   2.833   1.262   6.255
 1986SOL    HW2 6858   2.703   1.206   6.173
 1987SOL     OW 6859   2.099   1.736   3.988
 1987SOL    HW1 6860   2.161   1.660   3.972
 1987SOL    HW2 6861   2.139   1.821   3.952
 1988SOL     OW 6862   6.953   1.555   1.032
 1988SOL    HW1 6863   6.925   1.623   1.099
 1988SOL    HW2 6864   7.002   1.600   0.957
 1989SOL     OW 6865   2.497   6.117   4.002
 1989SOL    HW1 6866   2.430   6.169   3.949
 1989SOL    HW2 6867   2.553   6.062   3.940
 1990SOL     OW 6868   3.573   6.954   0.735
 1990SOL    HW1 6869   3.601   6.861   0.756
 1990SOL    HW2 6870   3.615   6.983   0.649
 1991SOL     OW 6871   2.384   5.232   0.211
 1991SOL    HW1 6872   2.436   5.176   0.276
 1991SOL    HW2 6873   2.445   5.293   0.162
 1992SOL     OW 6874   6.879   0.211   0.801
 1992SOL    HW1 6875   6.836   0.122   0.783
 1992SOL    HW2 6876   6.869   0.234   0.897
 1993SOL     OW 6877   3.492   2.136   4.658
 1993SOL    HW1 6878   3.576   2.091   4.627
 1993SOL    HW2 6879   3.505   2.170   4.751
 1994SOL     OW 6880   4.831   1.775   1.063
 1994SOL    HW1 6881   4.759   1.715   1.098
 1994SOL    HW2 6882   4.868   1.830   1.138
 1995SOL     OW 6883   5.682   3.601   4.422
 1995SOL    HW1 6884   5.657   3.697   4.412
 1995SOL    HW2 6885   5.713   3.565   4.333
 1996SOL     OW 6886   2.422   1.308   1.109
 1996SOL    HW1 6887   2.409   1.377   1.037
 1996SOL    HW2 6888   2.371   1.225   1.085
 1997SOL     OW 6889   3.033   1.526   4.005
 1997SOL    HW1 6890   2.960   1.473   4.049
 1997SOL    HW2 6891   3.110   1.533   4.068
 1998SOL     OW 6892   1.347   3.680   0.767
 1998SOL    HW1 6893   1.360   3.710   0.673
 1998SOL    HW2 6894   1.434   3.646   0.804
 1999SOL     OW 6895   0.397   0.793   4.793
 1999SOL    HW1 6896   0.457   0.872   4.781
 1999SOL    HW2 6897   0.377   0.782   4.890
 2000SOL     OW 6898   4.040   3.711   6.275
 2000SOL    HW1 6899   3.955   3.679   6.233
 2000SOL    HW2 6900   4.093   3.762   6.207
 2001SOL     OW 6901   1.382   1.853   0.296
 2001SOL    HW1 6902   1.397   1.921   0.368
 2001SOL    HW2 6903   1.349   1.768   0.338
 2002SOL     OW 6904   0.842   5.757   0.796
 2002SOL    HW1 6905   0.790   5.839   0.820
 2002SOL    HW2 6906   0.807   5.720   0.710
 2003SOL     OW 6907   6.777   5.401   1.737
 2003SOL    HW1 6908   6.709   5.382   1.807
 2003SOL    HW2 6909   6.864   5.357   1.760
 2004SOL     OW 6910   4.494   1.171   4.406
 2004SOL    HW1 6911   4.473   1.148   4.311
 2004SOL    HW2 6912   4.590   1.196   4.414
 2005SOL     OW 6913   6.966   5.292   6.703
 2005SOL    HW1 6914   6.967   5.383   6.661
 2005SOL    HW2 6915   6.983   5.301   6.801
 2006SOL     OW 6916   5.504   6.952   4.071
 2006SOL    HW1 6917   5.500   6.854   4.088
 2006SOL    HW2 6918   5.426   6.979   4.014
 2007SOL     OW 6919   5.500   4.091   1.284
 2007SOL    HW1 6920   5.576   4.029   1.268
 2007SOL    HW2 6921   5.473   4.087   1.381
 2008SOL     OW 6922   2.132   3.406   3.969
 2008SOL    HW1 6923   2.067   3.422   4.043
 2008SOL    HW2 6924   2.182   3.491   3.950
 2009SOL     OW 6925   5.265   6.515   1.885
 2009SOL    HW1 6926   5.285   6.417   1.893
 2009SOL    HW2 6927   5.172   6.533   1.917
 2010SOL     OW 6928   1.469   2.024   1.558
 2010SOL    HW1 6929   1.568   2.014   1.550
 2010SOL    HW2 6930   1.448   2.097   1.624
 2011SOL     OW 6931   6.775   0.499   5.093
 2011SOL    HW1 6932   6.802   0.594   5.111
 2011SOL    HW2 6933   6.850   0.451   5.048
 2012SOL     OW 6934   1.316   3.580   2.198
 2012SOL    HW1 6935   1.378   3.501   2.196
 2012SOL    HW2 6936   1.264   3.584   2.113
 2013SOL     OW 6937   6.879   3.163   3.387
 2013SOL    HW1 6938   6.938   3.129   3.313
 2013SOL    HW2 6939   6.858   3.088   3.449
 2014SOL     OW 6940   2.958   0.350   2.976
 2014SOL    HW1 6941   2.902   0.418   3.023
 2014SOL    HW2 6942   3.023   0.311   3.041
 2015SOL     OW 6943   3.568   6.861   1.042
 2015SOL    HW1 6944   3.547   6.959   1.033
 2015SOL    HW2 6945   3.573   6.821   0.950
 2016SOL     OW 6946   1.569   5.702   5.488
 2016SOL    HW1 6947   1.642   5.633   5.488
 2016SOL    HW2 6948   1.489   5.666   5.441
 2017SOL     OW 6949   4.306   0.605   3.364
 2017SOL    HW1 6950   4.343   0.519   3.398
 2017SOL    HW2 6951   4.280   0.663   3.442
 2018SOL     OW 6952   0.062   2.449   3.874
 2018SOL    HW1 6953   7.013   2.511   3.857
 2018SOL    HW2 6954   0.044   2.361   3.830
 2019SOL     OW 6955   6.233   4.435   6.268
 2019SOL    HW1 6956   6.175   4.384   6.205
 2019SOL    HW2 6957   6.271   4.371   6.336
 2020SOL     OW 6958   1.301   6.308   6.255
 2020SOL    HW1 6959   1.240   6.385   6.238
 2020SOL    HW2 6960   1.333   6.312   6.350
 2021SOL     OW 6961   5.941   6.985   3.612
 2021SOL    HW1 6962   5.991   0.007   3.684
 2021SOL    HW2 6963   5.860   0.012   3.585
 2022SOL     OW 6964   1.852   4.602   4.886
 2022SOL    HW1 6965   1.764   4.598   4.838
 2022SOL    HW2 6966   1.925   4.573   4.823
 2023SOL     OW 6967   7.003   0.133   6.569
 2023SOL    HW1 6968   6.923   0.183   6.602
 2023SOL    HW2 6969   0.021   0.087   6.645
 2024SOL     OW 6970   6.867   6.048   3.956
 2024SOL    HW1 6971   6.900   5.966   4.002
 2024SOL    HW2 6972   6.900   6.049   3.862
 2025SOL     OW 6973   3.156   0.563   3.224
 2025SOL    HW1 6974   3.135   0.659   3.242
 2025SOL    HW2 6975   3.106   0.504   3.287
 2026SOL     OW 6976   6.461   2.089   6.865
 2026SOL    HW1 6977   6.523   2.094   6.787
 2026SOL    HW2 6978   6.367   2.075   6.833
 2027SOL     OW 6979   0.474   6.112   1.558
 2027SOL    HW1 6980   0.517   6.187   1.508
 2027SOL    HW2 6981   0.522   6.027   1.537
 2028SOL     OW 6982   3.376   5.934   2.808
 2028SOL    HW1 6983   3.331   5.954   2.895
 2028SOL    HW2 6984   3.307   5.931   2.735
 2029SOL     OW 6985   6.765   1.949   0.199
 2029SOL    HW1 6986   6.718   2.007   0.265
 2029SOL    HW2 6987   6.701   1.882   0.162
 2030SOL     OW 6988   3.122   6.806   2.494
 2030SOL    HW1 6989   3.097   6.788   2.399
 2030SOL    HW2 6990   3.176   6.890   2.498
 2031SOL     OW 6991   6.794   5.853   2.641
 2031SOL    HW1 6992   6.838   5.885   2.557
 2031SOL    HW2 6993   6.744   5.928   2.683
 2032SOL     OW 6994   3.345   1.246   0.850
 2032SOL    HW1 6995   3.323   1.342   0.870
 2032SOL    HW2 6996   3.438   1.241   0.811
 2033SOL     OW 6997   1.695   1.266   0.619
 2033SOL    HW1 6998   1.622   1.199   0.605
 2033SOL    HW2 6999   1.661   1.342   0.674
 2034SOL     OW 7000   1.599   5.213   5.495
 2034SOL    HW1 7001   1.506   5.246   5.484
 2034SOL    HW2 7002   1.635   5.184   5.406
 2035SOL     OW 7003   6.553   0.099   2.144
 2035SOL    HW1 7004   6.476   0.127   2.201
 2035SOL    HW2 7005   6.521   0.033   2.076
 2036SOL     OW 7006   1.513   3.365   2.988
 2036SOL    HW1 7007   1.608   3.367   3.019
 2036SOL    HW2 7008   1.465   3.445   3.023
 2037SOL     OW 7009   6.829   2.592   6.051
 2037SOL    HW1 7010   6.788   2.598   6.142
 2037SOL    HW2 7011   6.758   2.605   5.982
 2038SOL     OW 7012   2.757   1.144   6.989
 2038SOL    HW1 7013   2.683   1.182   0.016
 2038SOL    HW2 7014   2.745   1.169   6.893
 2039SOL     OW 7015   6.934   5.539   2.365
 2039SOL    HW1 7016   6.999   5.605   2.326
 2039SOL    HW2 7017   6.978   5.449   2.371
 2040SOL     OW 7018   1.891   2.222   6.929
 2040SOL    HW1 7019   1.952   2.166   6.873
 2040SOL    HW2 7020   1.797   2.189   6.919
 2041SOL     OW 7021   1.522   6.976   5.131
 2041SOL    HW1 7022   1.499   6.955   5.226
 2041SOL    HW2 7023   1.606   0.003   5.127
 2042SOL     OW 7024   4.863   0.105   6.195
 2042SOL    HW1 7025   4.771   0.083   6.162
 2042SOL    HW2 7026   4.880   0.203   6.184
 2043SOL     OW 7027   6.313   2.198   2.065
 2043SOL    HW1 7028   6.340   2.275   2.007
 2043SOL    HW2 7029   6.394   2.158   2.107
 2044SOL     OW 7030   6.070   1.007   1.770
 2044SOL    HW1 7031   6.071   0.921   1.820
 2044SOL    HW2 7032   5.980   1.021   1.729
 2045SOL     OW 7033   1.698   6.006   5.180
 2045SOL    HW1 7034   1.658   5.914   5.177
 2045SOL    HW2 7035   1.788   6.004   5.137
 2046SOL     OW 7036   6.498   1.955   5.678
 2046SOL    HW1 7037   6.424   1.901   5.639
 2046SOL    HW2 7038   6.543   2.008   5.606
 2047SOL     OW 7039   6.291   2.037   1.186
 2047SOL    HW1 7040   6.229   2.084   1.122
 2047SOL    HW2 7041   6.384   2.072   1.174
 2048SOL     OW 7042   0.380   1.649   5.005
 2048SOL    HW1 7043   0.372   1.662   4.906
 2048SOL    HW2 7044   0.455   1.585   5.024
 2049SOL     OW 7045   4.865   1.299   4.625
 2049SOL    HW1 7046   4.908   1.368   4.566
 2049SOL    HW2 7047   4.875   1.326   4.721
 2050SOL     OW 7048   6.871   1.925   5.015
 2050SOL    HW1 7049   6.917   1.991   5.074
 2050SOL    HW2 7050   6.832   1.852   5.071
 2051SOL     OW 7051   2.097   6.141   0.088
 2051SOL    HW1 7052   2.149   6.065   0.127
 2051SOL    HW2 7053   2.080   6.124   7.018
 2052SOL     OW 7054   1.149   3.181   0.661
 2052SOL    HW1 7055   1.132   3.252   0.730
 2052SOL    HW2 7056   1.168   3.225   0.573
 2053SOL     OW 7057   0.389   5.544   4.331
 2053SOL    HW1 7058   0.346   5.485   4.262
 2053SOL    HW2 7059   0.466   5.593   4.289
 2054SOL     OW 7060   3.435   2.886   2.725
 2054SOL    HW1 7061   3.493   2.888   2.807
 2054SOL    HW2 7062   3.354   2.943   2.740
 2055SOL     OW 7063   6.763   2.766   4.967
 2055SOL    HW1 7064   6.846   2.807   5.003
 2055SOL    HW2 7065   6.787   2.694   4.901
 2056SOL     OW 7066   4.739   4.701   1.232
 2056SOL    HW1 7067   4.746   4.603   1.251
 2056SOL    HW2 7068   4.651   4.735   1.267
 2057SOL     OW 7069   5.362   3.054   4.573
 2057SOL    HW1 7070   5.294   3.005   4.627
 2057SOL    HW2 7071   5.401   2.993   4.504
 2058SOL     OW 7072   0.491   6.732   2.697
 2058SOL    HW1 7073   0.443   6.656   2.742
 2058SOL    HW2 7074   0.588   6.729   2.721
 2059SOL     OW 7075   2.562   0.657   5.301
 2059SOL    HW1 7076   2.531   0.691   5.390
 2059SOL    HW2 7077   2.655   0.621   5.310
 2060SOL     OW 7078   0.865   3.165   0.649
 2060SOL    HW1 7079   0.856   3.184   0.551
 2060SOL    HW2 7080   0.959   3.136   0.669
 2061SOL     OW 7081   1.959   2.637   2.327
 2061SOL    HW1 7082   1.885   2.704   2.334
 2061SOL    HW2 7083   1.997   2.621   2.418
 2062SOL     OW 7084   6.562   5.186   5.581
 2062SOL    HW1 7085   6.619   5.182   5.664
 2062SOL    HW2 7086   6.560   5.096   5.538
 2063SOL     OW 7087   1.586   6.381   5.128
 2063SOL    HW1 7088   1.554   6.476   5.120
 2063SOL    HW2 7089   1.665   6.367   5.069
 2064SOL     OW 7090   1.389   3.882   4.431
 2064SOL    HW1 7091   1.469   3.822   4.435
 2064SOL    HW2 7092   1.310   3.829   4.402
 2065SOL     OW 7093   5.502   3.000   5.775
 2065SOL    HW1 7094   5.510   2.960   5.866
 2065SOL    HW2 7095   5.408   3.031   5.760
 2066SOL     OW 7096   6.619   3.642   5.689
 2066SOL    HW1 7097   6.675   3.672   5.612
 2066SOL    HW2 7098   6.649   3.689   5.772
 2067SOL     OW 7099   5.954   4.467   1.970
 2067SOL    HW1 7100   5.931   4.554   2.013
 2067SOL    HW2 7101   6.044   4.475   1.927
 2068SOL     OW 7102   3.493   1.367   3.823
 2068SOL    HW1 7103   3.402   1.408   3.815
 2068SOL    HW2 7104   3.563   1.437   3.806
 2069SOL     OW 7105   0.167   1.963   4.239
 2069SOL    HW1 7106   0.142   1.875   4.198
 2069SOL    HW2 7107   0.225   1.946   4.319
 2070SOL     OW 7108   1.553   3.062   1.441
 2070SOL    HW1 7109   1.589   3.053   1.533
 2070SOL    HW2 7110   1.579   2.982   1.387
 2071SOL     OW 7111   6.278   1.653   6.269
 2071SOL    HW1 7112   6.263   1.651   6.368
 2071SOL    HW2 7113   6.190   1.667   6.223
 2072SOL     OW 7114   4.009   4.878   5.601
 2072SOL    HW1 7115   3.971   4.835   5.519
 2072SOL    HW2 7116   3.975   4.831   5.682
 2073SOL     OW 7117   3.851   5.915   6.507
 2073SOL    HW1 7118   3.817   6.009   6.503
 2073SOL    HW2 7119   3.776   5.852   6.483
 2074SOL     OW 7120   1.589   2.989   6.046
 2074SOL    HW1 7121   1.571   2.965   5.951
 2074SOL    HW2 7122   1.660   2.929   6.083
 2075SOL     OW 7123   6.538   2.165   2.715
 2075SOL    HW1 7124   6.541   2.259   2.749
 2075SOL    HW2 7125   6.455   2.151   2.661
 2076SOL     OW 7126   6.160   6.988   4.729
 2076SOL    HW1 7127   6.110   6.981   4.643
 2076SOL    HW2 7128   6.212   0.047   4.731
 2077SOL     OW 7129   7.022   2.311   1.955
 2077SOL    HW1 7130   6.945   2.348   2.006
 2077SOL    HW2 7131   0.016   2.219   1.988
 2078SOL     OW 7132   1.717   4.957   5.798
 2078SOL    HW1 7133   1.637   4.975   5.855
 2078SOL    HW2 7134   1.799   4.989   5.845
 2079SOL     OW 7135   5.114   0.833   2.156
 2079SOL    HW1 7136   5.133   0.917   2.105
 2079SOL    HW2 7137   5.173   0.760   2.123
 2080SOL     OW 7138   3.104   2.180   4.619
 2080SOL    HW1 7139   3.039   2.210   4.550
 2080SOL    HW2 7140   3.186   2.145   4.574
 2081SOL     OW 7141   0.635   6.438   3.135
 2081SOL    HW1 7142   0.616   6.341   3.150
 2081SOL    HW2 7143   0.551   6.491   3.145
 2082SOL     OW 7144   0.574   6.218   2.581
 2082SOL    HW1 7145   0.522   6.168   2.511
 2082SOL    HW2 7146   0.588   6.312   2.550
 2083SOL     OW 7147   0.746   5.650   3.483
 2083SOL    HW1 7148   0.669   5.652   3.419
 2083SOL    HW2 7149   0.711   5.661   3.576
 2084SOL     OW 7150   1.241   2.204   1.028
 2084SOL    HW1 7151   1.289   2.119   1.010
 2084SOL    HW2 7152   1.143   2.192   1.008
 2085SOL     OW 7153   4.882   5.534   0.457
 2085SOL    HW1 7154   4.897   5.588   0.540
 2085SOL    HW2 7155   4.960   5.475   0.441
 2086SOL     OW 7156   3.275   6.590   6.916
 2086SOL    HW1 7157   3.270   6.677   6.965
 2086SOL    HW2 7158   3.357   6.541   6.945
 2087SOL     OW 7159   4.365   2.070   6.965
 2087SOL    HW1 7160   4.372   2.143   6.898
 2087SOL    HW2 7161   4.326   1.988   6.923
 2088SOL     OW 7162   0.915   5.779   5.779
 2088SOL    HW1 7163   0.894   5.861   5.832
 2088SOL    HW2 7164   0.841   5.713   5.788
 2089SOL     OW 7165   3.991   2.676   5.334
 2089SOL    HW1 7166   4.067   2.661   5.271
 2089SOL    HW2 7167   3.955   2.768   5.322
 2090SOL     OW 7168   4.486   3.257   5.781
 2090SOL    HW1 7169   4.407   3.281   5.836
 2090SOL    HW2 7170   4.473   3.166   5.741
 2091SOL     OW 7171   6.770   5.905   1.409
 2091SOL    HW1 7172   6.793   5.989   1.360
 2091SOL    HW2 7173   6.847   5.876   1.465
 2092SOL     OW 7174   5.162   3.915   1.138
 2092SOL    HW1 7175   5.105   3.983   1.093
 2092SOL    HW2 7176   5.256   3.922   1.104
 2093SOL     OW 7177   3.912   2.167   2.221
 2093SOL    HW1 7178   3.839   2.184   2.155
 2093SOL    HW2 7179   4.000   2.164   2.173
 2094SOL     OW 7180   5.854   2.666   0.443
 2094SOL    HW1 7181   5.807   2.754   0.451
 2094SOL    HW2 7182   5.951   2.681   0.426
 2095SOL     OW 7183   5.696   6.212   3.292
 2095SOL    HW1 7184   5.703   6.289   3.356
 2095SOL    HW2 7185   5.723   6.128   3.339
 2096SOL     OW 7186   4.613   6.247   2.926
 2096SOL    HW1 7187   4.681   6.273   2.995
 2096SOL    HW2 7188   4.548   6.183   2.966
 2097SOL     OW 7189   2.472   4.325   6.440
 2097SOL    HW1 7190   2.489   4.229   6.464
 2097SOL    HW2 7191   2.557   4.377   6.445
 2098SOL     OW 7192   3.945   6.307   3.538
 2098SOL    HW1 7193   3.857   6.337   3.499
 2098SOL    HW2 7194   3.991   6.384   3.581
 2099SOL     OW 7195   4.131   1.649   0.075
 2099SOL    HW1 7196   4.092   1.614   0.160
 2099SOL    HW2 7197   4.085   1.733   0.049
 2100SOL     OW 7198   5.088   1.297   0.360
 2100SOL    HW1 7199   5.080   1.337   0.452
 2100SOL    HW2 7200   5.074   1.198   0.365
 2101SOL     OW 7201   0.438   6.164   0.842
 2101SOL    HW1 7202   0.456   6.249   0.891
 2101SOL    HW2 7203   0.411   6.184   0.748
 2102SOL     OW 7204   3.951   3.124   1.438
 2102SOL    HW1 7205   4.004   3.138   1.521
 2102SOL    HW2 7206   3.941   3.026   1.420
 2103SOL     OW 7207   3.192   4.521   0.345
 2103SOL    HW1 7208   3.259   4.577   0.393
 2103SOL    HW2 7209   3.135   4.473   0.411
 2104SOL     OW 7210   1.927   4.649   2.635
 2104SOL    HW1 7211   1.859   4.714   2.601
 2104SOL    HW2 7212   1.958   4.678   2.726
 2105SOL     OW 7213   4.778   4.364   0.604
 2105SOL    HW1 7214   4.829   4.449   0.614
 2105SOL    HW2 7215   4.680   4.382   0.616
 2106SOL     OW 7216   5.610   3.606   1.420
 2106SOL    HW1 7217   5.516   3.632   1.400
 2106SOL    HW2 7218   5.645   3.549   1.345
 2107SOL     OW 7219   5.281   3.408   6.185
 2107SOL    HW1 7220   5.284   3.451   6.095
 2107SOL    HW2 7221   5.189   3.420   6.225
 2108SOL     OW 7222   5.746   6.451   6.079
 2108SOL    HW1 7223   5.831   6.487   6.041
 2108SOL    HW2 7224   5.720   6.368   6.031
 2109SOL     OW 7225   3.248   5.028   2.217
 2109SOL    HW1 7226   3.194   4.964   2.272
 2109SOL    HW2 7227   3.191   5.107   2.193
 2110SOL     OW 7228   4.008   0.915   6.618
 2110SOL    HW1 7229   4.021   0.847   6.545
 2110SOL    HW2 7230   4.087   0.976   6.619
 2111SOL     OW 7231   1.145   2.608   5.965
 2111SOL    HW1 7232   1.067   2.602   6.027
 2111SOL    HW2 7233   1.229   2.583   6.013
 2112SOL     OW 7234   6.012   1.181   6.808
 2112SOL    HW1 7235   6.076   1.226   6.746
 2112SOL    HW2 7236   6.028   1.213   6.902
 2113SOL     OW 7237   2.157   6.463   4.054
 2113SOL    HW1 7238   2.246   6.485   4.015
 2113SOL    HW2 7239   2.088   6.525   4.014
 2114SOL     OW 7240   2.404   3.077   0.344
 2114SOL    HW1 7241   2.338   3.027   0.400
 2114SOL    HW2 7242   2.441   3.153   0.398
 2115SOL     OW 7243   1.079   4.380   2.364
 2115SOL    HW1 7244   1.172   4.416   2.357
 2115SOL    HW2 7245   1.022   4.423   2.294
 2116SOL     OW 7246   1.078   2.558   0.857
 2116SOL    HW1 7247   1.013   2.603   0.796
 2116SOL    HW2 7248   1.127   2.628   0.910
 2117SOL     OW 7249   5.976   2.817   1.874
 2117SOL    HW1 7250   5.941   2.742   1.929
 2117SOL    HW2 7251   5.926   2.901   1.897
 2118SOL     OW 7252   6.647   3.665   2.703
 2118SOL    HW1 7253   6.707   3.650   2.625
 2118SOL    HW2 7254   6.555   3.633   2.680
 2119SOL     OW 7255   2.184   0.563   6.826
 2119SOL    HW1 7256   2.085   0.559   6.812
 2119SOL    HW2 7257   2.216   0.656   6.810
 2120SOL     OW 7258   6.728   1.971   2.669
 2120SOL    HW1 7259   6.658   2.033   2.704
 2120SOL    HW2 7260   6.763   2.006   2.582
 2121SOL     OW 7261   1.820   1.122   5.797
 2121SOL    HW1 7262   1.847   1.214   5.769
 2121SOL    HW2 7263   1.858   1.101   5.887
 2122SOL     OW 7264   5.405   6.912   5.935
 2122SOL    HW1 7265   5.310   6.897   5.963
 2122SOL    HW2 7266   5.429   6.846   5.863
 2123SOL     OW 7267   0.022   6.352   2.422
 2123SOL    HW1 7268   0.050   6.428   2.480
 2123SOL    HW2 7269   7.004   6.388   2.340
 2124SOL     OW 7270   3.343   2.985   5.898
 2124SOL    HW1 7271   3.379   2.941   5.816
 2124SOL    HW2 7272   3.271   2.928   5.938
 2125SOL     OW 7273   1.721   6.008   3.384
 2125SOL    HW1 7274   1.710   5.909   3.392
 2125SOL    HW2 7275   1.659   6.054   3.447
 2126SOL     OW 7276   3.925   3.245   0.549
 2126SOL    HW1 7277   3.947   3.211   0.458
 2126SOL    HW2 7278   3.859   3.183   0.593
 2127SOL     OW 7279   0.034   2.706   6.062
 2127SOL    HW1 7280   0.062   2.689   6.157
 2127SOL    HW2 7281   6.967   2.673   6.048
 2128SOL     OW 7282   5.643   3.678   1.010
 2128SOL    HW1 7283   5.704   3.752   1.039
 2128SOL    HW2 7284   5.665   3.652   0.916
 2129SOL     OW 7285   5.165   4.052   3.891
 2129SOL    HW1 7286   5.079   4.016   3.855
 2129SOL    HW2 7287   5.162   4.054   3.991
 2130SOL     OW 7288   2.462   1.217   1.499
 2130SOL    HW1 7289   2.550   1.212   1.453
 2130SOL    HW2 7290   2.470   1.179   1.591
 2131SOL     OW 7291   5.461   1.979   5.984
 2131SOL    HW1 7292   5.481   1.899   6.042
 2131SOL    HW2 7293   5.404   2.043   6.035
 2132SOL     OW 7294   2.880   1.714   6.469
 2132SOL    HW1 7295   2.919   1.636   6.419
 2132SOL    HW2 7296   2.783   1.723   6.447
 2133SOL     OW 7297   2.258   1.685   1.291
 2133SOL    HW1 7298   2.295   1.592   1.278
 2133SOL    HW2 7299   2.214   1.691   1.380
 2134SOL     OW 7300   0.126   6.996   4.297
 2134SOL    HW1 7301   0.198   6.929   4.276
 2134SOL    HW2 7302   0.079   7.021   4.212
 2135SOL     OW 7303   0.516   2.057   3.789
 2135SOL    HW1 7304   0.576   2.126   3.827
 2135SOL    HW2 7305   0.558   2.018   3.706
 2136SOL     OW 7306   1.227   3.425   5.038
 2136SOL    HW1 7307   1.245   3.334   5.001
 2136SOL    HW2 7308   1.148   3.421   5.099
 2137SOL     OW 7309   0.628   6.567   5.236
 2137SOL    HW1 7310   0.581   6.489   5.279
 2137SOL    HW2 7311   0.685   6.613   5.304
 2138SOL     OW 7312   0.076   2.425   1.289
 2138SOL    HW1 7313   7.018   2.393   1.247
 2138SOL    HW2 7314   0.111   2.504   1.239
 2139SOL     OW 7315   2.988   0.713   3.798
 2139SOL    HW1 7316   2.893   0.681   3.791
 2139SOL    HW2 7317   3.026   0.726   3.707
 2140SOL     OW 7318   2.633   6.473   2.880
 2140SOL    HW1 7319   2.646   6.499   2.784
 2140SOL    HW2 7320   2.672   6.543   2.939
 2141SOL     OW 7321   6.816   2.716   1.071
 2141SOL    HW1 7322   6.807   2.618   1.057
 2141SOL    HW2 7323   6.792   2.738   1.166
 2142SOL     OW 7324   1.862   1.914   3.267
 2142SOL    HW1 7325   1.892   1.870   3.352
 2142SOL    HW2 7326   1.762   1.917   3.264
 2143SOL     OW 7327   4.232   6.219   1.318
 2143SOL    HW1 7328   4.210   6.128   1.354
 2143SOL    HW2 7329   4.230   6.285   1.393
 2144SOL     OW 7330   1.241   0.716   2.821
 2144SOL    HW1 7331   1.211   0.810   2.811
 2144SOL    HW2 7332   1.327   0.713   2.873
 2145SOL     OW 7333   3.373   5.923   3.718
 2145SOL    HW1 7334   3.439   5.977   3.665
 2145SOL    HW2 7335   3.423   5.870   3.787
 2146SOL     OW 7336   3.092   3.910   1.915
 2146SOL    HW1 7337   3.159   3.978   1.885
 2146SOL    HW2 7338   3.067   3.927   2.010
 2147SOL     OW 7339   0.309   1.647   0.204
 2147SOL    HW1 7340   0.258   1.683   0.125
 2147SOL    HW2 7341   0.328   1.722   0.268
 2148SOL     OW 7342   4.860   3.715   3.646
 2148SOL    HW1 7343   4.823   3.757   3.563
 2148SOL    HW2 7344   4.885   3.620   3.626
 2149SOL     OW 7345   3.949   0.385   1.803
 2149SOL    HW1 7346   3.886   0.462   1.793
 2149SOL    HW2 7347   4.042   0.417   1.785
 2150SOL     OW 7348   3.927   2.072   2.704
 2150SOL    HW1 7349   3.835   2.107   2.686
 2150SOL    HW2 7350   3.953   2.094   2.798
 2151SOL     OW 7351   3.348   2.638   5.474
 2151SOL    HW1 7352   3.365   2.547   5.436
 2151SOL    HW2 7353   3.250   2.648   5.492
 2152SOL     OW 7354   6.090   6.477   1.927
 2152SOL    HW1 7355   6.017   6.434   1.979
 2152SOL    HW2 7356   6.097   6.434   1.837
 2153SOL     OW 7357   4.914   1.435   3.727
 2153SOL    HW1 7358   4.889   1.532   3.737
 2153SOL    HW2 7359   4.987   1.427   3.659
 2154SOL     OW 7360   2.732   5.407   4.855
 2154SOL    HW1 7361   2.771   5.448   4.773
 2154SOL    HW2 7362   2.792   5.425   4.933
 2155SOL     OW 7363   2.115   5.207   0.418
 2155SOL    HW1 7364   2.061   5.213   0.334
 2155SOL    HW2 7365   2.202   5.162   0.398
 2156SOL     OW 7366   1.715   0.383   1.038
 2156SOL    HW1 7367   1.648   0.457   1.028
 2156SOL    HW2 7368   1.794   0.402   0.980
 2157SOL     OW 7369   6.968   1.469   5.182
 2157SOL    HW1 7370   6.982   1.400   5.111
 2157SOL    HW2 7371   6.931   1.426   5.264
 2158SOL     OW 7372   3.661   6.708   0.772
 2158SOL    HW1 7373   3.727   6.705   0.697
 2158SOL    HW2 7374   3.700   6.663   0.853
 2159SOL     OW 7375   1.311   6.742   4.653
 2159SOL    HW1 7376   1.274   6.783   4.736
 2159SOL    HW2 7377   1.373   6.667   4.677
 2160SOL     OW 7378   3.747   3.845   1.469
 2160SOL    HW1 7379   3.788   3.919   1.414
 2160SOL    HW2 7380   3.647   3.848   1.459
 2161SOL     OW 7381   4.839   3.614   3.194
 2161SOL    HW1 7382   4.782   3.533   3.191
 2161SOL    HW2 7383   4.935   3.588   3.189
 2162SOL     OW 7384   2.153   0.718   6.386
 2162SOL    HW1 7385   2.130   0.807   6.427
 2162SOL    HW2 7386   2.230   0.678   6.436
 2163SOL     OW 7387   1.724   6.980   7.016
 2163SOL    HW1 7388   1.678   6.971   0.077
 2163SOL    HW2 7389   1.767   0.043   7.009
 2164SOL     OW 7390   2.173   0.688   6.050
 2164SOL    HW1 7391   2.258   0.636   6.059
 2164SOL    HW2 7392   2.181   0.773   6.102
 2165SOL     OW 7393   1.493   1.071   2.757
 2165SOL    HW1 7394   1.394   1.057   2.753
 2165SOL    HW2 7395   1.540   0.987   2.729
 2166SOL     OW 7396   1.161   2.059   5.711
 2166SOL    HW1 7397   1.100   2.102   5.644
 2166SOL    HW2 7398   1.255   2.087   5.692
 2167SOL     OW 7399   2.611   0.904   2.061
 2167SOL    HW1 7400   2.619   0.815   2.106
 2167SOL    HW2 7401   2.541   0.898   1.989
 2168SOL     OW 7402   6.085   3.282   4.989
 2168SOL    HW1 7403   6.125   3.232   5.066
 2168SOL    HW2 7404   6.105   3.379   4.998
 2169SOL     OW 7405   5.704   2.837   6.006
 2169SOL    HW1 7406   5.634   2.778   6.045
 2169SOL    HW2 7407   5.765   2.784   5.948
 2170SOL     OW 7408   5.177   4.482   5.168
 2170SOL    HW1 7409   5.096   4.539   5.181
 2170SOL    HW2 7410   5.160   4.390   5.203
 2171SOL     OW 7411   6.513   2.878   6.968
 2171SOL    HW1 7412   6.529   2.954   6.904
 2171SOL    HW2 7413   6.504   2.914   0.034
 2172SOL     OW 7414   2.897   1.078   0.306
 2172SOL    HW1 7415   2.889   1.153   0.240
 2172SOL    HW2 7416   2.811   1.066   0.354
 2173SOL     OW 7417   4.089   0.395   6.003
 2173SOL    HW1 7418   4.013   0.374   6.066
 2173SOL    HW2 7419   4.136   0.477   6.034
 2174SOL     OW 7420   6.673   4.277   5.501
 2174SOL    HW1 7421   6.743   4.331   5.548
 2174SOL    HW2 7422   6.585   4.324   5.508
 2175SOL     OW 7423   3.190   0.154   3.050
 2175SOL    HW1 7424   3.172   0.096   2.970
 2175SOL    HW2 7425   3.287   0.177   3.053
 2176SOL     OW 7426   2.153   2.372   1.934
 2176SOL    HW1 7427   2.053   2.364   1.935
 2176SOL    HW2 7428   2.189   2.332   1.850
 2177SOL     OW 7429   6.774   1.464   1.494
 2177SOL    HW1 7430   6.696   1.403   1.487
 2177SOL    HW2 7431   6.749   1.554   1.458
 2178SOL     OW 7432   1.092   4.989   0.067
 2178SOL    HW1 7433   1.170   5.051   0.066
 2178SOL    HW2 7434   1.095   4.934   0.151
 2179SOL     OW 7435   1.077   5.722   4.148
 2179SOL    HW1 7436   1.073   5.623   4.166
 2179SOL    HW2 7437   1.082   5.738   4.049
 2180SOL     OW 7438   3.137   3.872   3.106
 2180SOL    HW1 7439   3.132   3.968   3.078
 2180SOL    HW2 7440   3.066   3.820   3.059
 2181SOL     OW 7441   4.815   5.050   5.894
 2181SOL    HW1 7442   4.836   5.004   5.808
 2181SOL    HW2 7443   4.782   4.983   5.961
 2182SOL     OW 7444   6.958   3.481   0.008
 2182SOL    HW1 7445   0.004   3.500   6.970
 2182SOL    HW2 7446   6.929   3.565   0.053
 2183SOL     OW 7447   3.088   3.065   0.794
 2183SOL    HW1 7448   3.042   2.977   0.810
 2183SOL    HW2 7449   3.069   3.096   0.701
 2184SOL     OW 7450   3.789   1.170   6.726
 2184SOL    HW1 7451   3.767   1.190   6.822
 2184SOL    HW2 7452   3.883   1.136   6.720
 2185SOL     OW 7453   1.688   0.559   0.407
 2185SOL    HW1 7454   1.596   0.530   0.433
 2185SOL    HW2 7455   1.737   0.593   0.487
 2186SOL     OW 7456   6.959   4.351   2.694
 2186SOL    HW1 7457   6.937   4.315   2.785
 2186SOL    HW2 7458   6.904   4.432   2.676
 2187SOL     OW 7459   6.497   1.385   1.412
 2187SOL    HW1 7460   6.463   1.305   1.361
 2187SOL    HW2 7461   6.419   1.441   1.441
 2188SOL     OW 7462   4.967   6.352   4.004
 2188SOL    HW1 7463   5.009   6.442   4.000
 2188SOL    HW2 7464   4.958   6.316   3.911
 2189SOL     OW 7465   1.904   0.027   5.850
 2189SOL    HW1 7466   1.839   0.065   5.783
 2189SOL    HW2 7467   1.858   6.987   5.907
 2190SOL     OW 7468   6.539   2.735   1.891
 2190SOL    HW1 7469   6.582   2.812   1.843
 2190SOL    HW2 7470   6.444   2.726   1.859
 2191SOL     OW 7471   3.313   2.527   6.707
 2191SOL    HW1 7472   3.332   2.620   6.738
 2191SOL    HW2 7473   3.214   2.513   6.702
 2192SOL     OW 7474   4.022   6.010   5.434
 2192SOL    HW1 7475   4.032   6.066   5.517
 2192SOL    HW2 7476   4.109   6.011   5.383
 2193SOL     OW 7477   1.103   5.283   5.253
 2193SOL    HW1 7478   1.077   5.373   5.220
 2193SOL    HW2 7479   1.045   5.214   5.210
 2194SOL     OW 7480   2.232   5.930   0.235
 2194SOL    HW1 7481   2.183   5.846   0.258
 2194SOL    HW2 7482   2.323   5.929   0.276
 2195SOL     OW 7483   1.024   5.858   2.095
 2195SOL    HW1 7484   1.088   5.783   2.080
 2195SOL    HW2 7485   0.946   5.849   2.034
 2196SOL     OW 7486   3.664   1.168   5.491
 2196SOL    HW1 7487   3.691   1.263   5.479
 2196SOL    HW2 7488   3.727   1.108   5.443
 2197SOL     OW 7489   5.122   4.551   1.426
 2197SOL    HW1 7490   5.117   4.452   1.413
 2197SOL    HW2 7491   5.048   4.581   1.486
 2198SOL     OW 7492   6.630   4.158   0.028
 2198SOL    HW1 7493   6.585   4.141   0.115
 2198SOL    HW2 7494   6.573   4.218   6.999
 2199SOL     OW 7495   4.644   6.863   0.357
 2199SOL    HW1 7496   4.722   6.911   0.318
 2199SOL    HW2 7497   4.676   6.797   0.425
 2200SOL     OW 7498   4.372   0.771   4.521
 2200SOL    HW1 7499   4.404   0.677   4.504
 2200SOL    HW2 7500   4.387   0.826   4.439
 2201SOL     OW 7501   6.382   3.164   2.083
 2201SOL    HW1 7502   6.321   3.217   2.141
 2201SOL    HW2 7503   6.328   3.110   2.018
 2202SOL     OW 7504   3.718   5.006   4.361
 2202SOL    HW1 7505   3.623   5.006   4.393
 2202SOL    HW2 7506   3.723   4.968   4.269
 2203SOL     OW 7507   3.522   2.045   3.705
 2203SOL    HW1 7508   3.540   2.054   3.607
 2203SOL    HW2 7509   3.607   2.021   3.753
 2204SOL     OW 7510   3.475   1.543   6.929
 2204SOL    HW1 7511   3.575   1.535   6.933
 2204SOL    HW2 7512   3.450   1.636   6.902
 2205SOL     OW 7513   1.830   0.198   6.956
 2205SOL    HW1 7514   1.781   0.285   6.949
 2205SOL    HW2 7515   1.911   0.200   6.897
 2206SOL     OW 7516   3.409   3.717   6.572
 2206SOL    HW1 7517   3.343   3.704   6.498
 2206SOL    HW2 7518   3.467   3.636   6.580
 2207SOL     OW 7519   1.278   4.109   5.930
 2207SOL    HW1 7520   1.331   4.172   5.986
 2207SOL    HW2 7521   1.332   4.081   5.850
 2208SOL     OW 7522   0.238   3.473   1.950
 2208SOL    HW1 7523   0.205   3.406   1.884
 2208SOL    HW2 7524   0.338   3.475   1.950
 2209SOL     OW 7525   1.916   5.453   6.579
 2209SOL    HW1 7526   2.007   5.483   6.549
 2209SOL    HW2 7527   1.904   5.473   6.676
 2210SOL     OW 7528   0.928   5.599   3.658
 2210SOL    HW1 7529   0.873   5.589   3.575
 2210SOL    HW2 7530   0.936   5.510   3.703
 2211SOL     OW 7531   6.115   0.783   5.406
 2211SOL    HW1 7532   6.110   0.800   5.308
 2211SOL    HW2 7533   6.035   0.821   5.451
 2212SOL     OW 7534   0.989   0.066   6.169
 2212SOL    HW1 7535   0.969   7.021   6.235
 2212SOL    HW2 7536   0.911   0.128   6.161
 2213SOL     OW 7537   4.242   2.162   3.691
 2213SOL    HW1 7538   4.265   2.065   3.687
 2213SOL    HW2 7539   4.144   2.172   3.709
 2214SOL     OW 7540   5.311   0.416   4.611
 2214SOL    HW1 7541   5.224   0.382   4.578
 2214SOL    HW2 7542   5.385   0.380   4.555
 2215SOL     OW 7543   6.952   2.071   5.490
 2215SOL    HW1 7544   6.993   2.009   5.423
 2215SOL    HW2 7545   7.006   2.071   5.574
 2216SOL     OW 7546   1.107   6.566   1.056
 2216SOL    HW1 7547   1.150   6.477   1.071
 2216SOL    HW2 7548   1.171   6.639   1.081
 2217SOL     OW 7549   4.068   6.824   1.513
 2217SOL    HW1 7550   4.163   6.797   1.498
 2217SOL    HW2 7551   4.034   6.780   1.595
 2218SOL     OW 7552   1.272   5.434   6.399
 2218SOL    HW1 7553   1.311   5.347   6.368
 2218SOL    HW2 7554   1.176   5.439   6.373
 2219SOL     OW 7555   1.200   3.488   3.244
 2219SOL    HW1 7556   1.115   3.469   3.291
 2219SOL    HW2 7557   1.190   3.572   3.190
 2220SOL     OW 7558   0.412   2.164   5.547
 2220SOL    HW1 7559   0.356   2.192   5.469
 2220SOL    HW2 7560   0.437   2.068   5.537
 2221SOL     OW 7561   6.720   1.999   1.546
 2221SOL    HW1 7562   6.819   1.990   1.545
 2221SOL    HW2 7563   6.687   1.996   1.640
 2222SOL     OW 7564   4.704   6.944   2.181
 2222SOL    HW1 7565   4.707   6.912   2.086
 2222SOL    HW2 7566   4.769   7.020   2.193
 2223SOL     OW 7567   5.679   5.346   4.021
 2223SOL    HW1 7568   5.624   5.429   4.034
 2223SOL    HW2 7569   5.760   5.351   4.079
 2224SOL     OW 7570   2.039   5.048   1.867
 2224SOL    HW1 7571   2.040   4.948   1.876
 2224SOL    HW2 7572   1.948   5.082   1.888
 2225SOL     OW 7573   6.257   4.786   2.324
 2225SOL    HW1 7574   6.321   4.754   2.255
 2225SOL    HW2 7575   6.222   4.708   2.377
 2226SOL     OW 7576   4.061   2.611   1.167
 2226SOL    HW1 7577   4.067   2.702   1.208
 2226SOL    HW2 7578   4.144   2.593   1.114
 2227SOL     OW 7579   6.670   3.982   6.208
 2227SOL    HW1 7580   6.596   4.044   6.181
 2227SOL    HW2 7581   6.631   3.898   6.246
 2228SOL     OW 7582   3.016   4.808   6.436
 2228SOL    HW1 7583   2.953   4.755   6.379
 2228SOL    HW2 7584   3.093   4.750   6.463
 2229SOL     OW 7585   4.553   1.395   3.545
 2229SOL    HW1 7586   4.469   1.421   3.498
 2229SOL    HW2 7587   4.607   1.333   3.487
 2230SOL     OW 7588   0.856   5.967   5.127
 2230SOL    HW1 7589   0.893   5.891   5.073
 2230SOL    HW2 7590   0.817   6.036   5.066
 2231SOL     OW 7591   1.959   0.661   1.873
 2231SOL    HW1 7592   1.926   0.723   1.944
 2231SOL    HW2 7593   2.013   0.712   1.806
 2232SOL     OW 7594   6.881   2.945   2.604
 2232SOL    HW1 7595   6.879   3.039   2.568
 2232SOL    HW2 7596   6.837   2.943   2.693
 2233SOL     OW 7597   3.704   5.991   0.383
 2233SOL    HW1 7598   3.666   5.914   0.433
 2233SOL    HW2 7599   3.650   6.073   0.401
 2234SOL     OW 7600   3.510   1.748   0.431
 2234SOL    HW1 7601   3.410   1.741   0.436
 2234SOL    HW2 7602   3.537   1.844   0.434
 2235SOL     OW 7603   1.508   6.949   0.298
 2235SOL    HW1 7604   1.594   6.900   0.288
 2235SOL    HW2 7605   1.432   6.884   0.300
 2236SOL     OW 7606   0.675   4.526   1.161
 2236SOL    HW1 7607   0.724   4.609   1.135
 2236SOL    HW2 7608   0.739   4.450   1.171
 2237SOL     OW 7609   0.059   3.058   4.593
 2237SOL    HW1 7610   7.007   3.111   4.624
 2237SOL    HW2 7611   0.070   2.977   4.651
 2238SOL     OW 7612   0.466   5.438   2.067
 2238SOL    HW1 7613   0.386   5.477   2.021
 2238SOL    HW2 7614   0.531   5.511   2.089
 2239SOL     OW 7615   4.015   4.842   3.642
 2239SOL    HW1 7616   4.107   4.832   3.679
 2239SOL    HW2 7617   4.020   4.866   3.545
 2240SOL     OW 7618   6.796   4.940   3.421
 2240SOL    HW1 7619   6.719   5.003   3.411
 2240SOL    HW2 7620   6.882   4.992   3.417
 2241SOL     OW 7621   0.074   6.624   1.798
 2241SOL    HW1 7622   0.115   6.556   1.737
 2241SOL    HW2 7623   0.110   6.611   1.891
 2242SOL     OW 7624   5.174   2.559   3.057
 2242SOL    HW1 7625   5.155   2.492   3.129
 2242SOL    HW2 7626   5.104   2.551   2.985
 2243SOL     OW 7627   2.049   5.827   4.679
 2243SOL    HW1 7628   2.020   5.915   4.640
 2243SOL    HW2 7629   2.149   5.823   4.682
 2244SOL     OW 7630   2.871   0.267   4.229
 2244SOL    HW1 7631   2.804   0.311   4.169
 2244SOL    HW2 7632   2.866   0.168   4.216
 2245SOL     OW 7633   0.268   1.704   2.735
 2245SOL    HW1 7634   0.365   1.723   2.724
 2245SOL    HW2 7635   0.230   1.765   2.805
 2246SOL     OW 7636   1.377   3.820   6.253
 2246SOL    HW1 7637   1.399   3.863   6.341
 2246SOL    HW2 7638   1.404   3.724   6.255
 2247SOL     OW 7639   2.077   2.490   5.912
 2247SOL    HW1 7640   2.066   2.568   5.973
 2247SOL    HW2 7641   2.065   2.519   5.818
 2248SOL     OW 7642   4.703   4.435   5.468
 2248SOL    HW1 7643   4.759   4.505   5.513
 2248SOL    HW2 7644   4.614   4.473   5.445
 2249SOL     OW 7645   5.345   6.226   3.076
 2249SOL    HW1 7646   5.357   6.323   3.099
 2249SOL    HW2 7647   5.293   6.181   3.148
 2250SOL     OW 7648   6.146   4.114   1.223
 2250SOL    HW1 7649   6.230   4.073   1.188
 2250SOL    HW2 7650   6.089   4.043   1.265
 2251SOL     OW 7651   5.921   1.519   6.996
 2251SOL    HW1 7652   5.842   1.458   7.006
 2251SOL    HW2 7653   5.980   1.484   6.923
 2252SOL     OW 7654   5.359   2.672   5.195
 2252SOL    HW1 7655   5.401   2.761   5.214
 2252SOL    HW2 7656   5.298   2.648   5.271
 2253SOL     OW 7657   2.671   3.071   6.851
 2253SOL    HW1 7658   2.761   3.030   6.868
 2253SOL    HW2 7659   2.636   3.109   6.937
 2254SOL     OW 7660   1.813   3.379   5.969
 2254SOL    HW1 7661   1.794   3.429   5.884
 2254SOL    HW2 7662   1.770   3.426   6.045
 2255SOL     OW 7663   6.115   2.695   2.220
 2255SOL    HW1 7664   6.211   2.671   2.208
 2255SOL    HW2 7665   6.100   2.789   2.190
 2256SOL     OW 7666   4.018   4.860   2.254
 2256SOL    HW1 7667   4.054   4.810   2.333
 2256SOL    HW2 7668   3.918   4.866   2.260
 2257SOL     OW 7669   1.638   3.719   4.360
 2257SOL    HW1 7670   1.720   3.735   4.415
 2257SOL    HW2 7671   1.665   3.678   4.272
 2258SOL     OW 7672   1.712   5.506   5.176
 2258SOL    HW1 7673   1.701   5.479   5.080
 2258SOL    HW2 7674   1.809   5.517   5.196
 2259SOL     OW 7675   5.212   3.744   6.733
 2259SOL    HW1 7676   5.149   3.786   6.667
 2259SOL    HW2 7677   5.239   3.812   6.801
 2260SOL     OW 7678   5.097   5.082   1.862
 2260SOL    HW1 7679   5.107   4.991   1.903
 2260SOL    HW2 7680   5.065   5.073   1.768
 2261SOL     OW 7681   5.052   6.356   0.502
 2261SOL    HW1 7682   5.083   6.451   0.495
 2261SOL    HW2 7683   5.131   6.295   0.500
 2262SOL     OW 7684   5.206   2.448   4.061
 2262SOL    HW1 7685   5.111   2.473   4.077
 2262SOL    HW2 7686   5.266   2.526   4.082
 2263SOL     OW 7687   1.582   4.960   6.070
 2263SOL    HW1 7688   1.616   4.872   6.035
 2263SOL    HW2 7689   1.626   4.980   6.157
 2264SOL     OW 7690   3.146   3.578   3.269
 2264SOL    HW1 7691   3.143   3.664   3.320
 2264SOL    HW2 7692   3.057   3.534   3.273
 2265SOL     OW 7693   0.125   0.717   2.321
 2265SOL    HW1 7694   0.164   0.787   2.260
 2265SOL    HW2 7695   0.148   0.739   2.415
 2266SOL     OW 7696   6.210   0.714   0.767
 2266SOL    HW1 7697   6.280   0.763   0.715
 2266SOL    HW2 7698   6.254   0.670   0.846
 2267SOL     OW 7699   6.092   2.239   5.094
 2267SOL    HW1 7700   5.996   2.236   5.066
 2267SOL    HW2 7701   6.114   2.331   5.128
 2268SOL     OW 7702   0.293   6.444   6.682
 2268SOL    HW1 7703   0.340   6.441   6.770
 2268SOL    HW2 7704   0.199   6.411   6.693
 2269SOL     OW 7705   6.775   5.800   5.930
 2269SOL    HW1 7706   6.872   5.821   5.921
 2269SOL    HW2 7707   6.754   5.719   5.875
 2270SOL     OW 7708   2.907   3.174   1.915
 2270SOL    HW1 7709   2.892   3.272   1.923
 2270SOL    HW2 7710   2.929   3.151   1.820
 2271SOL     OW 7711   5.860   4.935   1.700
 2271SOL    HW1 7712   5.831   4.843   1.726
 2271SOL    HW2 7713   5.816   4.960   1.614
 2272SOL     OW 7714   5.368   1.913   5.314
 2272SOL    HW1 7715   5.281   1.963   5.318
 2272SOL    HW2 7716   5.357   1.825   5.360
 2273SOL     OW 7717   0.705   1.139   3.497
 2273SOL    HW1 7718   0.695   1.128   3.399
 2273SOL    HW2 7719   0.723   1.235   3.518
 2274SOL     OW 7720   1.556   3.596   4.650
 2274SOL    HW1 7721   1.537   3.599   4.748
 2274SOL    HW2 7722   1.557   3.690   4.614
 2275SOL     OW 7723   4.946   5.631   4.655
 2275SOL    HW1 7724   5.008   5.554   4.642
 2275SOL    HW2 7725   4.853   5.604   4.631
 2276SOL     OW 7726   4.342   3.981   0.749
 2276SOL    HW1 7727   4.248   3.948   0.737
 2276SOL    HW2 7728   4.400   3.940   0.679
 2277SOL     OW 7729   3.018   3.195   6.545
 2277SOL    HW1 7730   3.043   3.105   6.510
 2277SOL    HW2 7731   3.058   3.266   6.486
 2278SOL     OW 7732   5.455   6.349   2.247
 2278SOL    HW1 7733   5.372   6.378   2.200
 2278SOL    HW2 7734   5.450   6.251   2.266
 2279SOL     OW 7735   5.467   3.114   5.074
 2279SOL    HW1 7736   5.516   3.032   5.102
 2279SOL    HW2 7737   5.496   3.141   4.982
 2280SOL     OW 7738   6.334   6.240   5.325
 2280SOL    HW1 7739   6.254   6.203   5.374
 2280SOL    HW2 7740   6.402   6.271   5.391
 2281SOL     OW 7741   3.657   1.944   1.412
 2281SOL    HW1 7742   3.566   1.902   1.410
 2281SOL    HW2 7743   3.662   2.007   1.489
 2282SOL     OW 7744   4.350   5.611   3.696
 2282SOL    HW1 7745   4.291   5.629   3.617
 2282SOL    HW2 7746   4.324   5.523   3.736
 2283SOL     OW 7747   0.038   3.633   3.546
 2283SOL    HW1 7748   0.083   3.672   3.626
 2283SOL    HW2 7749   6.987   3.690   3.520
 2284SOL     OW 7750   2.542   1.933   1.648
 2284SOL    HW1 7751   2.563   1.892   1.736
 2284SOL    HW2 7752   2.507   2.026   1.662
 2285SOL     OW 7753   1.042   3.717   0.192
 2285SOL    HW1 7754   1.018   3.808   0.160
 2285SOL    HW2 7755   1.030   3.712   0.291
 2286SOL     OW 7756   6.015   5.774   4.520
 2286SOL    HW1 7757   6.018   5.815   4.612
 2286SOL    HW2 7758   5.948   5.700   4.519
 2287SOL     OW 7759   2.305   2.274   1.433
 2287SOL    HW1 7760   2.348   2.325   1.508
 2287SOL    HW2 7761   2.336   2.312   1.346
 2288SOL     OW 7762   0.032   6.555   2.601
 2288SOL    HW1 7763   6.979   6.610   2.577
 2288SOL    HW2 7764   0.114   6.611   2.596
 2289SOL     OW 7765   5.999   1.476   2.141
 2289SOL    HW1 7766   5.945   1.495   2.059
 2289SOL    HW2 7767   5.959   1.398   2.189
 2290SOL     OW 7768   3.201   3.716   3.509
 2290SOL    HW1 7769   3.226   3.621   3.525
 2290SOL    HW2 7770   3.276   3.776   3.537
 2291SOL     OW 7771   1.996   2.239   1.013
 2291SOL    HW1 7772   2.052   2.178   1.069
 2291SOL    HW2 7773   1.915   2.267   1.065
 2292SOL     OW 7774   4.672   2.247   3.512
 2292SOL    HW1 7775   4.669   2.191   3.595
 2292SOL    HW2 7776   4.624   2.200   3.438
 2293SOL     OW 7777   5.398   1.521   0.535
 2293SOL    HW1 7778   5.342   1.593   0.575
 2293SOL    HW2 7779   5.362   1.497   0.445
 2294SOL     OW 7780   1.419   2.385   6.398
 2294SOL    HW1 7781   1.322   2.360   6.393
 2294SOL    HW2 7782   1.434   2.469   6.346
 2295SOL     OW 7783   6.943   0.049   1.869
 2295SOL    HW1 7784   7.002   6.997   1.885
 2295SOL    HW2 7785   6.996   0.121   1.824
 2296SOL     OW 7786   2.412   5.357   3.326
 2296SOL    HW1 7787   2.348   5.342   3.401
 2296SOL    HW2 7788   2.421   5.456   3.310
 2297SOL     OW 7789   4.685   5.015   5.427
 2297SOL    HW1 7790   4.738   5.096   5.401
 2297SOL    HW2 7791   4.588   5.034   5.417
 2298SOL     OW 7792   3.876   3.170   4.693
 2298SOL    HW1 7793   3.967   3.212   4.692
 2298SOL    HW2 7794   3.876   3.093   4.756
 2299SOL     OW 7795   5.554   3.306   5.230
 2299SOL    HW1 7796   5.634   3.330   5.175
 2299SOL    HW2 7797   5.504   3.232   5.186
 2300SOL     OW 7798   3.823   6.645   3.143
 2300SOL    HW1 7799   3.768   6.726   3.123
 2300SOL    HW2 7800   3.919   6.666   3.129
 2301SOL     OW 7801   3.037   3.124   4.302
 2301SOL    HW1 7802   3.066   3.106   4.395
 2301SOL    HW2 7803   3.017   3.222   4.292
 2302SOL     OW 7804   4.132   1.302   0.398
 2302SOL    HW1 7805   4.142   1.315   0.497
 2302SOL    HW2 7806   4.177   1.217   0.371
 2303SOL     OW 7807   2.449   2.565   0.938
 2303SOL    HW1 7808   2.375   2.511   0.899
 2303SOL    HW2 7809   2.412   2.646   0.983
 2304SOL     OW 7810   6.345   6.031   3.215
 2304SOL    HW1 7811   6.309   5.940   3.190
 2304SOL    HW2 7812   6.445   6.030   3.206
 2305SOL     OW 7813   0.983   1.149   5.024
 2305SOL    HW1 7814   0.922   1.103   4.960
 2305SOL    HW2 7815   0.943   1.237   5.051
 2306SOL     OW 7816   2.433   4.626   3.443
 2306SOL    HW1 7817   2.434   4.724   3.422
 2306SOL    HW2 7818   2.359   4.606   3.506
 2307SOL     OW 7819   1.397   2.623   5.611
 2307SOL    HW1 7820   1.471   2.686   5.591
 2307SOL    HW2 7821   1.416   2.534   5.570
 2308SOL     OW 7822   2.524   4.708   1.595
 2308SOL    HW1 7823   2.478   4.750   1.673
 2308SOL    HW2 7824   2.601   4.653   1.627
 2309SOL     OW 7825   1.175   6.828   4.228
 2309SOL    HW1 7826   1.254   6.833   4.289
 2309SOL    HW2 7827   1.181   6.746   4.171
 2310SOL     OW 7828   4.334   6.717   1.622
 2310SOL    HW1 7829   4.309   6.810   1.648
 2310SOL    HW2 7830   4.429   6.714   1.593
 2311SOL     OW 7831   2.661   5.731   1.013
 2311SOL    HW1 7832   2.641   5.645   0.967
 2311SOL    HW2 7833   2.697   5.796   0.947
 2312SOL     OW 7834   3.652   5.743   2.580
 2312SOL    HW1 7835   3.645   5.736   2.679
 2312SOL    HW2 7836   3.564   5.770   2.541
 2313SOL     OW 7837   4.602   4.930   2.553
 2313SOL    HW1 7838   4.532   4.931   2.624
 2313SOL    HW2 7839   4.644   5.021   2.546
 2314SOL     OW 7840   3.331   5.931   3.283
 2314SOL    HW1 7841   3.372   5.849   3.323
 2314SOL    HW2 7842   3.380   6.012   3.313
 2315SOL     OW 7843   4.700   3.478   6.209
 2315SOL    HW1 7844   4.733   3.570   6.233
 2315SOL    HW2 7845   4.618   3.486   6.151
 2316SOL     OW 7846   5.612   3.219   2.861
 2316SOL    HW1 7847   5.682   3.167   2.812
 2316SOL    HW2 7848   5.646   3.311   2.881
 2317SOL     OW 7849   1.932   4.332   3.289
 2317SOL    HW1 7850   1.882   4.411   3.325
 2317SOL    HW2 7851   1.892   4.248   3.325
 2318SOL     OW 7852   0.224   1.494   3.093
 2318SOL    HW1 7853   0.172   1.461   3.172
 2318SOL    HW2 7854   0.187   1.453   3.010
 2319SOL     OW 7855   1.551   5.026   4.434
 2319SOL    HW1 7856   1.616   5.100   4.452
 2319SOL    HW2 7857   1.600   4.947   4.397
 2320SOL     OW 7858   0.168   2.878   3.963
 2320SOL    HW1 7859   0.219   2.924   3.890
 2320SOL    HW2 7860   0.220   2.799   3.995
 2321SOL     OW 7861   3.001   6.862   4.851
 2321SOL    HW1 7862   3.087   6.834   4.808
 2321SOL    HW2 7863   2.924   6.824   4.799
 2322SOL     OW 7864   1.238   0.961   5.475
 2322SOL    HW1 7865   1.312   0.900   5.502
 2322SOL    HW2 7866   1.166   0.908   5.430
 2323SOL     OW 7867   4.668   5.379   2.786
 2323SOL    HW1 7868   4.616   5.451   2.739
 2323SOL    HW2 7869   4.673   5.400   2.883
 2324SOL     OW 7870   0.404   6.062   2.422
 2324SOL    HW1 7871   0.337   6.112   2.367
 2324SOL    HW2 7872   0.477   6.028   2.362
 2325SOL     OW 7873   1.405   4.009   1.516
 2325SOL    HW1 7874   1.498   3.974   1.525
 2325SOL    HW2 7875   1.401   4.077   1.442
 2326SOL     OW 7876   1.668   5.129   6.842
 2326SOL    HW1 7877   1.572   5.153   6.857
 2326SOL    HW2 7878   1.675   5.058   6.773
 2327SOL     OW 7879   5.057   2.888   4.092
 2327SOL    HW1 7880   5.092   2.920   4.180
 2327SOL    HW2 7881   5.129   2.896   4.023
 2328SOL     OW 7882   4.701   1.444   2.838
 2328SOL    HW1 7883   4.654   1.529   2.814
 2328SOL    HW2 7884   4.799   1.460   2.839
 2329SOL     OW 7885   1.241   6.079   4.194
 2329SOL    HW1 7886   1.321   6.066   4.253
 2329SOL    HW2 7887   1.173   6.009   4.214
 2330SOL     OW 7888   0.850   4.357   2.634
 2330SOL    HW1 7889   0.933   4.382   2.684
 2330SOL    HW2 7890   0.875   4.313   2.548
 2331SOL     OW 7891   0.454   4.301   5.283
 2331SOL    HW1 7892   0.462   4.378   5.346
 2331SOL    HW2 7893   0.404   4.330   5.202
 2332SOL     OW 7894   5.748   2.388   5.820
 2332SOL    HW1 7895   5.785   2.323   5.886
 2332SOL    HW2 7896   5.702   2.339   5.747
 2333SOL     OW 7897   1.319   5.553   3.357
 2333SOL    HW1 7898   1.376   5.595   3.286
 2333SOL    HW2 7899   1.350   5.459   3.374
 2334SOL     OW 7900   3.066   0.030   6.634
 2334SOL    HW1 7901   3.036   0.005   6.542
 2334SOL    HW2 7902   3.082   6.974   6.687
 2335SOL     OW 7903   4.838   6.970   3.569
 2335SOL    HW1 7904   4.910   6.944   3.505
 2335SOL    HW2 7905   4.850   0.038   3.597
 2336SOL     OW 7906   5.054   0.683   6.175
 2336SOL    HW1 7907   4.998   0.745   6.120
 2336SOL    HW2 7908   5.100   0.735   6.247
 2337SOL     OW 7909   5.241   0.223   3.126
 2337SOL    HW1 7910   5.163   0.166   3.102
 2337SOL    HW2 7911   5.272   0.273   3.045
 2338SOL     OW 7912   0.688   6.753   6.832
 2338SOL    HW1 7913   0.634   6.836   6.822
 2338SOL    HW2 7914   0.783   6.778   6.854
 2339SOL     OW 7915   3.490   4.658   0.078
 2339SOL    HW1 7916   3.546   4.712   0.141
 2339SOL    HW2 7917   3.428   4.718   0.028
 2340SOL     OW 7918   3.448   5.668   4.782
 2340SOL    HW1 7919   3.420   5.754   4.740
 2340SOL    HW2 7920   3.506   5.687   4.861
 2341SOL     OW 7921   5.331   5.303   0.938
 2341SOL    HW1 7922   5.371   5.215   0.912
 2341SOL    HW2 7923   5.393   5.377   0.910
 2342SOL     OW 7924   6.217   0.131   5.129
 2342SOL    HW1 7925   6.198   0.195   5.055
 2342SOL    HW2 7926   6.316   0.117   5.135
 2343SOL     OW 7927   1.207   5.505   0.891
 2343SOL    HW1 7928   1.175   5.535   0.981
 2343SOL    HW2 7929   1.226   5.585   0.834
 2344SOL     OW 7930   2.209   2.195   2.855
 2344SOL    HW1 7931   2.123   2.245   2.846
 2344SOL    HW2 7932   2.281   2.258   2.884
 2345SOL     OW 7933   1.785   0.960   4.321
 2345SOL    HW1 7934   1.754   0.991   4.411
 2345SOL    HW2 7935   1.885   0.948   4.322
 2346SOL     OW 7936   5.294   3.716   5.678
 2346SOL    HW1 7937   5.249   3.734   5.590
 2346SOL    HW2 7938   5.388   3.747   5.674
 2347SOL     OW 7939   1.596   3.064   2.041
 2347SOL    HW1 7940   1.626   3.159   2.034
 2347SOL    HW2 7941   1.503   3.062   2.079
 2348SOL     OW 7942   2.788   6.006   2.764
 2348SOL    HW1 7943   2.844   6.083   2.794
 2348SOL    HW2 7944   2.843   5.923   2.764
 2349SOL     OW 7945   6.650   6.582   6.151
 2349SOL    HW1 7946   6.596   6.641   6.212
 2349SOL    HW2 7947   6.595   6.560   6.070
 2350SOL     OW 7948   2.698   0.564   5.862
 2350SOL    HW1 7949   2.677   0.639   5.924
 2350SOL    HW2 7950   2.795   0.539   5.870
 2351SOL     OW 7951   2.728   4.994   3.920
 2351SOL    HW1 7952   2.775   4.911   3.951
 2351SOL    HW2 7953   2.682   5.037   3.998
 2352SOL     OW 7954   0.146   4.089   3.295
 2352SOL    HW1 7955   0.237   4.130   3.289
 2352SOL    HW2 7956   0.090   4.123   3.219
 2353SOL     OW 7957   2.881   4.405   5.788
 2353SOL    HW1 7958   2.924   4.449   5.709
 2353SOL    HW2 7959   2.782   4.419   5.784
 2354SOL     OW 7960   3.390   1.804   0.771
 2354SOL    HW1 7961   3.307   1.775   0.722
 2354SOL    HW2 7962   3.368   1.821   0.866
 2355SOL     OW 7963   0.403   6.555   0.400
 2355SOL    HW1 7964   0.325   6.581   0.342
 2355SOL    HW2 7965   0.446   6.473   0.362
 2356SOL     OW 7966   2.755   5.070   2.877
 2356SOL    HW1 7967   2.661   5.065   2.913
 2356SOL    HW2 7968   2.806   4.989   2.906
 2357SOL     OW 7969   6.185   4.245   2.230
 2357SOL    HW1 7970   6.184   4.150   2.200
 2357SOL    HW2 7971   6.092   4.278   2.242
 2358SOL     OW 7972   3.839   0.876   5.767
 2358SOL    HW1 7973   3.895   0.841   5.693
 2358SOL    HW2 7974   3.889   0.867   5.854
 2359SOL     OW 7975   2.598   1.760   5.432
 2359SOL    HW1 7976   2.563   1.852   5.448
 2359SOL    HW2 7977   2.557   1.696   5.497
 2360SOL     OW 7978   4.226   4.818   1.113
 2360SOL    HW1 7979   4.154   4.754   1.084
 2360SOL    HW2 7980   4.188   4.910   1.118
 2361SOL     OW 7981   3.276   6.623   2.265
 2361SOL    HW1 7982   3.294   6.527   2.289
 2361SOL    HW2 7983   3.333   6.682   2.321
 2362SOL     OW 7984   4.327   5.578   4.660
 2362SOL    HW1 7985   4.247   5.592   4.602
 2362SOL    HW2 7986   4.328   5.485   4.695
 2363SOL     OW 7987   3.103   3.106   0.486
 2363SOL    HW1 7988   3.082   3.087   0.390
 2363SOL    HW2 7989   3.190   3.154   0.493
 2364SOL     OW 7990   4.551   1.838   1.972
 2364SOL    HW1 7991   4.554   1.921   1.916
 2364SOL    HW2 7992   4.488   1.852   2.049
 2365SOL     OW 7993   5.434   3.776   4.160
 2365SOL    HW1 7994   5.355   3.792   4.100
 2365SOL    HW2 7995   5.429   3.683   4.197
 2366SOL     OW 7996   2.407   4.310   5.535
 2366SOL    HW1 7997   2.412   4.313   5.435
 2366SOL    HW2 7998   2.322   4.265   5.563
 2367SOL     OW 7999   0.818   3.867   6.178
 2367SOL    HW1 8000   0.809   3.854   6.079
 2367SOL    HW2 8001   0.904   3.914   6.198
 2368SOL     OW 8002   5.688   0.109   3.876
 2368SOL    HW1 8003   5.706   0.164   3.958
 2368SOL    HW2 8004   5.589   0.104   3.861
 2369SOL     OW 8005   2.965   1.478   3.709
 2369SOL    HW1 8006   2.995   1.456   3.802
 2369SOL    HW2 8007   3.006   1.413   3.645
 2370SOL     OW 8008   5.372   3.295   1.422
 2370SOL    HW1 8009   5.294   3.232   1.419
 2370SOL    HW2 8010   5.457   3.245   1.406
 2371SOL     OW 8011   0.771   6.651   2.726
 2371SOL    HW1 8012   0.799   6.741   2.693
 2371SOL    HW2 8013   0.846   6.610   2.778
 2372SOL     OW 8014   6.601   1.372   5.904
 2372SOL    HW1 8015   6.696   1.364   5.935
 2372SOL    HW2 8016   6.581   1.468   5.883
 2373SOL     OW 8017   6.314   0.448   5.894
 2373SOL    HW1 8018   6.352   0.501   5.818
 2373SOL    HW2 8019   6.260   0.372   5.857
 2374SOL     OW 8020   5.975   6.313   3.180
 2374SOL    HW1 8021   5.975   6.213   3.184
 2374SOL    HW2 8022   5.881   6.347   3.175
 2375SOL     OW 8023   0.984   0.462   4.118
 2375SOL    HW1 8024   1.025   0.406   4.191
 2375SOL    HW2 8025   1.053   0.482   4.048
 2376SOL     OW 8026   6.449   2.561   3.045
 2376SOL    HW1 8027   6.504   2.517   2.974
 2376SOL    HW2 8028   6.443   2.500   3.124
 2377SOL     OW 8029   4.049   5.009   5.887
 2377SOL    HW1 8030   4.069   5.078   5.818
 2377SOL    HW2 8031   4.132   4.993   5.942
 2378SOL     OW 8032   6.306   1.777   0.689
 2378SOL    HW1 8033   6.311   1.722   0.772
 2378SOL    HW2 8034   6.278   1.719   0.612
 2379SOL     OW 8035   6.816   5.178   0.422
 2379SOL    HW1 8036   6.753   5.256   0.418
 2379SOL    HW2 8037   6.767   5.096   0.450
 2380SOL     OW 8038   5.171   4.162   4.961
 2380SOL    HW1 8039   5.165   4.108   4.877
 2380SOL    HW2 8040   5.262   4.202   4.968
 2381SOL     OW 8041   2.614   4.963   5.367
 2381SOL    HW1 8042   2.632   5.052   5.409
 2381SOL    HW2 8043   2.688   4.941   5.304
 2382SOL     OW 8044   1.700   5.666   2.254
 2382SOL    HW1 8045   1.668   5.748   2.208
 2382SOL    HW2 8046   1.732   5.690   2.346
 2383SOL     OW 8047   5.385   5.769   4.910
 2383SOL    HW1 8048   5.408   5.723   4.996
 2383SOL    HW2 8049   5.285   5.778   4.903
 2384SOL     OW 8050   0.847   1.837   1.373
 2384SOL    HW1 8051   0.892   1.908   1.319
 2384SOL    HW2 8052   0.873   1.747   1.338
 2385SOL     OW 8053   0.665   1.730   0.763
 2385SOL    HW1 8054   0.577   1.761   0.727
 2385SOL    HW2 8055   0.653   1.643   0.811
 2386SOL     OW 8056   3.597   5.574   4.195
 2386SOL    HW1 8057   3.620   5.483   4.160
 2386SOL    HW2 8058   3.509   5.603   4.157
 2387SOL     OW 8059   1.037   2.204   3.579
 2387SOL    HW1 8060   1.051   2.145   3.500
 2387SOL    HW2 8061   1.124   2.219   3.625
 2388SOL     OW 8062   6.930   1.900   6.416
 2388SOL    HW1 8063   6.878   1.914   6.500
 2388SOL    HW2 8064   6.892   1.957   6.343
 2389SOL     OW 8065   4.792   4.618   4.122
 2389SOL    HW1 8066   4.844   4.596   4.040
 2389SOL    HW2 8067   4.736   4.700   4.105
 2390SOL     OW 8068   4.436   3.727   6.327
 2390SOL    HW1 8069   4.367   3.672   6.374
 2390SOL    HW2 8070   4.526   3.707   6.366
 2391SOL     OW 8071   3.427   3.472   6.129
 2391SOL    HW1 8072   3.374   3.419   6.063
 2391SOL    HW2 8073   3.442   3.564   6.092
 2392SOL     OW 8074   3.326   5.934   5.285
 2392SOL    HW1 8075   3.301   5.955   5.379
 2392SOL    HW2 8076   3.364   5.841   5.281
 2393SOL     OW 8077   4.016   5.408   1.255
 2393SOL    HW1 8078   4.116   5.401   1.258
 2393SOL    HW2 8079   3.976   5.331   1.304
 2394SOL     OW 8080   0.045   3.217   3.091
 2394SOL    HW1 8081   7.008   3.145   3.063
 2394SOL    HW2 8082   0.137   3.179   3.096
 2395SOL     OW 8083   0.519   3.068   6.405
 2395SOL    HW1 8084   0.427   3.027   6.401
 2395SOL    HW2 8085   0.525   3.127   6.485
 2396SOL     OW 8086   5.836   0.580   4.979
 2396SOL    HW1 8087   5.898   0.572   4.901
 2396SOL    HW2 8088   5.807   0.490   5.009
 2397SOL     OW 8089   0.955   5.014   5.479
 2397SOL    HW1 8090   0.908   5.087   5.528
 2397SOL    HW2 8091   1.040   4.992   5.525
 2398SOL     OW 8092   2.333   5.158   3.686
 2398SOL    HW1 8093   2.364   5.230   3.747
 2398SOL    HW2 8094   2.233   5.154   3.686
 2399SOL     OW 8095   2.757   2.390   3.505
 2399SOL    HW1 8096   2.839   2.339   3.530
 2399SOL    HW2 8097   2.689   2.382   3.577
 2400SOL     OW 8098   2.170   4.083   6.977
 2400SOL    HW1 8099   2.100   4.079   0.021
 2400SOL    HW2 8100   2.129   4.060   6.889
 2401SOL     OW 8101   3.801   0.247   4.857
 2401SOL    HW1 8102   3.760   0.220   4.943
 2401SOL    HW2 8103   3.900   0.259   4.869
 2402SOL     OW 8104   0.871   2.265   2.373
 2402SOL    HW1 8105   0.927   2.228   2.447
 2402SOL    HW2 8106   0.795   2.317   2.412
 2403SOL     OW 8107   3.876   3.544   2.060
 2403SOL    HW1 8108   3.885   3.540   1.960
 2403SOL    HW2 8109   3.796   3.491   2.088
 2404SOL     OW 8110   6.591   1.114   0.983
 2404SOL    HW1 8111   6.679   1.111   0.936
 2404SOL    HW2 8112   6.528   1.172   0.931
 2405SOL     OW 8113   2.320   4.632   0.314
 2405SOL    HW1 8114   2.243   4.612   0.375
 2405SOL    HW2 8115   2.322   4.729   0.293
 2406SOL     OW 8116   1.799   0.288   3.947
 2406SOL    HW1 8117   1.705   0.320   3.945
 2406SOL    HW2 8118   1.836   0.288   3.854
 2407SOL     OW 8119   3.965   1.872   3.403
 2407SOL    HW1 8120   4.059   1.880   3.372
 2407SOL    HW2 8121   3.906   1.931   3.348
 2408SOL     OW 8122   2.280   5.767   3.471
 2408SOL    HW1 8123   2.187   5.797   3.451
 2408SOL    HW2 8124   2.277   5.683   3.526
 2409SOL     OW 8125   2.338   2.322   1.180
 2409SOL    HW1 8126   2.297   2.231   1.194
 2409SOL    HW2 8127   2.287   2.371   1.109
 2410SOL     OW 8128   6.249   3.337   5.964
 2410SOL    HW1 8129   6.287   3.380   6.046
 2410SOL    HW2 8130   6.204   3.251   5.990
 2411SOL     OW 8131   2.800   3.891   6.720
 2411SOL    HW1 8132   2.863   3.880   6.643
 2411SOL    HW2 8133   2.714   3.930   6.688
 2412SOL     OW 8134   2.814   2.248   6.683
 2412SOL    HW1 8135   2.828   2.271   6.779
 2412SOL    HW2 8136   2.763   2.162   6.677
 2413SOL     OW 8137   6.931   3.240   6.335
 2413SOL    HW1 8138   6.925   3.160   6.274
 2413SOL    HW2 8139   7.022   3.281   6.328
 2414SOL     OW 8140   5.715   2.954   4.176
 2414SOL    HW1 8141   5.768   2.883   4.223
 2414SOL    HW2 8142   5.770   2.992   4.101
 2415SOL     OW 8143   2.312   6.387   1.074
 2415SOL    HW1 8144   2.231   6.361   1.125
 2415SOL    HW2 8145   2.301   6.479   1.037
 2416SOL     OW 8146   0.234   3.560   2.898
 2416SOL    HW1 8147   0.166   3.494   2.929
 2416SOL    HW2 8148   0.192   3.650   2.888
 2417SOL     OW 8149   4.550   2.444   0.088
 2417SOL    HW1 8150   4.624   2.388   0.126
 2417SOL    HW2 8151   4.466   2.390   0.084
 2418SOL     OW 8152   4.302   4.286   5.480
 2418SOL    HW1 8153   4.236   4.299   5.554
 2418SOL    HW2 8154   4.384   4.242   5.516
 2419SOL     OW 8155   2.110   6.658   4.530
 2419SOL    HW1 8156   2.153   6.745   4.556
 2419SOL    HW2 8157   2.011   6.666   4.537
 2420SOL     OW 8158   3.489   5.519   2.212
 2420SOL    HW1 8159   3.413   5.560   2.263
 2420SOL    HW2 8160   3.527   5.444   2.265
 2421SOL     OW 8161   3.298   0.123   4.526
 2421SOL    HW1 8162   3.205   0.098   4.501
 2421SOL    HW2 8163   3.310   0.111   4.625
 2422SOL     OW 8164   3.654   6.800   2.142
 2422SOL    HW1 8165   3.751   6.807   2.162
 2422SOL    HW2 8166   3.627   6.871   2.077
 2423SOL     OW 8167   1.910   5.380   2.207
 2423SOL    HW1 8168   1.962   5.465   2.200
 2423SOL    HW2 8169   1.972   5.302   2.204
 2424SOL     OW 8170   5.486   0.419   6.530
 2424SOL    HW1 8171   5.431   0.484   6.478
 2424SOL    HW2 8172   5.505   0.456   6.621
 2425SOL     OW 8173   4.619   5.352   5.553
 2425SOL    HW1 8174   4.555   5.408   5.501
 2425SOL    HW2 8175   4.705   5.402   5.564
 2426SOL     OW 8176   1.244   5.529   5.798
 2426SOL    HW1 8177   1.193   5.561   5.878
 2426SOL    HW2 8178   1.302   5.452   5.824
 2427SOL     OW 8179   4.726   6.553   6.151
 2427SOL    HW1 8180   4.700   6.457   6.139
 2427SOL    HW2 8181   4.736   6.597   6.062
 2428SOL     OW 8182   0.145   1.401   3.795
 2428SOL    HW1 8183   0.078   1.455   3.845
 2428SOL    HW2 8184   0.218   1.372   3.857
 2429SOL     OW 8185   5.254   4.703   2.467
 2429SOL    HW1 8186   5.226   4.770   2.399
 2429SOL    HW2 8187   5.176   4.645   2.491
 2430SOL     OW 8188   5.618   2.330   0.562
 2430SOL    HW1 8189   5.665   2.272   0.629
 2430SOL    HW2 8190   5.622   2.425   0.591
 2431SOL     OW 8191   6.218   1.898   1.989
 2431SOL    HW1 8192   6.172   1.979   1.954
 2431SOL    HW2 8193   6.155   1.845   2.045
 2432SOL     OW 8194   3.330   5.407   2.018
 2432SOL    HW1 8195   3.305   5.493   1.972
 2432SOL    HW2 8196   3.378   5.428   2.103
 2433SOL     OW 8197   6.876   5.538   0.134
 2433SOL    HW1 8198   6.952   5.515   0.195
 2433SOL    HW2 8199   6.809   5.593   0.184
 2434SOL     OW 8200   4.293   1.866   3.016
 2434SOL    HW1 8201   4.226   1.837   2.949
 2434SOL    HW2 8202   4.360   1.926   2.973
 2435SOL     OW 8203   5.532   0.071   6.728
 2435SOL    HW1 8204   5.438   0.092   6.700
 2435SOL    HW2 8205   5.595   0.098   6.655
 2436SOL     OW 8206   1.349   1.129   1.704
 2436SOL    HW1 8207   1.333   1.065   1.779
 2436SOL    HW2 8208   1.292   1.105   1.626
 2437SOL     OW 8209   6.149   6.205   2.318
 2437SOL    HW1 8210   6.122   6.250   2.402
 2437SOL    HW2 8211   6.171   6.109   2.336
 2438SOL     OW 8212   3.365   1.802   4.169
 2438SOL    HW1 8213   3.319   1.769   4.086
 2438SOL    HW2 8214   3.454   1.841   4.144
 2439SOL     OW 8215   0.107   4.856   6.591
 2439SOL    HW1 8216   0.142   4.948   6.608
 2439SOL    HW2 8217   0.167   4.789   6.635
 2440SOL     OW 8218   3.813   1.606   4.106
 2440SOL    HW1 8219   3.777   1.524   4.062
 2440SOL    HW2 8220   3.891   1.640   4.054
 2441SOL     OW 8221   5.981   0.583   6.783
 2441SOL    HW1 8222   5.908   0.619   6.841
 2441SOL    HW2 8223   5.941   0.538   6.703
 2442SOL     OW 8224   5.183   3.715   2.062
 2442SOL    HW1 8225   5.105   3.664   2.099
 2442SOL    HW2 8226   5.247   3.736   2.137
 2443SOL     OW 8227   2.342   1.149   6.950
 2443SOL    HW1 8228   2.408   1.118   6.882
 2443SOL    HW2 8229   2.328   1.078   7.019
 2444SOL     OW 8230   4.844   4.927   0.528
 2444SOL    HW1 8231   4.899   4.891   0.603
 2444SOL    HW2 8232   4.882   5.015   0.498
 2445SOL     OW 8233   6.999   2.066   2.096
 2445SOL    HW1 8234   6.919   2.008   2.079
 2445SOL    HW2 8235   0.054   2.018   2.065
 2446SOL     OW 8236   1.164   3.136   1.889
 2446SOL    HW1 8237   1.195   3.044   1.914
 2446SOL    HW2 8238   1.082   3.160   1.940
 2447SOL     OW 8239   2.211   1.036   0.315
 2447SOL    HW1 8240   2.263   1.120   0.331
 2447SOL    HW2 8241   2.260   0.977   0.252
 2448SOL     OW 8242   5.950   1.954   4.248
 2448SOL    HW1 8243   5.906   2.035   4.208
 2448SOL    HW2 8244   6.044   1.947   4.215
 2449SOL     OW 8245   1.814   4.452   1.869
 2449SOL    HW1 8246   1.782   4.405   1.951
 2449SOL    HW2 8247   1.747   4.439   1.796
 2450SOL     OW 8248   3.172   5.119   6.935
 2450SOL    HW1 8249   3.185   5.177   7.015
 2450SOL    HW2 8250   3.135   5.030   6.964
 2451SOL     OW 8251   0.560   6.938   4.083
 2451SOL    HW1 8252   0.536   7.015   4.025
 2451SOL    HW2 8253   0.657   6.943   4.106
 2452SOL     OW 8254   2.341   2.351   3.296
 2452SOL    HW1 8255   2.432   2.393   3.301
 2452SOL    HW2 8256   2.349   2.259   3.258
 2453SOL     OW 8257   6.648   1.922   0.858
 2453SOL    HW1 8258   6.716   1.937   0.786
 2453SOL    HW2 8259   6.601   1.835   0.843
 2454SOL     OW 8260   3.190   5.666   0.742
 2454SOL    HW1 8261   3.228   5.599   0.678
 2454SOL    HW2 8262   3.179   5.625   0.832
 2455SOL     OW 8263   3.286   1.243   0.116
 2455SOL    HW1 8264   3.306   1.340   0.125
 2455SOL    HW2 8265   3.226   1.228   0.038
 2456SOL     OW 8266   0.767   3.657   6.977
 2456SOL    HW1 8267   0.772   3.564   6.939
 2456SOL    HW2 8268   0.772   3.723   6.903
 2457SOL     OW 8269   5.714   1.120   5.698
 2457SOL    HW1 8270   5.694   1.041   5.756
 2457SOL    HW2 8271   5.756   1.089   5.612
 2458SOL     OW 8272   0.851   0.939   3.222
 2458SOL    HW1 8273   0.878   0.929   3.318
 2458SOL    HW2 8274   0.831   1.035   3.203
 2459SOL     OW 8275   2.776   5.663   6.063
 2459SOL    HW1 8276   2.715   5.673   5.985
 2459SOL    HW2 8277   2.828   5.748   6.076
 2460SOL     OW 8278   0.795   0.820   0.096
 2460SOL    HW1 8279   0.891   0.826   0.121
 2460SOL    HW2 8280   0.739   0.865   0.166
 2461SOL     OW 8281   4.400   6.613   4.093
 2461SOL    HW1 8282   4.449   6.531   4.066
 2461SOL    HW2 8283   4.440   6.693   4.047
 2462SOL     OW 8284   0.732   5.054   0.600
 2462SOL    HW1 8285   0.823   5.085   0.628
 2462SOL    HW2 8286   0.664   5.124   0.623
 2463SOL     OW 8287   6.556   1.554   0.589
 2463SOL    HW1 8288   6.618   1.476   0.599
 2463SOL    HW2 8289   6.557   1.608   0.673
 2464SOL     OW 8290   0.769   2.690   3.025
 2464SOL    HW1 8291   0.764   2.745   3.109
 2464SOL    HW2 8292   0.705   2.727   2.958
 2465SOL     OW 8293   6.816   6.105   6.104
 2465SOL    HW1 8294   6.822   6.182   6.167
 2465SOL    HW2 8295   6.746   6.041   6.136
 2466SOL     OW 8296   1.441   2.027   2.231
 2466SOL    HW1 8297   1.486   2.112   2.260
 2466SOL    HW2 8298   1.511   1.957   2.215
 2467SOL     OW 8299   4.519   1.906   5.827
 2467SOL    HW1 8300   4.462   1.850   5.767
 2467SOL    HW2 8301   4.468   1.929   5.910
 2468SOL     OW 8302   4.010   0.338   6.444
 2468SOL    HW1 8303   4.078   0.297   6.384
 2468SOL    HW2 8304   3.968   0.267   6.501
 2469SOL     OW 8305   4.044   3.176   5.532
 2469SOL    HW1 8306   3.990   3.114   5.590
 2469SOL    HW2 8307   3.985   3.250   5.499
 2470SOL     OW 8308   3.970   4.331   6.408
 2470SOL    HW1 8309   4.057   4.379   6.393
 2470SOL    HW2 8310   3.983   4.258   6.474
 2471SOL     OW 8311   2.998   6.809   0.628
 2471SOL    HW1 8312   2.899   6.824   0.629
 2471SOL    HW2 8313   3.038   6.855   0.549
 2472SOL     OW 8314   4.256   2.237   3.367
 2472SOL    HW1 8315   4.312   2.318   3.383
 2472SOL    HW2 8316   4.261   2.177   3.446
 2473SOL     OW 8317   1.241   4.699   4.904
 2473SOL    HW1 8318   1.145   4.694   4.932
 2473SOL    HW2 8319   1.281   4.784   4.937
 2474SOL     OW 8320   1.190   5.703   0.260
 2474SOL    HW1 8321   1.246   5.785   0.264
 2474SOL    HW2 8322   1.188   5.660   0.351
 2475SOL     OW 8323   4.356   0.417   1.122
 2475SOL    HW1 8324   4.443   0.367   1.127
 2475SOL    HW2 8325   4.370   0.511   1.152
 2476SOL     OW 8326   5.706   0.054   2.533
 2476SOL    HW1 8327   5.660   0.005   2.607
 2476SOL    HW2 8328   5.675   0.019   2.445
 2477SOL     OW 8329   3.626   0.894   2.829
 2477SOL    HW1 8330   3.558   0.854   2.891
 2477SOL    HW2 8331   3.689   0.823   2.798
 2478SOL     OW 8332   4.925   0.778   1.762
 2478SOL    HW1 8333   4.946   0.690   1.719
 2478SOL    HW2 8334   4.849   0.766   1.825
 2479SOL     OW 8335   1.416   2.628   1.451
 2479SOL    HW1 8336   1.365   2.552   1.413
 2479SOL    HW2 8337   1.393   2.712   1.402
 2480SOL     OW 8338   3.991   2.311   1.066
 2480SOL    HW1 8339   4.075   2.357   1.095
 2480SOL    HW2 8340   3.942   2.279   1.147
 2481SOL     OW 8341   2.802   0.731   1.450
 2481SOL    HW1 8342   2.830   0.774   1.537
 2481SOL    HW2 8343   2.772   0.638   1.467
 2482SOL     OW 8344   5.179   3.608   0.288
 2482SOL    HW1 8345   5.236   3.690   0.301
 2482SOL    HW2 8346   5.113   3.601   0.363
 2483SOL     OW 8347   1.425   1.444   0.337
 2483SOL    HW1 8348   1.433   1.492   0.425
 2483SOL    HW2 8349   1.410   1.511   0.264
 2484SOL     OW 8350   3.294   0.818   0.379
 2484SOL    HW1 8351   3.258   0.906   0.346
 2484SOL    HW2 8352   3.286   0.749   0.307
 2485SOL     OW 8353   4.981   3.057   0.509
 2485SOL    HW1 8354   5.026   3.030   0.595
 2485SOL    HW2 8355   5.032   3.019   0.432
 2486SOL     OW 8356   1.072   5.284   5.869
 2486SOL    HW1 8357   1.153   5.340   5.855
 2486SOL    HW2 8358   1.009   5.331   5.932
 2487SOL     OW 8359   4.386   6.337   0.005
 2487SOL    HW1 8360   4.299   6.381   7.010
 2487SOL    HW2 8361   4.441   6.329   6.948
 2488SOL     OW 8362   0.899   3.335   1.811
 2488SOL    HW1 8363   0.905   3.435   1.822
 2488SOL    HW2 8364   0.873   3.294   1.898
 2489SOL     OW 8365   1.051   5.961   3.568
 2489SOL    HW1 8366   1.027   5.983   3.663
 2489SOL    HW2 8367   1.074   5.864   3.561
 2490SOL     OW 8368   0.411   5.975   1.030
 2490SOL    HW1 8369   0.394   6.033   0.951
 2490SOL    HW2 8370   0.325   5.954   1.076
 2491SOL     OW 8371   3.437   4.322   1.309
 2491SOL    HW1 8372   3.389   4.253   1.256
 2491SOL    HW2 8373   3.371   4.371   1.367
 2492SOL     OW 8374   4.522   3.262   1.154
 2492SOL    HW1 8375   4.550   3.332   1.219
 2492SOL    HW2 8376   4.422   3.262   1.147
 2493SOL     OW 8377   6.634   6.713   1.387
 2493SOL    HW1 8378   6.615   6.803   1.426
 2493SOL    HW2 8379   6.724   6.683   1.417
 2494SOL     OW 8380   5.828   4.238   2.083
 2494SOL    HW1 8381   5.892   4.304   2.045
 2494SOL    HW2 8382   5.793   4.272   2.170
 2495SOL     OW 8383   5.181   5.445   3.682
 2495SOL    HW1 8384   5.166   5.542   3.699
 2495SOL    HW2 8385   5.221   5.434   3.591
 2496SOL     OW 8386   0.157   3.136   6.818
 2496SOL    HW1 8387   0.130   3.231   6.805
 2496SOL    HW2 8388   0.079   3.083   6.851
 2497SOL     OW 8389   0.399   0.220   0.808
 2497SOL    HW1 8390   0.365   0.143   0.863
 2497SOL    HW2 8391   0.346   0.302   0.828
 2498SOL     OW 8392   3.272   2.348   5.444
 2498SOL    HW1 8393   3.315   2.259   5.433
 2498SOL    HW2 8394   3.228   2.375   5.359
 2499SOL     OW 8395   5.833   3.384   2.199
 2499SOL    HW1 8396   5.843   3.375   2.100
 2499SOL    HW2 8397   5.769   3.315   2.233
 2500SOL     OW 8398   3.482   4.474   6.845
 2500SOL    HW1 8399   3.453   4.537   6.917
 2500SOL    HW2 8400   3.581   4.483   6.830
 2501SOL     OW 8401   5.581   5.674   0.021
 2501SOL    HW1 8402   5.587   5.631   0.112
 2501SOL    HW2 8403   5.649   5.634   6.987
 2502SOL     OW 8404   1.144   0.219   4.752
 2502SOL    HW1 8405   1.233   0.173   4.744
 2502SOL    HW2 8406   1.149   0.308   4.706
 2503SOL     OW 8407   2.494   6.461   4.447
 2503SOL    HW1 8408   2.534   6.418   4.528
 2503SOL    HW2 8409   2.395   6.468   4.459
 2504SOL     OW 8410   3.536   5.680   3.812
 2504SOL    HW1 8411   3.566   5.704   3.905
 2504SOL    HW2 8412   3.616   5.654   3.758
 2505SOL     OW 8413   0.369   6.673   3.068
 2505SOL    HW1 8414   0.378   6.589   3.015
 2505SOL    HW2 8415   0.399   6.751   3.013
 2506SOL     OW 8416   6.540   3.152   6.410
 2506SOL    HW1 8417   6.441   3.137   6.418
 2506SOL    HW2 8418   6.577   3.176   6.500
 2507SOL     OW 8419   6.295   3.212   0.215
 2507SOL    HW1 8420   6.265   3.119   0.194
 2507SOL    HW2 8421   6.337   3.213   0.306
 2508SOL     OW 8422   2.686   1.503   3.753
 2508SOL    HW1 8423   2.770   1.496   3.699
 2508SOL    HW2 8424   2.636   1.586   3.727
 2509SOL     OW 8425   0.129   4.518   1.273
 2509SOL    HW1 8426   0.226   4.526   1.251
 2509SOL    HW2 8427   0.081   4.600   1.242
 2510SOL     OW 8428   2.876   4.545   1.048
 2510SOL    HW1 8429   2.790   4.497   1.034
 2510SOL    HW2 8430   2.890   4.611   0.974
 2511SOL     OW 8431   2.955   1.905   4.045
 2511SOL    HW1 8432   2.978   1.955   3.962
 2511SOL    HW2 8433   2.987   1.956   4.125
 2512SOL     OW 8434   4.516   3.854   5.394
 2512SOL    HW1 8435   4.487   3.760   5.378
 2512SOL    HW2 8436   4.436   3.910   5.416
 2513SOL     OW 8437   2.132   4.935   4.538
 2513SOL    HW1 8438   2.163   4.894   4.452
 2513SOL    HW2 8439   2.123   4.863   4.608
 2514SOL     OW 8440   0.818   3.745   5.085
 2514SOL    HW1 8441   0.829   3.823   5.146
 2514SOL    HW2 8442   0.744   3.686   5.119
 2515SOL     OW 8443   1.857   6.163   0.432
 2515SOL    HW1 8444   1.855   6.067   0.459
 2515SOL    HW2 8445   1.921   6.213   0.492
 2516SOL     OW 8446   4.978   1.544   2.901
 2516SOL    HW1 8447   5.010   1.568   2.993
 2516SOL    HW2 8448   4.978   1.626   2.844
 2517SOL     OW 8449   1.357   0.301   6.259
 2517SOL    HW1 8450   1.449   0.331   6.235
 2517SOL    HW2 8451   1.290   0.361   6.215
 2518SOL     OW 8452   1.517   5.438   0.986
 2518SOL    HW1 8453   1.442   5.425   0.921
 2518SOL    HW2 8454   1.596   5.478   0.939
 2519SOL     OW 8455   4.260   0.133   1.977
 2519SOL    HW1 8456   4.234   0.149   1.881
 2519SOL    HW2 8457   4.356   0.156   1.989
 2520SOL     OW 8458   3.212   1.483   0.970
 2520SOL    HW1 8459   3.150   1.546   0.924
 2520SOL    HW2 8460   3.161   1.426   1.034
 2521SOL     OW 8461   3.068   0.352   5.221
 2521SOL    HW1 8462   3.083   0.316   5.129
 2521SOL    HW2 8463   2.975   0.330   5.251
 2522SOL     OW 8464   0.818   1.928   5.321
 2522SOL    HW1 8465   0.747   1.942   5.251
 2522SOL    HW2 8466   0.898   1.885   5.279
 2523SOL     OW 8467   1.227   2.796   0.989
 2523SOL    HW1 8468   1.280   2.767   0.910
 2523SOL    HW2 8469   1.186   2.886   0.971
 2524SOL     OW 8470   6.975   6.339   4.865
 2524SOL    HW1 8471   0.012   6.265   4.843
 2524SOL    HW2 8472   7.017   6.427   4.844
 2525SOL     OW 8473   0.967   2.155   5.535
 2525SOL    HW1 8474   0.924   2.236   5.495
 2525SOL    HW2 8475   0.977   2.085   5.465
 2526SOL     OW 8476   1.698   4.909   6.611
 2526SOL    HW1 8477   1.778   4.955   6.573
 2526SOL    HW2 8478   1.720   4.814   6.632
 2527SOL     OW 8479   5.958   6.598   6.021
 2527SOL    HW1 8480   6.010   6.615   6.104
 2527SOL    HW2 8481   5.944   6.684   5.971
 2528SOL     OW 8482   6.254   5.278   6.374
 2528SOL    HW1 8483   6.233   5.370   6.342
 2528SOL    HW2 8484   6.346   5.276   6.413
 2529SOL     OW 8485   6.242   6.218   6.444
 2529SOL    HW1 8486   6.216   6.125   6.469
 2529SOL    HW2 8487   6.273   6.267   6.526
 2530SOL     OW 8488   2.542   6.245   4.701
 2530SOL    HW1 8489   2.443   6.257   4.710
 2530SOL    HW2 8490   2.560   6.162   4.649
 2531SOL     OW 8491   5.536   5.553   4.548
 2531SOL    HW1 8492   5.549   5.636   4.494
 2531SOL    HW2 8493   5.463   5.568   4.615
 2532SOL     OW 8494   0.143   6.003   0.381
 2532SOL    HW1 8495   0.226   6.049   0.410
 2532SOL    HW2 8496   0.071   6.017   0.450
 2533SOL     OW 8497   3.940   0.028   4.147
 2533SOL    HW1 8498   4.016   0.048   4.209
 2533SOL    HW2 8499   3.947   6.961   4.114
 2534SOL     OW 8500   3.684   1.544   1.850
 2534SOL    HW1 8501   3.696   1.608   1.926
 2534SOL    HW2 8502   3.590   1.551   1.815
 2535SOL     OW 8503   3.692   3.373   6.115
 2535SOL    HW1 8504   3.726   3.451   6.167
 2535SOL    HW2 8505   3.593   3.383   6.101
 2536SOL     OW 8506   1.432   1.502   5.472
 2536SOL    HW1 8507   1.368   1.425   5.467
 2536SOL    HW2 8508   1.393   1.573   5.530
 2537SOL     OW 8509   3.284   0.317   6.340
 2537SOL    HW1 8510   3.293   0.245   6.409
 2537SOL    HW2 8511   3.291   0.277   6.248
 2538SOL     OW 8512   0.549   4.412   3.263
 2538SOL    HW1 8513   0.592   4.388   3.350
 2538SOL    HW2 8514   0.605   4.482   3.217
 2539SOL     OW 8515   5.566   0.862   4.648
 2539SOL    HW1 8516   5.597   0.836   4.739
 2539SOL    HW2 8517   5.483   0.810   4.625
 2540SOL     OW 8518   4.076   2.189   2.487
 2540SOL    HW1 8519   4.013   2.148   2.553
 2540SOL    HW2 8520   4.026   2.219   2.407
 2541SOL     OW 8521   3.500   0.899   4.608
 2541SOL    HW1 8522   3.508   0.992   4.571
 2541SOL    HW2 8523   3.588   0.872   4.648
 2542SOL     OW 8524   3.616   3.144   6.241
 2542SOL    HW1 8525   3.648   3.055   6.208
 2542SOL    HW2 8526   3.670   3.217   6.197
 2543SOL     OW 8527   0.381   0.738   3.516
 2543SOL    HW1 8528   0.337   0.682   3.445
 2543SOL    HW2 8529   0.457   0.687   3.556
 2544SOL     OW 8530   0.713   5.998   0.771
 2544SOL    HW1 8531   0.622   6.007   0.729
 2544SOL    HW2 8532   0.772   6.072   0.740
 2545SOL     OW 8533   1.153   6.903   1.643
 2545SOL    HW1 8534   1.085   6.878   1.574
 2545SOL    HW2 8535   1.139   6.847   1.725
 2546SOL     OW 8536   6.814   1.302   2.111
 2546SOL    HW1 8537   6.812   1.329   2.014
 2546SOL    HW2 8538   6.787   1.206   2.120
 2547SOL     OW 8539   7.019   4.272   0.233
 2547SOL    HW1 8540   6.934   4.317   0.204
 2547SOL    HW2 8541   6.997   4.181   0.269
 2548SOL     OW 8542   0.835   6.904   5.457
 2548SOL    HW1 8543   0.763   6.965   5.490
 2548SOL    HW2 8544   0.797   6.813   5.439
 2549SOL     OW 8545   0.968   0.261   0.905
 2549SOL    HW1 8546   1.029   0.312   0.844
 2549SOL    HW2 8547   1.002   0.268   0.999
 2550SOL     OW 8548   0.166   0.570   6.824
 2550SOL    HW1 8549   0.127   0.647   6.874
 2550SOL    HW2 8550   0.094   0.524   6.772
 2551SOL     OW 8551   3.664   4.720   0.689
 2551SOL    HW1 8552   3.624   4.642   0.641
 2551SOL    HW2 8553   3.726   4.769   0.627
 2552SOL     OW 8554   1.512   6.360   4.393
 2552SOL    HW1 8555   1.584   6.369   4.324
 2552SOL    HW2 8556   1.542   6.297   4.464
 2553SOL     OW 8557   4.374   3.765   5.801
 2553SOL    HW1 8558   4.325   3.704   5.740
 2553SOL    HW2 8559   4.315   3.841   5.827
 2554SOL     OW 8560   2.696   0.244   0.688
 2554SOL    HW1 8561   2.652   0.194   0.763
 2554SOL    HW2 8562   2.792   0.258   0.710
 2555SOL     OW 8563   5.873   0.302   5.055
 2555SOL    HW1 8564   5.939   0.309   4.980
 2555SOL    HW2 8565   5.794   0.249   5.025
 2556SOL     OW 8566   3.960   6.328   0.097
 2556SOL    HW1 8567   3.997   6.340   0.189
 2556SOL    HW2 8568   3.866   6.293   0.103
 2557SOL     OW 8569   2.266   4.410   0.182
 2557SOL    HW1 8570   2.286   4.498   0.225
 2557SOL    HW2 8571   2.244   4.343   0.252
 2558SOL     OW 8572   5.062   1.620   5.404
 2558SOL    HW1 8573   5.063   1.665   5.315
 2558SOL    HW2 8574   5.097   1.527   5.394
 2559SOL     OW 8575   0.614   3.847   5.474
 2559SOL    HW1 8576   0.597   3.944   5.456
 2559SOL    HW2 8577   0.540   3.793   5.435
 2560SOL     OW 8578   5.568   2.878   5.175
 2560SOL    HW1 8579   5.613   2.908   5.260
 2560SOL    HW2 8580   5.618   2.800   5.137
 2561SOL     OW 8581   2.991   5.987   5.213
 2561SOL    HW1 8582   3.049   5.910   5.186
 2561SOL    HW2 8583   2.985   6.052   5.137
 2562SOL     OW 8584   2.327   5.297   1.638
 2562SOL    HW1 8585   2.416   5.334   1.612
 2562SOL    HW2 8586   2.320   5.202   1.606
 2563SOL     OW 8587   3.112   1.945   0.627
 2563SOL    HW1 8588   3.105   1.911   0.720
 2563SOL    HW2 8589   3.124   1.868   0.564
 2564SOL     OW 8590   2.408   5.692   6.497
 2564SOL    HW1 8591   2.441   5.755   6.567
 2564SOL    HW2 8592   2.400   5.739   6.410
 2565SOL     OW 8593   1.163   6.945   6.837
 2565SOL    HW1 8594   1.211   0.003   6.856
 2565SOL    HW2 8595   1.128   6.906   6.922
 2566SOL     OW 8596   2.204   0.057   1.191
 2566SOL    HW1 8597   2.169   0.145   1.160
 2566SOL    HW2 8598   2.218   7.024   1.112
 2567SOL     OW 8599   1.215   0.362   0.894
 2567SOL    HW1 8600   1.226   0.431   0.965
 2567SOL    HW2 8601   1.303   0.318   0.876
 2568SOL     OW 8602   4.067   1.122   0.073
 2568SOL    HW1 8603   4.068   1.099   0.170
 2568SOL    HW2 8604   3.973   1.140   0.044
 2569SOL     OW 8605   3.092   0.629   2.301
 2569SOL    HW1 8606   2.993   0.632   2.316
 2569SOL    HW2 8607   3.140   0.630   2.389
 2570SOL     OW 8608   5.383   0.170   6.465
 2570SOL    HW1 8609   5.417   0.261   6.487
 2570SOL    HW2 8610   5.460   0.109   6.447
 2571SOL     OW 8611   2.214   4.599   4.989
 2571SOL    HW1 8612   2.177   4.661   5.058
 2571SOL    HW2 8613   2.169   4.510   4.997
 2572SOL     OW 8614   2.771   5.863   1.366
 2572SOL    HW1 8615   2.758   5.878   1.464
 2572SOL    HW2 8616   2.719   5.783   1.337
 2573SOL     OW 8617   0.027   1.840   1.817
 2573SOL    HW1 8618   0.117   1.817   1.854
 2573SOL    HW2 8619   7.013   1.759   1.776
 2574SOL     OW 8620   5.576   4.023   0.886
 2574SOL    HW1 8621   5.592   4.121   0.873
 2574SOL    HW2 8622   5.628   3.990   0.964
 2575SOL     OW 8623   4.951   5.700   0.705
 2575SOL    HW1 8624   4.955   5.653   0.793
 2575SOL    HW2 8625   5.043   5.711   0.668
 2576SOL     OW 8626   4.343   6.521   4.754
 2576SOL    HW1 8627   4.316   6.565   4.668
 2576SOL    HW2 8628   4.391   6.587   4.812
 2577SOL     OW 8629   4.218   6.700   2.291
 2577SOL    HW1 8630   4.230   6.743   2.202
 2577SOL    HW2 8631   4.155   6.623   2.282
 2578SOL     OW 8632   4.434   1.686   4.605
 2578SOL    HW1 8633   4.432   1.724   4.697
 2578SOL    HW2 8634   4.445   1.760   4.538
 2579SOL     OW 8635   1.411   6.775   3.672
 2579SOL    HW1 8636   1.326   6.825   3.689
 2579SOL    HW2 8637   1.400   6.718   3.590
 2580SOL     OW 8638   2.668   4.536   6.409
 2580SOL    HW1 8639   2.753   4.569   6.368
 2580SOL    HW2 8640   2.684   4.517   6.506
 2581SOL     OW 8641   2.303   4.841   2.218
 2581SOL    HW1 8642   2.366   4.849   2.141
 2581SOL    HW2 8643   2.218   4.799   2.187
 2582SOL     OW 8644   0.397   4.526   1.163
 2582SOL    HW1 8645   0.497   4.529   1.156
 2582SOL    HW2 8646   0.367   4.430   1.162
 2583SOL     OW 8647   1.113   1.526   6.877
 2583SOL    HW1 8648   1.109   1.621   6.905
 2583SOL    HW2 8649   1.145   1.521   6.782
 2584SOL     OW 8650   5.037   5.345   6.223
 2584SOL    HW1 8651   5.049   5.297   6.136
 2584SOL    HW2 8652   5.056   5.442   6.211
 2585SOL     OW 8653   3.657   3.515   1.121
 2585SOL    HW1 8654   3.660   3.439   1.056
 2585SOL    HW2 8655   3.726   3.583   1.096
 2586SOL     OW 8656   3.072   0.648   5.159
 2586SOL    HW1 8657   3.010   0.691   5.093
 2586SOL    HW2 8658   3.050   0.550   5.166
 2587SOL     OW 8659   6.079   1.237   3.636
 2587SOL    HW1 8660   6.014   1.162   3.649
 2587SOL    HW2 8661   6.148   1.235   3.709
 2588SOL     OW 8662   4.767   2.238   6.098
 2588SOL    HW1 8663   4.866   2.225   6.090
 2588SOL    HW2 8664   4.730   2.167   6.157
 2589SOL     OW 8665   1.421   6.619   5.919
 2589SOL    HW1 8666   1.362   6.644   5.996
 2589SOL    HW2 8667   1.452   6.524   5.931
 2590SOL     OW 8668   3.943   4.768   0.532
 2590SOL    HW1 8669   3.946   4.817   0.445
 2590SOL    HW2 8670   3.986   4.824   0.603
 2591SOL     OW 8671   6.867   4.643   3.306
 2591SOL    HW1 8672   6.822   4.708   3.367
 2591SOL    HW2 8673   6.822   4.643   3.217
 2592SOL     OW 8674   3.117   4.706   0.165
 2592SOL    HW1 8675   3.143   4.628   0.222
 2592SOL    HW2 8676   3.183   4.780   0.179
 2593SOL     OW 8677   4.162   5.813   0.074
 2593SOL    HW1 8678   4.103   5.866   0.135
 2593SOL    HW2 8679   4.172   5.861   7.014
 2594SOL     OW 8680   2.021   3.597   6.090
 2594SOL    HW1 8681   2.036   3.560   5.998
 2594SOL    HW2 8682   2.080   3.676   6.104
 2595SOL     OW 8683   6.956   0.519   4.219
 2595SOL    HW1 8684   7.018   0.536   4.295
 2595SOL    HW2 8685   6.898   0.599   4.205
 2596SOL     OW 8686   2.967   2.231   1.733
 2596SOL    HW1 8687   2.979   2.277   1.645
 2596SOL    HW2 8688   2.930   2.296   1.799
 2597SOL     OW 8689   0.610   4.969   6.104
 2597SOL    HW1 8690   0.557   5.052   6.122
 2597SOL    HW2 8691   0.603   4.945   6.007
 2598SOL     OW 8692   6.424   1.476   2.575
 2598SOL    HW1 8693   6.397   1.531   2.496
 2598SOL    HW2 8694   6.452   1.537   2.649
 2599SOL     OW 8695   1.430   5.959   0.698
 2599SOL    HW1 8696   1.436   5.859   0.696
 2599SOL    HW2 8697   1.342   5.988   0.661
 2600SOL     OW 8698   5.750   2.583   4.782
 2600SOL    HW1 8699   5.668   2.541   4.742
 2600SOL    HW2 8700   5.774   2.665   4.730
 2601SOL     OW 8701   1.513   1.867   1.268
 2601SOL    HW1 8702   1.441   1.798   1.278
 2601SOL    HW2 8703   1.568   1.869   1.352
 2602SOL     OW 8704   1.372   4.905   5.018
 2602SOL    HW1 8705   1.428   4.865   5.089
 2602SOL    HW2 8706   1.381   5.005   5.021
 2603SOL     OW 8707   3.188   1.367   2.886
 2603SOL    HW1 8708   3.103   1.418   2.901
 2603SOL    HW2 8709   3.178   1.274   2.920
 2604SOL     OW 8710   4.770   2.167   2.703
 2604SOL    HW1 8711   4.733   2.195   2.614
 2604SOL    HW2 8712   4.755   2.069   2.716
 2605SOL     OW 8713   1.425   3.484   2.699
 2605SOL    HW1 8714   1.435   3.549   2.623
 2605SOL    HW2 8715   1.420   3.391   2.663
 2606SOL     OW 8716   6.092   5.166   1.955
 2606SOL    HW1 8717   6.186   5.155   1.922
 2606SOL    HW2 8718   6.045   5.078   1.953
 2607SOL     OW 8719   0.668   1.342   1.113
 2607SOL    HW1 8720   0.712   1.398   1.183
 2607SOL    HW2 8721   0.681   1.385   1.023
 2608SOL     OW 8722   3.765   5.445   0.610
 2608SOL    HW1 8723   3.863   5.466   0.612
 2608SOL    HW2 8724   3.743   5.398   0.525
 2609SOL     OW 8725   5.903   1.146   1.947
 2609SOL    HW1 8726   5.879   1.236   1.912
 2609SOL    HW2 8727   5.988   1.115   1.905
 2610SOL     OW 8728   0.664   4.670   4.296
 2610SOL    HW1 8729   0.668   4.768   4.314
 2610SOL    HW2 8730   0.720   4.648   4.216
 2611SOL     OW 8731   4.720   6.134   0.065
 2611SOL    HW1 8732   4.663   6.136   7.010
 2611SOL    HW2 8733   4.789   6.206   0.060
 2612SOL     OW 8734   5.521   6.533   4.714
 2612SOL    HW1 8735   5.436   6.577   4.684
 2612SOL    HW2 8736   5.501   6.439   4.744
 2613SOL     OW 8737   2.423   5.561   6.909
 2613SOL    HW1 8738   2.433   5.657   6.935
 2613SOL    HW2 8739   2.443   5.503   6.988
 2614SOL     OW 8740   6.209   1.478   0.166
 2614SOL    HW1 8741   6.211   1.554   0.101
 2614SOL    HW2 8742   6.272   1.498   0.242
 2615SOL     OW 8743   1.094   3.380   0.855
 2615SOL    HW1 8744   1.143   3.367   0.941
 2615SOL    HW2 8745   1.083   3.478   0.837
 2616SOL     OW 8746   1.612   1.754   5.655
 2616SOL    HW1 8747   1.620   1.852   5.635
 2616SOL    HW2 8748   1.679   1.703   5.601
 2617SOL     OW 8749   4.629   0.992   0.759
 2617SOL    HW1 8750   4.653   1.060   0.829
 2617SOL    HW2 8751   4.531   0.971   0.766
 2618SOL     OW 8752   0.690   6.288   4.146
 2618SOL    HW1 8753   0.764   6.286   4.213
 2618SOL    HW2 8754   0.717   6.346   4.068
 2619SOL     OW 8755   4.845   1.777   1.732
 2619SOL    HW1 8756   4.860   1.806   1.826
 2619SOL    HW2 8757   4.796   1.690   1.731
 2620SOL     OW 8758   6.677   0.347   2.738
 2620SOL    HW1 8759   6.636   0.261   2.707
 2620SOL    HW2 8760   6.610   0.398   2.792
 2621SOL     OW 8761   0.918   4.479   2.176
 2621SOL    HW1 8762   0.831   4.520   2.204
 2621SOL    HW2 8763   0.985   4.552   2.160
 2622SOL     OW 8764   2.978   3.298   5.964
 2622SOL    HW1 8765   2.997   3.248   6.048
 2622SOL    HW2 8766   2.898   3.356   5.976
 2623SOL     OW 8767   0.824   0.747   4.841
 2623SOL    HW1 8768   0.806   0.757   4.939
 2623SOL    HW2 8769   0.744   0.704   4.797
 2624SOL     OW 8770   6.693   2.146   5.153
 2624SOL    HW1 8771   6.790   2.124   5.141
 2624SOL    HW2 8772   6.684   2.241   5.182
 2625SOL     OW 8773   2.228   3.856   5.610
 2625SOL    HW1 8774   2.157   3.919   5.581
 2625SOL    HW2 8775   2.287   3.900   5.679
 2626SOL     OW 8776   6.683   0.217   5.997
 2626SOL    HW1 8777   6.606   0.166   6.036
 2626SOL    HW2 8778   6.682   0.209   5.897
 2627SOL     OW 8779   1.092   0.720   6.106
 2627SOL    HW1 8780   1.004   0.705   6.060
 2627SOL    HW2 8781   1.149   0.780   6.051
 2628SOL     OW 8782   1.935   3.520   5.204
 2628SOL    HW1 8783   1.997   3.597   5.184
 2628SOL    HW2 8784   1.846   3.538   5.162
 2629SOL     OW 8785   4.094   3.352   2.644
 2629SOL    HW1 8786   4.098   3.445   2.679
 2629SOL    HW2 8787   4.097   3.288   2.721
 2630SOL     OW 8788   3.580   1.753   3.540
 2630SOL    HW1 8789   3.493   1.751   3.588
 2630SOL    HW2 8790   3.591   1.841   3.494
 2631SOL     OW 8791   5.498   0.791   6.514
 2631SOL    HW1 8792   5.490   0.890   6.502
 2631SOL    HW2 8793   5.582   0.759   6.468
 2632SOL     OW 8794   6.087   3.706   1.183
 2632SOL    HW1 8795   6.052   3.617   1.209
 2632SOL    HW2 8796   6.042   3.777   1.237
 2633SOL     OW 8797   6.503   2.162   4.962
 2633SOL    HW1 8798   6.566   2.157   5.040
 2633SOL    HW2 8799   6.513   2.079   4.907
 2634SOL     OW 8800   0.551   5.618   3.722
 2634SOL    HW1 8801   0.554   5.636   3.820
 2634SOL    HW2 8802   0.526   5.703   3.674
 2635SOL     OW 8803   6.025   5.477   3.910
 2635SOL    HW1 8804   6.000   5.493   3.815
 2635SOL    HW2 8805   5.989   5.389   3.940
 2636SOL     OW 8806   3.805   0.485   0.116
 2636SOL    HW1 8807   3.857   0.469   0.199
 2636SOL    HW2 8808   3.868   0.494   0.038
 2637SOL     OW 8809   6.167   1.773   3.987
 2637SOL    HW1 8810   6.148   1.850   3.927
 2637SOL    HW2 8811   6.202   1.696   3.934
 2638SOL     OW 8812   0.128   6.793   4.634
 2638SOL    HW1 8813   0.194   6.752   4.571
 2638SOL    HW2 8814   0.059   6.843   4.582
 2639SOL     OW 8815   5.291   5.295   5.761
 2639SOL    HW1 8816   5.379   5.300   5.714
 2639SOL    HW2 8817   5.274   5.380   5.811
 2640SOL     OW 8818   6.481   0.119   5.121
 2640SOL    HW1 8819   6.540   0.098   5.044
 2640SOL    HW2 8820   6.504   0.209   5.158
 2641SOL     OW 8821   4.728   2.153   1.147
 2641SOL    HW1 8822   4.701   2.247   1.125
 2641SOL    HW2 8823   4.647   2.095   1.150
 2642SOL     OW 8824   6.072   0.541   3.765
 2642SOL    HW1 8825   6.104   0.516   3.673
 2642SOL    HW2 8826   6.150   0.567   3.821
 2643SOL     OW 8827   1.850   3.259   3.959
 2643SOL    HW1 8828   1.918   3.314   3.910
 2643SOL    HW2 8829   1.865   3.162   3.940
 2644SOL     OW 8830   4.700   5.571   5.205
 2644SOL    HW1 8831   4.735   5.501   5.144
 2644SOL    HW2 8832   4.730   5.661   5.174
 2645SOL     OW 8833   5.482   4.847   3.619
 2645SOL    HW1 8834   5.492   4.752   3.588
 2645SOL    HW2 8835   5.487   4.850   3.719
 2646SOL     OW 8836   0.291   3.293   7.003
 2646SOL    HW1 8837   0.274   3.216   6.941
 2646SOL    HW2 8838   0.266   3.379   6.958
 2647SOL     OW 8839   5.856   6.921   1.839
 2647SOL    HW1 8840   5.880   6.947   1.932
 2647SOL    HW2 8841   5.921   6.961   1.774
 2648SOL     OW 8842   0.160   6.548   4.253
 2648SOL    HW1 8843   0.241   6.519   4.304
 2648SOL    HW2 8844   0.188   6.607   4.177
 2649SOL     OW 8845   5.785   3.258   1.495
 2649SOL    HW1 8846   5.849   3.334   1.509
 2649SOL    HW2 8847   5.720   3.254   1.570
 2650SOL     OW 8848   2.320   5.990   4.652
 2650SOL    HW1 8849   2.366   5.930   4.586
 2650SOL    HW2 8850   2.368   5.987   4.739
 2651SOL     OW 8851   3.508   0.883   0.164
 2651SOL    HW1 8852   3.409   0.896   0.168
 2651SOL    HW2 8853   3.537   0.822   0.238
 2652SOL     OW 8854   4.646   3.526   5.761
 2652SOL    HW1 8855   4.567   3.465   5.761
 2652SOL    HW2 8856   4.619   3.616   5.727
 2653SOL     OW 8857   3.958   6.160   5.734
 2653SOL    HW1 8858   4.035   6.195   5.786
 2653SOL    HW2 8859   3.885   6.133   5.797
 2654SOL     OW 8860   5.005   6.464   0.771
 2654SOL    HW1 8861   4.988   6.409   0.689
 2654SOL    HW2 8862   4.919   6.500   0.806
 2655SOL     OW 8863   4.686   5.885   3.683
 2655SOL    HW1 8864   4.645   5.885   3.592
 2655SOL    HW2 8865   4.747   5.964   3.693
 2656SOL     OW 8866   3.357   5.052   3.545
 2656SOL    HW1 8867   3.417   4.988   3.592
 2656SOL    HW2 8868   3.340   5.131   3.603
 2657SOL     OW 8869   1.987   3.215   0.860
 2657SOL    HW1 8870   1.968   3.154   0.938
 2657SOL    HW2 8871   2.049   3.169   0.797
 2658SOL     OW 8872   4.908   4.595   0.657
 2658SOL    HW1 8873   4.976   4.668   0.655
 2658SOL    HW2 8874   4.826   4.628   0.705
 2659SOL     OW 8875   4.742   3.242   5.317
 2659SOL    HW1 8876   4.832   3.284   5.327
 2659SOL    HW2 8877   4.678   3.284   5.380
 2660SOL     OW 8878   0.561   0.898   1.318
 2660SOL    HW1 8879   0.551   0.943   1.229
 2660SOL    HW2 8880   0.471   0.888   1.360
 2661SOL     OW 8881   1.812   0.147   1.748
 2661SOL    HW1 8882   1.768   0.112   1.666
 2661SOL    HW2 8883   1.907   0.171   1.727
 2662SOL     OW 8884   2.566   0.257   3.523
 2662SOL    HW1 8885   2.525   0.279   3.434
 2662SOL    HW2 8886   2.496   0.267   3.594
 2663SOL     OW 8887   4.554   5.883   6.057
 2663SOL    HW1 8888   4.490   5.953   6.024
 2663SOL    HW2 8889   4.587   5.828   5.980
 2664SOL     OW 8890   3.817   2.985   5.629
 2664SOL    HW1 8891   3.777   3.003   5.540
 2664SOL    HW2 8892   3.882   2.908   5.621
 2665SOL     OW 8893   2.366   3.225   5.395
 2665SOL    HW1 8894   2.285   3.273   5.362
 2665SOL    HW2 8895   2.397   3.159   5.327
 2666SOL     OW 8896   1.685   3.528   2.056
 2666SOL    HW1 8897   1.704   3.571   1.967
 2666SOL    HW2 8898   1.695   3.596   2.128
 2667SOL     OW 8899   0.982   5.445   4.157
 2667SOL    HW1 8900   0.909   5.382   4.181
 2667SOL    HW2 8901   1.070   5.400   4.168
 2668SOL     OW 8902   5.486   3.295   4.488
 2668SOL    HW1 8903   5.453   3.203   4.468
 2668SOL    HW2 8904   5.586   3.298   4.475
 2669SOL     OW 8905   3.494   5.772   6.720
 2669SOL    HW1 8906   3.514   5.679   6.751
 2669SOL    HW2 8907   3.491   5.774   6.620
 2670SOL     OW 8908   6.251   2.233   4.855
 2670SOL    HW1 8909   6.207   2.246   4.944
 2670SOL    HW2 8910   6.345   2.203   4.868
 2671SOL     OW 8911   4.986   5.755   5.954
 2671SOL    HW1 8912   4.905   5.812   5.944
 2671SOL    HW2 8913   5.018   5.759   6.049
 2672SOL     OW 8914   2.994   0.297   1.766
 2672SOL    HW1 8915   2.994   0.236   1.845
 2672SOL    HW2 8916   3.081   0.345   1.761
 2673SOL     OW 8917   5.614   1.334   2.199
 2673SOL    HW1 8918   5.546   1.270   2.164
 2673SOL    HW2 8919   5.664   1.293   2.274
 2674SOL     OW 8920   1.829   4.936   3.914
 2674SOL    HW1 8921   1.919   4.965   3.882
 2674SOL    HW2 8922   1.777   4.898   3.838
 2675SOL     OW 8923   0.360   6.613   3.736
 2675SOL    HW1 8924   0.294   6.564   3.679
 2675SOL    HW2 8925   0.311   6.677   3.795
 2676SOL     OW 8926   3.352   3.966   2.627
 2676SOL    HW1 8927   3.390   3.880   2.594
 2676SOL    HW2 8928   3.426   4.028   2.653
 2677SOL     OW 8929   2.956   4.577   1.316
 2677SOL    HW1 8930   2.911   4.573   1.227
 2677SOL    HW2 8931   2.901   4.529   1.384
 2678SOL     OW 8932   6.914   3.124   2.119
 2678SOL    HW1 8933   6.915   3.190   2.044
 2678SOL    HW2 8934   6.832   3.068   2.113
 2679SOL     OW 8935   1.852   5.137   2.599
 2679SOL    HW1 8936   1.866   5.235   2.617
 2679SOL    HW2 8937   1.886   5.084   2.677
 2680SOL     OW 8938   1.307   2.528   0.329
 2680SOL    HW1 8939   1.290   2.431   0.316
 2680SOL    HW2 8940   1.329   2.570   0.241
 2681SOL     OW 8941   1.489   2.748   5.219
 2681SOL    HW1 8942   1.408   2.690   5.216
 2681SOL    HW2 8943   1.466   2.841   5.190
 2682SOL     OW 8944   5.351   4.225   2.795
 2682SOL    HW1 8945   5.274   4.164   2.777
 2682SOL    HW2 8946   5.324   4.294   2.862
 2683SOL     OW 8947   2.171   4.576   2.467
 2683SOL    HW1 8948   2.147   4.640   2.394
 2683SOL    HW2 8949   2.088   4.547   2.515
 2684SOL     OW 8950   5.192   6.787   1.341
 2684SOL    HW1 8951   5.185   6.822   1.247
 2684SOL    HW2 8952   5.288   6.772   1.363
 2685SOL     OW 8953   6.754   4.725   4.692
 2685SOL    HW1 8954   6.839   4.758   4.733
 2685SOL    HW2 8955   6.736   4.776   4.608
 2686SOL     OW 8956   0.982   1.163   5.360
 2686SOL    HW1 8957   0.888   1.159   5.395
 2686SOL    HW2 8958   1.045   1.179   5.436
 2687SOL     OW 8959   3.681   6.597   1.368
 2687SOL    HW1 8960   3.672   6.540   1.450
 2687SOL    HW2 8961   3.674   6.540   1.287
 2688SOL     OW 8962   3.132   2.244   0.935
 2688SOL    HW1 8963   3.213   2.185   0.931
 2688SOL    HW2 8964   3.146   2.323   0.875
 2689SOL     OW 8965   0.610   3.801   2.891
 2689SOL    HW1 8966   0.708   3.797   2.913
 2689SOL    HW2 8967   0.560   3.742   2.955
 2690SOL     OW 8968   2.819   3.243   0.080
 2690SOL    HW1 8969   2.817   3.341   0.062
 2690SOL    HW2 8970   2.891   3.223   0.147
 2691SOL     OW 8971   0.198   4.622   3.904
 2691SOL    HW1 8972   0.244   4.656   3.986
 2691SOL    HW2 8973   0.124   4.561   3.931
 2692SOL     OW 8974   2.453   5.970   3.372
 2692SOL    HW1 8975   2.458   5.941   3.277
 2692SOL    HW2 8976   2.382   5.918   3.419
 2693SOL     OW 8977   1.818   5.276   4.292
 2693SOL    HW1 8978   1.789   5.270   4.388
 2693SOL    HW2 8979   1.871   5.360   4.279
 2694SOL     OW 8980   4.270   0.055   2.860
 2694SOL    HW1 8981   4.296   6.989   2.833
 2694SOL    HW2 8982   4.192   0.085   2.806
 2695SOL     OW 8983   6.030   0.196   3.018
 2695SOL    HW1 8984   5.937   0.231   3.010
 2695SOL    HW2 8985   6.086   0.232   2.943
 2696SOL     OW 8986   4.731   4.229   6.593
 2696SOL    HW1 8987   4.689   4.320   6.586
 2696SOL    HW2 8988   4.702   4.185   6.678
 2697SOL     OW 8989   4.628   1.193   2.016
 2697SOL    HW1 8990   4.618   1.282   1.971
 2697SOL    HW2 8991   4.644   1.207   2.114
 2698SOL     OW 8992   2.135   4.969   6.533
 2698SOL    HW1 8993   2.182   5.053   6.559
 2698SOL    HW2 8994   2.049   4.991   6.486
 2699SOL     OW 8995   3.025   5.644   1.370
 2699SOL    HW1 8996   3.022   5.701   1.288
 2699SOL    HW2 8997   3.079   5.690   1.441
 2700SOL     OW 8998   2.492   1.654   0.910
 2700SOL    HW1 8999   2.482   1.694   1.002
 2700SOL    HW2 9000   2.402   1.636   0.871
 2701SOL     OW 9001   5.077   2.711   5.647
 2701SOL    HW1 9002   5.148   2.704   5.718
 2701SOL    HW2 9003   4.987   2.715   5.689
 2702SOL     OW 9004   1.282   2.210   3.686
 2702SOL    HW1 9005   1.296   2.273   3.762
 2702SOL    HW2 9006   1.360   2.214   3.623
 2703SOL     OW 9007   1.774   5.688   1.312
 2703SOL    HW1 9008   1.864   5.647   1.298
 2703SOL    HW2 9009   1.705   5.616   1.311
 2704SOL     OW 9010   6.623   5.583   2.678
 2704SOL    HW1 9011   6.635   5.485   2.663
 2704SOL    HW2 9012   6.693   5.615   2.742
 2705SOL     OW 9013   6.450   1.142   5.601
 2705SOL    HW1 9014   6.372   1.080   5.589
 2705SOL    HW2 9015   6.426   1.213   5.667
 2706SOL     OW 9016   6.009   4.305   4.729
 2706SOL    HW1 9017   5.968   4.389   4.762
 2706SOL    HW2 9018   6.107   4.305   4.748
 2707SOL     OW 9019   4.032   6.316   4.052
 2707SOL    HW1 9020   4.062   6.334   3.959
 2707SOL    HW2 9021   3.934   6.296   4.053
 2708SOL     OW 9022   6.468   2.704   0.348
 2708SOL    HW1 9023   6.482   2.781   0.410
 2708SOL    HW2 9024   6.536   2.633   0.367
 2709SOL     OW 9025   4.791   6.785   5.940
 2709SOL    HW1 9026   4.832   6.782   5.848
 2709SOL    HW2 9027   4.744   6.873   5.952
 2710SOL     OW 9028   1.734   2.338   3.565
 2710SOL    HW1 9029   1.728   2.405   3.639
 2710SOL    HW2 9030   1.747   2.385   3.478
 2711SOL     OW 9031   3.118   1.524   3.465
 2711SOL    HW1 9032   3.060   1.597   3.427
 2711SOL    HW2 9033   3.120   1.532   3.565
 2712SOL     OW 9034   3.173   5.576   1.857
 2712SOL    HW1 9035   3.082   5.612   1.875
 2712SOL    HW2 9036   3.166   5.485   1.816
 2713SOL     OW 9037   4.011   4.113   6.545
 2713SOL    HW1 9038   4.111   4.121   6.554
 2713SOL    HW2 9039   3.968   4.145   6.630
 2714SOL     OW 9040   4.072   4.042   7.011
 2714SOL    HW1 9041   4.082   3.972   6.941
 2714SOL    HW2 9042   4.144   4.032   0.053
 2715SOL     OW 9043   5.113   2.019   1.068
 2715SOL    HW1 9044   5.031   1.978   1.110
 2715SOL    HW2 9045   5.104   2.118   1.066
 2716SOL     OW 9046   4.734   2.776   3.422
 2716SOL    HW1 9047   4.667   2.706   3.446
 2716SOL    HW2 9048   4.785   2.747   3.342
 2717SOL     OW 9049   0.639   7.007   2.411
 2717SOL    HW1 9050   0.644   6.995   2.510
 2717SOL    HW2 9051   0.589   0.064   2.390
 2718SOL     OW 9052   6.740   0.808   5.135
 2718SOL    HW1 9053   6.650   0.830   5.173
 2718SOL    HW2 9054   6.746   0.843   5.042
 2719SOL     OW 9055   1.314   4.174   2.076
 2719SOL    HW1 9056   1.233   4.118   2.095
 2719SOL    HW2 9057   1.388   4.147   2.138
 2720SOL     OW 9058   0.853   0.219   4.374
 2720SOL    HW1 9059   0.879   0.124   4.356
 2720SOL    HW2 9060   0.858   0.237   4.472
 2721SOL     OW 9061   3.249   6.462   2.614
 2721SOL    HW1 9062   3.285   6.409   2.690
 2721SOL    HW2 9063   3.298   6.548   2.607
 2722SOL     OW 9064   4.999   5.153   6.712
 2722SOL    HW1 9065   4.904   5.161   6.743
 2722SOL    HW2 9066   5.001   5.113   6.621
 2723SOL     OW 9067   2.625   6.345   6.724
 2723SOL    HW1 9068   2.541   6.381   6.682
 2723SOL    HW2 9069   2.670   6.418   6.775
 2724SOL     OW 9070   1.529   5.676   6.710
 2724SOL    HW1 9071   1.535   5.774   6.727
 2724SOL    HW2 9072   1.615   5.632   6.737
 2725SOL     OW 9073   5.451   4.038   4.526
 2725SOL    HW1 9074   5.539   4.085   4.517
 2725SOL    HW2 9075   5.457   3.948   4.483
 2726SOL     OW 9076   0.439   2.576   1.849
 2726SOL    HW1 9077   0.370   2.515   1.810
 2726SOL    HW2 9078   0.500   2.523   1.907
 2727SOL     OW 9079   2.019   3.778   4.211
 2727SOL    HW1 9080   1.958   3.781   4.131
 2727SOL    HW2 9081   2.100   3.834   4.192
 2728SOL     OW 9082   5.143   5.710   6.778
 2728SOL    HW1 9083   5.227   5.663   6.806
 2728SOL    HW2 9084   5.067   5.646   6.779
 2729SOL     OW 9085   6.912   6.337   6.864
 2729SOL    HW1 9086   6.999   6.301   6.832
 2729SOL    HW2 9087   6.840   6.268   6.851
 2730SOL     OW 9088   0.829   5.693   1.087
 2730SOL    HW1 9089   0.795   5.771   1.140
 2730SOL    HW2 9090   0.808   5.706   0.990
 2731SOL     OW 9091   2.999   3.223   3.293
 2731SOL    HW1 9092   3.039   3.132   3.283
 2731SOL    HW2 9093   2.961   3.253   3.205
 2732SOL     OW 9094   5.171   2.341   1.612
 2732SOL    HW1 9095   5.196   2.382   1.525
 2732SOL    HW2 9096   5.123   2.407   1.669
 2733SOL     OW 9097   0.007   1.273   4.998
 2733SOL    HW1 9098   6.975   1.260   4.918
 2733SOL    HW2 9099   0.017   1.186   5.046
 2734SOL     OW 9100   3.650   6.020   1.545
 2734SOL    HW1 9101   3.695   6.051   1.462
 2734SOL    HW2 9102   3.618   5.926   1.533
 2735SOL     OW 9103   1.738   2.315   0.494
 2735SOL    HW1 9104   1.697   2.269   0.573
 2735SOL    HW2 9105   1.675   2.311   0.416
 2736SOL     OW 9106   5.636   6.127   4.420
 2736SOL    HW1 9107   5.593   6.046   4.461
 2736SOL    HW2 9108   5.634   6.203   4.484
 2737SOL     OW 9109   3.098   2.807   5.683
 2737SOL    HW1 9110   3.110   2.905   5.697
 2737SOL    HW2 9111   3.017   2.776   5.733
 2738SOL     OW 9112   6.497   6.781   2.285
 2738SOL    HW1 9113   6.585   6.791   2.237
 2738SOL    HW2 9114   6.468   6.871   2.319
 2739SOL     OW 9115   0.542   5.340   0.825
 2739SOL    HW1 9116   0.546   5.262   0.887
 2739SOL    HW2 9117   0.634   5.378   0.813
 2740SOL     OW 9118   0.310   5.255   2.211
 2740SOL    HW1 9119   0.352   5.327   2.156
 2740SOL    HW2 9120   0.376   5.219   2.276
 2741SOL     OW 9121   0.353   1.901   5.096
 2741SOL    HW1 9122   0.364   1.804   5.076
 2741SOL    HW2 9123   0.369   1.917   5.194
 2742SOL     OW 9124   2.601   5.320   1.671
 2742SOL    HW1 9125   2.691   5.287   1.702
 2742SOL    HW2 9126   2.558   5.373   1.745
 2743SOL     OW 9127   6.884   4.822   2.481
 2743SOL    HW1 9128   6.804   4.834   2.422
 2743SOL    HW2 9129   6.956   4.774   2.429
 2744SOL     OW 9130   3.427   3.136   2.146
 2744SOL    HW1 9131   3.370   3.184   2.213
 2744SOL    HW2 9132   3.378   3.127   2.060
 2745SOL     OW 9133   6.714   1.171   5.110
 2745SOL    HW1 9134   6.621   1.156   5.144
 2745SOL    HW2 9135   6.712   1.238   5.035
 2746SOL     OW 9136   0.457   1.738   4.480
 2746SOL    HW1 9137   0.498   1.767   4.567
 2746SOL    HW2 9138   0.509   1.777   4.404
 2747SOL     OW 9139   4.740   5.176   6.779
 2747SOL    HW1 9140   4.701   5.232   6.706
 2747SOL    HW2 9141   4.695   5.199   6.865
 2748SOL     OW 9142   4.516   0.510   1.556
 2748SOL    HW1 9143   4.480   0.463   1.637
 2748SOL    HW2 9144   4.613   0.489   1.546
 2749SOL     OW 9145   0.909   4.858   0.516
 2749SOL    HW1 9146   0.882   4.783   0.456
 2749SOL    HW2 9147   0.832   4.919   0.531
 2750SOL     OW 9148   2.376   4.743   1.855
 2750SOL    HW1 9149   2.458   4.705   1.896
 2750SOL    HW2 9150   2.314   4.669   1.830
 2751SOL     OW 9151   1.750   2.317   1.144
 2751SOL    HW1 9152   1.706   2.400   1.111
 2751SOL    HW2 9153   1.680   2.251   1.173
 2752SOL     OW 9154   3.850   4.605   6.165
 2752SOL    HW1 9155   3.868   4.506   6.167
 2752SOL    HW2 9156   3.762   4.621   6.120
 2753SOL     OW 9157   6.854   5.834   5.317
 2753SOL    HW1 9158   6.843   5.905   5.247
 2753SOL    HW2 9159   6.921   5.767   5.286
 2754SOL     OW 9160   0.691   7.011   0.184
 2754SOL    HW1 9161   0.739   6.945   0.126
 2754SOL    HW2 9162   0.605   6.972   0.215
 2755SOL     OW 9163   3.795   6.920   3.150
 2755SOL    HW1 9164   3.866   6.980   3.112
 2755SOL    HW2 9165   3.751   6.966   3.227
 2756SOL     OW 9166   4.363   6.484   0.342
 2756SOL    HW1 9167   4.377   6.389   0.314
 2756SOL    HW2 9168   4.405   6.545   0.276
 2757SOL     OW 9169   2.083   5.982   0.608
 2757SOL    HW1 9170   2.049   6.072   0.580
 2757SOL    HW2 9171   2.013   5.913   0.589
 2758SOL     OW 9172   4.924   0.316   4.911
 2758SOL    HW1 9173   5.006   0.360   4.875
 2758SOL    HW2 9174   4.847   0.334   4.849
 2759SOL     OW 9175   5.113   6.598   4.637
 2759SOL    HW1 9176   5.051   6.538   4.586
 2759SOL    HW2 9177   5.148   6.550   4.718
 2760SOL     OW 9178   1.275   5.629   1.338
 2760SOL    HW1 9179   1.179   5.602   1.332
 2760SOL    HW2 9180   1.313   5.594   1.424
 2761SOL     OW 9181   2.025   4.869   4.126
 2761SOL    HW1 9182   1.936   4.826   4.135
 2761SOL    HW2 9183   2.058   4.858   4.032
 2762SOL     OW 9184   0.721   0.806   5.115
 2762SOL    HW1 9185   0.735   0.749   5.196
 2762SOL    HW2 9186   0.691   0.897   5.144
 2763SOL     OW 9187   5.605   1.619   4.081
 2763SOL    HW1 9188   5.603   1.556   4.003
 2763SOL    HW2 9189   5.700   1.641   4.104
 2764SOL     OW 9190   6.360   0.531   1.472
 2764SOL    HW1 9191   6.325   0.624   1.479
 2764SOL    HW2 9192   6.288   0.469   1.442
 2765SOL     OW 9193   5.635   0.409   0.535
 2765SOL    HW1 9194   5.538   0.387   0.548
 2765SOL    HW2 9195   5.686   0.324   0.519
 2766SOL     OW 9196   5.158   2.104   0.642
 2766SOL    HW1 9197   5.197   2.097   0.551
 2766SOL    HW2 9198   5.209   2.171   0.696
 2767SOL     OW 9199   0.177   4.816   6.319
 2767SOL    HW1 9200   0.093   4.821   6.265
 2767SOL    HW2 9201   0.159   4.844   6.413
 2768SOL     OW 9202   5.071   0.551   0.073
 2768SOL    HW1 9203   5.051   0.645   0.046
 2768SOL    HW2 9204   5.031   0.532   0.162
 2769SOL     OW 9205   6.824   4.599   3.924
 2769SOL    HW1 9206   6.860   4.577   3.833
 2769SOL    HW2 9207   6.768   4.682   3.918
 2770SOL     OW 9208   2.481   5.381   6.127
 2770SOL    HW1 9209   2.466   5.285   6.150
 2770SOL    HW2 9210   2.578   5.404   6.140
 2771SOL     OW 9211   5.653   1.464   1.972
 2771SOL    HW1 9212   5.646   1.429   2.065
 2771SOL    HW2 9213   5.572   1.519   1.950
 2772SOL     OW 9214   4.457   1.993   1.177
 2772SOL    HW1 9215   4.425   1.976   1.270
 2772SOL    HW2 9216   4.389   2.046   1.127
 2773SOL     OW 9217   5.231   3.374   5.340
 2773SOL    HW1 9218   5.318   3.339   5.374
 2773SOL    HW2 9219   5.156   3.332   5.392
 2774SOL     OW 9220   6.670   3.447   3.129
 2774SOL    HW1 9221   6.710   3.363   3.092
 2774SOL    HW2 9222   6.696   3.525   3.072
 2775SOL     OW 9223   0.051   5.441   0.289
 2775SOL    HW1 9224   0.084   5.499   0.363
 2775SOL    HW2 9225   0.107   5.358   0.284
 2776SOL     OW 9226   4.857   5.479   5.566
 2776SOL    HW1 9227   4.915   5.537   5.509
 2776SOL    HW2 9228   4.869   5.504   5.662
 2777SOL     OW 9229   3.138   1.347   1.956
 2777SOL    HW1 9230   3.231   1.312   1.954
 2777SOL    HW2 9231   3.114   1.376   2.048
 2778SOL     OW 9232   1.256   1.229   5.128
 2778SOL    HW1 9233   1.159   1.210   5.110
 2778SOL    HW2 9234   1.313   1.165   5.079
 2779SOL     OW 9235   4.686   6.998   0.918
 2779SOL    HW1 9236   4.763   6.946   0.880
 2779SOL    HW2 9237   4.627   0.002   0.843
 2780SOL     OW 9238   6.845   5.426   6.095
 2780SOL    HW1 9239   6.901   5.508   6.079
 2780SOL    HW2 9240   6.790   5.439   6.177
 2781SOL     OW 9241   5.837   5.774   2.060
 2781SOL    HW1 9242   5.861   5.830   2.139
 2781SOL    HW2 9243   5.919   5.751   2.009
 2782SOL     OW 9244   2.958   2.517   5.587
 2782SOL    HW1 9245   2.895   2.460   5.639
 2782SOL    HW2 9246   3.019   2.459   5.533
 2783SOL     OW 9247   5.903   3.112   4.734
 2783SOL    HW1 9248   5.998   3.132   4.711
 2783SOL    HW2 9249   5.842   3.176   4.686
 2784SOL     OW 9250   2.878   1.731   1.106
 2784SOL    HW1 9251   2.913   1.671   1.178
 2784SOL    HW2 9252   2.829   1.676   1.038
 2785SOL     OW 9253   5.766   1.464   0.245
 2785SOL    HW1 9254   5.833   1.533   0.217
 2785SOL    HW2 9255   5.721   1.494   0.329
 2786SOL     OW 9256   4.178   5.941   1.386
 2786SOL    HW1 9257   4.255   5.878   1.386
 2786SOL    HW2 9258   4.127   5.931   1.300
 2787SOL     OW 9259   2.315   2.701   6.891
 2787SOL    HW1 9260   2.338   2.767   6.819
 2787SOL    HW2 9261   2.343   2.738   6.980
 2788SOL     OW 9262   2.353   3.990   0.133
 2788SOL    HW1 9263   2.430   4.044   0.165
 2788SOL    HW2 9264   2.315   4.032   0.050
 2789SOL     OW 9265   1.941   2.927   3.473
 2789SOL    HW1 9266   1.970   2.924   3.378
 2789SOL    HW2 9267   1.939   3.022   3.504
 2790SOL     OW 9268   2.963   5.437   2.633
 2790SOL    HW1 9269   3.041   5.382   2.602
 2790SOL    HW2 9270   2.935   5.405   2.724
 2791SOL     OW 9271   1.061   4.391   4.623
 2791SOL    HW1 9272   1.103   4.312   4.579
 2791SOL    HW2 9273   1.065   4.470   4.561
 2792SOL     OW 9274   1.015   6.894   5.244
 2792SOL    HW1 9275   0.963   6.902   5.329
 2792SOL    HW2 9276   0.982   6.961   5.178
 2793SOL     OW 9277   5.055   2.661   2.756
 2793SOL    HW1 9278   5.032   2.755   2.781
 2793SOL    HW2 9279   5.016   2.639   2.666
 2794SOL     OW 9280   6.843   2.574   0.630
 2794SOL    HW1 9281   6.866   2.509   0.703
 2794SOL    HW2 9282   6.869   2.534   0.542
 2795SOL     OW 9283   2.629   3.738   0.809
 2795SOL    HW1 9284   2.645   3.643   0.839
 2795SOL    HW2 9285   2.550   3.775   0.859
 2796SOL     OW 9286   6.717   5.028   3.070
 2796SOL    HW1 9287   6.619   5.043   3.084
 2796SOL    HW2 9288   6.732   4.935   3.037
 2797SOL     OW 9289   4.740   5.613   4.409
 2797SOL    HW1 9290   4.753   5.666   4.325
 2797SOL    HW2 9291   4.655   5.641   4.453
 2798SOL     OW 9292   1.214   4.506   1.763
 2798SOL    HW1 9293   1.136   4.567   1.759
 2798SOL    HW2 9294   1.250   4.503   1.856
 2799SOL     OW 9295   0.410   5.831   0.005
 2799SOL    HW1 9296   0.332   5.792   0.053
 2799SOL    HW2 9297   0.495   5.804   0.051
 2800SOL     OW 9298   4.156   4.607   6.831
 2800SOL    HW1 9299   4.142   4.517   6.789
 2800SOL    HW2 9300   4.242   4.646   6.799
 2801SOL     OW 9301   4.560   5.734   4.578
 2801SOL    HW1 9302   4.468   5.696   4.582
 2801SOL    HW2 9303   4.618   5.686   4.644
 2802SOL     OW 9304   4.855   3.354   6.556
 2802SOL    HW1 9305   4.789   3.400   6.615
 2802SOL    HW2 9306   4.806   3.293   6.494
 2803SOL     OW 9307   3.375   6.001   6.363
 2803SOL    HW1 9308   3.375   6.093   6.405
 2803SOL    HW2 9309   3.463   5.986   6.318
 2804SOL     OW 9310   0.051   4.464   4.502
 2804SOL    HW1 9311   7.017   4.417   4.566
 2804SOL    HW2 9312   0.002   4.539   4.458
 2805SOL     OW 9313   4.707   3.072   1.225
 2805SOL    HW1 9314   4.772   3.145   1.247
 2805SOL    HW2 9315   4.617   3.111   1.207
 2806SOL     OW 9316   5.932   4.822   4.078
 2806SOL    HW1 9317   5.844   4.779   4.055
 2806SOL    HW2 9318   6.006   4.758   4.061
 2807SOL     OW 9319   5.523   4.985   4.169
 2807SOL    HW1 9320   5.474   5.039   4.100
 2807SOL    HW2 9321   5.618   5.017   4.174
 2808SOL     OW 9322   5.011   2.581   2.483
 2808SOL    HW1 9323   5.100   2.627   2.480
 2808SOL    HW2 9324   5.012   2.503   2.419
 2809SOL     OW 9325   6.795   2.650   1.893
 2809SOL    HW1 9326   6.699   2.675   1.880
 2809SOL    HW2 9327   6.827   2.598   1.813
 2810SOL     OW 9328   2.947   6.302   4.448
 2810SOL    HW1 9329   2.962   6.207   4.420
 2810SOL    HW2 9330   2.987   6.363   4.381
 2811SOL     OW 9331   0.683   0.721   3.433
 2811SOL    HW1 9332   0.642   0.673   3.510
 2811SOL    HW2 9333   0.749   0.788   3.466
 2812SOL     OW 9334   5.963   3.633   0.930
 2812SOL    HW1 9335   6.046   3.675   0.893
 2812SOL    HW2 9336   5.977   3.609   1.026
 2813SOL     OW 9337   6.196   0.237   5.746
 2813SOL    HW1 9338   6.141   0.296   5.687
 2813SOL    HW2 9339   6.286   0.223   5.704
 2814SOL     OW 9340   5.109   2.846   6.998
 2814SOL    HW1 9341   5.180   2.801   0.024
 2814SOL    HW2 9342   5.024   2.793   7.003
 2815SOL     OW 9343   6.795   1.677   5.137
 2815SOL    HW1 9344   6.716   1.669   5.077
 2815SOL    HW2 9345   6.853   1.596   5.127
 2816SOL     OW 9346   6.624   6.162   3.940
 2816SOL    HW1 9347   6.622   6.191   4.036
 2816SOL    HW2 9348   6.715   6.128   3.917
 2817SOL     OW 9349   2.102   0.306   1.119
 2817SOL    HW1 9350   2.025   0.342   1.171
 2817SOL    HW2 9351   2.127   0.373   1.048
 2818SOL     OW 9352   0.055   5.968   6.480
 2818SOL    HW1 9353   0.103   5.915   6.550
 2818SOL    HW2 9354   0.116   6.038   6.444
 2819SOL     OW 9355   7.016   1.399   1.246
 2819SOL    HW1 9356   6.957   1.441   1.177
 2819SOL    HW2 9357   0.058   1.343   1.201
 2820SOL     OW 9358   0.857   1.912   2.872
 2820SOL    HW1 9359   0.824   1.882   2.961
 2820SOL    HW2 9360   0.881   2.009   2.876
 2821SOL     OW 9361   3.987   3.668   0.269
 2821SOL    HW1 9362   3.974   3.742   0.203
 2821SOL    HW2 9363   3.901   3.653   0.318
 2822SOL     OW 9364   4.604   2.572   6.882
 2822SOL    HW1 9365   4.592   2.502   6.952
 2822SOL    HW2 9366   4.684   2.550   6.826
 2823SOL     OW 9367   3.053   6.794   0.930
 2823SOL    HW1 9368   3.140   6.770   0.973
 2823SOL    HW2 9369   3.070   6.830   0.839
 2824SOL     OW 9370   2.362   1.316   4.408
 2824SOL    HW1 9371   2.295   1.390   4.399
 2824SOL    HW2 9372   2.350   1.250   4.334
 2825SOL     OW 9373   0.143   0.050   6.800
 2825SOL    HW1 9374   0.216   0.109   6.834
 2825SOL    HW2 9375   0.183   6.995   6.757
 2826SOL     OW 9376   5.290   2.037   0.080
 2826SOL    HW1 9377   5.300   2.114   0.017
 2826SOL    HW2 9378   5.197   2.035   0.116
 2827SOL     OW 9379   5.899   0.946   5.159
 2827SOL    HW1 9380   5.837   0.871   5.180
 2827SOL    HW2 9381   5.937   0.933   5.067
 2828SOL     OW 9382   3.301   0.758   6.803
 2828SOL    HW1 9383   3.268   0.664   6.797
 2828SOL    HW2 9384   3.400   0.759   6.796
 2829SOL     OW 9385   3.128   4.325   5.943
 2829SOL    HW1 9386   3.038   4.356   5.912
 2829SOL    HW2 9387   3.132   4.225   5.941
 2830SOL     OW 9388   0.770   3.411   6.867
 2830SOL    HW1 9389   0.682   3.437   6.827
 2830SOL    HW2 9390   0.809   3.337   6.813
 2831SOL     OW 9391   0.298   5.962   3.741
 2831SOL    HW1 9392   0.387   5.931   3.708
 2831SOL    HW2 9393   0.286   5.935   3.837
 2832SOL     OW 9394   0.172   1.407   1.688
 2832SOL    HW1 9395   0.226   1.329   1.720
 2832SOL    HW2 9396   0.175   1.480   1.756
 2833SOL     OW 9397   4.986   2.414   2.258
 2833SOL    HW1 9398   4.943   2.355   2.190
 2833SOL    HW2 9399   5.046   2.480   2.212
 2834SOL     OW 9400   2.751   6.921   5.813
 2834SOL    HW1 9401   2.755   7.010   5.768
 2834SOL    HW2 9402   2.747   6.934   5.912
 2835SOL     OW 9403   6.994   0.499   2.292
 2835SOL    HW1 9404   6.942   0.472   2.373
 2835SOL    HW2 9405   0.046   0.554   2.321
 2836SOL     OW 9406   6.713   6.941   1.842
 2836SOL    HW1 9407   6.796   6.993   1.860
 2836SOL    HW2 9408   6.715   6.908   1.747
 2837SOL     OW 9409   5.821   3.355   2.991
 2837SOL    HW1 9410   5.844   3.383   3.084
 2837SOL    HW2 9411   5.893   3.297   2.954
 2838SOL     OW 9412   1.666   4.221   1.645
 2838SOL    HW1 9413   1.657   4.125   1.671
 2838SOL    HW2 9414   1.606   4.278   1.702
 2839SOL     OW 9415   5.630   1.113   1.882
 2839SOL    HW1 9416   5.724   1.121   1.917
 2839SOL    HW2 9417   5.567   1.150   1.950
 2840SOL     OW 9418   0.927   1.361   3.849
 2840SOL    HW1 9419   1.021   1.375   3.880
 2840SOL    HW2 9420   0.868   1.432   3.888
 2841SOL     OW 9421   0.028   0.539   5.771
 2841SOL    HW1 9422   6.956   0.549   5.761
 2841SOL    HW2 9423   0.067   0.628   5.797
 2842SOL     OW 9424   0.131   2.734   4.338
 2842SOL    HW1 9425   0.167   2.648   4.300
 2842SOL    HW2 9426   0.083   2.784   4.266
 2843SOL     OW 9427   2.944   1.789   3.434
 2843SOL    HW1 9428   2.891   1.856   3.487
 2843SOL    HW2 9429   2.891   1.762   3.353
 2844SOL     OW 9430   1.287   5.352   0.391
 2844SOL    HW1 9431   1.332   5.388   0.309
 2844SOL    HW2 9432   1.271   5.254   0.380
 2845SOL     OW 9433   0.793   3.213   1.125
 2845SOL    HW1 9434   0.757   3.185   1.036
 2845SOL    HW2 9435   0.828   3.133   1.174
 2846SOL     OW 9436   4.254   1.212   6.525
 2846SOL    HW1 9437   4.307   1.294   6.501
 2846SOL    HW2 9438   4.182   1.237   6.589
 2847SOL     OW 9439   5.256   3.626   2.773
 2847SOL    HW1 9440   5.178   3.590   2.722
 2847SOL    HW2 9441   5.317   3.675   2.710
 2848SOL     OW 9442   0.853   4.184   6.325
 2848SOL    HW1 9443   0.822   4.276   6.349
 2848SOL    HW2 9444   0.799   4.117   6.375
 2849SOL     OW 9445   3.907   6.755   1.762
 2849SOL    HW1 9446   3.844   6.824   1.727
 2849SOL    HW2 9447   3.860   6.666   1.765
 2850SOL     OW 9448   3.363   0.086   2.220
 2850SOL    HW1 9449   3.391   0.180   2.237
 2850SOL    HW2 9450   3.291   0.084   2.151
 2851SOL     OW 9451   6.946   3.542   5.812
 2851SOL    HW1 9452   6.859   3.493   5.816
 2851SOL    HW2 9453   6.984   3.534   5.719
 2852SOL     OW 9454   5.589   4.510   0.214
 2852SOL    HW1 9455   5.536   4.425   0.209
 2852SOL    HW2 9456   5.527   4.587   0.230
 2853SOL     OW 9457   2.443   2.273   0.280
 2853SOL    HW1 9458   2.452   2.238   0.187
 2853SOL    HW2 9459   2.523   2.246   0.334
 2854SOL     OW 9460   3.824   1.784   4.560
 2854SOL    HW1 9461   3.735   1.752   4.593
 2854SOL    HW2 9462   3.895   1.754   4.624
 2855SOL     OW 9463   2.385   1.294   6.285
 2855SOL    HW1 9464   2.387   1.319   6.189
 2855SOL    HW2 9465   2.435   1.209   6.299
 2856SOL     OW 9466   2.298   2.940   6.197
 2856SOL    HW1 9467   2.204   2.909   6.182
 2856SOL    HW2 9468   2.335   2.976   6.112
 2857SOL     OW 9469   3.424   1.802   2.107
 2857SOL    HW1 9470   3.481   1.826   2.185
 2857SOL    HW2 9471   3.460   1.845   2.024
 2858SOL     OW 9472   6.528   3.546   1.702
 2858SOL    HW1 9473   6.590   3.588   1.768
 2858SOL    HW2 9474   6.581   3.500   1.631
 2859SOL     OW 9475   4.928   2.020   0.776
 2859SOL    HW1 9476   4.989   2.030   0.697
 2859SOL    HW2 9477   4.943   2.095   0.840
 2860SOL     OW 9478   3.414   1.821   1.238
 2860SOL    HW1 9479   3.444   1.741   1.186
 2860SOL    HW2 9480   3.351   1.791   1.310
 2861SOL     OW 9481   4.777   4.811   6.045
 2861SOL    HW1 9482   4.702   4.746   6.051
 2861SOL    HW2 9483   4.838   4.800   6.123
 2862SOL     OW 9484   5.309   2.037   3.550
 2862SOL    HW1 9485   5.299   1.986   3.465
 2862SOL    HW2 9486   5.379   2.108   3.538
 2863SOL     OW 9487   5.539   1.264   6.607
 2863SOL    HW1 9488   5.527   1.351   6.560
 2863SOL    HW2 9489   5.636   1.244   6.616
 2864SOL     OW 9490   4.244   0.954   1.678
 2864SOL    HW1 9491   4.322   0.986   1.732
 2864SOL    HW2 9492   4.171   1.022   1.680
 2865SOL     OW 9493   5.251   4.171   5.809
 2865SOL    HW1 9494   5.224   4.160   5.713
 2865SOL    HW2 9495   5.237   4.266   5.837
 2866SOL     OW 9496   6.675   6.181   6.850
 2866SOL    HW1 9497   6.656   6.273   6.887
 2866SOL    HW2 9498   6.591   6.142   6.814
 2867SOL     OW 9499   5.989   3.772   2.364
 2867SOL    HW1 9500   6.046   3.799   2.442
 2867SOL    HW2 9501   5.919   3.841   2.349
 2868SOL     OW 9502   0.334   3.377   5.559
 2868SOL    HW1 9503   0.350   3.356   5.462
 2868SOL    HW2 9504   0.367   3.301   5.615
 2869SOL     OW 9505   6.103   1.235   3.367
 2869SOL    HW1 9506   6.084   1.249   3.464
 2869SOL    HW2 9507   6.066   1.311   3.314
 2870SOL     OW 9508   0.322   1.134   4.546
 2870SOL    HW1 9509   0.359   1.142   4.639
 2870SOL    HW2 9510   0.339   1.042   4.512
 2871SOL     OW 9511   1.488   1.285   0.039
 2871SOL    HW1 9512   1.551   1.303   6.990
 2871SOL    HW2 9513   1.510   1.197   0.080
 2872SOL     OW 9514   2.607   1.744   3.652
 2872SOL    HW1 9515   2.676   1.812   3.630
 2872SOL    HW2 9516   2.560   1.717   3.568
 2873SOL     OW 9517   0.779   4.895   2.686
 2873SOL    HW1 9518   0.815   4.942   2.766
 2873SOL    HW2 9519   0.718   4.821   2.714
 2874SOL     OW 9520   3.778   5.995   2.838
 2874SOL    HW1 9521   3.762   6.014   2.741
 2874SOL    HW2 9522   3.758   5.899   2.857
 2875SOL     OW 9523   4.987   6.135   6.877
 2875SOL    HW1 9524   4.958   6.182   6.960
 2875SOL    HW2 9525   4.946   6.178   6.797
 2876SOL     OW 9526   0.826   6.971   1.935
 2876SOL    HW1 9527   0.776   0.029   1.952
 2876SOL    HW2 9528   0.924   6.987   1.946
 2877SOL     OW 9529   3.947   2.951   5.302
 2877SOL    HW1 9530   3.849   2.944   5.322
 2877SOL    HW2 9531   3.966   3.040   5.260
 2878SOL     OW 9532   3.664   5.035   4.690
 2878SOL    HW1 9533   3.587   5.051   4.629
 2878SOL    HW2 9534   3.725   4.967   4.649
 2879SOL     OW 9535   5.082   4.865   0.195
 2879SOL    HW1 9536   5.164   4.875   0.251
 2879SOL    HW2 9537   5.051   4.770   0.198
 2880SOL     OW 9538   5.610   6.837   0.705
 2880SOL    HW1 9539   5.679   6.893   0.660
 2880SOL    HW2 9540   5.519   6.866   0.675
 2881SOL     OW 9541   5.879   6.478   1.138
 2881SOL    HW1 9542   5.855   6.381   1.145
 2881SOL    HW2 9543   5.920   6.496   1.049
 2882SOL     OW 9544   0.804   3.393   2.268
 2882SOL    HW1 9545   0.882   3.456   2.269
 2882SOL    HW2 9546   0.729   3.434   2.321
 2883SOL     OW 9547   5.443   6.052   4.106
 2883SOL    HW1 9548   5.431   5.970   4.051
 2883SOL    HW2 9549   5.540   6.077   4.109
 2884SOL     OW 9550   0.708   5.743   2.672
 2884SOL    HW1 9551   0.636   5.808   2.695
 2884SOL    HW2 9552   0.751   5.710   2.755
 2885SOL     OW 9553   0.501   3.487   1.911
 2885SOL    HW1 9554   0.543   3.577   1.916
 2885SOL    HW2 9555   0.571   3.416   1.921
 2886SOL     OW 9556   2.157   3.988   6.425
 2886SOL    HW1 9557   2.064   3.954   6.412
 2886SOL    HW2 9558   2.175   4.062   6.361
 2887SOL     OW 9559   1.405   0.147   4.741
 2887SOL    HW1 9560   1.499   0.123   4.716
 2887SOL    HW2 9561   1.406   0.223   4.806
 2888SOL     OW 9562   0.690   4.682   6.936
 2888SOL    HW1 9563   0.788   4.698   6.946
 2888SOL    HW2 9564   0.654   4.640   7.019
 2889SOL     OW 9565   1.790   6.899   2.594
 2889SOL    HW1 9566   1.695   6.870   2.590
 2889SOL    HW2 9567   1.797   6.985   2.645
 2890SOL     OW 9568   2.485   0.716   1.246
 2890SOL    HW1 9569   2.525   0.646   1.187
 2890SOL    HW2 9570   2.558   0.768   1.289
 2891SOL     OW 9571   2.405   4.373   3.895
 2891SOL    HW1 9572   2.405   4.313   3.815
 2891SOL    HW2 9573   2.428   4.321   3.977
 2892SOL     OW 9574   5.655   3.531   0.507
 2892SOL    HW1 9575   5.650   3.603   0.438
 2892SOL    HW2 9576   5.672   3.572   0.596
 2893SOL     OW 9577   0.343   6.688   4.804
 2893SOL    HW1 9578   0.309   6.751   4.874
 2893SOL    HW2 9579   0.429   6.647   4.835
 2894SOL     OW 9580   3.122   2.569   0.147
 2894SOL    HW1 9581   3.219   2.592   0.132
 2894SOL    HW2 9582   3.108   2.543   0.242
 2895SOL     OW 9583   4.031   3.259   6.627
 2895SOL    HW1 9584   4.071   3.350   6.621
 2895SOL    HW2 9585   4.099   3.194   6.662
 2896SOL     OW 9586   3.054   5.354   6.553
 2896SOL    HW1 9587   3.093   5.446   6.550
 2896SOL    HW2 9588   3.119   5.289   6.514
 2897SOL     OW 9589   3.112   5.756   3.394
 2897SOL    HW1 9590   3.171   5.676   3.399
 2897SOL    HW2 9591   3.161   5.831   3.349
 2898SOL     OW 9592   4.106   5.218   3.855
 2898SOL    HW1 9593   4.120   5.203   3.953
 2898SOL    HW2 9594   4.010   5.202   3.833
 2899SOL     OW 9595   0.495   2.056   0.464
 2899SOL    HW1 9596   0.502   2.028   0.560
 2899SOL    HW2 9597   0.585   2.083   0.431
 2900SOL     OW 9598   1.889   4.980   5.502
 2900SOL    HW1 9599   1.976   4.954   5.543
 2900SOL    HW2 9600   1.821   4.995   5.573
 2901SOL     OW 9601   1.604   0.527   3.062
 2901SOL    HW1 9602   1.611   0.457   3.133
 2901SOL    HW2 9603   1.595   0.617   3.104
 2902SOL     OW 9604   5.708   5.909   1.382
 2902SOL    HW1 9605   5.767   5.858   1.320
 2902SOL    HW2 9606   5.651   5.973   1.330
 2903SOL     OW 9607   3.073   0.245   1.356
 2903SOL    HW1 9608   3.138   0.277   1.425
 2903SOL    HW2 9609   3.122   0.202   1.281
 2904SOL     OW 9610   1.902   3.233   5.288
 2904SOL    HW1 9611   1.977   3.178   5.250
 2904SOL    HW2 9612   1.917   3.329   5.264
 2905SOL     OW 9613   1.515   2.525   3.669
 2905SOL    HW1 9614   1.511   2.616   3.626
 2905SOL    HW2 9615   1.480   2.531   3.762
 2906SOL     OW 9616   4.878   5.506   2.979
 2906SOL    HW1 9617   4.942   5.505   2.902
 2906SOL    HW2 9618   4.915   5.564   3.052
 2907SOL     OW 9619   0.465   1.233   4.326
 2907SOL    HW1 9620   0.422   1.203   4.411
 2907SOL    HW2 9621   0.533   1.303   4.346
 2908SOL     OW 9622   4.105   6.879   3.841
 2908SOL    HW1 9623   4.012   6.874   3.804
 2908SOL    HW2 9624   4.130   6.975   3.853
 2909SOL     OW 9625   0.808   5.867   3.138
 2909SOL    HW1 9626   0.826   5.933   3.065
 2909SOL    HW2 9627   0.710   5.862   3.155
 2910SOL     OW 9628   4.809   5.925   4.441
 2910SOL    HW1 9629   4.781   5.972   4.358
 2910SOL    HW2 9630   4.796   5.826   4.431
 2911SOL     OW 9631   1.755   5.044   3.395
 2911SOL    HW1 9632   1.710   5.038   3.484
 2911SOL    HW2 9633   1.741   5.135   3.357
 2912SOL     OW 9634   4.175   6.194   6.790
 2912SOL    HW1 9635   4.091   6.206   6.736
 2912SOL    HW2 9636   4.176   6.262   6.863
 2913SOL     OW 9637   1.895   4.997   2.369
 2913SOL    HW1 9638   1.855   5.053   2.442
 2913SOL    HW2 9639   1.986   5.033   2.347
 2914SOL     OW 9640   6.139   6.138   5.503
 2914SOL    HW1 9641   6.046   6.165   5.529
 2914SOL    HW2 9642   6.195   6.129   5.586
 2915SOL     OW 9643   5.130   1.718   5.167
 2915SOL    HW1 9644   5.219   1.753   5.139
 2915SOL    HW2 9645   5.061   1.745   5.100
 2916SOL     OW 9646   6.380   5.581   5.800
 2916SOL    HW1 9647   6.293   5.532   5.797
 2916SOL    HW2 9648   6.456   5.516   5.807
 2917SOL     OW 9649   4.467   0.440   2.094
 2917SOL    HW1 9650   4.482   0.345   2.067
 2917SOL    HW2 9651   4.555   0.484   2.111
 2918SOL     OW 9652   0.218   3.578   3.287
 2918SOL    HW1 9653   0.191   3.673   3.275
 2918SOL    HW2 9654   0.142   3.518   3.260
 2919SOL     OW 9655   6.417   1.285   0.222
 2919SOL    HW1 9656   6.364   1.344   0.162
 2919SOL    HW2 9657   6.503   1.329   0.245
 2920SOL     OW 9658   3.229   1.849   2.436
 2920SOL    HW1 9659   3.328   1.838   2.447
 2920SOL    HW2 9660   3.205   1.945   2.446
 2921SOL     OW 9661   0.408   0.363   3.101
 2921SOL    HW1 9662   0.333   0.358   3.034
 2921SOL    HW2 9663   0.453   0.452   3.094
 2922SOL     OW 9664   5.776   6.693   6.721
 2922SOL    HW1 9665   5.700   6.689   6.786
 2922SOL    HW2 9666   5.834   6.612   6.732
 2923SOL     OW 9667   0.111   4.798   1.826
 2923SOL    HW1 9668   0.046   4.816   1.753
 2923SOL    HW2 9669   0.101   4.704   1.857
 2924SOL     OW 9670   0.122   2.102   6.602
 2924SOL    HW1 9671   0.035   2.134   6.639
 2924SOL    HW2 9672   0.107   2.069   6.508
 2925SOL     OW 9673   5.263   0.826   3.133
 2925SOL    HW1 9674   5.288   0.814   3.037
 2925SOL    HW2 9675   5.327   0.775   3.190
 2926SOL     OW 9676   0.344   1.245   4.833
 2926SOL    HW1 9677   0.410   1.224   4.904
 2926SOL    HW2 9678   0.252   1.220   4.864
 2927SOL     OW 9679   1.820   1.947   2.264
 2927SOL    HW1 9680   1.789   2.035   2.230
 2927SOL    HW2 9681   1.897   1.960   2.326
 2928SOL     OW 9682   6.658   2.340   6.215
 2928SOL    HW1 9683   6.563   2.371   6.222
 2928SOL    HW2 9684   6.671   2.296   6.126
 2929SOL     OW 9685   0.692   0.937   5.816
 2929SOL    HW1 9686   0.666   1.023   5.772
 2929SOL    HW2 9687   0.673   0.942   5.914
 2930SOL     OW 9688   4.529   6.401   5.082
 2930SOL    HW1 9689   4.546   6.499   5.080
 2930SOL    HW2 9690   4.546   6.363   4.991
 2931SOL     OW 9691   5.638   6.199   0.012
 2931SOL    HW1 9692   5.592   6.180   0.099
 2931SOL    HW2 9693   5.683   6.288   0.018
 2932SOL     OW 9694   1.695   4.966   2.001
 2932SOL    HW1 9695   1.738   5.056   2.012
 2932SOL    HW2 9696   1.652   4.961   1.911
 2933SOL     OW 9697   5.757   3.049   3.122
 2933SOL    HW1 9698   5.843   3.013   3.085
 2933SOL    HW2 9699   5.731   3.131   3.072
 2934SOL     OW 9700   3.926   1.017   0.328
 2934SOL    HW1 9701   3.906   1.027   0.425
 2934SOL    HW2 9702   3.849   1.052   0.274
 2935SOL     OW 9703   6.600   3.389   1.486
 2935SOL    HW1 9704   6.573   3.293   1.494
 2935SOL    HW2 9705   6.557   3.429   1.405
 2936SOL     OW 9706   4.803   5.744   2.021
 2936SOL    HW1 9707   4.864   5.794   1.960
 2936SOL    HW2 9708   4.812   5.646   2.004
 2937SOL     OW 9709   3.994   4.485   0.602
 2937SOL    HW1 9710   3.953   4.500   0.692
 2937SOL    HW2 9711   3.967   4.559   0.541
 2938SOL     OW 9712   4.934   4.618   5.879
 2938SOL    HW1 9713   4.872   4.606   5.802
 2938SOL    HW2 9714   4.899   4.689   5.939
 2939SOL     OW 9715   0.450   0.204   4.498
 2939SOL    HW1 9716   0.351   0.201   4.484
 2939SOL    HW2 9717   0.491   0.269   4.434
 2940SOL     OW 9718   5.669   0.062   6.496
 2940SOL    HW1 9719   5.766   0.087   6.496
 2940SOL    HW2 9720   5.659   6.993   6.470
 2941SOL     OW 9721   2.072   2.141   5.042
 2941SOL    HW1 9722   2.168   2.144   5.067
 2941SOL    HW2 9723   2.053   2.057   4.991
 2942SOL     OW 9724   2.183   1.338   1.783
 2942SOL    HW1 9725   2.102   1.370   1.831
 2942SOL    HW2 9726   2.169   1.346   1.684
 2943SOL     OW 9727   5.831   3.814   2.880
 2943SOL    HW1 9728   5.915   3.760   2.886
 2943SOL    HW2 9729   5.755   3.754   2.855
 2944SOL     OW 9730   2.563   5.536   5.244
 2944SOL    HW1 9731   2.492   5.531   5.314
 2944SOL    HW2 9732   2.526   5.506   5.156
 2945SOL     OW 9733   4.157   3.590   3.574
 2945SOL    HW1 9734   4.092   3.666   3.570
 2945SOL    HW2 9735   4.166   3.559   3.668
 2946SOL     OW 9736   0.270   5.418   6.931
 2946SOL    HW1 9737   0.185   5.365   6.925
 2946SOL    HW2 9738   0.348   5.357   6.918
 2947SOL     OW 9739   0.796   4.648   0.352
 2947SOL    HW1 9740   0.748   4.632   0.266
 2947SOL    HW2 9741   0.745   4.605   0.427
 2948SOL     OW 9742   6.940   3.949   5.671
 2948SOL    HW1 9743   6.944   4.047   5.655
 2948SOL    HW2 9744   6.844   3.921   5.680
 2949SOL     OW 9745   1.924   6.283   1.008
 2949SOL    HW1 9746   1.872   6.259   0.926
 2949SOL    HW2 9747   2.010   6.232   1.010
 2950SOL     OW 9748   5.009   3.689   4.468
 2950SOL    HW1 9749   4.951   3.747   4.410
 2950SOL    HW2 9750   4.979   3.696   4.563
 2951SOL     OW 9751   6.634   2.507   0.782
 2951SOL    HW1 9752   6.697   2.534   0.710
 2951SOL    HW2 9753   6.540   2.509   0.747
 2952SOL     OW 9754   0.742   6.152   4.954
 2952SOL    HW1 9755   0.712   6.176   4.861
 2952SOL    HW2 9756   0.834   6.187   4.969
 2953SOL     OW 9757   4.763   2.941   2.649
 2953SOL    HW1 9758   4.775   3.022   2.592
 2953SOL    HW2 9759   4.839   2.934   2.714
 2954SOL     OW 9760   0.721   5.464   1.645
 2954SOL    HW1 9761   0.763   5.415   1.568
 2954SOL    HW2 9762   0.785   5.466   1.722
 2955SOL     OW 9763   0.962   3.729   0.474
 2955SOL    HW1 9764   0.973   3.679   0.560
 2955SOL    HW2 9765   0.866   3.752   0.459
 2956SOL     OW 9766   6.095   6.059   3.328
 2956SOL    HW1 9767   6.193   6.065   3.349
 2956SOL    HW2 9768   6.078   5.978   3.272
 2957SOL     OW 9769   6.858   3.385   1.567
 2957SOL    HW1 9770   6.768   3.374   1.524
 2957SOL    HW2 9771   6.927   3.337   1.514
 2958SOL     OW 9772   2.734   4.746   4.816
 2958SOL    HW1 9773   2.640   4.777   4.832
 2958SOL    HW2 9774   2.768   4.700   4.898
 2959SOL     OW 9775   4.395   4.215   0.344
 2959SOL    HW1 9776   4.467   4.160   0.387
 2959SOL    HW2 9777   4.406   4.311   0.371
 2960SOL     OW 9778   3.010   0.509   6.808
 2960SOL    HW1 9779   2.978   0.604   6.812
 2960SOL    HW2 9780   2.974   0.459   6.887
 2961SOL     OW 9781   5.201   2.678   4.693
 2961SOL    HW1 9782   5.254   2.671   4.777
 2961SOL    HW2 9783   5.205   2.591   4.644
 2962SOL     OW 9784   4.030   1.294   3.852
 2962SOL    HW1 9785   3.945   1.284   3.904
 2962SOL    HW2 9786   4.108   1.286   3.914
 2963SOL     OW 9787   1.671   1.576   5.875
 2963SOL    HW1 9788   1.643   1.486   5.844
 2963SOL    HW2 9789   1.626   1.646   5.820
 2964SOL     OW 9790   0.671   6.771   1.838
 2964SOL    HW1 9791   0.731   6.723   1.773
 2964SOL    HW2 9792   0.718   6.852   1.873
 2965SOL     OW 9793   6.968   1.009   5.057
 2965SOL    HW1 9794   6.876   1.003   5.095
 2965SOL    HW2 9795   7.016   0.922   5.070
 2966SOL     OW 9796   6.102   4.545   4.144
 2966SOL    HW1 9797   6.119   4.566   4.047
 2966SOL    HW2 9798   6.188   4.516   4.187
 2967SOL     OW 9799   6.023   2.387   4.473
 2967SOL    HW1 9800   5.944   2.329   4.491
 2967SOL    HW2 9801   6.041   2.389   4.375
 2968SOL     OW 9802   1.371   4.272   5.581
 2968SOL    HW1 9803   1.328   4.266   5.491
 2968SOL    HW2 9804   1.321   4.337   5.638
 2969SOL     OW 9805   6.252   1.223   4.185
 2969SOL    HW1 9806   6.340   1.250   4.224
 2969SOL    HW2 9807   6.255   1.126   4.162
 2970SOL     OW 9808   0.720   4.113   6.667
 2970SOL    HW1 9809   0.700   4.082   6.574
 2970SOL    HW2 9810   0.818   4.130   6.677
 2971SOL     OW 9811   5.156   2.968   5.560
 2971SOL    HW1 9812   5.057   2.976   5.552
 2971SOL    HW2 9813   5.181   2.871   5.563
 2972SOL     OW 9814   6.327   4.896   6.184
 2972SOL    HW1 9815   6.250   4.953   6.213
 2972SOL    HW2 9816   6.411   4.950   6.186
 2973SOL     OW 9817   5.239   1.373   3.969
 2973SOL    HW1 9818   5.335   1.347   3.960
 2973SOL    HW2 9819   5.218   1.445   3.903
 2974SOL     OW 9820   0.862   3.602   2.903
 2974SOL    HW1 9821   0.881   3.659   2.822
 2974SOL    HW2 9822   0.942   3.547   2.924
 2975SOL     OW 9823   0.842   2.345   5.371
 2975SOL    HW1 9824   0.831   2.333   5.272
 2975SOL    HW2 9825   0.752   2.362   5.412
 2976SOL     OW 9826   4.249   1.246   2.403
 2976SOL    HW1 9827   4.322   1.309   2.428
 2976SOL    HW2 9828   4.288   1.159   2.373
 2977SOL     OW 9829   1.638   0.053   4.200
 2977SOL    HW1 9830   1.727   0.051   4.154
 2977SOL    HW2 9831   1.582   7.005   4.166
 2978SOL     OW 9832   3.928   4.711   6.717
 2978SOL    HW1 9833   3.875   4.754   6.791
 2978SOL    HW2 9834   4.013   4.674   6.754
 2979SOL     OW 9835   4.670   6.906   4.397
 2979SOL    HW1 9836   4.762   6.867   4.407
 2979SOL    HW2 9837   4.666   6.964   4.316
 2980SOL     OW 9838   1.494   6.021   3.713
 2980SOL    HW1 9839   1.481   6.082   3.792
 2980SOL    HW2 9840   1.453   5.932   3.733
 2981SOL     OW 9841   0.724   0.541   5.836
 2981SOL    HW1 9842   0.713   0.460   5.894
 2981SOL    HW2 9843   0.758   0.617   5.891
 2982SOL     OW 9844   5.037   6.208   3.301
 2982SOL    HW1 9845   5.008   6.258   3.219
 2982SOL    HW2 9846   4.964   6.145   3.329
 2983SOL     OW 9847   0.767   1.439   4.182
 2983SOL    HW1 9848   0.741   1.510   4.116
 2983SOL    HW2 9849   0.727   1.461   4.271
 2984SOL     OW 9850   4.903   5.872   1.768
 2984SOL    HW1 9851   4.921   5.969   1.756
 2984SOL    HW2 9852   4.841   5.840   1.696
 2985SOL     OW 9853   0.866   2.619   5.066
 2985SOL    HW1 9854   0.870   2.522   5.089
 2985SOL    HW2 9855   0.868   2.631   4.967
 2986SOL     OW 9856   1.937   3.832   6.432
 2986SOL    HW1 9857   1.943   3.751   6.489
 2986SOL    HW2 9858   1.857   3.825   6.373
 2987SOL     OW 9859   5.136   0.719   3.483
 2987SOL    HW1 9860   5.151   0.815   3.505
 2987SOL    HW2 9861   5.209   0.688   3.422
 2988SOL     OW 9862   0.317   0.006   3.091
 2988SOL    HW1 9863   0.385   0.079   3.095
 2988SOL    HW2 9864   0.247   0.023   3.161
 2989SOL     OW 9865   6.609   6.043   0.490
 2989SOL    HW1 9866   6.557   6.018   0.408
 2989SOL    HW2 9867   6.703   6.010   0.481
 2990SOL     OW 9868   4.317   1.448   3.420
 2990SOL    HW1 9869   4.298   1.351   3.410
 2990SOL    HW2 9870   4.274   1.499   3.346
 2991SOL     OW 9871   6.537   4.116   0.292
 2991SOL    HW1 9872   6.572   4.027   0.324
 2991SOL    HW2 9873   6.438   4.119   0.306
 2992SOL     OW 9874   2.393   5.307   5.678
 2992SOL    HW1 9875   2.375   5.212   5.652
 2992SOL    HW2 9876   2.491   5.320   5.692
 2993SOL     OW 9877   1.006   4.914   1.958
 2993SOL    HW1 9878   1.017   4.938   1.862
 2993SOL    HW2 9879   0.947   4.982   2.002
 2994SOL     OW 9880   4.237   0.458   0.854
 2994SOL    HW1 9881   4.230   0.417   0.945
 2994SOL    HW2 9882   4.333   0.459   0.826
 2995SOL     OW 9883   1.156   3.439   6.861
 2995SOL    HW1 9884   1.188   3.530   6.835
 2995SOL    HW2 9885   1.057   3.439   6.870
 2996SOL     OW 9886   2.540   5.867   3.634
 2996SOL    HW1 9887   2.541   5.890   3.537
 2996SOL    HW2 9888   2.452   5.826   3.658
 2997SOL     OW 9889   4.942   6.936   1.850
 2997SOL    HW1 9890   5.012   6.904   1.786
 2997SOL    HW2 9891   4.983   6.953   1.939
 2998SOL     OW 9892   5.363   6.610   5.071
 2998SOL    HW1 9893   5.434   6.677   5.091
 2998SOL    HW2 9894   5.374   6.531   5.132
 2999SOL     OW 9895   3.384   5.256   3.709
 2999SOL    HW1 9896   3.351   5.348   3.688
 2999SOL    HW2 9897   3.331   5.218   3.785
 3000SOL     OW 9898   1.608   3.932   6.953
 3000SOL    HW1 9899   1.593   3.851   7.009
 3000SOL    HW2 9900   1.520   3.979   6.939
 3001SOL     OW 9901   5.151   0.044   6.543
 3001SOL    HW1 9902   5.229   0.104   6.522
 3001SOL    HW2 9903   5.133   0.046   6.641
 3002SOL     OW 9904   4.548   0.216   5.598
 3002SOL    HW1 9905   4.502   0.200   5.510
 3002SOL    HW2 9906   4.646   0.223   5.583
 3003SOL     OW 9907   2.520   6.820   6.573
 3003SOL    HW1 9908   2.559   6.783   6.489
 3003SOL    HW2 9909   2.436   6.771   6.596
 3004SOL     OW 9910   0.821   5.363   3.803
 3004SOL    HW1 9911   0.752   5.362   3.875
 3004SOL    HW2 9912   0.911   5.341   3.841
 3005SOL     OW 9913   3.405   2.597   0.204
 3005SOL    HW1 9914   3.414   2.527   0.134
 3005SOL    HW2 9915   3.478   2.586   0.272
 3006SOL     OW 9916   6.239   2.291   6.759
 3006SOL    HW1 9917   6.204   2.331   6.844
 3006SOL    HW2 9918   6.203   2.198   6.749
 3007SOL     OW 9919   6.137   5.029   2.260
 3007SOL    HW1 9920   6.168   4.934   2.268
 3007SOL    HW2 9921   6.057   5.042   2.319
 3008SOL     OW 9922   3.518   0.520   6.333
 3008SOL    HW1 9923   3.461   0.439   6.323
 3008SOL    HW2 9924   3.461   0.602   6.330
 3009SOL     OW 9925   0.381   6.466   2.741
 3009SOL    HW1 9926   0.372   6.450   2.643
 3009SOL    HW2 9927   0.302   6.429   2.788
 3010SOL     OW 9928   3.748   6.387   3.119
 3010SOL    HW1 9929   3.660   6.384   3.072
 3010SOL    HW2 9930   3.793   6.474   3.101
 3011SOL     OW 9931   5.861   1.224   0.233
 3011SOL    HW1 9932   5.821   1.316   0.239
 3011SOL    HW2 9933   5.822   1.167   0.304
 3012SOL     OW 9934   1.394   3.741   5.420
 3012SOL    HW1 9935   1.336   3.689   5.358
 3012SOL    HW2 9936   1.480   3.763   5.375
 3013SOL     OW 9937   5.501   5.302   4.485
 3013SOL    HW1 9938   5.456   5.311   4.397
 3013SOL    HW2 9939   5.512   5.392   4.527
 3014SOL     OW 9940   5.272   3.095   4.168
 3014SOL    HW1 9941   5.224   3.122   4.252
 3014SOL    HW2 9942   5.339   3.023   4.189
 3015SOL     OW 9943   3.035   2.200   0.607
 3015SOL    HW1 9944   3.063   2.105   0.620
 3015SOL    HW2 9945   3.026   2.219   0.509
 3016SOL     OW 9946   2.639   6.302   3.628
 3016SOL    HW1 9947   2.683   6.272   3.713
 3016SOL    HW2 9948   2.661   6.238   3.554
 3017SOL     OW 9949   0.481   5.044   1.806
 3017SOL    HW1 9950   0.387   5.047   1.841
 3017SOL    HW2 9951   0.479   5.046   1.706
 3018SOL     OW 9952   2.955   0.039   5.049
 3018SOL    HW1 9953   2.966   0.131   5.011
 3018SOL    HW2 9954   2.968   6.998   4.977
 3019SOL     OW 9955   1.938   6.733   0.576
 3019SOL    HW1 9956   1.848   6.771   0.554
 3019SOL    HW2 9957   2.006   6.805   0.574
 3020SOL     OW 9958   3.821   4.176   1.766
 3020SOL    HW1 9959   3.880   4.255   1.749
 3020SOL    HW2 9960   3.759   4.164   1.689
 3021SOL     OW 9961   2.802   1.332   6.783
 3021SOL    HW1 9962   2.729   1.315   6.717
 3021SOL    HW2 9963   2.860   1.406   6.750
 3022SOL     OW 9964   3.784   6.114   3.096
 3022SOL    HW1 9965   3.753   6.070   3.012
 3022SOL    HW2 9966   3.762   6.211   3.093
 3023SOL     OW 9967   4.488   6.685   2.551
 3023SOL    HW1 9968   4.538   6.772   2.540
 3023SOL    HW2 9969   4.434   6.668   2.469
 3024SOL     OW 9970   4.225   7.013   5.925
 3024SOL    HW1 9971   4.268   0.076   5.914
 3024SOL    HW2 9972   4.125   7.023   5.917
 3025SOL     OW 9973   3.260   2.054   0.087
 3025SOL    HW1 9974   3.340   2.070   0.030
 3025SOL    HW2 9975   3.272   2.099   0.175
 3026SOL     OW 9976   2.035   1.842   0.287
 3026SOL    HW1 9977   2.070   1.817   0.377
 3026SOL    HW2 9978   2.034   1.942   0.278
 3027SOL     OW 9979   4.536   0.742   1.863
 3027SOL    HW1 9980   4.442   0.709   1.856
 3027SOL    HW2 9981   4.579   0.700   1.943
 3028SOL     OW 9982   1.460   3.561   6.259
 3028SOL    HW1 9983   1.450   3.463   6.239
 3028SOL    HW2 9984   1.556   3.582   6.272
 3029SOL     OW 9985   0.258   4.933   5.152
 3029SOL    HW1 9986   0.324   4.876   5.103
 3029SOL    HW2 9987   0.188   4.965   5.089
 3030SOL     OW 9988   0.678   2.419   6.184
 3030SOL    HW1 9989   0.667   2.473   6.100
 3030SOL    HW2 9990   0.687   2.322   6.160
 3031SOL     OW 9991   0.164   3.474   0.688
 3031SOL    HW1 9992   0.179   3.553   0.628
 3031SOL    HW2 9993   0.070   3.476   0.722
 3032SOL     OW 9994   4.348   6.715   0.705
 3032SOL    HW1 9995   4.292   6.701   0.624
 3032SOL    HW2 9996   4.430   6.767   0.681
 3033SOL     OW 9997   0.910   2.678   1.241
 3033SOL    HW1 9998   0.939   2.586   1.215
 3033SOL    HW2 9999   0.931   2.694   1.337
 3034SOL     OW10000   1.941   5.504   3.471
 3034SOL    HW110001   1.868   5.561   3.509
 3034SOL    HW210002   1.961   5.533   3.378
 3035SOL     OW10003   6.516   2.956   0.197
 3035SOL    HW110004   6.550   2.898   0.271
 3035SOL    HW210005   6.545   3.050   0.212
 3036SOL     OW10006   1.268   3.044   6.611
 3036SOL    HW110007   1.171   3.040   6.634
 3036SOL    HW210008   1.296   2.957   6.570
 3037SOL     OW10009   6.538   5.614   4.036
 3037SOL    HW110010   6.440   5.618   4.016
 3037SOL    HW210011   6.580   5.702   4.013
 3038SOL     OW10012   5.864   6.698   6.353
 3038SOL    HW110013   5.782   6.717   6.407
 3038SOL    HW210014   5.861   6.753   6.269
 3039SOL     OW10015   6.857   3.624   2.505
 3039SOL    HW110016   6.891   3.710   2.543
 3039SOL    HW210017   6.865   3.626   2.406
 3040SOL     OW10018   5.037   3.354   6.290
 3040SOL    HW110019   4.940   3.334   6.298
 3040SOL    HW210020   5.090   3.288   6.343
 3041SOL     OW10021   2.162   2.593   5.421
 3041SOL    HW110022   2.170   2.660   5.347
 3041SOL    HW210023   2.219   2.622   5.498
 3042SOL     OW10024   5.573   6.913   1.842
 3042SOL    HW110025   5.672   6.904   1.827
 3042SOL    HW210026   5.541   6.836   1.896
 3043SOL     OW10027   0.589   5.082   1.109
 3043SOL    HW110028   0.605   5.008   1.044
 3043SOL    HW210029   0.585   5.045   1.202
 3044SOL     OW10030   3.058   5.056   6.143
 3044SOL    HW110031   3.020   5.080   6.053
 3044SOL    HW210032   3.082   4.959   6.144
 3045SOL     OW10033   4.782   0.608   3.136
 3045SOL    HW110034   4.830   0.646   3.215
 3045SOL    HW210035   4.709   0.670   3.109
 3046SOL     OW10036   3.188   2.048   6.318
 3046SOL    HW110037   3.089   2.052   6.326
 3046SOL    HW210038   3.218   1.953   6.320
 3047SOL     OW10039   5.471   6.557   2.632
 3047SOL    HW110040   5.471   6.556   2.732
 3047SOL    HW210041   5.384   6.592   2.599
 3048SOL     OW10042   3.828   2.870   1.446
 3048SOL    HW110043   3.802   2.785   1.492
 3048SOL    HW210044   3.904   2.851   1.383
 3049SOL     OW10045   1.512   6.057   1.568
 3049SOL    HW110046   1.578   6.036   1.641
 3049SOL    HW210047   1.539   6.009   1.484
 3050SOL     OW10048   3.190   0.872   3.324
 3050SOL    HW110049   3.194   0.936   3.247
 3050SOL    HW210050   3.258   0.898   3.393
 3051SOL     OW10051   2.356   3.779   0.287
 3051SOL    HW110052   2.344   3.862   0.233
 3051SOL    HW210053   2.285   3.774   0.357
 3052SOL     OW10054   4.087   0.677   2.347
 3052SOL    HW110055   4.130   0.658   2.259
 3052SOL    HW210056   4.153   0.663   2.420
 3053SOL     OW10057   6.841   0.628   6.887
 3053SOL    HW110058   6.920   0.676   6.925
 3053SOL    HW210059   6.869   0.575   6.807
 3054SOL     OW10060   0.773   2.809   0.981
 3054SOL    HW110061   0.790   2.904   0.957
 3054SOL    HW210062   0.704   2.805   1.053
 3055SOL     OW10063   4.480   6.794   3.930
 3055SOL    HW110064   4.389   6.834   3.920
 3055SOL    HW210065   4.531   6.805   3.845
 3056SOL     OW10066   6.859   0.912   6.261
 3056SOL    HW110067   6.931   0.863   6.211
 3056SOL    HW210068   6.841   0.865   6.348
 3057SOL     OW10069   3.943   5.731   2.956
 3057SOL    HW110070   3.907   5.641   2.931
 3057SOL    HW210071   4.041   5.723   2.976
 3058SOL     OW10072   6.862   5.492   1.077
 3058SOL    HW110073   6.901   5.481   0.985
 3058SOL    HW210074   6.881   5.585   1.110
 3059SOL     OW10075   2.302   2.010   5.168
 3059SOL    HW110076   2.378   2.069   5.137
 3059SOL    HW210077   2.326   1.914   5.153
 3060SOL     OW10078   0.499   6.540   0.654
 3060SOL    HW110079   0.471   6.563   0.561
 3060SOL    HW210080   0.421   6.500   0.703
 3061SOL     OW10081   6.373   1.021   4.937
 3061SOL    HW110082   6.408   0.991   4.848
 3061SOL    HW210083   6.391   1.119   4.949
 3062SOL     OW10084   1.474   6.825   6.787
 3062SOL    HW110085   1.385   6.837   6.743
 3062SOL    HW210086   1.534   6.900   6.761
 3063SOL     OW10087   3.122   5.358   1.606
 3063SOL    HW110088   3.165   5.268   1.620
 3063SOL    HW210089   3.041   5.347   1.549
 3064SOL     OW10090   5.569   3.593   3.589
 3064SOL    HW110091   5.598   3.676   3.637
 3064SOL    HW210092   5.597   3.512   3.641
 3065SOL     OW10093   2.064   1.123   6.901
 3065SOL    HW110094   2.157   1.123   6.864
 3065SOL    HW210095   2.054   1.049   6.967
 3066SOL     OW10096   5.433   4.804   0.869
 3066SOL    HW110097   5.355   4.784   0.928
 3066SOL    HW210098   5.506   4.737   0.885
 3067SOL     OW10099   3.578   2.090   4.268
 3067SOL    HW110100   3.606   2.012   4.212
 3067SOL    HW210101   3.627   2.090   4.354
 3068SOL     OW10102   5.471   5.805   0.595
 3068SOL    HW110103   5.475   5.856   0.509
 3068SOL    HW210104   5.380   5.814   0.636
 3069SOL     OW10105   6.729   6.076   2.012
 3069SOL    HW110106   6.684   6.064   1.923
 3069SOL    HW210107   6.794   6.152   2.006
 3070SOL     OW10108   1.695   1.295   2.399
 3070SOL    HW110109   1.781   1.337   2.369
 3070SOL    HW210110   1.659   1.238   2.326
 3071SOL     OW10111   5.619   6.390   3.515
 3071SOL    HW110112   5.550   6.454   3.479
 3071SOL    HW210113   5.708   6.436   3.519
 3072SOL     OW10114   0.851   6.230   0.692
 3072SOL    HW110115   0.833   6.253   0.596
 3072SOL    HW210116   0.872   6.313   0.743
 3073SOL     OW10117   1.133   3.322   5.389
 3073SOL    HW110118   1.106   3.418   5.399
 3073SOL    HW210119   1.213   3.305   5.447
 3074SOL     OW10120   5.993   2.689   1.078
 3074SOL    HW110121   5.903   2.677   1.120
 3074SOL    HW210122   6.063   2.650   1.139
 3075SOL     OW10123   2.064   6.956   1.426
 3075SOL    HW110124   2.106   7.004   1.348
 3075SOL    HW210125   2.064   7.017   1.505
 3076SOL     OW10126   6.743   1.551   4.663
 3076SOL    HW110127   6.692   1.583   4.583
 3076SOL    HW210128   6.780   1.629   4.713
 3077SOL     OW10129   5.036   5.230   2.666
 3077SOL    HW110130   5.088   5.155   2.708
 3077SOL    HW210131   5.093   5.276   2.598
 3078SOL     OW10132   1.879   3.410   1.191
 3078SOL    HW110133   1.802   3.370   1.143
 3078SOL    HW210134   1.870   3.510   1.191
 3079SOL     OW10135   2.338   2.244   4.399
 3079SOL    HW110136   2.289   2.231   4.485
 3079SOL    HW210137   2.361   2.341   4.389
 3080SOL     OW10138   5.307   4.424   3.074
 3080SOL    HW110139   5.282   4.426   2.978
 3080SOL    HW210140   5.311   4.518   3.110
 3081SOL     OW10141   0.341   3.626   5.959
 3081SOL    HW110142   0.285   3.607   6.039
 3081SOL    HW210143   0.418   3.684   5.985
 3082SOL     OW10144   3.529   6.608   3.457
 3082SOL    HW110145   3.492   6.632   3.368
 3082SOL    HW210146   3.610   6.664   3.476
 3083SOL     OW10147   4.099   6.684   3.549
 3083SOL    HW110148   4.157   6.730   3.617
 3083SOL    HW210149   4.041   6.617   3.595
 3084SOL     OW10150   4.919   4.248   4.630
 3084SOL    HW110151   4.910   4.151   4.605
 3084SOL    HW210152   4.862   4.303   4.569
 3085SOL     OW10153   0.672   4.876   2.220
 3085SOL    HW110154   0.581   4.863   2.181
 3085SOL    HW210155   0.665   4.930   2.304
 3086SOL     OW10156   4.474   1.637   1.819
 3086SOL    HW110157   4.510   1.698   1.889
 3086SOL    HW210158   4.375   1.628   1.830
 3087SOL     OW10159   0.765   5.291   4.179
 3087SOL    HW110160   0.739   5.209   4.128
 3087SOL    HW210161   0.808   5.265   4.265
 3088SOL     OW10162   2.519   5.052   5.892
 3088SOL    HW110163   2.574   5.038   5.809
 3088SOL    HW210164   2.423   5.063   5.866
 3089SOL     OW10165   0.720   2.735   0.694
 3089SOL    HW110166   0.817   2.729   0.672
 3089SOL    HW210167   0.707   2.801   0.768
 3090SOL     OW10168   2.072   2.077   2.110
 3090SOL    HW110169   1.982   2.101   2.147
 3090SOL    HW210170   2.135   2.059   2.185
 3091SOL     OW10171   2.325   6.336   0.156
 3091SOL    HW110172   2.351   6.405   0.088
 3091SOL    HW210173   2.255   6.277   0.116
 3092SOL     OW10174   4.822   6.863   6.868
 3092SOL    HW110175   4.845   6.846   6.772
 3092SOL    HW210176   4.757   6.794   6.899
 3093SOL     OW10177   5.199   5.045   5.875
 3093SOL    HW110178   5.251   5.118   5.830
 3093SOL    HW210179   5.199   4.963   5.817
 3094SOL     OW10180   3.531   6.608   4.380
 3094SOL    HW110181   3.496   6.626   4.289
 3094SOL    HW210182   3.627   6.638   4.386
 3095SOL     OW10183   2.891   5.284   4.016
 3095SOL    HW110184   2.974   5.316   4.061
 3095SOL    HW210185   2.821   5.265   4.085
 3096SOL     OW10186   0.583   0.352   4.710
 3096SOL    HW110187   0.663   0.388   4.662
 3096SOL    HW210188   0.521   0.309   4.645
 3097SOL     OW10189   0.578   2.410   1.010
 3097SOL    HW110190   0.600   2.318   1.044
 3097SOL    HW210191   0.662   2.465   1.009
 3098SOL     OW10192   2.647   3.905   1.151
 3098SOL    HW110193   2.611   3.933   1.240
 3098SOL    HW210194   2.720   3.838   1.163
 3099SOL     OW10195   6.918   5.478   5.052
 3099SOL    HW110196   6.974   5.485   4.969
 3099SOL    HW210197   6.821   5.478   5.028
 3100SOL     OW10198   6.545   0.081   4.482
 3100SOL    HW110199   6.493   0.046   4.560
 3100SOL    HW210200   6.483   0.100   4.406
 3101SOL     OW10201   4.736   5.905   5.686
 3101SOL    HW110202   4.710   5.999   5.706
 3101SOL    HW210203   4.825   5.904   5.638
 3102SOL     OW10204   0.518   5.188   3.189
 3102SOL    HW110205   0.470   5.100   3.192
 3102SOL    HW210206   0.616   5.172   3.198
 3103SOL     OW10207   3.245   1.466   1.292
 3103SOL    HW110208   3.308   1.515   1.231
 3103SOL    HW210209   3.291   1.389   1.334
 3104SOL     OW10210   5.931   6.682   4.792
 3104SOL    HW110211   5.915   6.648   4.885
 3104SOL    HW210212   5.956   6.779   4.796
 3105SOL     OW10213   6.756   4.541   2.606
 3105SOL    HW110214   6.669   4.555   2.560
 3105SOL    HW210215   6.789   4.629   2.642
 3106SOL     OW10216   6.944   1.399   3.135
 3106SOL    HW110217   0.010   1.362   3.147
 3106SOL    HW210218   6.895   1.394   3.222
 3107SOL     OW10219   4.049   0.737   3.884
 3107SOL    HW110220   3.954   0.721   3.913
 3107SOL    HW210221   4.065   0.836   3.878
 3108SOL     OW10222   1.609   0.500   4.435
 3108SOL    HW110223   1.576   0.410   4.404
 3108SOL    HW210224   1.619   0.560   4.356
 3109SOL     OW10225   5.263   5.849   3.013
 3109SOL    HW110226   5.172   5.886   3.030
 3109SOL    HW210227   5.320   5.860   3.094
 3110SOL     OW10228   0.805   2.030   3.694
 3110SOL    HW110229   0.838   2.097   3.760
 3110SOL    HW210230   0.847   2.047   3.605
 3111SOL     OW10231   6.283   5.586   3.985
 3111SOL    HW110232   6.196   5.548   3.952
 3111SOL    HW210233   6.275   5.685   3.996
 3112SOL     OW10234   5.287   2.818   6.278
 3112SOL    HW110235   5.228   2.819   6.358
 3112SOL    HW210236   5.333   2.907   6.269
 3113SOL     OW10237   1.911   0.008   4.451
 3113SOL    HW110238   1.937   0.078   4.517
 3113SOL    HW210239   1.812   7.022   4.454
 3114SOL     OW10240   4.660   3.058   6.995
 3114SOL    HW110241   4.617   2.976   0.004
 3114SOL    HW210242   4.603   3.097   6.923
 3115SOL     OW10243   4.781   3.291   0.035
 3115SOL    HW110244   4.848   3.279   0.108
 3115SOL    HW210245   4.744   3.202   0.009
 3116SOL     OW10246   0.039   3.916   6.985
 3116SOL    HW110247   6.974   3.897   6.952
 3116SOL    HW210248   0.052   4.015   6.991
 3117SOL     OW10249   4.531   3.582   5.340
 3117SOL    HW110250   4.596   3.529   5.395
 3117SOL    HW210251   4.565   3.590   5.247
 3118SOL     OW10252   0.385   4.773   0.202
 3118SOL    HW110253   0.426   4.857   0.166
 3118SOL    HW210254   0.286   4.780   0.197
 3119SOL     OW10255   1.777   3.521   5.719
 3119SOL    HW110256   1.678   3.526   5.735
 3119SOL    HW210257   1.795   3.521   5.620
 3120SOL     OW10258   2.329   6.901   4.266
 3120SOL    HW110259   2.339   6.996   4.293
 3120SOL    HW210260   2.233   6.873   4.276
 3121SOL     OW10261   0.744   1.762   2.635
 3121SOL    HW110262   0.805   1.831   2.675
 3121SOL    HW210263   0.798   1.693   2.588
 3122SOL     OW10264   2.899   5.896   6.112
 3122SOL    HW110265   2.865   5.938   6.029
 3122SOL    HW210266   2.998   5.908   6.118
 3123SOL     OW10267   3.282   6.880   3.700
 3123SOL    HW110268   3.199   6.928   3.672
 3123SOL    HW210269   3.304   6.810   3.633
 3124SOL     OW10270   4.004   6.950   4.569
 3124SOL    HW110271   3.918   6.924   4.527
 3124SOL    HW210272   4.002   0.021   4.591
 3125SOL     OW10273   6.381   2.038   6.115
 3125SOL    HW110274   6.356   2.118   6.169
 3125SOL    HW210275   6.298   1.994   6.080
 3126SOL     OW10276   4.948   4.564   7.009
 3126SOL    HW110277   4.908   4.477   0.008
 3126SOL    HW210278   4.892   4.639   0.017
 3127SOL     OW10279   1.108   2.521   3.342
 3127SOL    HW110280   1.060   2.584   3.282
 3127SOL    HW210281   1.204   2.549   3.351
 3128SOL     OW10282   2.392   0.010   6.716
 3128SOL    HW110283   2.406   0.107   6.694
 3128SOL    HW210284   2.460   6.982   6.667
 3129SOL     OW10285   1.612   4.342   6.291
 3129SOL    HW110286   1.653   4.291   6.368
 3129SOL    HW210287   1.680   4.405   6.254
 3130SOL     OW10288   2.238   4.110   2.010
 3130SOL    HW110289   2.333   4.088   1.986
 3130SOL    HW210290   2.233   4.137   2.106
 3131SOL     OW10291   0.642   2.790   1.233
 3131SOL    HW110292   0.620   2.873   1.285
 3131SOL    HW210293   0.737   2.765   1.248
 3132SOL     OW10294   5.001   5.248   5.964
 3132SOL    HW110295   4.917   5.196   5.948
 3132SOL    HW210296   5.073   5.214   5.903
 3133SOL     OW10297   2.929   2.213   3.660
 3133SOL    HW110298   2.981   2.141   3.707
 3133SOL    HW210299   2.962   2.221   3.566
 3134SOL     OW10300   5.326   4.708   1.518
 3134SOL    HW110301   5.295   4.710   1.613
 3134SOL    HW210302   5.254   4.668   1.461
 3135SOL     OW10303   4.783   1.775   5.210
 3135SOL    HW110304   4.724   1.833   5.154
 3135SOL    HW210305   4.822   1.702   5.154
 3136SOL     OW10306   6.209   0.171   6.280
 3136SOL    HW110307   6.196   0.219   6.367
 3136SOL    HW210308   6.148   0.210   6.212
 3137SOL     OW10309   5.734   0.433   3.490
 3137SOL    HW110310   5.776   0.387   3.412
 3137SOL    HW210311   5.771   0.526   3.498
 3138SOL     OW10312   6.458   2.061   4.166
 3138SOL    HW110313   6.494   2.039   4.075
 3138SOL    HW210314   6.530   2.102   4.221
 3139SOL     OW10315   4.580   0.112   6.500
 3139SOL    HW110316   4.667   0.159   6.513
 3139SOL    HW210317   4.537   0.145   6.416
 3140SOL     OW10318   6.173   6.677   6.209
 3140SOL    HW110319   6.200   6.646   6.300
 3140SOL    HW210320   6.121   6.762   6.216
 3141SOL     OW10321   0.940   6.846   6.296
 3141SOL    HW110322   0.843   6.847   6.273
 3141SOL    HW210323   0.954   6.800   6.384
 3142SOL     OW10324   4.833   5.760   1.241
 3142SOL    HW110325   4.828   5.711   1.328
 3142SOL    HW210326   4.775   5.715   1.174
 3143SOL     OW10327   0.230   2.397   6.889
 3143SOL    HW110328   0.302   2.329   6.897
 3143SOL    HW210329   0.183   2.407   6.977
 3144SOL     OW10330   2.784   3.929   0.915
 3144SOL    HW110331   2.746   3.853   0.861
 3144SOL    HW210332   2.742   3.929   1.006
 3145SOL     OW10333   2.211   4.982   2.678
 3145SOL    HW110334   2.287   4.922   2.702
 3145SOL    HW210335   2.182   4.962   2.584
 3146SOL     OW10336   1.399   6.993   3.307
 3146SOL    HW110337   1.362   6.946   3.227
 3146SOL    HW210338   1.329   0.025   3.347
 3147SOL     OW10339   4.298   5.442   6.638
 3147SOL    HW110340   4.288   5.440   6.539
 3147SOL    HW210341   4.391   5.469   6.662
 3148SOL     OW10342   4.603   5.274   4.549
 3148SOL    HW110343   4.608   5.189   4.601
 3148SOL    HW210344   4.641   5.349   4.602
 3149SOL     OW10345   3.200   0.391   5.511
 3149SOL    HW110346   3.155   0.358   5.428
 3149SOL    HW210347   3.233   0.484   5.498
 3150SOL     OW10348   5.434   5.163   3.997
 3150SOL    HW110349   5.355   5.170   3.937
 3150SOL    HW210350   5.512   5.211   3.956
 3151SOL     OW10351   4.196   0.983   6.889
 3151SOL    HW110352   4.196   1.035   6.974
 3151SOL    HW210353   4.148   0.896   6.904
 3152SOL     OW10354   1.405   5.225   1.650
 3152SOL    HW110355   1.380   5.131   1.672
 3152SOL    HW210356   1.449   5.268   1.729
 3153SOL     OW10357   6.424   3.928   1.990
 3153SOL    HW110358   6.479   3.959   1.913
 3153SOL    HW210359   6.484   3.894   2.063
 3154SOL     OW10360   6.072   1.728   0.446
 3154SOL    HW110361   6.067   1.635   0.482
 3154SOL    HW210362   6.040   1.792   0.516
 3155SOL     OW10363   0.027   5.356   1.468
 3155SOL    HW110364   0.071   5.336   1.381
 3155SOL    HW210365   6.974   5.413   1.453
 3156SOL     OW10366   3.781   3.288   3.985
 3156SOL    HW110367   3.684   3.307   4.000
 3156SOL    HW210368   3.819   3.246   4.067
 3157SOL     OW10369   2.001   2.862   4.732
 3157SOL    HW110370   1.922   2.907   4.773
 3157SOL    HW210371   2.085   2.908   4.761
 3158SOL     OW10372   4.387   0.637   1.344
 3158SOL    HW110373   4.427   0.593   1.425
 3158SOL    HW210374   4.417   0.732   1.340
 3159SOL     OW10375   5.275   0.234   6.738
 3159SOL    HW110376   5.363   0.280   6.730
 3159SOL    HW210377   5.208   0.298   6.776
 3160SOL     OW10378   6.223   5.830   5.781
 3160SOL    HW110379   6.131   5.812   5.745
 3160SOL    HW210380   6.276   5.745   5.779
 3161SOL     OW10381   1.306   1.721   2.231
 3161SOL    HW110382   1.245   1.797   2.209
 3161SOL    HW210383   1.347   1.685   2.147
 3162SOL     OW10384   0.465   5.480   0.111
 3162SOL    HW110385   0.410   5.455   0.031
 3162SOL    HW210386   0.562   5.481   0.086
 3163SOL     OW10387   3.566   2.416   6.704
 3163SOL    HW110388   3.476   2.460   6.711
 3163SOL    HW210389   3.637   2.484   6.723
 3164SOL     OW10390   4.454   3.810   1.673
 3164SOL    HW110391   4.383   3.876   1.647
 3164SOL    HW210392   4.412   3.733   1.719
 3165SOL     OW10393   1.055   6.310   1.623
 3165SOL    HW110394   0.988   6.236   1.612
 3165SOL    HW210395   1.146   6.277   1.602
 3166SOL     OW10396   4.683   2.363   6.384
 3166SOL    HW110397   4.770   2.354   6.431
 3166SOL    HW210398   4.698   2.400   6.292
 3167SOL     OW10399   6.729   5.090   1.884
 3167SOL    HW110400   6.665   5.014   1.888
 3167SOL    HW210401   6.691   5.169   1.933
 3168SOL     OW10402   4.969   2.537   0.543
 3168SOL    HW110403   4.939   2.613   0.601
 3168SOL    HW210404   4.928   2.547   0.452
 3169SOL     OW10405   0.522   3.408   5.999
 3169SOL    HW110406   0.606   3.423   6.050
 3169SOL    HW210407   0.470   3.493   5.994
 3170SOL     OW10408   4.119   0.284   0.088
 3170SOL    HW110409   4.053   0.308   0.017
 3170SOL    HW210410   4.112   0.350   0.163
 3171SOL     OW10411   6.823   6.569   0.928
 3171SOL    HW110412   6.778   6.526   1.006
 3171SOL    HW210413   6.921   6.577   0.947
 3172SOL     OW10414   0.474   5.952   5.201
 3172SOL    HW110415   0.413   5.919   5.273
 3172SOL    HW210416   0.530   6.027   5.236
 3173SOL     OW10417   2.907   1.421   1.530
 3173SOL    HW110418   2.922   1.325   1.503
 3173SOL    HW210419   2.980   1.451   1.590
 3174SOL     OW10420   2.464   2.923   6.729
 3174SOL    HW110421   2.543   2.942   6.788
 3174SOL    HW210422   2.401   3.000   6.732
 3175SOL     OW10423   0.476   6.556   6.513
 3175SOL    HW110424   0.426   6.511   6.438
 3175SOL    HW210425   0.411   6.597   6.576
 3176SOL     OW10426   2.072   4.984   4.982
 3176SOL    HW110427   2.006   5.051   4.947
 3176SOL    HW210428   2.023   4.901   5.009
 3177SOL     OW10429   5.439   5.572   5.393
 3177SOL    HW110430   5.460   5.601   5.487
 3177SOL    HW210431   5.524   5.544   5.348
 3178SOL     OW10432   0.014   3.199   1.428
 3178SOL    HW110433   6.993   3.172   1.345
 3178SOL    HW210434   0.113   3.196   1.412
 3179SOL     OW10435   2.204   2.201   1.719
 3179SOL    HW110436   2.268   2.140   1.766
 3179SOL    HW210437   2.236   2.216   1.626
 3180SOL     OW10438   3.943   0.626   6.514
 3180SOL    HW110439   3.857   0.605   6.561
 3180SOL    HW210440   3.960   0.558   6.444
 3181SOL     OW10441   0.443   0.253   3.381
 3181SOL    HW110442   0.349   0.281   3.360
 3181SOL    HW210443   0.507   0.312   3.332
 3182SOL     OW10444   0.739   0.684   5.364
 3182SOL    HW110445   0.745   0.592   5.325
 3182SOL    HW210446   0.766   0.682   5.460
 3183SOL     OW10447   4.491   3.863   1.399
 3183SOL    HW110448   4.422   3.891   1.332
 3183SOL    HW210449   4.449   3.861   1.490
 3184SOL     OW10450   2.770   2.006   2.344
 3184SOL    HW110451   2.830   2.062   2.288
 3184SOL    HW210452   2.682   2.052   2.354
 3185SOL     OW10453   6.204   0.479   6.181
 3185SOL    HW110454   6.106   0.498   6.176
 3185SOL    HW210455   6.235   0.443   6.093
 3186SOL     OW10456   2.848   1.428   3.210
 3186SOL    HW110457   2.887   1.413   3.119
 3186SOL    HW210458   2.897   1.372   3.277
 3187SOL     OW10459   3.718   4.320   6.964
 3187SOL    HW110460   3.629   4.275   6.966
 3187SOL    HW210461   3.711   4.407   6.916
 3188SOL     OW10462   3.726   6.394   3.402
 3188SOL    HW110463   3.673   6.477   3.421
 3188SOL    HW210464   3.743   6.387   3.303
 3189SOL     OW10465   2.206   1.174   3.344
 3189SOL    HW110466   2.137   1.128   3.400
 3189SOL    HW210467   2.244   1.251   3.395
 3190SOL     OW10468   1.214   6.739   1.276
 3190SOL    HW110469   1.269   6.661   1.247
 3190SOL    HW210470   1.249   6.822   1.233
 3191SOL     OW10471   3.534   0.229   1.025
 3191SOL    HW110472   3.510   0.316   1.069
 3191SOL    HW210473   3.454   0.193   0.977
 3192SOL     OW10474   0.689   2.050   0.997
 3192SOL    HW110475   0.735   2.000   0.923
 3192SOL    HW210476   0.618   1.991   1.036
 3193SOL     OW10477   4.352   2.700   6.417
 3193SOL    HW110478   4.256   2.716   6.443
 3193SOL    HW210479   4.380   2.609   6.448
 3194SOL     OW10480   1.366   2.541   6.734
 3194SOL    HW110481   1.448   2.519   6.681
 3194SOL    HW210482   1.383   2.623   6.789
 3195SOL     OW10483   1.698   2.837   3.357
 3195SOL    HW110484   1.784   2.883   3.380
 3195SOL    HW210485   1.648   2.816   3.441
 3196SOL     OW10486   6.571   0.372   5.195
 3196SOL    HW110487   6.593   0.336   5.285
 3196SOL    HW210488   6.651   0.417   5.156
 3197SOL     OW10489   1.214   5.707   2.868
 3197SOL    HW110490   1.172   5.790   2.831
 3197SOL    HW210491   1.175   5.686   2.957
 3198SOL     OW10492   6.600   2.155   6.638
 3198SOL    HW110493   6.659   2.234   6.627
 3198SOL    HW210494   6.566   2.125   6.549
 3199SOL     OW10495   4.572   2.573   1.712
 3199SOL    HW110496   4.626   2.639   1.765
 3199SOL    HW210497   4.531   2.620   1.633
 3200SOL     OW10498   0.176   2.635   1.154
 3200SOL    HW110499   0.171   2.707   1.223
 3200SOL    HW210500   0.272   2.619   1.131
 3201SOL     OW10501   5.183   3.751   3.813
 3201SOL    HW110502   5.218   3.729   3.722
 3201SOL    HW210503   5.084   3.764   3.809
 3202SOL     OW10504   1.907   4.359   2.561
 3202SOL    HW110505   1.829   4.305   2.592
 3202SOL    HW210506   1.903   4.450   2.602
 3203SOL     OW10507   5.754   0.818   0.606
 3203SOL    HW110508   5.682   0.755   0.635
 3203SOL    HW210509   5.843   0.774   0.618
 3204SOL     OW10510   5.650   5.829   1.619
 3204SOL    HW110511   5.687   5.870   1.535
 3204SOL    HW210512   5.683   5.880   1.698
 3205SOL     OW10513   6.982   4.646   6.932
 3205SOL    HW110514   6.941   4.737   6.939
 3205SOL    HW210515   6.937   4.595   6.858
 3206SOL     OW10516   0.275   0.097   5.941
 3206SOL    HW110517   0.280   0.197   5.934
 3206SOL    HW210518   0.250   0.059   5.852
 3207SOL     OW10519   0.168   1.177   5.763
 3207SOL    HW110520   0.184   1.094   5.709
 3207SOL    HW210521   0.191   1.258   5.709
 3208SOL     OW10522   4.217   6.091   4.987
 3208SOL    HW110523   4.287   6.087   5.059
 3208SOL    HW210524   4.144   6.027   5.009
 3209SOL     OW10525   3.035   7.022   3.667
 3209SOL    HW110526   2.984   6.936   3.670
 3209SOL    HW210527   3.025   0.042   3.755
 3210SOL     OW10528   0.345   3.378   2.560
 3210SOL    HW110529   0.276   3.450   2.564
 3210SOL    HW210530   0.355   3.336   2.651
 3211SOL     OW10531   2.130   4.539   0.493
 3211SOL    HW110532   2.174   4.470   0.550
 3211SOL    HW210533   2.131   4.627   0.540
 3212SOL     OW10534   4.530   1.802   6.596
 3212SOL    HW110535   4.433   1.780   6.587
 3212SOL    HW210536   4.575   1.733   6.652
 3213SOL     OW10537   6.062   5.138   2.679
 3213SOL    HW110538   6.041   5.142   2.581
 3213SOL    HW210539   5.979   5.161   2.731
 3214SOL     OW10540   4.727   5.843   0.148
 3214SOL    HW110541   4.730   5.943   0.152
 3214SOL    HW210542   4.683   5.808   0.231
 3215SOL     OW10543   6.521   3.028   0.783
 3215SOL    HW110544   6.488   3.121   0.797
 3215SOL    HW210545   6.582   3.003   0.859
 3216SOL     OW10546   5.658   5.986   2.828
 3216SOL    HW110547   5.688   5.965   2.735
 3216SOL    HW210548   5.670   5.905   2.886
 3217SOL     OW10549   1.187   4.436   3.593
 3217SOL    HW110550   1.270   4.432   3.649
 3217SOL    HW210551   1.200   4.383   3.510
 3218SOL     OW10552   4.226   0.006   3.587
 3218SOL    HW110553   4.222   0.051   3.676
 3218SOL    HW210554   4.264   6.941   3.599
 3219SOL     OW10555   6.838   0.570   3.613
 3219SOL    HW110556   6.855   0.661   3.651
 3219SOL    HW210557   6.858   0.571   3.515
 3220SOL     OW10558   6.818   4.763   5.424
 3220SOL    HW110559   6.749   4.691   5.412
 3220SOL    HW210560   6.774   4.847   5.455
 3221SOL     OW10561   2.573   6.032   2.580
 3221SOL    HW110562   2.643   6.035   2.652
 3221SOL    HW210563   2.568   6.121   2.535
 3222SOL     OW10564   5.088   2.177   3.054
 3222SOL    HW110565   5.174   2.211   3.092
 3222SOL    HW210566   5.013   2.232   3.089
 3223SOL     OW10567   2.742   5.209   6.909
 3223SOL    HW110568   2.670   5.156   6.864
 3223SOL    HW210569   2.829   5.194   6.861
 3224SOL     OW10570   4.604   5.120   6.149
 3224SOL    HW110571   4.629   5.210   6.112
 3224SOL    HW210572   4.532   5.131   6.217
 3225SOL     OW10573   4.794   3.160   6.324
 3225SOL    HW110574   4.755   3.147   6.233
 3225SOL    HW210575   4.798   3.072   6.372
 3226SOL     OW10576   2.064   1.001   4.375
 3226SOL    HW110577   2.112   0.977   4.290
 3226SOL    HW210578   2.126   0.989   4.452
 3227SOL     OW10579   3.302   2.195   6.558
 3227SOL    HW110580   3.284   2.122   6.493
 3227SOL    HW210581   3.238   2.271   6.543
 3228SOL     OW10582   5.592   3.316   4.117
 3228SOL    HW110583   5.628   3.255   4.188
 3228SOL    HW210584   5.537   3.388   4.161
 3229SOL     OW10585   3.338   1.806   5.685
 3229SOL    HW110586   3.293   1.734   5.737
 3229SOL    HW210587   3.274   1.843   5.618
 3230SOL     OW10588   0.571   1.740   3.269
 3230SOL    HW110589   0.540   1.705   3.181
 3230SOL    HW210590   0.548   1.674   3.341
 3231SOL     OW10591   4.849   6.112   1.503
 3231SOL    HW110592   4.906   6.116   1.585
 3231SOL    HW210593   4.796   6.027   1.504
 3232SOL     OW10594   4.270   5.167   5.205
 3232SOL    HW110595   4.227   5.106   5.272
 3232SOL    HW210596   4.200   5.210   5.149
 3233SOL     OW10597   0.870   4.328   1.174
 3233SOL    HW110598   0.938   4.399   1.157
 3233SOL    HW210599   0.895   4.245   1.124
 3234SOL     OW10600   6.917   2.507   0.374
 3234SOL    HW110601   7.016   2.513   0.387
 3234SOL    HW210602   6.895   2.424   0.323
 3235SOL     OW10603   6.289   6.148   2.978
 3235SOL    HW110604   6.203   6.199   2.971
 3235SOL    HW210605   6.320   6.148   3.074
 3236SOL     OW10606   1.770   3.276   2.025
 3236SOL    HW110607   1.860   3.272   2.069
 3236SOL    HW210608   1.729   3.365   2.040
 3237SOL     OW10609   4.408   6.903   4.483
 3237SOL    HW110610   4.374   6.977   4.541
 3237SOL    HW210611   4.508   6.904   4.484
 3238SOL     OW10612   0.600   5.742   6.663
 3238SOL    HW110613   0.516   5.701   6.699
 3238SOL    HW210614   0.657   5.774   6.738
 3239SOL     OW10615   6.091   0.892   6.881
 3239SOL    HW110616   6.050   0.972   6.837
 3239SOL    HW210617   6.056   0.808   6.838
 3240SOL     OW10618   0.067   6.594   4.835
 3240SOL    HW110619   0.011   6.630   4.761
 3240SOL    HW210620   0.162   6.623   4.823
 3241SOL     OW10621   4.728   1.360   4.258
 3241SOL    HW110622   4.718   1.402   4.348
 3241SOL    HW210623   4.774   1.271   4.268
 3242SOL     OW10624   3.503   5.091   0.364
 3242SOL    HW110625   3.494   5.152   0.285
 3242SOL    HW210626   3.427   5.108   0.427
 3243SOL     OW10627   5.208   4.873   6.947
 3243SOL    HW110628   5.110   4.877   6.963
 3243SOL    HW210629   5.226   4.865   6.849
 3244SOL     OW10630   5.036   5.963   5.699
 3244SOL    HW110631   5.088   5.879   5.685
 3244SOL    HW210632   4.990   5.960   5.788
 3245SOL     OW10633   4.025   2.759   6.295
 3245SOL    HW110634   4.071   2.838   6.337
 3245SOL    HW210635   4.038   2.679   6.353
 3246SOL     OW10636   5.247   0.153   2.754
 3246SOL    HW110637   5.333   0.165   2.803
 3246SOL    HW210638   5.217   0.058   2.762
 3247SOL     OW10639   0.346   3.927   2.756
 3247SOL    HW110640   0.419   3.905   2.821
 3247SOL    HW210641   0.259   3.892   2.791
 3248SOL     OW10642   6.050   3.747   2.080
 3248SOL    HW110643   6.113   3.679   2.043
 3248SOL    HW210644   6.030   3.726   2.176
 3249SOL     OW10645   3.932   4.776   5.368
 3249SOL    HW110646   3.908   4.680   5.383
 3249SOL    HW210647   4.002   4.782   5.296
 3250SOL     OW10648   5.614   6.995   2.789
 3250SOL    HW110649   5.628   0.061   2.825
 3250SOL    HW210650   5.666   6.930   2.843
 3251SOL     OW10651   3.622   1.638   3.049
 3251SOL    HW110652   3.641   1.543   3.071
 3251SOL    HW210653   3.704   1.693   3.067
 3252SOL     OW10654   3.506   1.137   2.821
 3252SOL    HW110655   3.578   1.206   2.814
 3252SOL    HW210656   3.547   1.046   2.817
 3253SOL     OW10657   4.785   2.747   1.574
 3253SOL    HW110658   4.782   2.755   1.475
 3253SOL    HW210659   4.728   2.819   1.615
 3254SOL     OW10660   3.753   4.865   4.133
 3254SOL    HW110661   3.770   4.906   4.043
 3254SOL    HW210662   3.804   4.780   4.141
 3255SOL     OW10663   4.951   5.155   0.431
 3255SOL    HW110664   4.963   5.183   0.526
 3255SOL    HW210665   5.039   5.158   0.384
 3256SOL     OW10666   5.600   6.668   6.054
 3256SOL    HW110667   5.669   6.736   6.082
 3256SOL    HW210668   5.634   6.576   6.074
 3257SOL     OW10669   1.402   2.010   0.535
 3257SOL    HW110670   1.441   2.038   0.623
 3257SOL    HW210671   1.327   1.946   0.552
 3258SOL     OW10672   4.990   6.697   1.531
 3258SOL    HW110673   5.022   6.737   1.617
 3258SOL    HW210674   5.045   6.733   1.455
 3259SOL     OW10675   4.324   5.865   4.453
 3259SOL    HW110676   4.422   5.853   4.468
 3259SOL    HW210677   4.276   5.860   4.541
 3260SOL     OW10678   1.965   1.213   0.537
 3260SOL    HW110679   1.866   1.222   0.539
 3260SOL    HW210680   2.003   1.270   0.464
 3261SOL     OW10681   3.938   6.895   0.641
 3261SOL    HW110682   3.842   6.913   0.620
 3261SOL    HW210683   3.946   6.805   0.685
 3262SOL     OW10684   3.833   1.651   3.513
 3262SOL    HW110685   3.890   1.730   3.490
 3262SOL    HW210686   3.741   1.683   3.536
 3263SOL     OW10687   4.685   6.908   3.281
 3263SOL    HW110688   4.671   6.996   3.326
 3263SOL    HW210689   4.606   6.849   3.299
 3264SOL     OW10690   7.009   5.341   6.967
 3264SOL    HW110691   6.947   5.394   7.025
 3264SOL    HW210692   0.021   5.266   7.020
 3265SOL     OW10693   3.992   2.081   6.178
 3265SOL    HW110694   3.953   2.033   6.257
 3265SOL    HW210695   3.919   2.129   6.129
 3266SOL     OW10696   0.076   2.551   0.087
 3266SOL    HW110697   7.024   2.516   0.136
 3266SOL    HW210698   0.053   2.639   0.044
 3267SOL     OW10699   3.655   2.340   1.426
 3267SOL    HW110700   3.716   2.271   1.387
 3267SOL    HW210701   3.580   2.358   1.362
 3268SOL     OW10702   1.375   4.232   0.160
 3268SOL    HW110703   1.335   4.324   0.160
 3268SOL    HW210704   1.321   4.173   0.221
 3269SOL     OW10705   4.773   4.982   1.450
 3269SOL    HW110706   4.712   4.922   1.501
 3269SOL    HW210707   4.819   4.930   1.378
 3270SOL     OW10708   0.383   5.313   3.865
 3270SOL    HW110709   0.319   5.354   3.930
 3270SOL    HW210710   0.461   5.374   3.853
 3271SOL     OW10711   5.398   2.062   2.212
 3271SOL    HW110712   5.389   1.993   2.140
 3271SOL    HW210713   5.326   2.130   2.202
 3272SOL     OW10714   3.886   0.124   6.996
 3272SOL    HW110715   3.921   0.045   0.019
 3272SOL    HW210716   3.818   0.171   0.025
 3273SOL     OW10717   1.351   5.883   1.830
 3273SOL    HW110718   1.370   5.851   1.922
 3273SOL    HW210719   1.365   5.982   1.825
 3274SOL     OW10720   3.131   1.698   6.056
 3274SOL    HW110721   3.203   1.637   6.024
 3274SOL    HW210722   3.111   1.766   5.986
 3275SOL     OW10723   2.429   0.535   6.939
 3275SOL    HW110724   2.486   0.487   6.873
 3275SOL    HW210725   2.334   0.534   6.909
 3276SOL     OW10726   3.425   5.159   6.784
 3276SOL    HW110727   3.431   5.223   6.707
 3276SOL    HW210728   3.332   5.123   6.790
 3277SOL     OW10729   6.538   6.918   6.001
 3277SOL    HW110730   6.532   6.837   5.942
 3277SOL    HW210731   6.566   6.891   6.093
 3278SOL     OW10732   0.608   1.051   5.207
 3278SOL    HW110733   0.525   1.005   5.235
 3278SOL    HW210734   0.618   1.136   5.259
 3279SOL     OW10735   0.065   0.054   1.003
 3279SOL    HW110736   0.136   0.098   0.949
 3279SOL    HW210737   0.106   7.011   1.062
 3280SOL     OW10738   2.532   5.107   6.752
 3280SOL    HW110739   2.444   5.097   6.797
 3280SOL    HW210740   2.525   5.177   6.680
 3281SOL     OW10741   1.626   5.447   0.557
 3281SOL    HW110742   1.726   5.439   0.562
 3281SOL    HW210743   1.585   5.361   0.587
 3282SOL     OW10744   2.820   6.117   4.636
 3282SOL    HW110745   2.837   6.203   4.587
 3282SOL    HW210746   2.760   6.059   4.581
 3283SOL     OW10747   3.161   2.010   3.375
 3283SOL    HW110748   3.127   1.934   3.431
 3283SOL    HW210749   3.152   1.985   3.278
 3284SOL     OW10750   0.193   6.216   6.451
 3284SOL    HW110751   0.284   6.211   6.493
 3284SOL    HW210752   0.180   6.307   6.411
 3285SOL     OW10753   0.396   3.013   2.887
 3285SOL    HW110754   0.359   3.100   2.921
 3285SOL    HW210755   0.370   3.001   2.791
 3286SOL     OW10756   3.793   3.446   3.756
 3286SOL    HW110757   3.723   3.441   3.685
 3286SOL    HW210758   3.763   3.394   3.836
 3287SOL     OW10759   1.639   5.990   6.958
 3287SOL    HW110760   1.546   5.984   6.921
 3287SOL    HW210761   1.639   6.053   0.009
 3288SOL     OW10762   0.637   6.356   6.610
 3288SOL    HW110763   0.573   6.286   6.641
 3288SOL    HW210764   0.590   6.422   6.552
 3289SOL     OW10765   0.946   6.115   5.345
 3289SOL    HW110766   1.021   6.089   5.406
 3289SOL    HW210767   0.959   6.071   5.256
 3290SOL     OW10768   0.043   6.177   1.860
 3290SOL    HW110769   0.138   6.166   1.833
 3290SOL    HW210770   7.013   6.193   1.778
 3291SOL     OW10771   2.095   6.602   6.537
 3291SOL    HW110772   2.093   6.603   6.437
 3291SOL    HW210773   2.015   6.552   6.571
 3292SOL     OW10774   0.498   0.774   6.645
 3292SOL    HW110775   0.583   0.814   6.612
 3292SOL    HW210776   0.477   0.691   6.593
 3293SOL     OW10777   0.259   1.755   3.324
 3293SOL    HW110778   0.182   1.697   3.350
 3293SOL    HW210779   0.343   1.718   3.363
 3294SOL     OW10780   6.604   0.944   6.730
 3294SOL    HW110781   6.566   0.874   6.791
 3294SOL    HW210782   6.609   1.031   6.777
 3295SOL     OW10783   2.630   2.262   0.693
 3295SOL    HW110784   2.716   2.234   0.735
 3295SOL    HW210785   2.583   2.182   0.657
 3296SOL     OW10786   2.289   7.000   1.854
 3296SOL    HW110787   2.316   0.033   1.930
 3296SOL    HW210788   2.341   6.915   1.859
 3297SOL     OW10789   3.413   2.114   5.179
 3297SOL    HW110790   3.316   2.128   5.160
 3297SOL    HW210791   3.449   2.042   5.120
 3298SOL     OW10792   6.481   3.027   2.997
 3298SOL    HW110793   6.445   3.083   3.071
 3298SOL    HW210794   6.462   2.931   3.015
 3299SOL     OW10795   1.511   0.253   4.352
 3299SOL    HW110796   1.551   0.188   4.286
 3299SOL    HW210797   1.425   0.216   4.386
 3300SOL     OW10798   6.497   6.956   5.338
 3300SOL    HW110799   6.488   0.003   5.270
 3300SOL    HW210800   6.411   6.948   5.389
 3301SOL     OW10801   1.016   4.106   3.751
 3301SOL    HW110802   0.973   4.184   3.706
 3301SOL    HW210803   1.077   4.139   3.823
 3302SOL     OW10804   1.484   5.247   4.224
 3302SOL    HW110805   1.494   5.337   4.266
 3302SOL    HW210806   1.491   5.176   4.295
 3303SOL     OW10807   3.266   3.100   2.745
 3303SOL    HW110808   3.262   3.196   2.775
 3303SOL    HW210809   3.202   3.086   2.670
 3304SOL     OW10810   1.169   5.694   3.537
 3304SOL    HW110811   1.082   5.647   3.552
 3304SOL    HW210812   1.224   5.642   3.471
 3305SOL     OW10813   1.564   1.172   1.903
 3305SOL    HW110814   1.469   1.161   1.875
 3305SOL    HW210815   1.600   1.084   1.935
 3306SOL     OW10816   2.160   3.848   3.416
 3306SOL    HW110817   2.196   3.941   3.408
 3306SOL    HW210818   2.060   3.851   3.428
 3307SOL     OW10819   0.015   5.890   0.175
 3307SOL    HW110820   0.065   5.806   0.153
 3307SOL    HW210821   0.063   5.940   0.247
 3308SOL     OW10822   4.374   6.072   0.373
 3308SOL    HW110823   4.426   6.149   0.337
 3308SOL    HW210824   4.434   5.994   0.388
 3309SOL     OW10825   1.185   4.770   3.000
 3309SOL    HW110826   1.184   4.816   2.912
 3309SOL    HW210827   1.105   4.798   3.054
 3310SOL     OW10828   0.549   4.009   3.348
 3310SOL    HW110829   0.621   3.954   3.306
 3310SOL    HW210830   0.498   4.057   3.277
 3311SOL     OW10831   3.443   6.211   1.196
 3311SOL    HW110832   3.407   6.231   1.105
 3311SOL    HW210833   3.380   6.150   1.244
 3312SOL     OW10834   3.009   4.409   6.294
 3312SOL    HW110835   3.107   4.388   6.288
 3312SOL    HW210836   2.963   4.375   6.213
 3313SOL     OW10837   1.411   5.342   3.773
 3313SOL    HW110838   1.493   5.348   3.830
 3313SOL    HW210839   1.433   5.293   3.689
 3314SOL     OW10840   1.627   3.093   4.978
 3314SOL    HW110841   1.705   3.032   4.991
 3314SOL    HW210842   1.560   3.079   5.050
 3315SOL     OW10843   6.908   2.628   3.762
 3315SOL    HW110844   6.810   2.636   3.780
 3315SOL    HW210845   6.934   2.691   3.689
 3316SOL     OW10846   4.367   2.199   6.285
 3316SOL    HW110847   4.416   2.273   6.239
 3316SOL    HW210848   4.408   2.183   6.375
 3317SOL     OW10849   4.695   2.736   1.903
 3317SOL    HW110850   4.689   2.834   1.923
 3317SOL    HW210851   4.704   2.686   1.989
 3318SOL     OW10852   2.785   6.164   6.257
 3318SOL    HW110853   2.702   6.111   6.269
 3318SOL    HW210854   2.802   6.177   6.159
 3319SOL     OW10855   0.420   6.277   4.575
 3319SOL    HW110856   0.348   6.261   4.642
 3319SOL    HW210857   0.444   6.374   4.576
 3320SOL     OW10858   5.646   1.316   5.363
 3320SOL    HW110859   5.701   1.398   5.352
 3320SOL    HW210860   5.689   1.255   5.429
 3321SOL     OW10861   3.408   3.237   2.504
 3321SOL    HW110862   3.499   3.239   2.544
 3321SOL    HW210863   3.349   3.175   2.556
 3322SOL     OW10864   4.066   1.963   0.871
 3322SOL    HW110865   4.156   2.000   0.848
 3322SOL    HW210866   4.051   1.973   0.970
 3323SOL     OW10867   2.104   4.241   6.298
 3323SOL    HW110868   2.027   4.237   6.233
 3323SOL    HW210869   2.080   4.302   6.373
 3324SOL     OW10870   1.208   3.890   0.491
 3324SOL    HW110871   1.121   3.841   0.498
 3324SOL    HW210872   1.283   3.824   0.480
 3325SOL     OW10873   1.690   3.129   0.201
 3325SOL    HW110874   1.631   3.200   0.240
 3325SOL    HW210875   1.756   3.171   0.140
 3326SOL     OW10876   5.755   2.119   1.984
 3326SOL    HW110877   5.739   2.036   2.037
 3326SOL    HW210878   5.829   2.105   1.919
 3327SOL     OW10879   2.456   6.249   2.072
 3327SOL    HW110880   2.433   6.157   2.103
 3327SOL    HW210881   2.419   6.316   2.136
 3328SOL     OW10882   4.764   0.423   1.827
 3328SOL    HW110883   4.720   0.334   1.839
 3328SOL    HW210884   4.737   0.484   1.901
 3329SOL     OW10885   3.993   0.734   5.096
 3329SOL    HW110886   3.907   0.700   5.058
 3329SOL    HW210887   4.066   0.723   5.029
 3330SOL     OW10888   5.994   6.775   2.334
 3330SOL    HW110889   6.060   6.783   2.260
 3330SOL    HW210890   5.906   6.813   2.305
 3331SOL     OW10891   1.788   3.441   3.073
 3331SOL    HW110892   1.823   3.399   3.157
 3331SOL    HW210893   1.859   3.438   3.003
 3332SOL     OW10894   5.427   4.724   0.259
 3332SOL    HW110895   5.338   4.702   0.220
 3332SOL    HW210896   5.469   4.798   0.206
 3333SOL     OW10897   3.460   3.549   1.308
 3333SOL    HW110898   3.471   3.485   1.385
 3333SOL    HW210899   3.516   3.520   1.232
 3334SOL     OW10900   1.870   2.513   2.627
 3334SOL    HW110901   1.939   2.454   2.670
 3334SOL    HW210902   1.788   2.458   2.607
 3335SOL     OW10903   3.394   4.231   5.626
 3335SOL    HW110904   3.374   4.322   5.660
 3335SOL    HW210905   3.381   4.164   5.699
 3336SOL     OW10906   2.726   6.859   4.054
 3336SOL    HW110907   2.772   6.785   4.005
 3336SOL    HW210908   2.794   6.923   4.090
 3337SOL     OW10909   3.502   3.734   2.624
 3337SOL    HW110910   3.551   3.760   2.707
 3337SOL    HW210911   3.420   3.681   2.649
 3338SOL     OW10912   1.069   1.899   1.571
 3338SOL    HW110913   1.138   1.946   1.516
 3338SOL    HW210914   0.980   1.908   1.526
 3339SOL     OW10915   2.056   0.106   5.337
 3339SOL    HW110916   2.025   0.189   5.382
 3339SOL    HW210917   2.155   0.106   5.331
 3340SOL     OW10918   4.657   1.032   3.738
 3340SOL    HW110919   4.602   0.965   3.688
 3340SOL    HW210920   4.710   1.087   3.673
 3341SOL     OW10921   2.581   4.637   2.361
 3341SOL    HW110922   2.663   4.658   2.307
 3341SOL    HW210923   2.543   4.722   2.398
 3342SOL     OW10924   5.857   0.523   2.940
 3342SOL    HW110925   5.936   0.527   3.002
 3342SOL    HW210926   5.852   0.608   2.887
 3343SOL     OW10927   5.423   5.329   6.813
 3343SOL    HW110928   5.346   5.322   6.750
 3343SOL    HW210929   5.507   5.300   6.767
 3344SOL     OW10930   6.380   2.636   2.127
 3344SOL    HW110931   6.356   2.561   2.065
 3344SOL    HW210932   6.439   2.701   2.079
 3345SOL     OW10933   0.805   4.022   0.862
 3345SOL    HW110934   0.882   4.038   0.800
 3345SOL    HW210935   0.723   4.068   0.826
 3346SOL     OW10936   2.783   0.588   6.992
 3346SOL    HW110937   2.763   0.557   0.058
 3346SOL    HW210938   2.794   0.687   6.992
 3347SOL     OW10939   0.742   3.241   6.350
 3347SOL    HW110940   0.659   3.185   6.349
 3347SOL    HW210941   0.818   3.187   6.386
 3348SOL     OW10942   3.406   3.931   6.256
 3348SOL    HW110943   3.355   3.936   6.342
 3348SOL    HW210944   3.504   3.934   6.275
 3349SOL     OW10945   2.199   4.560   4.168
 3349SOL    HW110946   2.216   4.522   4.259
 3349SOL    HW210947   2.132   4.504   4.120
 3350SOL     OW10948   0.575   4.119   5.443
 3350SOL    HW110949   0.553   4.188   5.374
 3350SOL    HW210950   0.589   4.164   5.532
 3351SOL     OW10951   5.454   0.591   1.014
 3351SOL    HW110952   5.467   0.685   1.047
 3351SOL    HW210953   5.542   0.546   1.005
 3352SOL     OW10954   5.385   2.323   0.727
 3352SOL    HW110955   5.437   2.333   0.642
 3352SOL    HW210956   5.315   2.394   0.731
 3353SOL     OW10957   1.866   0.638   1.296
 3353SOL    HW110958   1.866   0.540   1.276
 3353SOL    HW210959   1.782   0.679   1.260
 3354SOL     OW10960   4.065   3.329   5.999
 3354SOL    HW110961   4.038   3.394   6.070
 3354SOL    HW210962   4.012   3.245   6.010
 3355SOL     OW10963   2.433   1.151   5.120
 3355SOL    HW110964   2.494   1.213   5.071
 3355SOL    HW210965   2.458   1.056   5.098
 3356SOL     OW10966   1.123   6.518   5.959
 3356SOL    HW110967   1.131   6.609   5.918
 3356SOL    HW210968   1.165   6.450   5.898
 3357SOL     OW10969   2.877   3.620   2.091
 3357SOL    HW110970   2.812   3.556   2.050
 3357SOL    HW210971   2.900   3.691   2.025
 3358SOL     OW10972   5.509   1.445   3.016
 3358SOL    HW110973   5.512   1.397   2.929
 3358SOL    HW210974   5.530   1.542   3.002
 3359SOL     OW10975   6.830   5.409   3.915
 3359SOL    HW110976   6.843   5.506   3.892
 3359SOL    HW210977   6.763   5.401   3.988
 3360SOL     OW10978   0.579   2.739   5.807
 3360SOL    HW110979   0.621   2.737   5.716
 3360SOL    HW210980   0.636   2.690   5.872
 3361SOL     OW10981   0.626   0.292   4.264
 3361SOL    HW110982   0.714   0.247   4.274
 3361SOL    HW210983   0.597   0.286   4.168
 3362SOL     OW10984   4.094   2.001   4.245
 3362SOL    HW110985   4.024   1.930   4.249
 3362SOL    HW210986   4.137   2.010   4.334
 3363SOL     OW10987   6.844   3.048   1.232
 3363SOL    HW110988   6.926   3.050   1.176
 3363SOL    HW210989   6.824   2.954   1.259
 3364SOL     OW10990   1.883   4.218   3.031
 3364SOL    HW110991   1.928   4.270   3.104
 3364SOL    HW210992   1.944   4.214   2.951
 3365SOL     OW10993   2.215   3.096   4.889
 3365SOL    HW110994   2.135   3.105   4.949
 3365SOL    HW210995   2.296   3.076   4.944
 3366SOL     OW10996   0.024   3.475   4.559
 3366SOL    HW110997   0.095   3.532   4.601
 3366SOL    HW210998   0.037   3.473   4.460
 3367SOL     OW10999   3.749   3.362   4.350
 3367SOL    HW111000   3.727   3.282   4.295
 3367SOL    HW211001   3.833   3.404   4.316
 3368SOL     OW11002   1.653   6.402   6.755
 3368SOL    HW111003   1.714   6.352   6.817
 3368SOL    HW211004   1.623   6.341   6.682
 3369SOL     OW11005   4.437   1.619   1.549
 3369SOL    HW111006   4.463   1.522   1.547
 3369SOL    HW211007   4.438   1.651   1.644
 3370SOL     OW11008   6.582   5.711   1.498
 3370SOL    HW111009   6.628   5.787   1.451
 3370SOL    HW211010   6.536   5.653   1.430
 3371SOL     OW11011   2.132   3.409   2.540
 3371SOL    HW111012   2.183   3.358   2.609
 3371SOL    HW211013   2.156   3.375   2.449
 3372SOL     OW11014   0.148   2.832   1.346
 3372SOL    HW111015   0.242   2.863   1.334
 3372SOL    HW211016   0.102   2.890   1.414
 3373SOL     OW11017   6.893   1.300   1.841
 3373SOL    HW111018   6.846   1.248   1.770
 3373SOL    HW211019   6.990   1.306   1.819
 3374SOL     OW11020   0.701   6.531   3.510
 3374SOL    HW111021   0.658   6.497   3.594
 3374SOL    HW211022   0.785   6.580   3.533
 3375SOL     OW11023   6.728   5.133   6.598
 3375SOL    HW111024   6.767   5.053   6.553
 3375SOL    HW211025   6.801   5.196   6.623
 3376SOL     OW11026   2.457   3.464   5.514
 3376SOL    HW111027   2.533   3.504   5.462
 3376SOL    HW211028   2.434   3.375   5.476
 3377SOL     OW11029   6.094   5.205   4.001
 3377SOL    HW111030   6.034   5.161   3.934
 3377SOL    HW211031   6.151   5.135   4.045
 3378SOL     OW11032   1.018   6.600   6.738
 3378SOL    HW111033   1.069   6.573   6.819
 3378SOL    HW211034   0.971   6.520   6.700
 3379SOL     OW11035   1.082   3.338   4.415
 3379SOL    HW111036   1.015   3.400   4.373
 3379SOL    HW211037   1.137   3.389   4.481
 3380SOL     OW11038   3.919   4.695   5.797
 3380SOL    HW111039   3.896   4.599   5.783
 3380SOL    HW211040   3.971   4.705   5.881
 3381SOL     OW11041   1.133   3.083   1.329
 3381SOL    HW111042   1.109   3.136   1.410
 3381SOL    HW211043   1.050   3.041   1.291
 3382SOL     OW11044   0.045   2.265   0.998
 3382SOL    HW111045   0.058   2.170   1.027
 3382SOL    HW211046   7.011   2.311   1.062
 3383SOL     OW11047   3.610   4.798   0.315
 3383SOL    HW111048   3.653   4.876   0.360
 3383SOL    HW211049   3.523   4.776   0.361
 3384SOL     OW11050   2.856   4.457   0.211
 3384SOL    HW111051   2.908   4.403   0.277
 3384SOL    HW211052   2.843   4.404   0.127
 3385SOL     OW11053   6.715   2.019   3.676
 3385SOL    HW111054   6.732   1.949   3.607
 3385SOL    HW211055   6.744   2.108   3.641
 3386SOL     OW11056   6.662   4.846   6.685
 3386SOL    HW111057   6.739   4.871   6.626
 3386SOL    HW211058   6.697   4.796   6.764
 3387SOL     OW11059   5.568   1.019   3.139
 3387SOL    HW111060   5.565   1.066   3.051
 3387SOL    HW211061   5.582   0.921   3.123
 3388SOL     OW11062   5.017   4.155   1.468
 3388SOL    HW111063   5.061   4.069   1.441
 3388SOL    HW211064   5.011   4.216   1.389
 3389SOL     OW11065   5.909   6.552   0.326
 3389SOL    HW111066   5.950   6.491   0.394
 3389SOL    HW211067   5.959   6.638   0.324
 3390SOL     OW11068   3.983   6.697   5.782
 3390SOL    HW111069   3.931   6.612   5.772
 3390SOL    HW211070   3.926   6.764   5.830
 3391SOL     OW11071   5.768   2.980   3.598
 3391SOL    HW111072   5.696   3.004   3.533
 3391SOL    HW211073   5.766   2.882   3.617
 3392SOL     OW11074   4.214   0.012   4.940
 3392SOL    HW111075   4.306   0.004   4.978
 3392SOL    HW211076   4.207   6.983   4.857
 3393SOL     OW11077   4.871   6.939   0.711
 3393SOL    HW111078   4.866   6.850   0.665
 3393SOL    HW211079   4.849   7.012   0.646
 3394SOL     OW11080   3.466   5.276   0.937
 3394SOL    HW111081   3.540   5.333   0.971
 3394SOL    HW211082   3.396   5.266   1.007
 3395SOL     OW11083   3.818   0.664   3.037
 3395SOL    HW111084   3.860   0.592   3.092
 3395SOL    HW211085   3.798   0.743   3.095
 3396SOL     OW11086   5.550   1.123   3.762
 3396SOL    HW111087   5.485   1.191   3.726
 3396SOL    HW211088   5.511   1.081   3.844
 3397SOL     OW11089   2.475   5.667   6.196
 3397SOL    HW111090   2.409   5.596   6.171
 3397SOL    HW211091   2.538   5.630   6.265
 3398SOL     OW11092   0.414   1.888   5.587
 3398SOL    HW111093   0.412   1.886   5.687
 3398SOL    HW211094   0.332   1.844   5.551
 3399SOL     OW11095   0.607   4.679   2.798
 3399SOL    HW111096   0.574   4.593   2.838
 3399SOL    HW211097   0.603   4.752   2.867
 3400SOL     OW11098   5.588   3.087   5.539
 3400SOL    HW111099   5.515   3.073   5.472
 3400SOL    HW211100   5.563   3.045   5.626
 3401SOL     OW11101   6.553   3.797   6.394
 3401SOL    HW111102   6.466   3.827   6.433
 3401SOL    HW211103   6.559   3.698   6.397
 3402SOL     OW11104   6.518   4.925   1.020
 3402SOL    HW111105   6.544   5.015   0.983
 3402SOL    HW211106   6.451   4.882   0.959
 3403SOL     OW11107   4.452   6.441   5.896
 3403SOL    HW111108   4.533   6.491   5.864
 3403SOL    HW211109   4.373   6.502   5.896
 3404SOL     OW11110   4.981   3.270   5.948
 3404SOL    HW111111   4.882   3.277   5.962
 3404SOL    HW211112   5.011   3.342   5.885
 3405SOL     OW11113   4.856   6.322   5.739
 3405SOL    HW111114   4.805   6.408   5.736
 3405SOL    HW211115   4.917   6.317   5.660
 3406SOL     OW11116   2.135   3.965   2.305
 3406SOL    HW111117   2.148   3.894   2.236
 3406SOL    HW211118   2.051   4.015   2.286
 3407SOL     OW11119   2.044   4.071   1.009
 3407SOL    HW111120   2.066   4.057   1.105
 3407SOL    HW211121   2.115   4.030   0.952
 3408SOL     OW11122   4.491   2.557   3.820
 3408SOL    HW111123   4.484   2.468   3.775
 3408SOL    HW211124   4.478   2.546   3.919
 3409SOL     OW11125   4.031   0.106   0.505
 3409SOL    HW111126   4.000   0.037   0.570
 3409SOL    HW211127   4.100   0.165   0.548
 3410SOL     OW11128   5.793   6.589   2.736
 3410SOL    HW111129   5.887   6.580   2.704
 3410SOL    HW211130   5.734   6.610   2.658
 3411SOL     OW11131   6.714   1.751   1.134
 3411SOL    HW111132   6.685   1.746   1.229
 3411SOL    HW211133   6.660   1.820   1.085
 3412SOL     OW11134   5.363   3.697   1.852
 3412SOL    HW111135   5.313   3.670   1.770
 3412SOL    HW211136   5.307   3.680   1.933
 3413SOL     OW11137   6.754   1.886   6.640
 3413SOL    HW111138   6.666   1.855   6.603
 3413SOL    HW211139   6.748   1.983   6.663
 3414SOL     OW11140   4.237   2.720   0.047
 3414SOL    HW111141   4.183   2.730   6.991
 3414SOL    HW211142   4.225   2.628   0.084
 3415SOL     OW11143   2.483   2.478   4.306
 3415SOL    HW111144   2.484   2.577   4.292
 3415SOL    HW211145   2.478   2.432   4.217
 3416SOL     OW11146   6.385   0.384   0.195
 3416SOL    HW111147   6.329   0.340   0.124
 3416SOL    HW211148   6.365   0.481   0.199
 3417SOL     OW11149   0.321   0.610   3.288
 3417SOL    HW111150   0.392   0.608   3.217
 3417SOL    HW211151   0.234   0.579   3.250
 3418SOL     OW11152   4.401   5.152   2.646
 3418SOL    HW111153   4.361   5.108   2.566
 3418SOL    HW211154   4.467   5.221   2.616
 3419SOL     OW11155   3.770   5.661   6.114
 3419SOL    HW111156   3.788   5.565   6.136
 3419SOL    HW211157   3.698   5.667   6.045
 3420SOL     OW11158   4.682   2.777   3.857
 3420SOL    HW111159   4.624   2.703   3.823
 3420SOL    HW211160   4.770   2.775   3.811
 3421SOL     OW11161   5.517   1.783   3.411
 3421SOL    HW111162   5.593   1.832   3.368
 3421SOL    HW211163   5.431   1.830   3.390
 3422SOL     OW11164   2.238   0.208   0.582
 3422SOL    HW111165   2.241   0.183   0.679
 3422SOL    HW211166   2.330   0.226   0.549
 3423SOL     OW11167   1.125   4.572   5.286
 3423SOL    HW111168   1.042   4.619   5.317
 3423SOL    HW211169   1.099   4.500   5.221
 3424SOL     OW11170   4.483   6.748   1.328
 3424SOL    HW111171   4.526   6.665   1.294
 3424SOL    HW211172   4.535   6.828   1.298
 3425SOL     OW11173   5.329   4.140   1.556
 3425SOL    HW111174   5.348   4.109   1.650
 3425SOL    HW211175   5.370   4.230   1.542
 3426SOL     OW11176   5.665   3.372   0.815
 3426SOL    HW111177   5.735   3.317   0.769
 3426SOL    HW211178   5.688   3.469   0.806
 3427SOL     OW11179   1.410   2.439   0.911
 3427SOL    HW111180   1.421   2.455   1.009
 3427SOL    HW211181   1.326   2.387   0.894
 3428SOL     OW11182   4.896   5.525   5.840
 3428SOL    HW111183   4.915   5.436   5.883
 3428SOL    HW211184   4.936   5.598   5.896
 3429SOL     OW11185   0.168   0.951   1.025
 3429SOL    HW111186   0.097   0.914   0.965
 3429SOL    HW211187   0.246   0.981   0.969
 3430SOL     OW11188   2.344   4.831   5.625
 3430SOL    HW111189   2.292   4.746   5.634
 3430SOL    HW211190   2.441   4.811   5.626
 3431SOL     OW11191   2.380   6.430   2.558
 3431SOL    HW111192   2.460   6.389   2.514
 3431SOL    HW211193   2.331   6.362   2.612
 3432SOL     OW11194   2.199   4.940   0.066
 3432SOL    HW111195   2.251   4.917   7.011
 3432SOL    HW211196   2.140   4.863   0.091
 3433SOL     OW11197   2.469   0.900   6.575
 3433SOL    HW111198   2.496   0.940   6.488
 3433SOL    HW211199   2.526   0.820   6.595
 3434SOL     OW11200   3.078   2.024   1.840
 3434SOL    HW111201   3.089   2.045   1.937
 3434SOL    HW211202   3.035   2.102   1.794
 3435SOL     OW11203   2.042   0.610   0.110
 3435SOL    HW111204   1.988   0.686   0.147
 3435SOL    HW211205   2.080   0.636   0.021
 3436SOL     OW11206   4.260   5.001   0.418
 3436SOL    HW111207   4.326   4.939   0.376
 3436SOL    HW211208   4.168   4.972   0.394
 3437SOL     OW11209   1.548   6.387   6.041
 3437SOL    HW111210   1.613   6.311   6.032
 3437SOL    HW211211   1.486   6.368   6.117
 3438SOL     OW11212   1.083   3.918   0.895
 3438SOL    HW111213   1.048   3.989   0.957
 3438SOL    HW211214   1.136   3.961   0.822
 3439SOL     OW11215   2.386   5.819   2.664
 3439SOL    HW111216   2.432   5.906   2.674
 3439SOL    HW211217   2.452   5.744   2.673
 3440SOL     OW11218   3.869   2.958   4.856
 3440SOL    HW111219   3.886   2.859   4.858
 3440SOL    HW211220   3.794   2.979   4.919
 3441SOL     OW11221   5.681   5.688   5.849
 3441SOL    HW111222   5.702   5.786   5.852
 3441SOL    HW211223   5.684   5.650   5.941
 3442SOL     OW11224   3.099   3.416   1.615
 3442SOL    HW111225   3.020   3.414   1.677
 3442SOL    HW211226   3.183   3.425   1.668
 3443SOL     OW11227   2.920   5.734   2.662
 3443SOL    HW111228   2.958   5.645   2.682
 3443SOL    HW211229   2.858   5.727   2.583
 3444SOL     OW11230   5.957   4.439   1.385
 3444SOL    HW111231   5.928   4.534   1.373
 3444SOL    HW211232   5.985   4.424   1.480
 3445SOL     OW11233   6.206   4.860   3.857
 3445SOL    HW111234   6.274   4.919   3.899
 3445SOL    HW211235   6.217   4.766   3.890
 3446SOL     OW11236   5.432   7.006   1.608
 3446SOL    HW111237   5.496   0.047   1.571
 3446SOL    HW211238   5.462   6.977   1.699
 3447SOL     OW11239   5.087   0.239   0.277
 3447SOL    HW111240   5.101   0.181   0.197
 3447SOL    HW211241   5.022   0.312   0.255
 3448SOL     OW11242   1.303   6.388   5.511
 3448SOL    HW111243   1.388   6.439   5.499
 3448SOL    HW211244   1.231   6.430   5.456
 3449SOL     OW11245   6.022   5.150   5.177
 3449SOL    HW111246   6.056   5.142   5.083
 3449SOL    HW211247   6.052   5.070   5.230
 3450SOL     OW11248   1.491   0.161   6.715
 3450SOL    HW111249   1.564   0.095   6.698
 3450SOL    HW211250   1.428   0.161   6.637
 3451SOL     OW11251   1.694   6.036   0.661
 3451SOL    HW111252   1.720   6.084   0.745
 3451SOL    HW211253   1.599   6.006   0.668
 3452SOL     OW11254   5.623   1.033   5.028
 3452SOL    HW111255   5.548   1.060   4.967
 3452SOL    HW211256   5.589   1.021   5.121
 3453SOL     OW11257   5.279   6.332   5.727
 3453SOL    HW111258   5.211   6.325   5.800
 3453SOL    HW211259   5.275   6.423   5.686
 3454SOL     OW11260   1.648   2.709   3.135
 3454SOL    HW111261   1.728   2.732   3.080
 3454SOL    HW211262   1.648   2.764   3.219
 3455SOL     OW11263   1.761   2.980   5.367
 3455SOL    HW111264   1.851   3.020   5.383
 3455SOL    HW211265   1.702   3.047   5.321
 3456SOL     OW11266   4.503   4.427   2.255
 3456SOL    HW111267   4.432   4.497   2.249
 3456SOL    HW211268   4.495   4.364   2.177
 3457SOL     OW11269   3.525   5.348   5.048
 3457SOL    HW111270   3.489   5.395   4.968
 3457SOL    HW211271   3.454   5.291   5.088
 3458SOL     OW11272   4.670   1.677   2.251
 3458SOL    HW111273   4.597   1.742   2.272
 3458SOL    HW211274   4.759   1.719   2.273
 3459SOL     OW11275   4.012   1.256   2.527
 3459SOL    HW111276   4.036   1.295   2.615
 3459SOL    HW211277   4.094   1.249   2.469
 3460SOL     OW11278   3.708   1.773   5.782
 3460SOL    HW111279   3.778   1.787   5.712
 3460SOL    HW211280   3.630   1.833   5.763
 3461SOL     OW11281   5.631   4.873   6.912
 3461SOL    HW111282   5.688   4.954   6.901
 3461SOL    HW211283   5.582   4.855   6.827
 3462SOL     OW11284   2.320   3.158   6.714
 3462SOL    HW111285   2.301   3.177   6.618
 3462SOL    HW211286   2.353   3.241   6.759
 3463SOL     OW11287   0.198   3.914   1.349
 3463SOL    HW111288   0.218   3.991   1.409
 3463SOL    HW211289   0.187   3.947   1.255
 3464SOL     OW11290   0.459   4.356   6.474
 3464SOL    HW111291   0.494   4.297   6.401
 3464SOL    HW211292   0.370   4.392   6.447
 3465SOL     OW11293   1.801   1.174   1.651
 3465SOL    HW111294   1.838   1.217   1.568
 3465SOL    HW211295   1.705   1.150   1.636
 3466SOL     OW11296   0.008   4.544   5.839
 3466SOL    HW111297   0.041   4.503   5.924
 3466SOL    HW211298   6.942   4.513   5.821
 3467SOL     OW11299   2.455   2.454   6.552
 3467SOL    HW111300   2.439   2.458   6.453
 3467SOL    HW211301   2.368   2.460   6.600
 3468SOL     OW11302   2.950   6.235   3.625
 3468SOL    HW111303   2.884   6.206   3.694
 3468SOL    HW211304   2.914   6.214   3.534
 3469SOL     OW11305   6.768   2.268   3.599
 3469SOL    HW111306   6.858   2.311   3.591
 3469SOL    HW211307   6.723   2.267   3.510
 3470SOL     OW11308   0.476   5.675   1.353
 3470SOL    HW111309   0.553   5.615   1.331
 3470SOL    HW211310   0.457   5.670   1.451
 3471SOL     OW11311   4.030   5.893   5.064
 3471SOL    HW111312   3.978   5.910   5.148
 3471SOL    HW211313   3.971   5.850   4.996
 3472SOL     OW11314   2.436   0.634   4.560
 3472SOL    HW111315   2.491   0.654   4.641
 3472SOL    HW211316   2.428   0.716   4.503
 3473SOL     OW11317   6.013   1.527   5.569
 3473SOL    HW111318   6.072   1.448   5.556
 3473SOL    HW211319   5.960   1.516   5.653
 3474SOL     OW11320   3.584   5.038   2.015
 3474SOL    HW111321   3.533   5.036   2.101
 3474SOL    HW211322   3.603   4.945   1.985
 3475SOL     OW11323   1.224   6.633   4.048
 3475SOL    HW111324   1.295   6.668   3.986
 3475SOL    HW211325   1.255   6.545   4.086
 3476SOL     OW11326   4.780   1.047   4.686
 3476SOL    HW111327   4.799   1.134   4.641
 3476SOL    HW211328   4.749   0.981   4.619
 3477SOL     OW11329   4.317   5.911   1.056
 3477SOL    HW111330   4.314   5.831   0.996
 3477SOL    HW211331   4.246   5.976   1.029
 3478SOL     OW11332   3.448   5.841   6.102
 3478SOL    HW111333   3.367   5.896   6.085
 3478SOL    HW211334   3.524   5.901   6.128
 3479SOL     OW11335   0.479   0.784   2.022
 3479SOL    HW111336   0.543   0.750   1.953
 3479SOL    HW211337   0.427   0.708   2.060
 3480SOL     OW11338   6.906   1.195   3.542
 3480SOL    HW111339   6.900   1.174   3.640
 3480SOL    HW211340   6.963   1.126   3.497
 3481SOL     OW11341   3.181   6.635   6.515
 3481SOL    HW111342   3.160   6.555   6.460
 3481SOL    HW211343   3.265   6.678   6.482
 3482SOL     OW11344   6.360   2.127   1.477
 3482SOL    HW111345   6.318   2.079   1.400
 3482SOL    HW211346   6.425   2.065   1.522
 3483SOL     OW11347   2.075   0.778   1.657
 3483SOL    HW111348   2.136   0.851   1.687
 3483SOL    HW211349   2.000   0.817   1.602
 3484SOL     OW11350   3.346   2.884   3.304
 3484SOL    HW111351   3.308   2.914   3.392
 3484SOL    HW211352   3.285   2.817   3.262
 3485SOL     OW11353   1.838   2.508   5.153
 3485SOL    HW111354   1.812   2.597   5.189
 3485SOL    HW211355   1.848   2.443   5.228
 3486SOL     OW11356   4.754   1.464   1.584
 3486SOL    HW111357   4.691   1.536   1.556
 3486SOL    HW211358   4.716   1.375   1.561
 3487SOL     OW11359   6.091   1.997   6.069
 3487SOL    HW111360   6.047   1.926   6.015
 3487SOL    HW211361   6.054   1.996   6.162
 3488SOL     OW11362   6.394   3.839   4.061
 3488SOL    HW111363   6.383   3.912   4.128
 3488SOL    HW211364   6.438   3.760   4.104
 3489SOL     OW11365   3.915   6.730   1.327
 3489SOL    HW111366   3.961   6.757   1.411
 3489SOL    HW211367   3.826   6.690   1.349
 3490SOL     OW11368   5.595   3.725   0.325
 3490SOL    HW111369   5.618   3.736   0.228
 3490SOL    HW211370   5.582   3.815   0.366
 3491SOL     OW11371   0.097   3.108   5.609
 3491SOL    HW111372   0.091   3.019   5.653
 3491SOL    HW211373   0.014   3.160   5.625
 3492SOL     OW11374   0.359   5.653   6.810
 3492SOL    HW111375   0.342   5.564   6.852
 3492SOL    HW211376   0.368   5.723   6.881
 3493SOL     OW11377   5.718   5.040   1.473
 3493SOL    HW111378   5.814   5.050   1.449
 3493SOL    HW211379   5.661   5.084   1.404
 3494SOL     OW11380   3.505   0.325   1.911
 3494SOL    HW111381   3.541   0.323   2.004
 3494SOL    HW211382   3.432   0.393   1.905
 3495SOL     OW11383   4.344   5.328   1.919
 3495SOL    HW111384   4.256   5.365   1.891
 3495SOL    HW211385   4.402   5.402   1.953
 3496SOL     OW11386   1.610   3.041   0.665
 3496SOL    HW111387   1.597   2.995   0.753
 3496SOL    HW211388   1.571   2.985   0.592
 3497SOL     OW11389   4.050   1.449   3.122
 3497SOL    HW111390   4.031   1.367   3.067
 3497SOL    HW211391   4.031   1.430   3.218
 3498SOL     OW11392   2.669   1.255   0.879
 3498SOL    HW111393   2.720   1.183   0.833
 3498SOL    HW211394   2.571   1.238   0.869
 3499SOL     OW11395   0.348   3.424   3.969
 3499SOL    HW111396   0.380   3.332   3.944
 3499SOL    HW211397   0.248   3.426   3.968
 3500SOL     OW11398   6.159   4.070   6.236
 3500SOL    HW111399   6.095   4.129   6.284
 3500SOL    HW211400   6.108   4.007   6.177
 3501SOL     OW11401   1.753   4.590   5.344
 3501SOL    HW111402   1.720   4.524   5.411
 3501SOL    HW211403   1.677   4.621   5.288
 3502SOL     OW11404   0.349   1.722   1.389
 3502SOL    HW111405   0.351   1.644   1.452
 3502SOL    HW211406   0.424   1.784   1.410
 3503SOL     OW11407   4.526   5.603   5.412
 3503SOL    HW111408   4.531   5.700   5.438
 3503SOL    HW211409   4.582   5.588   5.331
 3504SOL     OW11410   2.511   3.334   1.188
 3504SOL    HW111411   2.508   3.243   1.148
 3504SOL    HW211412   2.587   3.340   1.253
 3505SOL     OW11413   5.462   6.120   5.117
 3505SOL    HW111414   5.448   6.025   5.142
 3505SOL    HW211415   5.552   6.131   5.075
 3506SOL     OW11416   3.915   5.445   4.108
 3506SOL    HW111417   3.846   5.450   4.180
 3506SOL    HW211418   3.982   5.374   4.130
 3507SOL     OW11419   1.256   0.736   6.540
 3507SOL    HW111420   1.158   0.717   6.531
 3507SOL    HW211421   1.306   0.650   6.545
 3508SOL     OW11422   5.476   2.815   0.455
 3508SOL    HW111423   5.440   2.874   0.528
 3508SOL    HW211424   5.402   2.788   0.394
 3509SOL     OW11425   6.014   6.267   6.885
 3509SOL    HW111426   5.982   6.333   6.817
 3509SOL    HW211427   6.074   6.312   6.951
 3510SOL     OW11428   2.052   2.310   1.304
 3510SOL    HW111429   1.988   2.236   1.325
 3510SOL    HW211430   2.145   2.281   1.325
 3511SOL     OW11431   0.153   2.464   6.607
 3511SOL    HW111432   0.171   2.420   6.695
 3511SOL    HW211433   0.224   2.439   6.542
 3512SOL     OW11434   2.188   3.431   0.354
 3512SOL    HW111435   2.142   3.473   0.277
 3512SOL    HW211436   2.161   3.335   0.361
 3513SOL     OW11437   6.531   4.308   1.095
 3513SOL    HW111438   6.579   4.394   1.074
 3513SOL    HW211439   6.570   4.268   1.178
 3514SOL     OW11440   0.593   6.310   1.416
 3514SOL    HW111441   0.557   6.396   1.452
 3514SOL    HW211442   0.584   6.309   1.316
 3515SOL     OW11443   2.779   6.210   3.033
 3515SOL    HW111444   2.844   6.214   2.956
 3515SOL    HW211445   2.728   6.296   3.036
 3516SOL     OW11446   3.322   1.169   0.487
 3516SOL    HW111447   3.257   1.134   0.419
 3516SOL    HW211448   3.382   1.236   0.444
 3517SOL     OW11449   0.851   1.381   6.888
 3517SOL    HW111450   0.885   1.358   6.980
 3517SOL    HW211451   0.898   1.463   6.856
 3518SOL     OW11452   4.621   3.440   6.694
 3518SOL    HW111453   4.677   3.483   6.766
 3518SOL    HW211454   4.530   3.482   6.695
 3519SOL     OW11455   1.406   6.598   6.605
 3519SOL    HW111456   1.402   6.625   6.509
 3519SOL    HW211457   1.459   6.665   6.657
 3520SOL     OW11458   4.051   4.591   1.041
 3520SOL    HW111459   4.034   4.547   1.130
 3520SOL    HW211460   3.964   4.601   0.992
 3521SOL     OW11461   5.794   2.634   1.966
 3521SOL    HW111462   5.698   2.655   1.987
 3521SOL    HW211463   5.814   2.541   1.994
 3522SOL     OW11464   3.325   5.161   1.865
 3522SOL    HW111465   3.337   5.247   1.915
 3522SOL    HW211466   3.284   5.092   1.925
 3523SOL     OW11467   2.970   4.895   4.851
 3523SOL    HW111468   2.944   4.990   4.865
 3523SOL    HW211469   2.891   4.843   4.817
 3524SOL     OW11470   2.478   0.410   0.859
 3524SOL    HW111471   2.571   0.384   0.834
 3524SOL    HW211472   2.436   0.460   0.783
 3525SOL     OW11473   0.797   3.072   1.977
 3525SOL    HW111474   0.722   3.138   1.978
 3525SOL    HW211475   0.825   3.052   2.071
 3526SOL     OW11476   0.811   0.697   3.104
 3526SOL    HW111477   0.817   0.793   3.134
 3526SOL    HW211478   0.793   0.694   3.006
 3527SOL     OW11479   5.586   2.914   6.352
 3527SOL    HW111480   5.602   2.992   6.291
 3527SOL    HW211481   5.507   2.933   6.410
 3528SOL     OW11482   0.612   6.177   3.167
 3528SOL    HW111483   0.708   6.161   3.143
 3528SOL    HW211484   0.567   6.089   3.182
 3529SOL     OW11485   4.524   7.011   5.313
 3529SOL    HW111486   4.507   0.082   5.300
 3529SOL    HW211487   4.606   6.999   5.369
 3530SOL     OW11488   2.983   5.571   2.238
 3530SOL    HW111489   2.954   5.650   2.294
 3530SOL    HW211490   2.952   5.584   2.144
 3531SOL     OW11491   5.997   5.010   0.929
 3531SOL    HW111492   5.983   4.970   0.838
 3531SOL    HW211493   6.095   5.011   0.950
 3532SOL     OW11494   2.616   0.418   6.770
 3532SOL    HW111495   2.645   0.336   6.721
 3532SOL    HW211496   2.673   0.428   6.852
 3533SOL     OW11497   1.156   1.958   3.696
 3533SOL    HW111498   1.123   1.935   3.787
 3533SOL    HW211499   1.132   2.053   3.675
 3534SOL     OW11500   5.584   1.882   5.151
 3534SOL    HW111501   5.638   1.962   5.178
 3534SOL    HW211502   5.492   1.891   5.188
 3535SOL     OW11503   5.822   5.290   5.973
 3535SOL    HW111504   5.722   5.288   5.974
 3535SOL    HW211505   5.856   5.335   6.055
 3536SOL     OW11506   2.189   3.320   2.882
 3536SOL    HW111507   2.096   3.350   2.902
 3536SOL    HW211508   2.187   3.253   2.808
 3537SOL     OW11509   2.324   5.582   0.794
 3537SOL    HW111510   2.289   5.628   0.875
 3537SOL    HW211511   2.263   5.506   0.770
 3538SOL     OW11512   2.866   6.915   2.932
 3538SOL    HW111513   2.844   6.950   3.023
 3538SOL    HW211514   2.930   6.839   2.940
 3539SOL     OW11515   5.514   5.012   6.491
 3539SOL    HW111516   5.563   4.972   6.414
 3539SOL    HW211517   5.416   5.007   6.474
 3540SOL     OW11518   2.636   3.222   6.637
 3540SOL    HW111519   2.607   3.174   6.720
 3540SOL    HW211520   2.730   3.253   6.647
 3541SOL     OW11521   2.627   2.518   1.250
 3541SOL    HW111522   2.534   2.549   1.272
 3541SOL    HW211523   2.647   2.434   1.299
 3542SOL     OW11524   5.173   2.407   0.116
 3542SOL    HW111525   5.221   2.341   0.058
 3542SOL    HW211526   5.231   2.431   0.193
 3543SOL     OW11527   2.365   2.780   2.920
 3543SOL    HW111528   2.300   2.752   2.849
 3543SOL    HW211529   2.421   2.855   2.886
 3544SOL     OW11530   2.897   4.646   6.277
 3544SOL    HW111531   2.949   4.561   6.283
 3544SOL    HW211532   2.916   4.691   6.190
 3545SOL     OW11533   4.037   6.577   1.139
 3545SOL    HW111534   4.121   6.628   1.123
 3545SOL    HW211535   3.987   6.618   1.215
 3546SOL     OW11536   6.662   3.732   3.520
 3546SOL    HW111537   6.618   3.676   3.589
 3546SOL    HW211538   6.714   3.674   3.458
 3547SOL     OW11539   0.093   3.800   5.261
 3547SOL    HW111540   0.108   3.703   5.245
 3547SOL    HW211541   0.178   3.841   5.296
 3548SOL     OW11542   5.185   1.700   5.938
 3548SOL    HW111543   5.159   1.676   5.845
 3548SOL    HW211544   5.162   1.796   5.956
 3549SOL     OW11545   3.055   5.705   0.336
 3549SOL    HW111546   3.063   5.619   0.386
 3549SOL    HW211547   3.048   5.686   0.238
 3550SOL     OW11548   5.117   2.032   5.332
 3550SOL    HW111549   5.105   2.099   5.405
 3550SOL    HW211550   5.033   1.978   5.323
 3551SOL     OW11551   3.811   2.230   5.598
 3551SOL    HW111552   3.718   2.265   5.602
 3551SOL    HW211553   3.819   2.149   5.656
 3552SOL     OW11554   6.846   5.971   2.348
 3552SOL    HW111555   6.805   6.062   2.357
 3552SOL    HW211556   6.791   5.915   2.287
 3553SOL     OW11557   3.961   5.822   6.226
 3553SOL    HW111558   3.901   5.764   6.171
 3553SOL    HW211559   3.906   5.873   6.292
 3554SOL     OW11560   4.309   3.546   1.740
 3554SOL    HW111561   4.268   3.625   1.786
 3554SOL    HW211562   4.238   3.480   1.716
 3555SOL     OW11563   1.743   2.310   3.968
 3555SOL    HW111564   1.722   2.232   3.910
 3555SOL    HW211565   1.738   2.283   4.064
 3556SOL     OW11566   4.255   0.709   5.006
 3556SOL    HW111567   4.302   0.747   4.926
 3556SOL    HW211568   4.247   0.779   5.077
 3557SOL     OW11569   0.082   1.139   2.404
 3557SOL    HW111570   0.147   1.129   2.330
 3557SOL    HW211571   7.021   1.100   2.377
 3558SOL     OW11572   3.406   6.621   0.823
 3558SOL    HW111573   3.337   6.663   0.764
 3558SOL    HW211574   3.497   6.644   0.789
 3559SOL     OW11575   3.797   6.632   4.784
 3559SOL    HW111576   3.813   6.572   4.706
 3559SOL    HW211577   3.719   6.598   4.836
 3560SOL     OW11578   1.382   5.392   4.905
 3560SOL    HW111579   1.315   5.450   4.951
 3560SOL    HW211580   1.340   5.304   4.881
 3561SOL     OW11581   4.911   4.537   5.183
 3561SOL    HW111582   4.841   4.597   5.144
 3561SOL    HW211583   4.885   4.441   5.166
 3562SOL     OW11584   2.462   1.171   4.828
 3562SOL    HW111585   2.511   1.246   4.873
 3562SOL    HW211586   2.468   1.183   4.729
 3563SOL     OW11587   5.715   1.858   5.534
 3563SOL    HW111588   5.667   1.941   5.508
 3563SOL    HW211589   5.767   1.824   5.456
 3564SOL     OW11590   0.239   4.583   3.004
 3564SOL    HW111591   0.250   4.638   2.922
 3564SOL    HW211592   0.260   4.639   3.085
 3565SOL     OW11593   3.332   5.515   3.646
 3565SOL    HW111594   3.266   5.590   3.654
 3565SOL    HW211595   3.407   5.530   3.710
 3566SOL     OW11596   6.347   0.842   5.557
 3566SOL    HW111597   6.259   0.838   5.509
 3566SOL    HW211598   6.421   0.818   5.494
 3567SOL     OW11599   0.452   4.336   0.161
 3567SOL    HW111600   0.538   4.291   0.183
 3567SOL    HW211601   0.425   4.312   0.067
 3568SOL     OW11602   6.544   3.613   6.105
 3568SOL    HW111603   6.499   3.526   6.122
 3568SOL    HW211604   6.638   3.610   6.140
 3569SOL     OW11605   3.179   1.846   5.460
 3569SOL    HW111606   3.095   1.897   5.478
 3569SOL    HW211607   3.164   1.780   5.387
 3570SOL     OW11608   5.799   0.994   4.073
 3570SOL    HW111609   5.865   1.020   4.003
 3570SOL    HW211610   5.769   1.075   4.123
 3571SOL     OW11611   6.634   5.775   6.397
 3571SOL    HW111612   6.614   5.766   6.299
 3571SOL    HW211613   6.567   5.837   6.438
 3572SOL     OW11614   5.290   3.695   3.557
 3572SOL    HW111615   5.373   3.640   3.553
 3572SOL    HW211616   5.262   3.721   3.464
 3573SOL     OW11617   1.304   4.769   4.055
 3573SOL    HW111618   1.275   4.787   3.961
 3573SOL    HW211619   1.284   4.848   4.113
 3574SOL     OW11620   0.176   4.936   0.447
 3574SOL    HW111621   0.229   4.914   0.528
 3574SOL    HW211622   0.124   4.856   0.418
 3575SOL     OW11623   6.153   5.309   3.096
 3575SOL    HW111624   6.236   5.266   3.131
 3575SOL    HW211625   6.123   5.261   3.013
 3576SOL     OW11626   0.630   1.427   6.271
 3576SOL    HW111627   0.622   1.431   6.370
 3576SOL    HW211628   0.548   1.385   6.232
 3577SOL     OW11629   0.681   2.487   6.579
 3577SOL    HW111630   0.690   2.424   6.657
 3577SOL    HW211631   0.600   2.463   6.527
 3578SOL     OW11632   3.345   4.283   6.718
 3578SOL    HW111633   3.388   4.351   6.778
 3578SOL    HW211634   3.283   4.226   6.772
 3579SOL     OW11635   6.773   3.449   5.010
 3579SOL    HW111636   6.755   3.366   5.062
 3579SOL    HW211637   6.803   3.521   5.072
 3580SOL     OW11638   5.524   1.943   1.610
 3580SOL    HW111639   5.529   1.944   1.710
 3580SOL    HW211640   5.485   2.029   1.578
 3581SOL     OW11641   6.514   6.927   2.831
 3581SOL    HW111642   6.547   6.953   2.921
 3581SOL    HW211643   6.488   6.831   2.831
 3582SOL     OW11644   1.237   0.896   5.929
 3582SOL    HW111645   1.145   0.930   5.908
 3582SOL    HW211646   1.304   0.968   5.912
 3583SOL     OW11647   1.262   4.468   0.217
 3583SOL    HW111648   1.316   4.536   0.167
 3583SOL    HW211649   1.187   4.514   0.265
 3584SOL     OW11650   6.070   6.263   6.170
 3584SOL    HW111651   5.984   6.218   6.195
 3584SOL    HW211652   6.133   6.257   6.247
 3585SOL     OW11653   3.391   4.936   4.839
 3585SOL    HW111654   3.361   5.027   4.808
 3585SOL    HW211655   3.489   4.927   4.826
 3586SOL     OW11656   6.397   2.860   5.267
 3586SOL    HW111657   6.421   2.866   5.364
 3586SOL    HW211658   6.299   2.842   5.258
 3587SOL     OW11659   2.775   6.894   1.205
 3587SOL    HW111660   2.712   6.820   1.227
 3587SOL    HW211661   2.818   6.927   1.289
 3588SOL     OW11662   1.943   2.138   5.773
 3588SOL    HW111663   1.932   2.192   5.689
 3588SOL    HW211664   1.934   2.198   5.852
 3589SOL     OW11665   3.811   0.689   4.311
 3589SOL    HW111666   3.728   0.742   4.327
 3589SOL    HW211667   3.808   0.648   4.220
 3590SOL     OW11668   1.291   4.692   6.387
 3590SOL    HW111669   1.361   4.672   6.456
 3590SOL    HW211670   1.288   4.618   6.321
 3591SOL     OW11671   5.727   3.094   6.129
 3591SOL    HW111672   5.734   3.011   6.074
 3591SOL    HW211673   5.643   3.143   6.104
 3592SOL     OW11674   5.426   3.109   2.540
 3592SOL    HW111675   5.424   3.208   2.559
 3592SOL    HW211676   5.438   3.059   2.625
 3593SOL     OW11677   2.286   6.276   4.199
 3593SOL    HW111678   2.238   6.334   4.134
 3593SOL    HW211679   2.292   6.323   4.287
 3594SOL     OW11680   2.452   0.990   3.439
 3594SOL    HW111681   2.532   1.015   3.384
 3594SOL    HW211682   2.376   0.967   3.378
 3595SOL     OW11683   2.256   6.412   5.437
 3595SOL    HW111684   2.283   6.399   5.341
 3595SOL    HW211685   2.200   6.495   5.444
 3596SOL     OW11686   6.344   1.040   2.818
 3596SOL    HW111687   6.331   1.043   2.719
 3596SOL    HW211688   6.441   1.042   2.840
 3597SOL     OW11689   3.725   6.304   4.258
 3597SOL    HW111690   3.743   6.399   4.281
 3597SOL    HW211691   3.746   6.288   4.161
 3598SOL     OW11692   0.762   0.304   5.632
 3598SOL    HW111693   0.845   0.293   5.576
 3598SOL    HW211694   0.778   0.372   5.703
 3599SOL     OW11695   0.325   1.830   5.835
 3599SOL    HW111696   0.274   1.746   5.852
 3599SOL    HW211697   0.333   1.882   5.920
 3600SOL     OW11698   6.605   3.491   0.699
 3600SOL    HW111699   6.528   3.552   0.681
 3600SOL    HW211700   6.573   3.411   0.750
 3601SOL     OW11701   6.995   4.229   0.853
 3601SOL    HW111702   0.065   4.240   0.830
 3601SOL    HW211703   6.939   4.251   0.773
 3602SOL     OW11704   1.798   0.959   0.375
 3602SOL    HW111705   1.805   0.936   0.472
 3602SOL    HW211706   1.701   0.973   0.352
 3603SOL     OW11707   3.790   5.522   4.374
 3603SOL    HW111708   3.701   5.541   4.333
 3603SOL    HW211709   3.789   5.432   4.417
 3604SOL     OW11710   6.908   3.039   3.023
 3604SOL    HW111711   6.965   2.968   2.982
 3604SOL    HW211712   6.851   3.000   3.095
 3605SOL     OW11713   6.005   4.314   6.175
 3605SOL    HW111714   5.926   4.255   6.192
 3605SOL    HW211715   6.049   4.286   6.089
 3606SOL     OW11716   0.093   4.772   5.910
 3606SOL    HW111717   0.107   4.831   5.831
 3606SOL    HW211718   0.050   4.686   5.881
 3607SOL     OW11719   5.146   0.187   0.562
 3607SOL    HW111720   5.127   0.172   0.465
 3607SOL    HW211721   5.079   0.252   0.599
 3608SOL     OW11722   6.831   1.604   1.755
 3608SOL    HW111723   6.831   1.548   1.672
 3608SOL    HW211724   6.767   1.565   1.821
 3609SOL     OW11725   7.001   0.831   4.368
 3609SOL    HW111726   7.009   0.916   4.420
 3609SOL    HW211727   6.925   0.838   4.304
 3610SOL     OW11728   0.526   6.874   4.617
 3610SOL    HW111729   0.594   6.944   4.593
 3610SOL    HW211730   0.544   6.839   4.709
 3611SOL     OW11731   3.697   4.915   5.231
 3611SOL    HW111732   3.766   4.858   5.276
 3611SOL    HW211733   3.710   4.912   5.132
 3612SOL     OW11734   0.768   6.306   6.257
 3612SOL    HW111735   0.681   6.326   6.213
 3612SOL    HW211736   0.840   6.303   6.187
 3613SOL     OW11737   5.218   5.082   0.645
 3613SOL    HW111738   5.299   5.072   0.703
 3613SOL    HW211739   5.143   5.119   0.700
 3614SOL     OW11740   3.758   3.338   3.011
 3614SOL    HW111741   3.742   3.405   3.083
 3614SOL    HW211742   3.783   3.385   2.926
 3615SOL     OW11743   5.887   5.480   5.785
 3615SOL    HW111744   5.817   5.548   5.763
 3615SOL    HW211745   5.848   5.411   5.847
 3616SOL     OW11746   6.561   2.310   0.189
 3616SOL    HW111747   6.533   2.324   0.095
 3616SOL    HW211748   6.572   2.399   0.235
 3617SOL     OW11749   5.176   1.570   6.539
 3617SOL    HW111750   5.162   1.610   6.630
 3617SOL    HW211751   5.109   1.608   6.475
 3618SOL     OW11752   1.345   1.728   5.623
 3618SOL    HW111753   1.326   1.771   5.535
 3618SOL    HW211754   1.443   1.733   5.642
 3619SOL     OW11755   5.969   2.532   4.009
 3619SOL    HW111756   5.965   2.487   3.919
 3619SOL    HW211757   5.877   2.562   4.035
 3620SOL     OW11758   5.325   6.528   5.527
 3620SOL    HW111759   5.424   6.530   5.509
 3620SOL    HW211760   5.275   6.545   5.442
 3621SOL     OW11761   3.157   2.870   6.033
 3621SOL    HW111762   3.072   2.909   6.068
 3621SOL    HW211763   3.159   2.772   6.052
 3622SOL     OW11764   0.831   2.052   3.212
 3622SOL    HW111765   0.840   1.973   3.151
 3622SOL    HW211766   0.756   2.037   3.276
 3623SOL     OW11767   6.373   5.138   4.259
 3623SOL    HW111768   6.280   5.174   4.268
 3623SOL    HW211769   6.393   5.076   4.335
 3624SOL     OW11770   1.937   5.955   2.805
 3624SOL    HW111771   1.927   5.982   2.709
 3624SOL    HW211772   1.861   5.992   2.858
 3625SOL     OW11773   6.287   2.940   6.205
 3625SOL    HW111774   6.245   2.855   6.236
 3625SOL    HW211775   6.306   2.999   6.283
 3626SOL     OW11776   2.677   3.544   5.353
 3626SOL    HW111777   2.637   3.625   5.311
 3626SOL    HW211778   2.775   3.540   5.332
 3627SOL     OW11779   4.092   3.534   3.282
 3627SOL    HW111780   4.101   3.571   3.374
 3627SOL    HW211781   4.089   3.609   3.216
 3628SOL     OW11782   2.026   6.793   1.934
 3628SOL    HW111783   1.961   6.754   2.000
 3628SOL    HW211784   1.979   6.808   1.847
 3629SOL     OW11785   6.279   1.875   5.135
 3629SOL    HW111786   6.228   1.793   5.158
 3629SOL    HW211787   6.327   1.862   5.048
 3630SOL     OW11788   5.806   2.730   4.350
 3630SOL    HW111789   5.845   2.748   4.440
 3630SOL    HW211790   5.870   2.758   4.279
 3631SOL     OW11791   2.649   0.324   4.584
 3631SOL    HW111792   2.613   0.306   4.676
 3631SOL    HW211793   2.653   0.423   4.569
 3632SOL     OW11794   5.084   0.683   0.748
 3632SOL    HW111795   5.013   0.710   0.683
 3632SOL    HW211796   5.145   0.760   0.766
 3633SOL     OW11797   3.192   2.378   5.704
 3633SOL    HW111798   3.185   2.477   5.718
 3633SOL    HW211799   3.229   2.359   5.614
 3634SOL     OW11800   0.596   6.050   4.229
 3634SOL    HW111801   0.520   6.052   4.294
 3634SOL    HW211802   0.608   6.141   4.189
 3635SOL     OW11803   3.546   0.631   5.411
 3635SOL    HW111804   3.591   0.546   5.437
 3635SOL    HW211805   3.615   0.700   5.390
 3636SOL     OW11806   0.348   5.804   5.848
 3636SOL    HW111807   0.382   5.725   5.899
 3636SOL    HW211808   0.248   5.810   5.858
 3637SOL     OW11809   6.170   1.810   1.083
 3637SOL    HW111810   6.139   1.740   1.147
 3637SOL    HW211811   6.220   1.881   1.133
 3638SOL     OW11812   6.363   4.783   4.322
 3638SOL    HW111813   6.324   4.713   4.382
 3638SOL    HW211814   6.290   4.840   4.285
 3639SOL     OW11815   3.907   3.631   1.004
 3639SOL    HW111816   3.913   3.728   1.027
 3639SOL    HW211817   3.856   3.620   0.919
 3640SOL     OW11818   3.547   6.475   6.616
 3640SOL    HW111819   3.455   6.438   6.604
 3640SOL    HW211820   3.609   6.401   6.642
 3641SOL     OW11821   4.308   2.254   4.862
 3641SOL    HW111822   4.299   2.319   4.787
 3641SOL    HW211823   4.236   2.270   4.929
 3642SOL     OW11824   4.661   1.590   6.022
 3642SOL    HW111825   4.723   1.642   5.962
 3642SOL    HW211826   4.713   1.522   6.073
 3643SOL     OW11827   2.805   5.621   4.695
 3643SOL    HW111828   2.895   5.664   4.691
 3643SOL    HW211829   2.743   5.677   4.749
 3644SOL     OW11830   6.598   0.920   1.356
 3644SOL    HW111831   6.576   0.834   1.403
 3644SOL    HW211832   6.697   0.931   1.351
 3645SOL     OW11833   5.507   1.348   3.982
 3645SOL    HW111834   5.541   1.362   3.889
 3645SOL    HW211835   5.583   1.325   4.042
 3646SOL     OW11836   0.540   4.709   6.069
 3646SOL    HW111837   0.609   4.641   6.048
 3646SOL    HW211838   0.583   4.790   6.109
 3647SOL     OW11839   1.420   3.704   0.509
 3647SOL    HW111840   1.369   3.653   0.440
 3647SOL    HW211841   1.507   3.735   0.471
 3648SOL     OW11842   3.407   5.529   2.791
 3648SOL    HW111843   3.431   5.626   2.800
 3648SOL    HW211844   3.489   5.477   2.765
 3649SOL     OW11845   4.344   2.759   1.272
 3649SOL    HW111846   4.316   2.679   1.218
 3649SOL    HW211847   4.325   2.842   1.220
 3650SOL     OW11848   6.398   5.695   0.869
 3650SOL    HW111849   6.311   5.733   0.898
 3650SOL    HW211850   6.451   5.766   0.822
 3651SOL     OW11851   1.144   5.990   3.059
 3651SOL    HW111852   1.211   6.022   3.126
 3651SOL    HW211853   1.115   5.897   3.084
 3652SOL     OW11854   5.029   6.357   3.714
 3652SOL    HW111855   5.097   6.350   3.641
 3652SOL    HW211856   4.950   6.300   3.691
 3653SOL     OW11857   6.515   0.888   3.155
 3653SOL    HW111858   6.459   0.835   3.091
 3653SOL    HW211859   6.558   0.827   3.221
 3654SOL     OW11860   2.071   6.446   6.943
 3654SOL    HW111861   2.027   6.514   6.884
 3654SOL    HW211862   2.144   6.400   6.892
 3655SOL     OW11863   0.899   0.082   3.986
 3655SOL    HW111864   0.864   0.060   3.895
 3655SOL    HW211865   0.854   0.165   4.020
 3656SOL     OW11866   1.301   2.883   1.338
 3656SOL    HW111867   1.345   2.860   1.251
 3656SOL    HW211868   1.237   2.959   1.324
 3657SOL     OW11869   4.735   6.211   6.022
 3657SOL    HW111870   4.793   6.130   6.028
 3657SOL    HW211871   4.700   6.221   5.929
 3658SOL     OW11872   1.299   5.753   4.410
 3658SOL    HW111873   1.325   5.832   4.355
 3658SOL    HW211874   1.342   5.759   4.500
 3659SOL     OW11875   3.022   3.788   5.985
 3659SOL    HW111876   3.053   3.715   5.925
 3659SOL    HW211877   2.950   3.753   6.046
 3660SOL     OW11878   5.190   6.059   2.068
 3660SOL    HW111879   5.103   6.021   2.100
 3660SOL    HW211880   5.221   6.009   1.987
 3661SOL     OW11881   4.480   2.480   6.534
 3661SOL    HW111882   4.559   2.456   6.477
 3661SOL    HW211883   4.432   2.397   6.560
 3662SOL     OW11884   3.427   0.640   4.128
 3662SOL    HW111885   3.472   0.711   4.181
 3662SOL    HW211886   3.382   0.680   4.048
 3663SOL     OW11887   1.373   1.323   0.705
 3663SOL    HW111888   1.451   1.385   0.718
 3663SOL    HW211889   1.406   1.234   0.673
 3664SOL     OW11890   5.187   1.759   1.081
 3664SOL    HW111891   5.213   1.773   1.177
 3664SOL    HW211892   5.181   1.847   1.035
 3665SOL     OW11893   0.543   6.066   5.558
 3665SOL    HW111894   0.622   6.060   5.617
 3665SOL    HW211895   0.553   6.144   5.496
 3666SOL     OW11896   1.936   4.128   3.477
 3666SOL    HW111897   1.991   4.121   3.561
 3666SOL    HW211898   1.883   4.045   3.465
 3667SOL     OW11899   6.061   6.915   0.706
 3667SOL    HW111900   5.972   6.952   0.733
 3667SOL    HW211901   6.128   6.989   0.701
 3668SOL     OW11902   1.575   0.303   1.436
 3668SOL    HW111903   1.630   0.222   1.453
 3668SOL    HW211904   1.510   0.284   1.362
 3669SOL     OW11905   5.795   1.304   4.437
 3669SOL    HW111906   5.755   1.297   4.528
 3669SOL    HW211907   5.788   1.399   4.405
 3670SOL     OW11908   2.007   5.227   0.895
 3670SOL    HW111909   2.097   5.263   0.918
 3670SOL    HW211910   1.966   5.185   0.977
 3671SOL     OW11911   5.992   0.517   3.210
 3671SOL    HW111912   5.954   0.609   3.200
 3671SOL    HW211913   5.918   0.450   3.214
 3672SOL     OW11914   5.781   1.424   1.192
 3672SOL    HW111915   5.804   1.511   1.236
 3672SOL    HW211916   5.745   1.360   1.260
 3673SOL     OW11917   3.454   0.563   5.949
 3673SOL    HW111918   3.531   0.623   5.968
 3673SOL    HW211919   3.486   0.469   5.942
 3674SOL     OW11920   0.450   0.587   5.720
 3674SOL    HW111921   0.378   0.517   5.713
 3674SOL    HW211922   0.534   0.545   5.753
 3675SOL     OW11923   1.848   2.919   5.017
 3675SOL    HW111924   1.936   2.933   5.062
 3675SOL    HW211925   1.801   2.841   5.059
 3676SOL     OW11926   4.201   5.069   4.467
 3676SOL    HW111927   4.267   5.137   4.434
 3676SOL    HW211928   4.129   5.116   4.519
 3677SOL     OW11929   1.044   6.050   2.811
 3677SOL    HW111930   1.027   6.143   2.776
 3677SOL    HW211931   1.084   6.056   2.903
 3678SOL     OW11932   0.831   3.156   4.071
 3678SOL    HW111933   0.812   3.227   4.002
 3678SOL    HW211934   0.929   3.150   4.086
 3679SOL     OW11935   1.028   1.211   2.778
 3679SOL    HW111936   1.033   1.293   2.836
 3679SOL    HW211937   1.119   1.186   2.747
 3680SOL     OW11938   6.349   2.817   3.802
 3680SOL    HW111939   6.259   2.830   3.759
 3680SOL    HW211940   6.347   2.734   3.858
 3681SOL     OW11941   0.385   0.556   6.048
 3681SOL    HW111942   0.414   0.652   6.049
 3681SOL    HW211943   0.463   0.497   6.031
 3682SOL     OW11944   6.419   2.614   6.073
 3682SOL    HW111945   6.403   2.579   6.166
 3682SOL    HW211946   6.402   2.713   6.072
 3683SOL     OW11947   0.002   0.644   4.817
 3683SOL    HW111948   0.003   0.545   4.837
 3683SOL    HW211949   0.080   0.666   4.758
 3684SOL     OW11950   1.246   3.269   0.427
 3684SOL    HW111951   1.262   3.349   0.369
 3684SOL    HW211952   1.268   3.186   0.377
 3685SOL     OW11953   6.136   6.397   5.862
 3685SOL    HW111954   6.045   6.375   5.898
 3685SOL    HW211955   6.172   6.317   5.813
 3686SOL     OW11956   6.355   5.482   3.300
 3686SOL    HW111957   6.403   5.547   3.358
 3686SOL    HW211958   6.279   5.528   3.254
 3687SOL     OW11959   2.984   6.183   5.483
 3687SOL    HW111960   2.942   6.093   5.481
 3687SOL    HW211961   2.922   6.250   5.444
 3688SOL     OW11962   1.124   3.955   6.848
 3688SOL    HW111963   1.211   3.998   6.875
 3688SOL    HW211964   1.136   3.856   6.844
 3689SOL     OW11965   1.003   0.654   5.740
 3689SOL    HW111966   0.906   0.658   5.716
 3689SOL    HW211967   1.022   0.568   5.788
 3690SOL     OW11968   3.869   0.359   6.162
 3690SOL    HW111969   3.873   0.314   6.251
 3690SOL    HW211970   3.825   0.449   6.172
 3691SOL     OW11971   2.199   2.975   6.903
 3691SOL    HW111972   2.217   3.027   6.819
 3691SOL    HW211973   2.137   2.900   6.882
 3692SOL     OW11974   0.945   6.309   5.074
 3692SOL    HW111975   0.970   6.405   5.070
 3692SOL    HW211976   1.027   6.253   5.061
 3693SOL     OW11977   1.695   3.164   2.760
 3693SOL    HW111978   1.775   3.203   2.714
 3693SOL    HW211979   1.706   3.174   2.859
 3694SOL     OW11980   1.029   4.915   2.565
 3694SOL    HW111981   0.934   4.897   2.591
 3694SOL    HW211982   1.032   4.997   2.508
 3695SOL     OW11983   0.560   2.382   2.707
 3695SOL    HW111984   0.572   2.314   2.779
 3695SOL    HW211985   0.534   2.470   2.748
 3696SOL     OW11986   3.965   5.535   5.141
 3696SOL    HW111987   4.016   5.540   5.226
 3696SOL    HW211988   4.027   5.513   5.066
 3697SOL     OW11989   6.999   5.712   3.551
 3697SOL    HW111990   0.055   5.689   3.500
 3697SOL    HW211991   6.941   5.771   3.494
 3698SOL     OW11992   3.564   6.453   4.792
 3698SOL    HW111993   3.505   6.449   4.712
 3698SOL    HW211994   3.571   6.362   4.833
 3699SOL     OW11995   6.662   3.662   2.980
 3699SOL    HW111996   6.675   3.649   2.882
 3699SOL    HW211997   6.614   3.749   2.996
 3700SOL     OW11998   5.909   0.757   3.806
 3700SOL    HW111999   5.951   0.668   3.825
 3700SOL    HW212000   5.937   0.789   3.716
 3701SOL     OW12001   0.661   1.164   3.221
 3701SOL    HW112002   0.636   1.260   3.223
 3701SOL    HW212003   0.580   1.108   3.205
 3702SOL     OW12004   4.326   0.315   2.312
 3702SOL    HW112005   4.255   0.259   2.271
 3702SOL    HW212006   4.369   0.372   2.242
 3703SOL     OW12007   4.243   3.571   6.423
 3703SOL    HW112008   4.171   3.609   6.365
 3703SOL    HW212009   4.245   3.471   6.411
 3704SOL     OW12010   2.827   0.766   1.748
 3704SOL    HW112011   2.872   0.694   1.800
 3704SOL    HW212012   2.836   0.853   1.798
 3705SOL     OW12013   4.996   6.606   4.344
 3705SOL    HW112014   5.001   6.706   4.355
 3705SOL    HW212015   5.005   6.562   4.433
 3706SOL     OW12016   0.719   2.949   4.718
 3706SOL    HW112017   0.727   2.909   4.626
 3706SOL    HW212018   0.736   3.047   4.712
 3707SOL     OW12019   5.250   3.560   5.035
 3707SOL    HW112020   5.193   3.566   5.118
 3707SOL    HW212021   5.345   3.578   5.059
 3708SOL     OW12022   6.278   0.757   6.664
 3708SOL    HW112023   6.322   0.822   6.601
 3708SOL    HW212024   6.341   0.734   6.738
 3709SOL     OW12025   3.745   0.865   0.024
 3709SOL    HW112026   3.652   0.873   0.059
 3709SOL    HW212027   3.797   0.802   0.082
 3710SOL     OW12028   6.747   5.727   7.000
 3710SOL    HW112029   6.792   5.655   0.026
 3710SOL    HW212030   6.698   5.687   6.923
 3711SOL     OW12031   7.015   6.002   2.148
 3711SOL    HW112032   7.003   6.075   2.081
 3711SOL    HW212033   6.956   6.019   2.227
 3712SOL     OW12034   6.838   5.780   6.643
 3712SOL    HW112035   6.775   5.848   6.604
 3712SOL    HW212036   6.932   5.809   6.627
 3713SOL     OW12037   1.393   6.164   5.046
 3713SOL    HW112038   1.362   6.098   5.115
 3713SOL    HW212039   1.458   6.227   5.087
 3714SOL     OW12040   4.963   5.814   4.861
 3714SOL    HW112041   4.949   5.766   4.774
 3714SOL    HW212042   4.924   5.906   4.856
 3715SOL     OW12043   5.983   3.666   4.802
 3715SOL    HW112044   5.969   3.579   4.754
 3715SOL    HW212045   5.911   3.678   4.870
 3716SOL     OW12046   6.970   6.686   4.433
 3716SOL    HW112047   0.035   6.673   4.396
 3716SOL    HW212048   6.958   6.627   4.513
 3717SOL     OW12049   6.379   5.572   7.021
 3717SOL    HW112050   6.463   5.521   6.997
 3717SOL    HW212051   6.303   5.507   0.003
 3718SOL     OW12052   2.524   6.349   6.031
 3718SOL    HW112053   2.463   6.274   6.003
 3718SOL    HW212054   2.473   6.435   6.029
 3719SOL     OW12055   4.968   4.139   0.669
 3719SOL    HW112056   4.951   4.078   0.746
 3719SOL    HW212057   4.885   4.192   0.649
 3720SOL     OW12058   5.638   2.165   6.182
 3720SOL    HW112059   5.592   2.122   6.259
 3720SOL    HW212060   5.600   2.130   6.097
 3721SOL     OW12061   5.355   4.721   0.605
 3721SOL    HW112062   5.389   4.735   0.697
 3721SOL    HW212063   5.354   4.623   0.584
 3722SOL     OW12064   0.251   6.862   2.660
 3722SOL    HW112065   0.211   6.928   2.724
 3722SOL    HW212066   0.337   6.827   2.698
 3723SOL     OW12067   6.534   6.350   1.991
 3723SOL    HW112068   6.586   6.364   2.075
 3723SOL    HW212069   6.436   6.360   2.010
 3724SOL     OW12070   2.578   5.368   0.045
 3724SOL    HW112071   2.610   5.451   7.027
 3724SOL    HW212072   2.617   5.288   7.027
 3725SOL     OW12073   5.247   6.145   6.424
 3725SOL    HW112074   5.243   6.051   6.457
 3725SOL    HW212075   5.321   6.155   6.357
 3726SOL     OW12076   6.475   4.732   1.674
 3726SOL    HW112077   6.543   4.803   1.653
 3726SOL    HW212078   6.428   4.706   1.590
 3727SOL     OW12079   0.156   2.959   6.033
 3727SOL    HW112080   0.117   2.869   6.051
 3727SOL    HW212081   0.230   2.951   5.966
 3728SOL     OW12082   1.345   3.620   0.234
 3728SOL    HW112083   1.306   3.709   0.213
 3728SOL    HW212084   1.305   3.551   0.173
 3729SOL     OW12085   1.066   2.464   3.967
 3729SOL    HW112086   1.163   2.438   3.975
 3729SOL    HW212087   1.031   2.491   4.056
 3730SOL     OW12088   2.810   5.971   6.944
 3730SOL    HW112089   2.758   6.015   7.018
 3730SOL    HW212090   2.794   6.021   6.858
 3731SOL     OW12091   4.539   0.263   0.533
 3731SOL    HW112092   4.548   0.345   0.590
 3731SOL    HW212093   4.476   0.282   0.457
 3732SOL     OW12094   1.772   2.741   6.176
 3732SOL    HW112095   1.727   2.708   6.259
 3732SOL    HW212096   1.752   2.679   6.100
 3733SOL     OW12097   1.952   3.942   1.364
 3733SOL    HW112098   2.048   3.967   1.355
 3733SOL    HW212099   1.894   4.017   1.332
 3734SOL     OW12100   4.161   1.576   1.866
 3734SOL    HW112101   4.178   1.528   1.952
 3734SOL    HW212102   4.089   1.644   1.880
 3735SOL     OW12103   1.612   1.841   3.549
 3735SOL    HW112104   1.710   1.846   3.532
 3735SOL    HW212105   1.563   1.900   3.484
 3736SOL     OW12106   0.446   3.013   0.808
 3736SOL    HW112107   0.414   3.093   0.756
 3736SOL    HW212108   0.386   2.935   0.790
 3737SOL     OW12109   5.094   7.017   3.204
 3737SOL    HW112110   5.076   7.007   3.302
 3737SOL    HW212111   5.012   0.024   3.158
 3738SOL     OW12112   6.436   6.473   3.338
 3738SOL    HW112113   6.359   6.429   3.291
 3738SOL    HW212114   6.403   6.535   3.408
 3739SOL     OW12115   1.510   4.263   2.443
 3739SOL    HW112116   1.576   4.245   2.516
 3739SOL    HW212117   1.528   4.201   2.366
 3740SOL     OW12118   4.642   0.655   6.876
 3740SOL    HW112119   4.604   0.568   6.846
 3740SOL    HW212120   4.583   0.729   6.845
 3741SOL     OW12121   4.773   3.279   1.769
 3741SOL    HW112122   4.750   3.198   1.824
 3741SOL    HW212123   4.713   3.284   1.689
 3742SOL     OW12124   2.898   2.262   5.428
 3742SOL    HW112125   2.923   2.332   5.360
 3742SOL    HW212126   2.801   2.241   5.420
 3743SOL     OW12127   5.629   4.820   1.127
 3743SOL    HW112128   5.720   4.860   1.143
 3743SOL    HW212129   5.612   4.814   1.029
 3744SOL     OW12130   0.518   5.898   3.213
 3744SOL    HW112131   0.501   5.800   3.196
 3744SOL    HW212132   0.462   5.928   3.291
 3745SOL     OW12133   3.368   5.463   2.523
 3745SOL    HW112134   3.337   5.490   2.614
 3745SOL    HW212135   3.381   5.364   2.520
 3746SOL     OW12136   4.651   1.436   1.901
 3746SOL    HW112137   4.728   1.485   1.942
 3746SOL    HW212138   4.595   1.500   1.848
 3747SOL     OW12139   3.043   6.871   5.890
 3747SOL    HW112140   2.968   6.898   5.829
 3747SOL    HW212141   3.116   6.828   5.838
 3748SOL     OW12142   5.774   0.321   1.822
 3748SOL    HW112143   5.736   0.413   1.812
 3748SOL    HW212144   5.701   0.256   1.842
 3749SOL     OW12145   1.772   6.604   3.837
 3749SOL    HW112146   1.865   6.593   3.873
 3749SOL    HW212147   1.767   6.690   3.785
 3750SOL     OW12148   2.022   4.201   0.155
 3750SOL    HW112149   1.942   4.241   0.109
 3750SOL    HW212150   2.101   4.260   0.141
 3751SOL     OW12151   0.080   3.815   2.875
 3751SOL    HW112152   7.016   3.825   2.832
 3751SOL    HW212153   0.083   3.869   2.959
 3752SOL     OW12154   4.895   1.271   5.206
 3752SOL    HW112155   4.808   1.287   5.254
 3752SOL    HW212156   4.971   1.304   5.263
 3753SOL     OW12157   6.098   0.335   4.912
 3753SOL    HW112158   6.071   0.431   4.899
 3753SOL    HW212159   6.124   0.295   4.824
 3754SOL     OW12160   1.975   0.974   1.889
 3754SOL    HW112161   1.973   1.049   1.954
 3754SOL    HW212162   2.022   1.003   1.806
 3755SOL     OW12163   3.278   5.468   4.848
 3755SOL    HW112164   3.333   5.545   4.816
 3755SOL    HW212165   3.199   5.502   4.898
 3756SOL     OW12166   3.260   5.743   6.901
 3756SOL    HW112167   3.359   5.749   6.918
 3756SOL    HW212168   3.214   5.822   6.941
 3757SOL     OW12169   7.007   5.180   1.854
 3757SOL    HW112170   6.983   5.224   1.940
 3757SOL    HW212171   6.928   5.128   1.820
 3758SOL     OW12172   1.975   1.229   4.648
 3758SOL    HW112173   2.061   1.225   4.699
 3758SOL    HW212174   1.990   1.200   4.554
 3759SOL     OW12175   4.580   0.666   4.842
 3759SOL    HW112176   4.521   0.748   4.841
 3759SOL    HW212177   4.673   0.692   4.868
 3760SOL     OW12178   0.161   0.286   3.617
 3760SOL    HW112179   0.203   0.358   3.561
 3760SOL    HW212180   0.083   0.324   3.667
 3761SOL     OW12181   6.640   1.137   4.536
 3761SOL    HW112182   6.681   1.091   4.457
 3761SOL    HW212183   6.708   1.193   4.582
 3762SOL     OW12184   1.422   3.843   2.194
 3762SOL    HW112185   1.368   3.888   2.265
 3762SOL    HW212186   1.368   3.770   2.153
 3763SOL     OW12187   6.506   3.985   0.681
 3763SOL    HW112188   6.545   3.975   0.772
 3763SOL    HW212189   6.480   4.081   0.665
 3764SOL     OW12190   2.218   0.637   2.631
 3764SOL    HW112191   2.188   0.560   2.687
 3764SOL    HW212192   2.141   0.672   2.578
 3765SOL     OW12193   5.816   1.958   1.632
 3765SOL    HW112194   5.872   1.987   1.709
 3765SOL    HW212195   5.725   1.934   1.664
 3766SOL     OW12196   2.052   2.473   4.398
 3766SOL    HW112197   1.958   2.506   4.404
 3766SOL    HW212198   2.097   2.488   4.486
 3767SOL     OW12199   3.490   4.205   6.180
 3767SOL    HW112200   3.442   4.120   6.160
 3767SOL    HW212201   3.504   4.212   6.279
 3768SOL     OW12202   1.148   0.477   4.586
 3768SOL    HW112203   1.070   0.534   4.611
 3768SOL    HW212204   1.231   0.532   4.587
 3769SOL     OW12205   5.314   5.162   5.064
 3769SOL    HW112206   5.382   5.105   5.019
 3769SOL    HW212207   5.223   5.140   5.028
 3770SOL     OW12208   1.272   1.027   7.015
 3770SOL    HW112209   1.220   1.112   7.023
 3770SOL    HW212210   1.363   1.039   0.028
 3771SOL     OW12211   6.114   4.917   0.407
 3771SOL    HW112212   6.042   4.875   0.462
 3771SOL    HW212213   6.200   4.870   0.423
 3772SOL     OW12214   1.611   6.313   0.432
 3772SOL    HW112215   1.595   6.388   0.369
 3772SOL    HW212216   1.697   6.268   0.410
 3773SOL     OW12217   5.593   4.265   5.558
 3773SOL    HW112218   5.554   4.197   5.620
 3773SOL    HW212219   5.545   4.261   5.470
 3774SOL     OW12220   5.947   4.919   1.981
 3774SOL    HW112221   5.877   4.904   1.912
 3774SOL    HW212222   5.952   4.840   2.042
 3775SOL     OW12223   3.820   4.935   3.856
 3775SOL    HW112224   3.900   4.891   3.815
 3775SOL    HW212225   3.844   5.027   3.885
 3776SOL     OW12226   3.594   2.809   6.724
 3776SOL    HW112227   3.580   2.772   6.632
 3776SOL    HW212228   3.675   2.867   6.725
 3777SOL     OW12229   2.673   5.804   3.211
 3777SOL    HW112230   2.651   5.881   3.150
 3777SOL    HW212231   2.713   5.730   3.157
 3778SOL     OW12232   1.849   6.661   4.584
 3778SOL    HW112233   1.811   6.728   4.647
 3778SOL    HW212234   1.783   6.642   4.511
 3779SOL     OW12235   0.386   5.376   0.392
 3779SOL    HW112236   0.411   5.453   0.333
 3779SOL    HW212237   0.405   5.401   0.488
 3780SOL     OW12238   0.031   2.852   2.881
 3780SOL    HW112239   0.083   2.810   2.954
 3780SOL    HW212240   7.017   2.781   2.823
 3781SOL     OW12241   0.612   6.735   4.926
 3781SOL    HW112242   0.644   6.644   4.953
 3781SOL    HW212243   0.569   6.780   5.004
 3782SOL     OW12244   3.846   6.232   2.350
 3782SOL    HW112245   3.871   6.263   2.258
 3782SOL    HW212246   3.747   6.229   2.358
 3783SOL     OW12247   5.388   4.834   5.025
 3783SOL    HW112248   5.307   4.874   4.983
 3783SOL    HW212249   5.457   4.817   4.955
 3784SOL     OW12250   5.143   2.576   2.095
 3784SOL    HW112251   5.140   2.674   2.080
 3784SOL    HW212252   5.174   2.530   2.012
 3785SOL     OW12253   0.990   3.450   5.156
 3785SOL    HW112254   0.891   3.461   5.148
 3785SOL    HW212255   1.020   3.482   5.245
 3786SOL     OW12256   2.010   2.538   3.353
 3786SOL    HW112257   1.910   2.527   3.351
 3786SOL    HW212258   2.049   2.503   3.269
 3787SOL     OW12259   4.606   0.417   3.213
 3787SOL    HW112260   4.524   0.424   3.157
 3787SOL    HW212261   4.669   0.492   3.190
 3788SOL     OW12262   6.682   4.230   4.787
 3788SOL    HW112263   6.698   4.202   4.882
 3788SOL    HW212264   6.653   4.151   4.733
 3789SOL     OW12265   0.474   3.286   2.792
 3789SOL    HW112266   0.500   3.204   2.741
 3789SOL    HW212267   0.556   3.329   2.831
 3790SOL     OW12268   1.066   5.754   6.649
 3790SOL    HW112269   1.126   5.746   6.569
 3790SOL    HW212270   1.079   5.843   6.692
 3791SOL     OW12271   5.019   1.739   6.362
 3791SOL    HW112272   4.960   1.802   6.311
 3791SOL    HW212273   5.052   1.667   6.301
 3792SOL     OW12274   1.313   1.202   4.078
 3792SOL    HW112275   1.291   1.297   4.102
 3792SOL    HW212276   1.229   1.153   4.056
 3793SOL     OW12277   5.279   6.437   1.140
 3793SOL    HW112278   5.366   6.483   1.158
 3793SOL    HW212279   5.277   6.351   1.190
 3794SOL     OW12280   2.405   2.912   1.421
 3794SOL    HW112281   2.430   2.990   1.478
 3794SOL    HW212282   2.486   2.856   1.404
 3795SOL     OW12283   3.140   5.650   1.037
 3795SOL    HW112284   3.068   5.713   1.066
 3795SOL    HW212285   3.204   5.635   1.112
 3796SOL     OW12286   4.065   1.942   1.177
 3796SOL    HW112287   4.057   1.953   1.276
 3796SOL    HW212288   4.043   1.847   1.153
 3797SOL     OW12289   1.094   3.485   2.951
 3797SOL    HW112290   1.163   3.535   2.900
 3797SOL    HW212291   1.136   3.406   2.996
 3798SOL     OW12292   2.871   6.727   2.361
 3798SOL    HW112293   2.903   6.639   2.326
 3798SOL    HW212294   2.895   6.735   2.458
 3799SOL     OW12295   6.894   2.571   3.392
 3799SOL    HW112296   6.950   2.545   3.313
 3799SOL    HW212297   6.891   2.496   3.457
 3800SOL     OW12298   4.744   1.967   3.117
 3800SOL    HW112299   4.842   1.955   3.128
 3800SOL    HW212300   4.706   2.006   3.201
 3801SOL     OW12301   5.242   7.008   1.922
 3801SOL    HW112302   5.229   0.069   1.876
 3801SOL    HW212303   5.207   7.014   2.016
 3802SOL     OW12304   0.560   1.942   2.880
 3802SOL    HW112305   0.659   1.935   2.867
 3802SOL    HW212306   0.513   1.918   2.795
 3803SOL     OW12307   3.338   3.656   3.936
 3803SOL    HW112308   3.373   3.727   3.997
 3803SOL    HW212309   3.407   3.636   3.865
 3804SOL     OW12310   2.863   1.456   4.266
 3804SOL    HW112311   2.916   1.539   4.253
 3804SOL    HW212312   2.779   1.460   4.212
 3805SOL     OW12313   2.127   2.527   1.498
 3805SOL    HW112314   2.068   2.592   1.451
 3805SOL    HW212315   2.118   2.437   1.455
 3806SOL     OW12316   3.789   3.841   6.589
 3806SOL    HW112317   3.876   3.883   6.562
 3806SOL    HW212318   3.743   3.901   6.655
 3807SOL     OW12319   1.329   4.883   4.463
 3807SOL    HW112320   1.327   4.808   4.529
 3807SOL    HW212321   1.419   4.927   4.464
 3808SOL     OW12322   4.899   0.039   5.682
 3808SOL    HW112323   4.896   0.139   5.675
 3808SOL    HW212324   4.840   7.027   5.611
 3809SOL     OW12325   6.040   2.112   1.885
 3809SOL    HW112326   6.042   2.181   1.957
 3809SOL    HW212327   6.080   2.149   1.802
 3810SOL     OW12328   6.758   2.827   3.241
 3810SOL    HW112329   6.769   2.729   3.254
 3810SOL    HW212330   6.789   2.875   3.323
 3811SOL     OW12331   6.932   5.980   4.492
 3811SOL    HW112332   6.872   5.910   4.531
 3811SOL    HW212333   7.021   5.941   4.473
 3812SOL     OW12334   3.288   5.218   6.148
 3812SOL    HW112335   3.216   5.152   6.167
 3812SOL    HW212336   3.247   5.307   6.128
 3813SOL     OW12337   5.928   4.139   0.749
 3813SOL    HW112338   5.897   4.169   0.840
 3813SOL    HW212339   5.936   4.040   0.748
 3814SOL     OW12340   0.149   6.900   3.834
 3814SOL    HW112341   0.145   6.903   3.734
 3814SOL    HW212342   0.118   6.987   3.872
 3815SOL     OW12343   5.329   2.737   0.808
 3815SOL    HW112344   5.371   2.744   0.899
 3815SOL    HW212345   5.318   2.829   0.770
 3816SOL     OW12346   0.678   6.174   5.264
 3816SOL    HW112347   0.760   6.155   5.318
 3816SOL    HW212348   0.700   6.165   5.167
 3817SOL     OW12349   5.085   3.736   2.394
 3817SOL    HW112350   5.120   3.747   2.487
 3817SOL    HW212351   5.159   3.751   2.328
 3818SOL     OW12352   0.011   0.513   1.161
 3818SOL    HW112353   0.017   0.512   1.260
 3818SOL    HW212354   0.102   0.497   1.122
 3819SOL     OW12355   6.491   4.315   2.744
 3819SOL    HW112356   6.453   4.224   2.755
 3819SOL    HW212357   6.478   4.346   2.649
 3820SOL     OW12358   5.292   6.488   4.055
 3820SOL    HW112359   5.305   6.424   4.131
 3820SOL    HW212360   5.251   6.573   4.090
 3821SOL     OW12361   0.793   0.753   0.799
 3821SOL    HW112362   0.722   0.700   0.752
 3821SOL    HW212363   0.768   0.763   0.895
 3822SOL     OW12364   2.831   6.918   6.503
 3822SOL    HW112365   2.857   6.839   6.559
 3822SOL    HW212366   2.741   6.902   6.464
 3823SOL     OW12367   4.703   4.524   6.632
 3823SOL    HW112368   4.761   4.602   6.655
 3823SOL    HW212369   4.674   4.478   6.716
 3824SOL     OW12370   1.113   2.311   0.730
 3824SOL    HW112371   1.182   2.290   0.661
 3824SOL    HW212372   1.146   2.386   0.788
 3825SOL     OW12373   1.090   4.086   1.133
 3825SOL    HW112374   1.149   4.147   1.079
 3825SOL    HW212375   1.134   4.067   1.221
 3826SOL     OW12376   6.965   3.789   1.757
 3826SOL    HW112377   6.970   3.689   1.758
 3826SOL    HW212378   6.926   3.821   1.843
 3827SOL     OW12379   0.695   0.526   1.530
 3827SOL    HW112380   0.666   0.596   1.596
 3827SOL    HW212381   0.794   0.514   1.536
 3828SOL     OW12382   3.460   4.108   4.426
 3828SOL    HW112383   3.490   4.132   4.518
 3828SOL    HW212384   3.462   4.009   4.414
 3829SOL     OW12385   0.431   4.785   1.918
 3829SOL    HW112386   0.363   4.737   1.862
 3829SOL    HW212387   0.462   4.867   1.870
 3830SOL     OW12388   0.325   1.177   5.448
 3830SOL    HW112389   0.237   1.139   5.477
 3830SOL    HW212390   0.311   1.269   5.411
 3831SOL     OW12391   4.456   2.064   2.904
 3831SOL    HW112392   4.551   2.093   2.920
 3831SOL    HW212393   4.397   2.145   2.902
 3832SOL     OW12394   6.715   0.653   2.419
 3832SOL    HW112395   6.773   0.591   2.471
 3832SOL    HW212396   6.635   0.604   2.385
 3833SOL     OW12397   1.884   6.811   6.551
 3833SOL    HW112398   1.960   6.767   6.599
 3833SOL    HW212399   1.811   6.744   6.537
 3834SOL     OW12400   4.168   4.062   1.011
 3834SOL    HW112401   4.210   4.042   0.923
 3834SOL    HW212402   4.092   4.125   0.998
 3835SOL     OW12403   3.816   5.999   5.246
 3835SOL    HW112404   3.865   6.021   5.330
 3835SOL    HW212405   3.765   6.080   5.216
 3836SOL     OW12406   0.754   4.789   5.605
 3836SOL    HW112407   0.749   4.724   5.529
 3836SOL    HW212408   0.833   4.767   5.662
 3837SOL     OW12409   4.523   5.194   5.113
 3837SOL    HW112410   4.433   5.172   5.152
 3837SOL    HW212411   4.543   5.290   5.128
 3838SOL     OW12412   1.545   2.060   3.388
 3838SOL    HW112413   1.527   2.140   3.445
 3838SOL    HW212414   1.487   2.063   3.307
 3839SOL     OW12415   4.255   1.011   2.828
 3839SOL    HW112416   4.294   1.072   2.897
 3839SOL    HW212417   4.169   0.972   2.862
 3840SOL     OW12418   2.890   1.859   6.127
 3840SOL    HW112419   2.920   1.883   6.219
 3840SOL    HW212420   2.967   1.867   6.063
 3841SOL     OW12421   1.266   4.082   4.816
 3841SOL    HW112422   1.235   4.170   4.851
 3841SOL    HW212423   1.336   4.045   4.877
 3842SOL     OW12424   2.326   2.739   3.851
 3842SOL    HW112425   2.233   2.764   3.822
 3842SOL    HW212426   2.324   2.651   3.896
 3843SOL     OW12427   5.411   3.366   0.916
 3843SOL    HW112428   5.434   3.371   1.013
 3843SOL    HW212429   5.495   3.372   0.862
 3844SOL     OW12430   1.577   3.951   6.686
 3844SOL    HW112431   1.604   3.949   6.783
 3844SOL    HW212432   1.592   3.861   6.646
 3845SOL     OW12433   2.920   5.819   6.388
 3845SOL    HW112434   2.863   5.850   6.464
 3845SOL    HW212435   2.914   5.886   6.313
 3846SOL     OW12436   0.823   4.183   4.139
 3846SOL    HW112437   0.883   4.104   4.128
 3846SOL    HW212438   0.849   4.233   4.222
 3847SOL     OW12439   4.889   2.579   4.763
 3847SOL    HW112440   4.947   2.600   4.841
 3847SOL    HW212441   4.816   2.647   4.756
 3848SOL     OW12442   4.819   3.929   2.140
 3848SOL    HW112443   4.749   3.901   2.076
 3848SOL    HW212444   4.894   3.974   2.091
 3849SOL     OW12445   0.746   0.683   6.067
 3849SOL    HW112446   0.680   0.722   6.131
 3849SOL    HW212447   0.801   0.613   6.114
 3850SOL     OW12448   3.310   2.857   1.393
 3850SOL    HW112449   3.294   2.782   1.457
 3850SOL    HW212450   3.228   2.915   1.388
 3851SOL     OW12451   0.073   4.792   3.208
 3851SOL    HW112452   0.058   4.869   3.146
 3851SOL    HW212453   7.012   4.750   3.231
 3852SOL     OW12454   3.246   6.069   4.195
 3852SOL    HW112455   3.280   6.063   4.101
 3852SOL    HW212456   3.208   6.160   4.211
 3853SOL     OW12457   1.145   2.991   3.068
 3853SOL    HW112458   1.210   2.925   3.031
 3853SOL    HW212459   1.177   3.084   3.050
 3854SOL     OW12460   1.058   2.575   2.645
 3854SOL    HW112461   1.086   2.670   2.660
 3854SOL    HW212462   1.012   2.540   2.727
 3855SOL     OW12463   4.359   6.309   6.611
 3855SOL    HW112464   4.379   6.238   6.543
 3855SOL    HW212465   4.273   6.288   6.657
 3856SOL     OW12466   0.386   1.383   6.137
 3856SOL    HW112467   0.308   1.323   6.119
 3856SOL    HW212468   0.381   1.462   6.075
 3857SOL     OW12469   1.322   6.330   6.554
 3857SOL    HW112470   1.400   6.281   6.593
 3857SOL    HW212471   1.315   6.421   6.595
 3858SOL     OW12472   3.488   1.286   6.129
 3858SOL    HW112473   3.544   1.269   6.048
 3858SOL    HW212474   3.401   1.237   6.120
 3859SOL     OW12475   6.317   0.581   1.952
 3859SOL    HW112476   6.372   0.642   1.894
 3859SOL    HW212477   6.378   0.523   2.006
 3860SOL     OW12478   1.585   1.324   4.528
 3860SOL    HW112479   1.578   1.365   4.437
 3860SOL    HW212480   1.504   1.348   4.582
 3861SOL     OW12481   4.831   5.912   2.913
 3861SOL    HW112482   4.743   5.921   2.867
 3861SOL    HW212483   4.881   5.999   2.908
 3862SOL     OW12484   0.426   0.448   4.971
 3862SOL    HW112485   0.336   0.464   5.010
 3862SOL    HW212486   0.427   0.477   4.876
 3863SOL     OW12487   6.152   1.701   0.014
 3863SOL    HW112488   6.068   1.695   0.068
 3863SOL    HW212489   6.194   1.790   0.028
 3864SOL     OW12490   2.403   0.570   5.098
 3864SOL    HW112491   2.342   0.511   5.149
 3864SOL    HW212492   2.479   0.599   5.157
 3865SOL     OW12493   4.193   1.303   1.380
 3865SOL    HW112494   4.112   1.255   1.414
 3865SOL    HW212495   4.254   1.325   1.456
 3866SOL     OW12496   3.910   0.764   0.235
 3866SOL    HW112497   3.899   0.679   0.287
 3866SOL    HW212498   3.905   0.842   0.296
 3867SOL     OW12499   0.821   4.586   3.447
 3867SOL    HW112500   0.781   4.525   3.516
 3867SOL    HW212501   0.818   4.541   3.357
 3868SOL     OW12502   3.365   0.085   0.341
 3868SOL    HW112503   3.461   0.061   0.327
 3868SOL    HW212504   3.356   0.185   0.342
 3869SOL     OW12505   6.677   2.850   3.850
 3869SOL    HW112506   6.594   2.906   3.860
 3869SOL    HW212507   6.712   2.827   3.941
 3870SOL     OW12508   7.005   6.401   0.646
 3870SOL    HW112509   6.994   6.350   0.732
 3870SOL    HW212510   6.934   6.372   0.582
 3871SOL     OW12511   3.506   0.741   3.022
 3871SOL    HW112512   3.508   0.804   3.100
 3871SOL    HW212513   3.418   0.694   3.020
 3872SOL     OW12514   3.207   3.380   4.003
 3872SOL    HW112515   3.138   3.401   3.934
 3872SOL    HW212516   3.295   3.420   3.976
 3873SOL     OW12517   5.929   4.167   1.053
 3873SOL    HW112518   6.009   4.163   1.112
 3873SOL    HW212519   5.883   4.255   1.064
 3874SOL     OW12520   4.404   0.242   0.026
 3874SOL    HW112521   4.416   0.209   6.960
 3874SOL    HW212522   4.307   0.239   0.050
 3875SOL     OW12523   2.149   3.305   3.173
 3875SOL    HW112524   2.236   3.297   3.124
 3875SOL    HW212525   2.158   3.373   3.246
 3876SOL     OW12526   3.816   5.477   1.083
 3876SOL    HW112527   3.730   5.442   1.120
 3876SOL    HW212528   3.893   5.443   1.137
 3877SOL     OW12529   5.613   2.416   1.376
 3877SOL    HW112530   5.558   2.484   1.426
 3877SOL    HW212531   5.653   2.351   1.441
 3878SOL     OW12532   4.507   6.297   4.659
 3878SOL    HW112533   4.519   6.264   4.565
 3878SOL    HW212534   4.455   6.382   4.658
 3879SOL     OW12535   6.124   5.754   0.852
 3879SOL    HW112536   6.082   5.681   0.797
 3879SOL    HW212537   6.065   5.774   0.930
 3880SOL     OW12538   5.116   3.965   4.594
 3880SOL    HW112539   5.168   3.934   4.515
 3880SOL    HW212540   5.144   3.913   4.675
 3881SOL     OW12541   1.514   3.518   1.274
 3881SOL    HW112542   1.452   3.562   1.340
 3881SOL    HW212543   1.553   3.435   1.315
 3882SOL     OW12544   0.804   1.293   5.911
 3882SOL    HW112545   0.762   1.383   5.915
 3882SOL    HW212546   0.734   1.222   5.921
 3883SOL     OW12547   3.788   1.381   2.107
 3883SOL    HW112548   3.741   1.463   2.077
 3883SOL    HW212549   3.865   1.406   2.167
 3884SOL     OW12550   1.009   6.128   2.094
 3884SOL    HW112551   1.024   6.030   2.107
 3884SOL    HW212552   0.979   6.168   2.181
 3885SOL     OW12553   6.359   5.597   2.622
 3885SOL    HW112554   6.457   5.607   2.635
 3885SOL    HW212555   6.313   5.683   2.646
 3886SOL     OW12556   4.821   5.770   5.084
 3886SOL    HW112557   4.750   5.836   5.061
 3886SOL    HW212558   4.889   5.767   5.010
 3887SOL     OW12559   1.272   0.148   6.890
 3887SOL    HW112560   1.279   0.229   6.949
 3887SOL    HW212561   1.360   0.131   6.847
 3888SOL     OW12562   6.418   0.300   5.585
 3888SOL    HW112563   6.344   0.291   5.518
 3888SOL    HW212564   6.477   0.376   5.559
 3889SOL     OW12565   6.614   3.876   0.457
 3889SOL    HW112566   6.687   3.819   0.495
 3889SOL    HW212567   6.539   3.883   0.523
 3890SOL     OW12568   6.436   4.689   3.125
 3890SOL    HW112569   6.343   4.725   3.128
 3890SOL    HW212570   6.485   4.716   3.208
 3891SOL     OW12571   5.571   3.847   4.389
 3891SOL    HW112572   5.505   3.833   4.316
 3891SOL    HW212573   5.641   3.912   4.359
 3892SOL     OW12574   0.006   1.998   1.573
 3892SOL    HW112575   0.003   2.090   1.610
 3892SOL    HW212576   0.036   1.934   1.644
 3893SOL     OW12577   4.157   3.674   6.948
 3893SOL    HW112578   4.222   3.635   6.883
 3893SOL    HW212579   4.205   3.699   0.005
 3894SOL     OW12580   4.568   0.592   0.513
 3894SOL    HW112581   4.637   0.586   0.585
 3894SOL    HW212582   4.569   0.684   0.474
 3895SOL     OW12583   1.271   0.654   5.807
 3895SOL    HW112584   1.267   0.743   5.853
 3895SOL    HW212585   1.178   0.620   5.791
 3896SOL     OW12586   6.876   1.082   5.353
 3896SOL    HW112587   6.802   1.042   5.407
 3896SOL    HW212588   6.841   1.107   5.262
 3897SOL     OW12589   3.697   6.048   2.571
 3897SOL    HW112590   3.624   5.982   2.556
 3897SOL    HW212591   3.720   6.091   2.483
 3898SOL     OW12592   2.831   2.975   6.025
 3898SOL    HW112593   2.765   3.032   6.074
 3898SOL    HW212594   2.856   2.897   6.082
 3899SOL     OW12595   4.396   6.790   5.292
 3899SOL    HW112596   4.460   6.862   5.267
 3899SOL    HW212597   4.307   6.830   5.315
 3900SOL     OW12598   4.811   3.207   3.618
 3900SOL    HW112599   4.834   3.304   3.612
 3900SOL    HW212600   4.832   3.162   3.531
 3901SOL     OW12601   2.698   0.566   5.584
 3901SOL    HW112602   2.614   0.533   5.540
 3901SOL    HW212603   2.684   0.570   5.683
 3902SOL     OW12604   6.217   3.052   1.902
 3902SOL    HW112605   6.198   3.086   1.809
 3902SOL    HW212606   6.151   2.980   1.924
 3903SOL     OW12607   3.895   5.602   6.829
 3903SOL    HW112608   3.825   5.584   6.759
 3903SOL    HW212609   3.978   5.635   6.785
 3904SOL     OW12610   2.666   1.191   5.546
 3904SOL    HW112611   2.632   1.263   5.606
 3904SOL    HW212612   2.648   1.101   5.587
 3905SOL     OW12613   0.544   0.177   6.504
 3905SOL    HW112614   0.630   0.142   6.466
 3905SOL    HW212615   0.483   0.200   6.429
 3906SOL     OW12616   5.724   6.077   5.348
 3906SOL    HW112617   5.648   6.039   5.401
 3906SOL    HW212618   5.792   6.006   5.332
 3907SOL     OW12619   5.818   1.088   3.678
 3907SOL    HW112620   5.757   1.167   3.679
 3907SOL    HW212621   5.784   1.017   3.739
 3908SOL     OW12622   1.296   2.255   0.325
 3908SOL    HW112623   1.245   2.170   0.331
 3908SOL    HW212624   1.390   2.236   0.296
 3909SOL     OW12625   6.933   5.935   5.571
 3909SOL    HW112626   6.905   5.889   5.486
 3909SOL    HW212627   6.901   6.030   5.569
 3910SOL     OW12628   3.812   3.453   2.755
 3910SOL    HW112629   3.785   3.431   2.662
 3910SOL    HW212630   3.904   3.492   2.755
 3911SOL     OW12631   4.384   1.650   5.938
 3911SOL    HW112632   4.376   1.741   5.979
 3911SOL    HW212633   4.473   1.611   5.961
 3912SOL     OW12634   4.839   0.910   5.048
 3912SOL    HW112635   4.884   0.966   4.979
 3912SOL    HW212636   4.749   0.949   5.069
 3913SOL     OW12637   2.273   6.731   6.681
 3913SOL    HW112638   2.211   6.800   6.718
 3913SOL    HW212639   2.224   6.672   6.617
 3914SOL     OW12640   3.182   0.863   0.905
 3914SOL    HW112641   3.238   0.885   0.985
 3914SOL    HW212642   3.195   0.933   0.836
 3915SOL     OW12643   4.555   5.145   1.727
 3915SOL    HW112644   4.573   5.241   1.704
 3915SOL    HW212645   4.459   5.135   1.755
 3916SOL     OW12646   1.145   0.075   4.134
 3916SOL    HW112647   1.149   7.003   4.146
 3916SOL    HW212648   1.084   0.097   4.057
 3917SOL     OW12649   6.127   6.045   0.131
 3917SOL    HW112650   6.065   6.122   0.121
 3917SOL    HW212651   6.222   6.076   0.120
 3918SOL     OW12652   5.033   6.204   1.347
 3918SOL    HW112653   4.987   6.163   1.268
 3918SOL    HW212654   4.981   6.184   1.430
 3919SOL     OW12655   3.154   6.351   6.791
 3919SOL    HW112656   3.069   6.370   6.742
 3919SOL    HW212657   3.194   6.436   6.824
 3920SOL     OW12658   3.453   3.091   0.724
 3920SOL    HW112659   3.395   3.085   0.805
 3920SOL    HW212660   3.483   2.999   0.697
 3921SOL     OW12661   0.609   3.544   1.216
 3921SOL    HW112662   0.526   3.522   1.267
 3921SOL    HW212663   0.677   3.471   1.227
 3922SOL     OW12664   6.706   3.685   1.878
 3922SOL    HW112665   6.789   3.634   1.857
 3922SOL    HW212666   6.689   3.681   1.976
 3923SOL     OW12667   6.269   1.687   6.787
 3923SOL    HW112668   6.236   1.629   6.712
 3923SOL    HW212669   6.197   1.696   6.855
 3924SOL     OW12670   0.402   5.023   3.430
 3924SOL    HW112671   0.316   4.987   3.394
 3924SOL    HW212672   0.386   5.071   3.516
 3925SOL     OW12673   3.078   4.969   1.108
 3925SOL    HW112674   3.031   4.912   1.175
 3925SOL    HW212675   3.140   5.031   1.155
 3926SOL     OW12676   0.142   5.878   3.144
 3926SOL    HW112677   0.117   5.941   3.071
 3926SOL    HW212678   0.110   5.786   3.122
 3927SOL     OW12679   6.645   2.663   3.475
 3927SOL    HW112680   6.582   2.618   3.412
 3927SOL    HW212681   6.740   2.641   3.450
 3928SOL     OW12682   3.430   6.343   5.751
 3928SOL    HW112683   3.433   6.275   5.677
 3928SOL    HW212684   3.429   6.435   5.711
 3929SOL     OW12685   0.095   0.802   5.379
 3929SOL    HW112686   0.063   0.820   5.286
 3929SOL    HW212687   0.101   0.703   5.393
 3930SOL     OW12688   2.409   1.732   4.277
 3930SOL    HW112689   2.508   1.723   4.267
 3930SOL    HW212690   2.363   1.662   4.222
 3931SOL     OW12691   1.711   1.402   1.843
 3931SOL    HW112692   1.676   1.310   1.828
 3931SOL    HW212693   1.810   1.398   1.860
 3932SOL     OW12694   1.740   4.474   3.534
 3932SOL    HW112695   1.771   4.467   3.629
 3932SOL    HW212696   1.809   4.523   3.480
 3933SOL     OW12697   2.356   5.954   6.788
 3933SOL    HW112698   2.413   6.012   6.846
 3933SOL    HW212699   2.388   5.959   6.694
 3934SOL     OW12700   6.850   1.526   0.551
 3934SOL    HW112701   6.881   1.517   0.646
 3934SOL    HW212702   6.813   1.618   0.537
 3935SOL     OW12703   2.648   6.685   0.141
 3935SOL    HW112704   2.652   6.585   0.152
 3935SOL    HW212705   2.696   6.729   0.217
 3936SOL     OW12706   0.548   4.972   5.553
 3936SOL    HW112707   0.480   4.912   5.593
 3936SOL    HW212708   0.637   4.926   5.551
 3937SOL     OW12709   6.835   1.453   3.423
 3937SOL    HW112710   6.770   1.515   3.465
 3937SOL    HW212711   6.846   1.372   3.480
 3938SOL     OW12712   0.534   1.826   3.964
 3938SOL    HW112713   0.495   1.916   3.948
 3938SOL    HW212714   0.627   1.822   3.929
 3939SOL     OW12715   2.431   1.819   2.905
 3939SOL    HW112716   2.454   1.894   2.967
 3939SOL    HW212717   2.350   1.844   2.852
 3940SOL     OW12718   4.822   5.387   1.099
 3940SOL    HW112719   4.760   5.343   1.164
 3940SOL    HW212720   4.906   5.333   1.092
 3941SOL     OW12721   4.390   3.124   6.487
 3941SOL    HW112722   4.471   3.067   6.473
 3941SOL    HW212723   4.414   3.220   6.476
 3942SOL     OW12724   0.530   6.960   6.808
 3942SOL    HW112725   0.563   0.025   6.790
 3942SOL    HW212726   0.474   6.961   6.891
 3943SOL     OW12727   6.806   3.618   3.300
 3943SOL    HW112728   6.896   3.588   3.270
 3943SOL    HW212729   6.741   3.608   3.224
 3944SOL     OW12730   4.727   2.827   5.099
 3944SOL    HW112731   4.688   2.810   5.190
 3944SOL    HW212732   4.806   2.887   5.107
 3945SOL     OW12733   0.161   1.691   0.921
 3945SOL    HW112734   0.198   1.656   1.007
 3945SOL    HW212735   0.156   1.791   0.925
 3946SOL     OW12736   5.472   5.999   5.460
 3946SOL    HW112737   5.394   6.058   5.483
 3946SOL    HW212738   5.458   5.959   5.370
 3947SOL     OW12739   5.743   5.865   0.700
 3947SOL    HW112740   5.644   5.867   0.683
 3947SOL    HW212741   5.759   5.847   0.796
 3948SOL     OW12742   1.587   5.702   1.670
 3948SOL    HW112743   1.647   5.721   1.592
 3948SOL    HW212744   1.580   5.784   1.727
 3949SOL     OW12745   4.949   0.340   3.504
 3949SOL    HW112746   4.943   0.436   3.531
 3949SOL    HW212747   5.035   0.325   3.455
 3950SOL     OW12748   1.794   4.138   1.275
 3950SOL    HW112749   1.717   4.124   1.214
 3950SOL    HW212750   1.780   4.222   1.327
 3951SOL     OW12751   5.835   6.434   0.698
 3951SOL    HW112752   5.919   6.439   0.752
 3951SOL    HW212753   5.855   6.397   0.608
 3952SOL     OW12754   6.445   3.371   2.945
 3952SOL    HW112755   6.449   3.316   3.029
 3952SOL    HW212756   6.537   3.389   2.912
 3953SOL     OW12757   3.991   4.591   1.677
 3953SOL    HW112758   4.090   4.581   1.680
 3953SOL    HW212759   3.957   4.616   1.767
 3954SOL     OW12760   4.664   4.936   5.101
 3954SOL    HW112761   4.588   4.880   5.069
 3954SOL    HW212762   4.629   5.025   5.131
 3955SOL     OW12763   3.134   5.672   6.669
 3955SOL    HW112764   3.077   5.754   6.676
 3955SOL    HW212765   3.208   5.676   6.736
 3956SOL     OW12766   0.209   0.902   3.667
 3956SOL    HW112767   0.261   0.988   3.670
 3956SOL    HW212768   0.257   0.835   3.611
 3957SOL     OW12769   4.597   6.440   4.045
 3957SOL    HW112770   4.653   6.493   3.982
 3957SOL    HW212771   4.647   6.425   4.130
 3958SOL     OW12772   6.030   0.985   4.919
 3958SOL    HW112773   5.983   1.008   4.834
 3958SOL    HW212774   6.084   1.064   4.950
 3959SOL     OW12775   4.166   6.788   0.519
 3959SOL    HW112776   4.154   6.774   0.420
 3959SOL    HW212777   4.086   6.836   0.556
 3960SOL     OW12778   4.765   1.650   6.865
 3960SOL    HW112779   4.848   1.643   6.809
 3960SOL    HW212780   4.695   1.590   6.828
 3961SOL     OW12781   5.329   2.042   2.508
 3961SOL    HW112782   5.339   2.138   2.532
 3961SOL    HW212783   5.364   2.026   2.416
 3962SOL     OW12784   2.535   4.154   0.224
 3962SOL    HW112785   2.571   4.121   0.311
 3962SOL    HW212786   2.523   4.253   0.227
 3963SOL     OW12787   4.578   4.809   4.124
 3963SOL    HW112788   4.554   4.899   4.160
 3963SOL    HW212789   4.505   4.744   4.146
 3964SOL     OW12790   4.732   4.964   3.561
 3964SOL    HW112791   4.690   4.956   3.652
 3964SOL    HW212792   4.693   5.042   3.513
 3965SOL     OW12793   4.701   3.285   5.971
 3965SOL    HW112794   4.679   3.310   6.066
 3965SOL    HW212795   4.623   3.307   5.912
 3966SOL     OW12796   5.276   6.058   6.853
 3966SOL    HW112797   5.177   6.046   6.846
 3966SOL    HW212798   5.296   6.151   6.883
 3967SOL     OW12799   2.026   3.480   2.282
 3967SOL    HW112800   2.085   3.560   2.293
 3967SOL    HW212801   1.933   3.502   2.311
 3968SOL     OW12802   5.216   0.474   1.343
 3968SOL    HW112803   5.227   0.559   1.292
 3968SOL    HW212804   5.209   0.397   1.280
 3969SOL     OW12805   1.566   4.089   2.236
 3969SOL    HW112806   1.652   4.083   2.185
 3969SOL    HW212807   1.519   4.000   2.232
 3970SOL     OW12808   6.282   6.324   4.066
 3970SOL    HW112809   6.354   6.266   4.103
 3970SOL    HW212810   6.269   6.403   4.125
 3971SOL     OW12811   2.865   5.263   2.360
 3971SOL    HW112812   2.867   5.187   2.426
 3971SOL    HW212813   2.958   5.282   2.328
 3972SOL     OW12814   1.455   4.490   1.008
 3972SOL    HW112815   1.388   4.420   0.981
 3972SOL    HW212816   1.540   4.476   0.955
 3973SOL     OW12817   1.881   5.333   6.902
 3973SOL    HW112818   1.964   5.291   6.938
 3973SOL    HW212819   1.809   5.264   6.893
 3974SOL     OW12820   2.078   0.712   4.521
 3974SOL    HW112821   2.152   0.777   4.535
 3974SOL    HW212822   1.991   0.754   4.547
 3975SOL     OW12823   5.422   1.163   4.877
 3975SOL    HW112824   5.360   1.118   4.941
 3975SOL    HW212825   5.386   1.154   4.784
 3976SOL     OW12826   1.871   6.311   1.600
 3976SOL    HW112827   1.970   6.310   1.584
 3976SOL    HW212828   1.824   6.309   1.512
 3977SOL     OW12829   2.731   4.104   5.572
 3977SOL    HW112830   2.732   4.188   5.516
 3977SOL    HW212831   2.760   4.125   5.665
 3978SOL     OW12832   5.917   4.866   4.385
 3978SOL    HW112833   5.838   4.877   4.324
 3978SOL    HW212834   5.949   4.771   4.381
 3979SOL     OW12835   2.791   6.807   0.937
 3979SOL    HW112836   2.752   6.823   1.028
 3979SOL    HW212837   2.889   6.791   0.945
 3980SOL     OW12838   5.996   5.928   0.336
 3980SOL    HW112839   6.054   5.976   0.270
 3980SOL    HW212840   6.053   5.866   0.390
 3981SOL     OW12841   2.515   0.817   0.373
 3981SOL    HW112842   2.610   0.795   0.352
 3981SOL    HW212843   2.456   0.747   0.335
 3982SOL     OW12844   2.397   0.012   3.625
 3982SOL    HW112845   2.477   6.979   3.626
 3982SOL    HW212846   2.416   0.096   3.676
 3983SOL     OW12847   5.518   4.906   3.882
 3983SOL    HW112848   5.558   4.994   3.905
 3983SOL    HW212849   5.566   4.833   3.932
 3984SOL     OW12850   6.527   1.441   3.291
 3984SOL    HW112851   6.601   1.484   3.238
 3984SOL    HW212852   6.457   1.407   3.228
 3985SOL     OW12853   2.955   4.343   6.659
 3985SOL    HW112854   2.988   4.406   6.588
 3985SOL    HW212855   2.860   4.366   6.682
 3986SOL     OW12856   5.447   2.567   3.157
 3986SOL    HW112857   5.479   2.660   3.137
 3986SOL    HW212858   5.402   2.529   3.076
 3987SOL     OW12859   3.634   5.199   3.771
 3987SOL    HW112860   3.657   5.141   3.693
 3987SOL    HW212861   3.541   5.234   3.761
 3988SOL     OW12862   3.486   4.081   6.977
 3988SOL    HW112863   3.514   4.070   0.045
 3988SOL    HW212864   3.386   4.083   6.972
 3989SOL     OW12865   6.402   2.655   0.074
 3989SOL    HW112866   6.393   2.686   0.169
 3989SOL    HW212867   6.452   2.722   0.021
 3990SOL     OW12868   4.996   2.247   2.513
 3990SOL    HW112869   5.067   2.317   2.516
 3990SOL    HW212870   4.908   2.289   2.493
 3991SOL     OW12871   5.564   1.100   2.897
 3991SOL    HW112872   5.559   1.010   2.853
 3991SOL    HW212873   5.608   1.165   2.835
 3992SOL     OW12874   3.754   1.900   0.263
 3992SOL    HW112875   3.678   1.949   0.306
 3992SOL    HW212876   3.830   1.962   0.249
 3993SOL     OW12877   1.619   1.913   3.152
 3993SOL    HW112878   1.532   1.956   3.126
 3993SOL    HW212879   1.628   1.826   3.105
 3994SOL     OW12880   1.988   0.333   5.445
 3994SOL    HW112881   1.995   0.310   5.542
 3994SOL    HW212882   1.949   0.424   5.436
 3995SOL     OW12883   2.450   3.422   6.193
 3995SOL    HW112884   2.498   3.336   6.177
 3995SOL    HW212885   2.353   3.404   6.208
 3996SOL     OW12886   1.288   0.107   4.391
 3996SOL    HW112887   1.322   0.025   4.439
 3996SOL    HW212888   1.258   0.081   4.299
 3997SOL     OW12889   5.276   1.665   4.066
 3997SOL    HW112890   5.239   1.630   3.981
 3997SOL    HW212891   5.375   1.647   4.070
 3998SOL     OW12892   4.280   1.315   3.983
 3998SOL    HW112893   4.301   1.405   3.943
 3998SOL    HW212894   4.320   1.310   4.074
 3999SOL     OW12895   5.989   3.498   3.912
 3999SOL    HW112896   6.087   3.517   3.920
 3999SOL    HW212897   5.970   3.405   3.943
 4000SOL     OW12898   3.174   6.313   3.319
 4000SOL    HW112899   3.081   6.280   3.336
 4000SOL    HW212900   3.196   6.301   3.222
 4001SOL     OW12901   2.399   2.088   3.591
 4001SOL    HW112902   2.342   2.011   3.561
 4001SOL    HW212903   2.343   2.153   3.643
 4002SOL     OW12904   3.131   3.946   0.547
 4002SOL    HW112905   3.139   3.892   0.463
 4002SOL    HW212906   3.173   4.036   0.534
 4003SOL     OW12907   3.230   6.782   4.154
 4003SOL    HW112908   3.298   6.710   4.144
 4003SOL    HW212909   3.234   6.818   4.248
 4004SOL     OW12910   5.110   1.884   4.637
 4004SOL    HW112911   5.046   1.809   4.619
 4004SOL    HW212912   5.191   1.849   4.683
 4005SOL     OW12913   5.244   4.616   0.035
 4005SOL    HW112914   5.247   4.713   0.012
 4005SOL    HW212915   5.150   4.583   0.028
 4006SOL     OW12916   4.616   5.245   2.463
 4006SOL    HW112917   4.711   5.274   2.478
 4006SOL    HW212918   4.599   5.236   2.365
 4007SOL     OW12919   0.262   2.184   0.651
 4007SOL    HW112920   0.265   2.256   0.719
 4007SOL    HW212921   0.344   2.126   0.659
 4008SOL     OW12922   3.049   1.995   3.796
 4008SOL    HW112923   3.055   1.904   3.754
 4008SOL    HW212924   3.139   2.023   3.829
 4009SOL     OW12925   4.215   3.394   1.428
 4009SOL    HW112926   4.143   3.416   1.493
 4009SOL    HW212927   4.247   3.300   1.444
 4010SOL     OW12928   2.755   3.092   1.163
 4010SOL    HW112929   2.827   3.127   1.103
 4010SOL    HW212930   2.675   3.067   1.108
 4011SOL     OW12931   0.763   0.953   1.993
 4011SOL    HW112932   0.756   0.867   1.942
 4011SOL    HW212933   0.742   1.030   1.932
 4012SOL     OW12934   5.478   4.836   1.799
 4012SOL    HW112935   5.475   4.873   1.706
 4012SOL    HW212936   5.528   4.899   1.858
 4013SOL     OW12937   3.007   1.565   5.491
 4013SOL    HW112938   3.003   1.466   5.488
 4013SOL    HW212939   3.053   1.594   5.575
 4014SOL     OW12940   5.117   6.686   2.309
 4014SOL    HW112941   5.122   6.589   2.286
 4014SOL    HW212942   5.208   6.727   2.299
 4015SOL     OW12943   5.258   4.732   6.156
 4015SOL    HW112944   5.177   4.788   6.142
 4015SOL    HW212945   5.286   4.692   6.068
 4016SOL     OW12946   2.619   5.926   6.329
 4016SOL    HW112947   2.597   5.878   6.414
 4016SOL    HW212948   2.584   5.874   6.251
 4017SOL     OW12949   0.354   5.715   0.479
 4017SOL    HW112950   0.413   5.795   0.491
 4017SOL    HW212951   0.401   5.634   0.514
 4018SOL     OW12952   4.357   6.386   2.854
 4018SOL    HW112953   4.359   6.413   2.950
 4018SOL    HW212954   4.364   6.286   2.847
 4019SOL     OW12955   5.832   3.464   2.592
 4019SOL    HW112956   5.830   3.555   2.550
 4019SOL    HW212957   5.772   3.402   2.541
 4020SOL     OW12958   4.637   1.646   5.651
 4020SOL    HW112959   4.584   1.581   5.705
 4020SOL    HW212960   4.686   1.708   5.713
 4021SOL     OW12961   4.003   4.989   6.262
 4021SOL    HW112962   3.915   4.976   6.216
 4021SOL    HW212963   4.000   4.946   6.352
 4022SOL     OW12964   4.691   0.853   6.579
 4022SOL    HW112965   4.637   0.937   6.578
 4022SOL    HW212966   4.633   0.776   6.606
 4023SOL     OW12967   6.157   1.633   4.425
 4023SOL    HW112968   6.143   1.672   4.516
 4023SOL    HW212969   6.070   1.598   4.389
 4024SOL     OW12970   3.768   6.724   3.518
 4024SOL    HW112971   3.835   6.757   3.452
 4024SOL    HW212972   3.814   6.669   3.588
 4025SOL     OW12973   0.781   5.327   3.534
 4025SOL    HW112974   0.773   5.360   3.628
 4025SOL    HW212975   0.747   5.233   3.529
 4026SOL     OW12976   5.159   5.459   4.183
 4026SOL    HW112977   5.251   5.434   4.214
 4026SOL    HW212978   5.160   5.553   4.149
 4027SOL     OW12979   3.832   4.624   1.446
 4027SOL    HW112980   3.741   4.652   1.477
 4027SOL    HW212981   3.893   4.616   1.525
 4028SOL     OW12982   1.467   2.446   4.174
 4028SOL    HW112983   1.557   2.404   4.187
 4028SOL    HW212984   1.466   2.537   4.214
 4029SOL     OW12985   2.839   4.139   5.833
 4029SOL    HW112986   2.924   4.108   5.874
 4029SOL    HW212987   2.841   4.239   5.822
 4030SOL     OW12988   0.892   1.694   5.732
 4030SOL    HW112989   0.854   1.771   5.681
 4030SOL    HW212990   0.984   1.716   5.763
 4031SOL     OW12991   4.802   5.567   3.651
 4031SOL    HW112992   4.722   5.622   3.673
 4031SOL    HW212993   4.814   5.496   3.720
 4032SOL     OW12994   6.361   6.618   3.551
 4032SOL    HW112995   6.393   6.571   3.634
 4032SOL    HW212996   6.321   6.706   3.576
 4033SOL     OW12997   3.262   2.978   3.869
 4033SOL    HW112998   3.226   3.043   3.936
 4033SOL    HW212999   3.347   2.939   3.902
 4034SOL     OW13000   5.668   1.235   4.667
 4034SOL    HW113001   5.610   1.261   4.744
 4034SOL    HW213002   5.614   1.182   4.602
 4035SOL     OW13003   0.244   3.930   0.377
 4035SOL    HW113004   0.323   3.989   0.396
 4035SOL    HW213005   0.271   3.858   0.313
 4036SOL     OW13006   6.068   6.380   2.529
 4036SOL    HW113007   6.000   6.332   2.585
 4036SOL    HW213008   6.023   6.455   2.479
 4037SOL     OW13009   1.346   2.810   6.502
 4037SOL    HW113010   1.272   2.746   6.482
 4037SOL    HW213011   1.434   2.763   6.492
 4038SOL     OW13012   5.017   4.855   2.609
 4038SOL    HW113013   4.926   4.813   2.611
 4038SOL    HW213014   5.038   4.884   2.516
 4039SOL     OW13015   5.402   5.466   0.165
 4039SOL    HW113016   5.437   5.378   0.135
 4039SOL    HW213017   5.465   5.506   0.232
 4040SOL     OW13018   2.872   0.028   0.823
 4040SOL    HW113019   2.841   0.044   0.729
 4040SOL    HW213020   2.837   6.967   0.856
 4041SOL     OW13021   0.886   6.132   2.365
 4041SOL    HW113022   0.790   6.112   2.342
 4041SOL    HW213023   0.921   6.061   2.425
 4042SOL     OW13024   5.973   5.651   2.394
 4042SOL    HW113025   6.028   5.676   2.315
 4042SOL    HW213026   6.027   5.595   2.456
 4043SOL     OW13027   5.504   2.015   3.158
 4043SOL    HW113028   5.537   2.083   3.093
 4043SOL    HW213029   5.570   2.003   3.231
 4044SOL     OW13030   5.744   0.132   3.577
 4044SOL    HW113031   5.705   0.127   3.669
 4044SOL    HW213032   5.733   0.224   3.542
 4045SOL     OW13033   2.772   4.137   6.279
 4045SOL    HW113034   2.861   4.129   6.323
 4045SOL    HW213035   2.780   4.198   6.200
 4046SOL     OW13036   0.922   2.073   1.778
 4046SOL    HW113037   1.006   2.106   1.736
 4046SOL    HW213038   0.850   2.142   1.768
 4047SOL     OW13039   2.866   3.800   1.440
 4047SOL    HW113040   2.799   3.741   1.485
 4047SOL    HW213041   2.876   3.885   1.491
 4048SOL     OW13042   5.658   0.653   1.270
 4048SOL    HW113043   5.739   0.626   1.324
 4048SOL    HW213044   5.688   0.686   1.181
 4049SOL     OW13045   6.498   6.002   6.202
 4049SOL    HW113046   6.434   6.075   6.177
 4049SOL    HW213047   6.528   6.016   6.296
 4050SOL     OW13048   1.841   6.309   6.942
 4050SOL    HW113049   1.921   6.370   6.938
 4050SOL    HW213050   1.827   6.279   0.010
 4051SOL     OW13051   3.031   4.260   0.731
 4051SOL    HW113052   2.936   4.279   0.758
 4051SOL    HW213053   3.053   4.165   0.750
 4052SOL     OW13054   0.583   0.511   1.053
 4052SOL    HW113055   0.622   0.573   1.121
 4052SOL    HW213056   0.552   0.564   0.974
 4053SOL     OW13057   3.045   4.844   3.798
 4053SOL    HW113058   2.992   4.882   3.722
 4053SOL    HW213059   3.128   4.898   3.812
 4054SOL     OW13060   2.596   2.665   0.652
 4054SOL    HW113061   2.578   2.669   0.750
 4054SOL    HW213062   2.536   2.596   0.610
 4055SOL     OW13063   2.635   2.640   6.280
 4055SOL    HW113064   2.551   2.614   6.232
 4055SOL    HW213065   2.612   2.685   6.366
 4056SOL     OW13066   4.067   3.392   0.258
 4056SOL    HW113067   4.159   3.414   0.292
 4056SOL    HW213068   4.018   3.477   0.237
 4057SOL     OW13069   5.167   3.015   0.318
 4057SOL    HW113070   5.160   2.944   0.248
 4057SOL    HW213071   5.227   3.088   0.286
 4058SOL     OW13072   2.198   1.572   4.761
 4058SOL    HW113073   2.204   1.476   4.785
 4058SOL    HW213074   2.288   1.605   4.730
 4059SOL     OW13075   2.017   2.329   3.956
 4059SOL    HW113076   1.918   2.328   3.944
 4059SOL    HW213077   2.039   2.316   4.053
 4060SOL     OW13078   3.893   5.236   4.326
 4060SOL    HW113079   3.933   5.254   4.416
 4060SOL    HW213080   3.816   5.173   4.335
 4061SOL     OW13081   3.368   4.498   1.658
 4061SOL    HW113082   3.355   4.402   1.683
 4061SOL    HW213083   3.418   4.545   1.731
 4062SOL     OW13084   3.596   1.496   2.335
 4062SOL    HW113085   3.509   1.448   2.322
 4062SOL    HW213086   3.662   1.434   2.377
 4063SOL     OW13087   3.311   6.575   5.593
 4063SOL    HW113088   3.267   6.502   5.541
 4063SOL    HW213089   3.339   6.648   5.531
 4064SOL     OW13090   1.587   0.809   2.682
 4064SOL    HW113091   1.531   0.748   2.626
 4064SOL    HW213092   1.676   0.766   2.700
 4065SOL     OW13093   0.410   6.697   1.243
 4065SOL    HW113094   0.438   6.659   1.155
 4065SOL    HW213095   0.456   6.784   1.259
 4066SOL     OW13096   5.415   4.452   1.681
 4066SOL    HW113097   5.381   4.468   1.588
 4066SOL    HW213098   5.476   4.527   1.707
 4067SOL     OW13099   5.300   1.918   3.291
 4067SOL    HW113100   5.206   1.898   3.265
 4067SOL    HW213101   5.351   1.949   3.211
 4068SOL     OW13102   4.634   1.047   4.915
 4068SOL    HW113103   4.652   1.133   4.963
 4068SOL    HW213104   4.689   1.043   4.832
 4069SOL     OW13105   5.230   4.733   1.105
 4069SOL    HW113106   5.248   4.802   1.176
 4069SOL    HW213107   5.151   4.677   1.132
 4070SOL     OW13108   2.025   3.779   2.875
 4070SOL    HW113109   2.086   3.833   2.933
 4070SOL    HW213110   2.056   3.784   2.780
 4071SOL     OW13111   1.010   0.605   5.073
 4071SOL    HW113112   1.012   0.553   5.159
 4071SOL    HW213113   1.066   0.687   5.083
 4072SOL     OW13114   2.054   6.851   4.306
 4072SOL    HW113115   2.048   6.772   4.367
 4072SOL    HW213116   2.001   6.927   4.345
 4073SOL     OW13117   2.409   5.915   6.110
 4073SOL    HW113118   2.462   5.952   6.034
 4073SOL    HW213119   2.430   5.818   6.122
 4074SOL     OW13120   0.508   2.321   1.678
 4074SOL    HW113121   0.498   2.221   1.676
 4074SOL    HW213122   0.491   2.357   1.586
 4075SOL     OW13123   4.027   1.874   2.559
 4075SOL    HW113124   3.950   1.822   2.521
 4075SOL    HW213125   3.993   1.933   2.633
 4076SOL     OW13126   2.115   3.761   5.148
 4076SOL    HW113127   2.199   3.774   5.201
 4076SOL    HW213128   2.086   3.849   5.111
 4077SOL     OW13129   2.953   0.293   0.769
 4077SOL    HW113130   3.042   0.323   0.735
 4077SOL    HW213131   2.963   0.203   0.813
 4078SOL     OW13132   6.531   4.218   1.728
 4078SOL    HW113133   6.482   4.219   1.641
 4078SOL    HW213134   6.560   4.125   1.749
 4079SOL     OW13135   1.100   1.423   3.435
 4079SOL    HW113136   1.191   1.463   3.428
 4079SOL    HW213137   1.049   1.441   3.351
 4080SOL     OW13138   3.394   3.475   0.944
 4080SOL    HW113139   3.302   3.449   0.971
 4080SOL    HW213140   3.460   3.408   0.979
 4081SOL     OW13141   2.575   1.516   5.245
 4081SOL    HW113142   2.639   1.592   5.259
 4081SOL    HW213143   2.505   1.520   5.316
 4082SOL     OW13144   0.874   2.542   5.734
 4082SOL    HW113145   0.818   2.563   5.654
 4082SOL    HW213146   0.964   2.585   5.724
 4083SOL     OW13147   5.874   4.256   3.541
 4083SOL    HW113148   5.845   4.348   3.515
 4083SOL    HW213149   5.804   4.190   3.515
 4084SOL     OW13150   4.663   2.274   2.948
 4084SOL    HW113151   4.599   2.350   2.936
 4084SOL    HW213152   4.714   2.260   2.863
 4085SOL     OW13153   3.656   5.546   1.541
 4085SOL    HW113154   3.670   5.529   1.639
 4085SOL    HW213155   3.623   5.639   1.528
 4086SOL     OW13156   6.706   5.494   6.316
 4086SOL    HW113157   6.671   5.470   6.407
 4086SOL    HW213158   6.655   5.572   6.280
 4087SOL     OW13159   2.462   0.184   2.556
 4087SOL    HW113160   2.399   0.143   2.490
 4087SOL    HW213161   2.482   0.118   2.628
 4088SOL     OW13162   6.632   0.984   5.465
 4088SOL    HW113163   6.558   1.011   5.527
 4088SOL    HW213164   6.592   0.955   5.378
 4089SOL     OW13165   6.940   6.253   4.262
 4089SOL    HW113166   6.924   6.284   4.356
 4089SOL    HW213167   6.871   6.294   4.202
 4090SOL     OW13168   1.896   6.855   4.912
 4090SOL    HW113169   1.984   6.888   4.877
 4090SOL    HW213170   1.822   6.889   4.853
 4091SOL     OW13171   1.349   5.141   1.224
 4091SOL    HW113172   1.325   5.197   1.304
 4091SOL    HW213173   1.309   5.181   1.142
 4092SOL     OW13174   4.847   3.169   4.909
 4092SOL    HW113175   4.917   3.240   4.918
 4092SOL    HW213176   4.758   3.208   4.931
 4093SOL     OW13177   5.936   5.242   2.912
 4093SOL    HW113178   5.942   5.145   2.933
 4093SOL    HW213179   5.841   5.272   2.919
 4094SOL     OW13180   0.184   4.899   6.956
 4094SOL    HW113181   0.281   4.900   6.931
 4094SOL    HW213182   0.152   4.804   6.959
 4095SOL     OW13183   0.119   4.298   0.532
 4095SOL    HW113184   0.199   4.312   0.590
 4095SOL    HW213185   0.122   4.363   0.455
 4096SOL     OW13186   2.023   1.623   6.490
 4096SOL    HW113187   1.985   1.553   6.428
 4096SOL    HW213188   2.074   1.578   6.563
 4097SOL     OW13189   0.151   4.131   5.272
 4097SOL    HW113190   0.248   4.106   5.275
 4097SOL    HW213191   0.118   4.125   5.177
 4098SOL     OW13192   2.252   4.601   2.744
 4098SOL    HW113193   2.346   4.568   2.733
 4098SOL    HW213194   2.216   4.630   2.656
 4099SOL     OW13195   4.275   4.061   6.596
 4099SOL    HW113196   4.320   4.041   6.509
 4099SOL    HW213197   4.335   4.034   6.672
 4100SOL     OW13198   1.428   0.941   3.399
 4100SOL    HW113199   1.448   0.959   3.495
 4100SOL    HW213200   1.375   0.857   3.391
 4101SOL     OW13201   6.566   0.597   6.829
 4101SOL    HW113202   6.537   0.518   6.774
 4101SOL    HW213203   6.665   0.609   6.819
 4102SOL     OW13204   1.682   0.474   6.967
 4102SOL    HW113205   1.588   0.505   6.984
 4102SOL    HW213206   1.738   0.489   0.021
 4103SOL     OW13207   0.820   6.751   2.133
 4103SOL    HW113208   0.850   6.819   2.066
 4103SOL    HW213209   0.873   6.667   2.120
 4104SOL     OW13210   0.096   6.132   2.579
 4104SOL    HW113211   0.083   6.194   2.502
 4104SOL    HW213212   0.180   6.155   2.627
 4105SOL     OW13213   4.821   1.280   1.276
 4105SOL    HW113214   4.774   1.262   1.189
 4105SOL    HW213215   4.831   1.195   1.327
 4106SOL     OW13216   0.223   1.608   3.641
 4106SOL    HW113217   0.194   1.696   3.679
 4106SOL    HW213218   0.192   1.534   3.700
 4107SOL     OW13219   0.815   5.666   6.244
 4107SOL    HW113220   0.766   5.747   6.277
 4107SOL    HW213221   0.904   5.660   6.288
 4108SOL     OW13222   0.297   5.031   4.171
 4108SOL    HW113223   0.264   4.969   4.242
 4108SOL    HW213224   0.366   5.092   4.210
 4109SOL     OW13225   6.476   5.535   3.008
 4109SOL    HW113226   6.571   5.563   2.993
 4109SOL    HW213227   6.456   5.455   2.951
 4110SOL     OW13228   4.593   3.124   0.420
 4110SOL    HW113229   4.548   3.051   0.471
 4110SOL    HW213230   4.665   3.085   0.363
 4111SOL     OW13231   6.416   4.341   5.526
 4111SOL    HW113232   6.357   4.404   5.575
 4111SOL    HW213233   6.409   4.250   5.567
 4112SOL     OW13234   4.594   6.862   4.733
 4112SOL    HW113235   4.644   6.948   4.725
 4112SOL    HW213236   4.615   6.804   4.655
 4113SOL     OW13237   4.571   4.454   4.768
 4113SOL    HW113238   4.514   4.472   4.848
 4113SOL    HW213239   4.539   4.509   4.691
 4114SOL     OW13240   6.189   1.772   3.490
 4114SOL    HW113241   6.258   1.705   3.516
 4114SOL    HW213242   6.168   1.831   3.568
 4115SOL     OW13243   2.973   5.348   3.456
 4115SOL    HW113244   2.897   5.332   3.392
 4115SOL    HW213245   2.948   5.314   3.546
 4116SOL     OW13246   5.418   2.627   3.421
 4116SOL    HW113247   5.346   2.692   3.443
 4116SOL    HW213248   5.409   2.599   3.325
 4117SOL     OW13249   1.610   2.438   2.625
 4117SOL    HW113250   1.510   2.444   2.627
 4117SOL    HW213251   1.640   2.371   2.694
 4118SOL     OW13252   6.530   5.999   6.461
 4118SOL    HW113253   6.468   6.063   6.508
 4118SOL    HW213254   6.625   6.026   6.478
 4119SOL     OW13255   2.670   0.613   3.602
 4119SOL    HW113256   2.571   0.604   3.599
 4119SOL    HW213257   2.712   0.541   3.547
 4120SOL     OW13258   2.653   1.304   6.557
 4120SOL    HW113259   2.580   1.336   6.497
 4120SOL    HW213260   2.740   1.302   6.507
 4121SOL     OW13261   0.120   7.000   2.871
 4121SOL    HW113262   0.049   0.000   2.936
 4121SOL    HW213263   0.207   6.991   2.918
 4122SOL     OW13264   6.786   5.375   4.657
 4122SOL    HW113265   6.712   5.414   4.602
 4122SOL    HW213266   6.858   5.444   4.669
 4123SOL     OW13267   3.740   5.074   3.235
 4123SOL    HW113268   3.782   5.163   3.251
 4123SOL    HW213269   3.727   5.060   3.137
 4124SOL     OW13270   6.583   6.287   0.596
 4124SOL    HW113271   6.552   6.344   0.520
 4124SOL    HW213272   6.608   6.197   0.562
 4125SOL     OW13273   5.386   2.461   2.282
 4125SOL    HW113274   5.333   2.545   2.294
 4125SOL    HW213275   5.396   2.416   2.371
 4126SOL     OW13276   1.350   3.044   2.145
 4126SOL    HW113277   1.321   2.969   2.086
 4126SOL    HW213278   1.271   3.100   2.169
 4127SOL     OW13279   3.859   2.121   4.048
 4127SOL    HW113280   3.942   2.116   4.104
 4127SOL    HW213281   3.783   2.155   4.104
 4128SOL     OW13282   0.772   3.199   1.590
 4128SOL    HW113283   0.772   3.267   1.517
 4128SOL    HW213284   0.776   3.245   1.679
 4129SOL     OW13285   3.584   2.845   0.647
 4129SOL    HW113286   3.601   2.819   0.553
 4129SOL    HW213287   3.520   2.780   0.689
 4130SOL     OW13288   6.319   2.757   1.566
 4130SOL    HW113289   6.299   2.825   1.636
 4130SOL    HW213290   6.234   2.732   1.519
 4131SOL     OW13291   5.397   0.535   2.189
 4131SOL    HW113292   5.446   0.602   2.244
 4131SOL    HW213293   5.387   0.568   2.095
 4132SOL     OW13294   6.696   4.427   4.126
 4132SOL    HW113295   6.775   4.383   4.169
 4132SOL    HW213296   6.726   4.481   4.048
 4133SOL     OW13297   5.567   6.595   1.357
 4133SOL    HW113298   5.663   6.606   1.382
 4133SOL    HW213299   5.522   6.685   1.359
 4134SOL     OW13300   2.698   3.235   1.373
 4134SOL    HW113301   2.711   3.169   1.299
 4134SOL    HW213302   2.787   3.264   1.409
 4135SOL     OW13303   0.162   2.079   2.832
 4135SOL    HW113304   0.184   2.082   2.735
 4135SOL    HW213305   0.246   2.067   2.885
 4136SOL     OW13306   0.368   4.152   1.398
 4136SOL    HW113307   0.448   4.092   1.394
 4136SOL    HW213308   0.356   4.186   1.492
 4137SOL     OW13309   1.894   3.004   0.633
 4137SOL    HW113310   1.810   3.030   0.680
 4137SOL    HW213311   1.872   2.974   0.540
 4138SOL     OW13312   4.708   5.837   0.651
 4138SOL    HW113313   4.779   5.772   0.680
 4138SOL    HW213314   4.709   5.916   0.713
 4139SOL     OW13315   1.717   1.834   2.821
 4139SOL    HW113316   1.755   1.926   2.835
 4139SOL    HW213317   1.790   1.772   2.791
 4140SOL     OW13318   2.638   2.446   4.023
 4140SOL    HW113319   2.711   2.499   4.065
 4140SOL    HW213320   2.676   2.366   3.978
 4141SOL     OW13321   3.973   6.484   6.564
 4141SOL    HW113322   3.982   6.534   6.650
 4141SOL    HW213323   4.030   6.529   6.494
 4142SOL     OW13324   6.579   4.045   2.425
 4142SOL    HW113325   6.542   4.102   2.351
 4142SOL    HW213326   6.666   4.083   2.456
 4143SOL     OW13327   5.737   3.191   1.060
 4143SOL    HW113328   5.693   3.204   0.971
 4143SOL    HW213329   5.747   3.279   1.106
 4144SOL     OW13330   5.761   1.526   0.712
 4144SOL    HW113331   5.855   1.495   0.730
 4144SOL    HW213332   5.714   1.541   0.799
 4145SOL     OW13333   0.828   6.260   0.428
 4145SOL    HW113334   0.908   6.207   0.398
 4145SOL    HW213335   0.818   6.341   0.370
 4146SOL     OW13336   5.461   6.599   3.382
 4146SOL    HW113337   5.479   6.671   3.449
 4146SOL    HW213338   5.509   6.619   3.297
 4147SOL     OW13339   5.172   4.497   5.812
 4147SOL    HW113340   5.085   4.544   5.811
 4147SOL    HW213341   5.239   4.551   5.863
 4148SOL     OW13342   2.806   0.414   4.896
 4148SOL    HW113343   2.864   0.356   4.838
 4148SOL    HW213344   2.711   0.408   4.863
 4149SOL     OW13345   1.660   3.169   1.063
 4149SOL    HW113346   1.604   3.244   1.029
 4149SOL    HW213347   1.634   3.084   1.016
 4150SOL     OW13348   6.309   3.014   6.454
 4150SOL    HW113349   6.389   2.959   6.477
 4150SOL    HW213350   6.246   3.016   6.532
 4151SOL     OW13351   2.083   0.005   4.850
 4151SOL    HW113352   2.135   0.091   4.847
 4151SOL    HW213353   2.025   0.004   4.931
 4152SOL     OW13354   3.643   5.300   1.760
 4152SOL    HW113355   3.576   5.267   1.827
 4152SOL    HW213356   3.673   5.392   1.786
 4153SOL     OW13357   6.674   4.913   1.608
 4153SOL    HW113358   6.746   4.879   1.548
 4153SOL    HW213359   6.708   4.992   1.659
 4154SOL     OW13360   6.854   5.666   3.834
 4154SOL    HW113361   6.755   5.681   3.840
 4154SOL    HW213362   6.885   5.688   3.741
 4155SOL     OW13363   0.489   2.384   1.416
 4155SOL    HW113364   0.464   2.481   1.426
 4155SOL    HW213365   0.410   2.333   1.383
 4156SOL     OW13366   6.737   4.602   5.132
 4156SOL    HW113367   6.812   4.577   5.071
 4156SOL    HW213368   6.734   4.702   5.140
 4157SOL     OW13369   7.018   6.849   2.189
 4157SOL    HW113370   6.979   6.938   2.212
 4157SOL    HW213371   0.050   6.818   2.265
 4158SOL     OW13372   1.919   2.171   1.662
 4158SOL    HW113373   1.946   2.257   1.705
 4158SOL    HW213374   1.996   2.108   1.662
 4159SOL     OW13375   2.833   1.893   3.027
 4159SOL    HW113376   2.849   1.833   3.105
 4159SOL    HW213377   2.734   1.905   3.014
 4160SOL     OW13378   6.601   6.760   6.797
 4160SOL    HW113379   6.577   6.812   6.879
 4160SOL    HW213380   6.678   6.804   6.751
 4161SOL     OW13381   2.112   1.882   0.938
 4161SOL    HW113382   2.191   1.926   0.896
 4161SOL    HW213383   2.079   1.808   0.880
 4162SOL     OW13384   6.508   5.878   0.680
 4162SOL    HW113385   6.565   5.946   0.635
 4162SOL    HW213386   6.540   5.786   0.654
 4163SOL     OW13387   4.784   0.126   1.810
 4163SOL    HW113388   4.729   0.116   1.727
 4163SOL    HW213389   4.856   0.056   1.810
 4164SOL     OW13390   0.022   6.657   5.628
 4164SOL    HW113391   6.951   6.648   5.612
 4164SOL    HW213392   0.060   6.724   5.565
 4165SOL     OW13393   4.015   0.769   5.584
 4165SOL    HW113394   3.977   0.722   5.504
 4165SOL    HW213395   4.054   0.857   5.555
 4166SOL     OW13396   5.617   0.662   2.507
 4166SOL    HW113397   5.529   0.648   2.552
 4166SOL    HW213398   5.607   0.725   2.431
 4167SOL     OW13399   2.766   4.970   5.783
 4167SOL    HW113400   2.798   4.876   5.773
 4167SOL    HW213401   2.812   5.013   5.861
 4168SOL     OW13402   6.840   4.816   0.215
 4168SOL    HW113403   6.838   4.827   0.314
 4168SOL    HW213404   6.817   4.903   0.171
 4169SOL     OW13405   5.437   4.200   5.186
 4169SOL    HW113406   5.426   4.230   5.091
 4169SOL    HW213407   5.534   4.185   5.205
 4170SOL     OW13408   4.893   3.004   4.691
 4170SOL    HW113409   4.892   3.069   4.616
 4170SOL    HW213410   4.882   3.052   4.778
 4171SOL     OW13411   1.204   4.294   1.314
 4171SOL    HW113412   1.180   4.353   1.237
 4171SOL    HW213413   1.303   4.280   1.316
 4172SOL     OW13414   3.642   3.295   0.932
 4172SOL    HW113415   3.679   3.202   0.931
 4172SOL    HW213416   3.623   3.323   0.838
 4173SOL     OW13417   4.006   2.791   5.631
 4173SOL    HW113418   4.025   2.776   5.534
 4173SOL    HW213419   4.007   2.703   5.679
 4174SOL     OW13420   4.476   0.682   3.676
 4174SOL    HW113421   4.384   0.644   3.690
 4174SOL    HW213422   4.475   0.780   3.696
 4175SOL     OW13423   1.988   4.264   6.044
 4175SOL    HW113424   1.932   4.324   6.100
 4175SOL    HW213425   2.021   4.313   5.963
 4176SOL     OW13426   4.889   6.339   0.063
 4176SOL    HW113427   4.849   6.360   0.152
 4176SOL    HW213428   4.897   6.423   0.010
 4177SOL     OW13429   5.120   4.811   4.930
 4177SOL    HW113430   5.136   4.715   4.905
 4177SOL    HW213431   5.160   4.871   4.862
 4178SOL     OW13432   4.556   6.585   2.780
 4178SOL    HW113433   4.504   6.502   2.802
 4178SOL    HW213434   4.527   6.621   2.692
 4179SOL     OW13435   5.757   3.764   3.765
 4179SOL    HW113436   5.847   3.808   3.753
 4179SOL    HW213437   5.748   3.734   3.860
 4180SOL     OW13438   5.831   3.181   0.715
 4180SOL    HW113439   5.795   3.092   0.686
 4180SOL    HW213440   5.872   3.173   0.806
 4181SOL     OW13441   5.418   0.222   5.866
 4181SOL    HW113442   5.432   0.299   5.805
 4181SOL    HW213443   5.445   0.247   5.959
 4182SOL     OW13444   0.196   5.579   3.888
 4182SOL    HW113445   0.216   5.535   3.800
 4182SOL    HW213446   0.163   5.510   3.953
 4183SOL     OW13447   1.779   1.102   0.850
 4183SOL    HW113448   1.844   1.058   0.913
 4183SOL    HW213449   1.826   1.173   0.797
 4184SOL     OW13450   3.747   0.579   2.073
 4184SOL    HW113451   3.805   0.654   2.041
 4184SOL    HW213452   3.733   0.588   2.172
 4185SOL     OW13453   0.388   4.187   3.185
 4185SOL    HW113454   0.365   4.221   3.094
 4185SOL    HW213455   0.440   4.257   3.235
 4186SOL     OW13456   2.730   5.821   6.601
 4186SOL    HW113457   2.734   5.907   6.652
 4186SOL    HW213458   2.742   5.745   6.664
 4187SOL     OW13459   2.048   3.708   6.728
 4187SOL    HW113460   2.084   3.616   6.744
 4187SOL    HW213461   2.120   3.776   6.745
 4188SOL     OW13462   5.587   0.515   5.103
 4188SOL    HW113463   5.622   0.491   5.013
 4188SOL    HW213464   5.647   0.476   5.173
 4189SOL     OW13465   3.860   5.266   3.524
 4189SOL    HW113466   3.831   5.321   3.602
 4189SOL    HW213467   3.958   5.247   3.531
 4190SOL     OW13468   0.557   6.582   1.047
 4190SOL    HW113469   0.581   6.668   1.000
 4190SOL    HW213470   0.641   6.536   1.076
 4191SOL     OW13471   5.064   4.169   6.260
 4191SOL    HW113472   5.162   4.149   6.262
 4191SOL    HW213473   5.049   4.265   6.283
 4192SOL     OW13474   0.840   1.799   2.193
 4192SOL    HW113475   0.748   1.777   2.163
 4192SOL    HW213476   0.857   1.897   2.179
 4193SOL     OW13477   5.369   0.345   0.192
 4193SOL    HW113478   5.331   0.317   0.280
 4193SOL    HW213479   5.350   0.275   0.123
 4194SOL     OW13480   4.466   0.428   4.967
 4194SOL    HW113481   4.394   0.459   5.029
 4194SOL    HW213482   4.513   0.507   4.928
 4195SOL     OW13483   4.434   6.595   0.972
 4195SOL    HW113484   4.443   6.687   1.009
 4195SOL    HW213485   4.405   6.600   0.876
 4196SOL     OW13486   0.191   2.872   3.583
 4196SOL    HW113487   0.239   2.811   3.646
 4196SOL    HW213488   0.093   2.852   3.587
 4197SOL     OW13489   4.059   5.585   5.398
 4197SOL    HW113490   4.114   5.652   5.448
 4197SOL    HW213491   4.057   5.499   5.448
 4198SOL     OW13492   6.420   0.992   2.505
 4198SOL    HW113493   6.517   0.966   2.498
 4198SOL    HW213494   6.410   1.087   2.474
 4199SOL     OW13495   0.930   3.152   5.970
 4199SOL    HW113496   0.981   3.119   6.049
 4199SOL    HW213497   0.898   3.074   5.916
 4200SOL     OW13498   3.076   0.340   5.779
 4200SOL    HW113499   3.120   0.332   5.689
 4200SOL    HW213500   3.145   0.329   5.851
 4201SOL     OW13501   6.223   6.878   3.110
 4201SOL    HW113502   6.287   6.820   3.161
 4201SOL    HW213503   6.234   6.863   3.012
 4202SOL     OW13504   3.761   5.542   6.603
 4202SOL    HW113505   3.760   5.585   6.513
 4202SOL    HW213506   3.808   5.454   6.599
 4203SOL     OW13507   5.080   4.805   0.664
 4203SOL    HW113508   5.070   4.802   0.764
 4203SOL    HW213509   5.151   4.871   0.640
 4204SOL     OW13510   3.876   3.383   5.407
 4204SOL    HW113511   3.866   3.433   5.321
 4204SOL    HW213512   3.785   3.359   5.442
 4205SOL     OW13513   3.669   5.045   4.964
 4205SOL    HW113514   3.656   5.114   5.035
 4205SOL    HW213515   3.651   5.085   4.874
 4206SOL     OW13516   0.079   1.705   5.134
 4206SOL    HW113517   0.010   1.635   5.154
 4206SOL    HW213518   0.156   1.663   5.086
 4207SOL     OW13519   2.480   2.450   1.584
 4207SOL    HW113520   2.449   2.521   1.521
 4207SOL    HW213521   2.559   2.484   1.636
 4208SOL     OW13522   1.084   3.614   6.096
 4208SOL    HW113523   1.005   3.599   6.036
 4208SOL    HW213524   1.115   3.709   6.086
 4209SOL     OW13525   6.697   6.096   2.737
 4209SOL    HW113526   6.744   6.093   2.825
 4209SOL    HW213527   6.612   6.148   2.746
 4210SOL     OW13528   4.153   3.432   3.015
 4210SOL    HW113529   4.251   3.447   3.027
 4210SOL    HW213530   4.105   3.457   3.100
 4211SOL     OW13531   3.908   1.933   5.115
 4211SOL    HW113532   3.824   1.878   5.109
 4211SOL    HW213533   3.885   2.030   5.108
 4212SOL     OW13534   6.562   1.662   3.925
 4212SOL    HW113535   6.522   1.753   3.908
 4212SOL    HW213536   6.491   1.600   3.957
 4213SOL     OW13537   2.488   0.294   3.259
 4213SOL    HW113538   2.477   0.393   3.259
 4213SOL    HW213539   2.509   0.263   3.166
 4214SOL     OW13540   0.353   5.632   4.764
 4214SOL    HW113541   0.379   5.641   4.860
 4214SOL    HW213542   0.364   5.537   4.735
 4215SOL     OW13543   5.386   6.989   5.570
 4215SOL    HW113544   5.454   0.034   5.583
 4215SOL    HW213545   5.393   6.923   5.645
 4216SOL     OW13546   1.605   0.490   2.196
 4216SOL    HW113547   1.600   0.585   2.163
 4216SOL    HW213548   1.608   0.491   2.296
 4217SOL     OW13549   1.113   0.548   1.859
 4217SOL    HW113550   1.137   0.535   1.955
 4217SOL    HW213551   1.130   0.464   1.808
 4218SOL     OW13552   3.188   0.649   1.346
 4218SOL    HW113553   3.275   0.607   1.373
 4218SOL    HW213554   3.170   0.629   1.249
 4219SOL     OW13555   4.572   6.244   4.397
 4219SOL    HW113556   4.636   6.207   4.330
 4219SOL    HW213557   4.539   6.333   4.365
 4220SOL     OW13558   5.936   3.326   1.893
 4220SOL    HW113559   6.029   3.351   1.867
 4220SOL    HW213560   5.871   3.386   1.847
 4221SOL     OW13561   6.541   4.497   6.402
 4221SOL    HW113562   6.641   4.488   6.401
 4221SOL    HW213563   6.514   4.546   6.485
 4222SOL     OW13564   6.249   1.553   3.771
 4222SOL    HW113565   6.284   1.572   3.679
 4222SOL    HW213566   6.249   1.454   3.786
 4223SOL     OW13567   4.024   3.420   1.154
 4223SOL    HW113568   3.987   3.442   1.244
 4223SOL    HW213569   4.011   3.498   1.092
 4224SOL     OW13570   5.256   4.518   4.887
 4224SOL    HW113571   5.225   4.504   4.981
 4224SOL    HW213572   5.344   4.472   4.874
 4225SOL     OW13573   1.668   2.024   5.723
 4225SOL    HW113574   1.655   1.971   5.807
 4225SOL    HW213575   1.763   2.054   5.717
 4226SOL     OW13576   1.104   6.017   3.829
 4226SOL    HW113577   1.062   6.098   3.870
 4226SOL    HW213578   1.055   5.935   3.858
 4227SOL     OW13579   5.147   5.992   1.566
 4227SOL    HW113580   5.163   6.066   1.630
 4227SOL    HW213581   5.231   5.940   1.552
 4228SOL     OW13582   0.463   6.315   5.334
 4228SOL    HW113583   0.543   6.262   5.307
 4228SOL    HW213584   0.383   6.255   5.336
 4229SOL     OW13585   4.637   5.651   5.852
 4229SOL    HW113586   4.720   5.596   5.849
 4229SOL    HW213587   4.646   5.729   5.791
 4230SOL     OW13588   0.885   6.562   3.287
 4230SOL    HW113589   0.892   6.486   3.223
 4230SOL    HW213590   0.794   6.564   3.327
 4231SOL     OW13591   4.831   0.281   5.561
 4231SOL    HW113592   4.833   0.289   5.461
 4231SOL    HW213593   4.908   0.332   5.600
 4232SOL     OW13594   2.041   5.151   3.621
 4232SOL    HW113595   1.981   5.112   3.552
 4232SOL    HW213596   1.989   5.167   3.705
 4233SOL     OW13597   0.019   0.262   5.200
 4233SOL    HW113598   0.025   0.351   5.244
 4233SOL    HW213599   0.073   0.262   5.116
 4234SOL     OW13600   2.279   5.146   5.002
 4234SOL    HW113601   2.249   5.051   4.989
 4234SOL    HW213602   2.201   5.208   4.987
 4235SOL     OW13603   6.559   5.167   5.875
 4235SOL    HW113604   6.480   5.124   5.833
 4235SOL    HW213605   6.623   5.097   5.907
 4236SOL     OW13606   0.097   4.511   1.749
 4236SOL    HW113607   0.052   4.495   1.661
 4236SOL    HW213608   0.156   4.433   1.771
 4237SOL     OW13609   0.113   3.968   3.982
 4237SOL    HW113610   0.073   3.880   4.008
 4237SOL    HW213611   0.210   3.955   3.963
 4238SOL     OW13612   0.920   0.241   2.991
 4238SOL    HW113613   0.918   0.290   2.904
 4238SOL    HW213614   0.872   0.154   2.982
 4239SOL     OW13615   4.297   0.977   2.336
 4239SOL    HW113616   4.254   0.942   2.419
 4239SOL    HW213617   4.253   0.937   2.256
 4240SOL     OW13618   2.568   5.115   0.374
 4240SOL    HW113619   2.626   5.053   0.321
 4240SOL    HW213620   2.617   5.200   0.392
 4241SOL     OW13621   5.251   0.963   0.405
 4241SOL    HW113622   5.350   0.948   0.407
 4241SOL    HW213623   5.215   0.958   0.498
 4242SOL     OW13624   2.642   2.070   4.129
 4242SOL    HW113625   2.575   2.037   4.196
 4242SOL    HW213626   2.709   2.129   4.173
 4243SOL     OW13627   4.945   1.737   2.714
 4243SOL    HW113628   4.870   1.803   2.720
 4243SOL    HW213629   5.033   1.785   2.711
 4244SOL     OW13630   3.701   4.266   1.251
 4244SOL    HW113631   3.608   4.272   1.287
 4244SOL    HW213632   3.722   4.349   1.200
 4245SOL     OW13633   6.531   2.350   6.928
 4245SOL    HW113634   6.514   2.252   6.936
 4245SOL    HW213635   6.515   2.379   6.834
 4246SOL     OW13636   6.475   4.064   3.450
 4246SOL    HW113637   6.510   4.059   3.543
 4246SOL    HW213638   6.514   4.144   3.404
 4247SOL     OW13639   1.591   6.458   3.335
 4247SOL    HW113640   1.548   6.512   3.263
 4247SOL    HW213641   1.525   6.393   3.372
 4248SOL     OW13642   2.830   1.780   4.756
 4248SOL    HW113643   2.767   1.845   4.799
 4248SOL    HW213644   2.919   1.822   4.744
 4249SOL     OW13645   6.578   3.035   5.040
 4249SOL    HW113646   6.589   3.027   4.941
 4249SOL    HW213647   6.635   3.110   5.074
 4250SOL     OW13648   0.405   4.942   3.111
 4250SOL    HW113649   0.404   4.852   3.153
 4250SOL    HW213650   0.334   4.947   3.041
 4251SOL     OW13651   5.967   5.200   0.500
 4251SOL    HW113652   6.050   5.236   0.459
 4251SOL    HW213653   5.952   5.243   0.589
 4252SOL     OW13654   6.226   6.654   5.655
 4252SOL    HW113655   6.150   6.705   5.695
 4252SOL    HW213656   6.296   6.718   5.622
 4253SOL     OW13657   2.851   0.435   1.576
 4253SOL    HW113658   2.866   0.442   1.477
 4253SOL    HW213659   2.924   0.380   1.616
 4254SOL     OW13660   1.093   2.476   1.664
 4254SOL    HW113661   1.050   2.389   1.688
 4254SOL    HW213662   1.023   2.539   1.630
 4255SOL     OW13663   5.903   2.727   3.279
 4255SOL    HW113664   5.991   2.701   3.317
 4255SOL    HW213665   5.911   2.735   3.179
 4256SOL     OW13666   1.312   6.592   0.810
 4256SOL    HW113667   1.276   6.678   0.847
 4256SOL    HW213668   1.377   6.553   0.875
 4257SOL     OW13669   3.806   0.568   4.978
 4257SOL    HW113670   3.778   0.523   4.893
 4257SOL    HW213671   3.841   0.500   5.042
 4258SOL     OW13672   5.764   6.704   1.678
 4258SOL    HW113673   5.821   6.761   1.738
 4258SOL    HW213674   5.777   6.731   1.583
 4259SOL     OW13675   2.961   0.336   6.609
 4259SOL    HW113676   2.976   0.383   6.696
 4259SOL    HW213677   3.009   0.248   6.609
 4260SOL     OW13678   5.247   6.487   4.836
 4260SOL    HW113679   5.296   6.521   4.916
 4260SOL    HW213680   5.208   6.397   4.856
 4261SOL     OW13681   1.740   0.464   1.772
 4261SOL    HW113682   1.746   0.366   1.755
 4261SOL    HW213683   1.826   0.498   1.809
 4262SOL     OW13684   1.155   4.668   5.552
 4262SOL    HW113685   1.186   4.646   5.459
 4262SOL    HW213686   1.168   4.766   5.569
 4263SOL     OW13687   2.539   6.530   3.526
 4263SOL    HW113688   2.575   6.445   3.564
 4263SOL    HW213689   2.553   6.531   3.427
 4264SOL     OW13690   6.720   1.904   2.361
 4264SOL    HW113691   6.744   1.837   2.432
 4264SOL    HW213692   6.785   1.894   2.284
 4265SOL     OW13693   5.690   1.352   0.004
 4265SOL    HW113694   5.689   1.253   0.019
 4265SOL    HW213695   5.729   1.398   0.084
 4266SOL     OW13696   1.726   5.604   0.905
 4266SOL    HW113697   1.773   5.687   0.934
 4266SOL    HW213698   1.784   5.553   0.841
 4267SOL     OW13699   2.083   3.677   4.896
 4267SOL    HW113700   2.169   3.647   4.855
 4267SOL    HW213701   2.094   3.683   4.996
 4268SOL     OW13702   1.920   0.152   6.587
 4268SOL    HW113703   1.915   0.110   6.678
 4268SOL    HW213704   1.978   0.233   6.591
 4269SOL     OW13705   2.011   1.379   0.312
 4269SOL    HW113706   2.021   1.445   0.237
 4269SOL    HW213707   1.981   1.291   0.274
 4270SOL     OW13708   3.034   3.666   4.001
 4270SOL    HW113709   3.005   3.685   3.907
 4270SOL    HW213710   3.134   3.666   4.006
 4271SOL     OW13711   0.059   1.116   6.421
 4271SOL    HW113712   6.988   1.114   6.400
 4271SOL    HW213713   0.075   1.169   6.504
 4272SOL     OW13714   0.540   4.731   4.767
 4272SOL    HW113715   0.497   4.733   4.857
 4272SOL    HW213716   0.583   4.819   4.748
 4273SOL     OW13717   4.720   6.468   4.697
 4273SOL    HW113718   4.663   6.520   4.634
 4273SOL    HW213719   4.670   6.387   4.727
 4274SOL     OW13720   1.035   0.587   2.663
 4274SOL    HW113721   1.104   0.604   2.733
 4274SOL    HW213722   1.080   0.583   2.573
 4275SOL     OW13723   6.535   1.491   5.325
 4275SOL    HW113724   6.446   1.523   5.358
 4275SOL    HW213725   6.601   1.566   5.326
 4276SOL     OW13726   1.349   4.368   3.787
 4276SOL    HW113727   1.295   4.315   3.852
 4276SOL    HW213728   1.432   4.401   3.831
 4277SOL     OW13729   6.424   4.538   4.173
 4277SOL    HW113730   6.414   4.621   4.228
 4277SOL    HW213731   6.519   4.528   4.145
 4278SOL     OW13732   0.070   0.764   5.077
 4278SOL    HW113733   0.032   0.731   4.992
 4278SOL    HW213734   0.156   0.717   5.097
 4279SOL     OW13735   3.165   6.399   5.455
 4279SOL    HW113736   3.089   6.337   5.475
 4279SOL    HW213737   3.182   6.401   5.357
 4280SOL     OW13738   5.138   1.375   5.308
 4280SOL    HW113739   5.162   1.306   5.377
 4280SOL    HW213740   5.215   1.388   5.246
 4281SOL     OW13741   2.624   5.137   4.502
 4281SOL    HW113742   2.577   5.052   4.480
 4281SOL    HW213743   2.592   5.172   4.590
 4282SOL     OW13744   2.859   2.699   0.658
 4282SOL    HW113745   2.901   2.613   0.630
 4282SOL    HW213746   2.761   2.696   0.638
 4283SOL     OW13747   1.480   0.696   3.752
 4283SOL    HW113748   1.471   0.796   3.749
 4283SOL    HW213749   1.436   0.661   3.834
 4284SOL     OW13750   5.008   5.898   2.177
 4284SOL    HW113751   5.064   5.859   2.250
 4284SOL    HW213752   4.949   5.827   2.138
 4285SOL     OW13753   0.621   0.436   6.288
 4285SOL    HW113754   0.633   0.421   6.190
 4285SOL    HW213755   0.643   0.352   6.338
 4286SOL     OW13756   5.198   5.321   6.662
 4286SOL    HW113757   5.124   5.254   6.668
 4286SOL    HW213758   5.171   5.395   6.601
 4287SOL     OW13759   5.950   0.902   6.332
 4287SOL    HW113760   5.936   0.953   6.417
 4287SOL    HW213761   5.924   0.958   6.254
 4288SOL     OW13762   0.852   6.094   2.992
 4288SOL    HW113763   0.921   6.051   2.933
 4288SOL    HW213764   0.783   6.139   2.936
 4289SOL     OW13765   6.481   3.276   0.900
 4289SOL    HW113766   6.530   3.229   0.974
 4289SOL    HW213767   6.388   3.298   0.931
 4290SOL     OW13768   2.672   6.436   1.686
 4290SOL    HW113769   2.584   6.415   1.729
 4290SOL    HW213770   2.741   6.372   1.719
 4291SOL     OW13771   4.539   3.482   1.617
 4291SOL    HW113772   4.597   3.554   1.653
 4291SOL    HW213773   4.450   3.485   1.664
 4292SOL     OW13774   6.677   4.679   6.038
 4292SOL    HW113775   6.598   4.618   6.040
 4292SOL    HW213776   6.760   4.626   6.059
 4293SOL     OW13777   0.083   3.198   0.154
 4293SOL    HW113778   0.150   3.261   0.114
 4293SOL    HW213779   0.130   3.120   0.194
 4294SOL     OW13780   4.034   2.809   0.239
 4294SOL    HW113781   3.957   2.867   0.211
 4294SOL    HW213782   4.114   2.833   0.184
 4295SOL     OW13783   3.471   6.216   4.931
 4295SOL    HW113784   3.500   6.171   4.846
 4295SOL    HW213785   3.426   6.149   4.991
 4296SOL     OW13786   3.191   1.497   6.968
 4296SOL    HW113787   3.167   1.426   6.903
 4296SOL    HW213788   3.291   1.507   6.971
 4297SOL     OW13789   5.276   0.598   5.913
 4297SOL    HW113790   5.179   0.590   5.937
 4297SOL    HW213791   5.290   0.559   5.822
 4298SOL     OW13792   2.699   5.638   6.358
 4298SOL    HW113793   2.779   5.691   6.331
 4298SOL    HW213794   2.715   5.596   6.447
 4299SOL     OW13795   0.700   2.815   6.902
 4299SOL    HW113796   0.673   2.813   6.998
 4299SOL    HW213797   0.620   2.798   6.845
 4300SOL     OW13798   3.784   1.482   6.774
 4300SOL    HW113799   3.812   1.385   6.771
 4300SOL    HW213800   3.830   1.526   6.852
 4301SOL     OW13801   2.364   1.517   0.461
 4301SOL    HW113802   2.330   1.591   0.404
 4301SOL    HW213803   2.450   1.544   0.504
 4302SOL     OW13804   0.678   6.451   5.873
 4302SOL    HW113805   0.741   6.461   5.797
 4302SOL    HW213806   0.585   6.444   5.839
 4303SOL     OW13807   5.669   4.710   4.283
 4303SOL    HW113808   5.686   4.625   4.333
 4303SOL    HW213809   5.575   4.740   4.299
 4304SOL     OW13810   3.185   4.007   4.259
 4304SOL    HW113811   3.197   3.964   4.349
 4304SOL    HW213812   3.233   4.094   4.257
 4305SOL     OW13813   6.308   1.267   3.800
 4305SOL    HW113814   6.333   1.192   3.740
 4305SOL    HW213815   6.372   1.272   3.877
 4306SOL     OW13816   6.259   3.866   6.504
 4306SOL    HW113817   6.189   3.936   6.514
 4306SOL    HW213818   6.220   3.788   6.453
 4307SOL     OW13819   4.997   4.302   6.582
 4307SOL    HW113820   4.995   4.368   6.506
 4307SOL    HW213821   4.907   4.259   6.591
 4308SOL     OW13822   5.719   5.596   6.109
 4308SOL    HW113823   5.804   5.543   6.111
 4308SOL    HW213824   5.649   5.548   6.162
 4309SOL     OW13825   1.159   0.139   0.446
 4309SOL    HW113826   1.098   0.095   0.511
 4309SOL    HW213827   1.199   0.221   0.487
 4310SOL     OW13828   2.144   2.411   3.100
 4310SOL    HW113829   2.166   2.380   3.008
 4310SOL    HW213830   2.228   2.421   3.153
 4311SOL     OW13831   0.860   5.651   2.861
 4311SOL    HW113832   0.888   5.560   2.829
 4311SOL    HW213833   0.889   5.664   2.956
 4312SOL     OW13834   1.684   5.270   1.414
 4312SOL    HW113835   1.681   5.317   1.326
 4312SOL    HW213836   1.634   5.324   1.482
 4313SOL     OW13837   5.311   1.715   1.827
 4313SOL    HW113838   5.361   1.680   1.748
 4313SOL    HW213839   5.229   1.660   1.842
 4314SOL     OW13840   5.507   2.378   3.995
 4314SOL    HW113841   5.428   2.316   3.988
 4314SOL    HW213842   5.485   2.452   4.060
 4315SOL     OW13843   2.080   0.884   2.155
 4315SOL    HW113844   2.138   0.885   2.074
 4315SOL    HW213845   2.124   0.831   2.228
 4316SOL     OW13846   5.410   0.117   1.100
 4316SOL    HW113847   5.431   0.181   1.174
 4316SOL    HW213848   5.345   0.049   1.134
 4317SOL     OW13849   3.700   1.254   4.597
 4317SOL    HW113850   3.754   1.175   4.625
 4317SOL    HW213851   3.744   1.299   4.519
 4318SOL     OW13852   1.244   3.265   3.073
 4318SOL    HW113853   1.270   3.321   3.151
 4318SOL    HW213854   1.325   3.243   3.018
 4319SOL     OW13855   2.312   2.651   0.510
 4319SOL    HW113856   2.340   2.628   0.417
 4319SOL    HW213857   2.301   2.567   0.564
 4320SOL     OW13858   1.115   5.759   1.708
 4320SOL    HW113859   1.054   5.711   1.771
 4320SOL    HW213860   1.178   5.817   1.761
 4321SOL     OW13861   6.805   0.125   4.427
 4321SOL    HW113862   6.709   0.102   4.446
 4321SOL    HW213863   6.829   0.208   4.476
 4322SOL     OW13864   6.046   1.818   6.513
 4322SOL    HW113865   6.138   1.854   6.529
 4322SOL    HW213866   6.041   1.724   6.546
 4323SOL     OW13867   5.577   4.186   1.738
 4323SOL    HW113868   5.489   4.171   1.783
 4323SOL    HW213869   5.608   4.279   1.758
 4324SOL     OW13870   5.673   4.606   6.735
 4324SOL    HW113871   5.647   4.698   6.707
 4324SOL    HW213872   5.591   4.550   6.747
 4325SOL     OW13873   1.306   0.377   0.054
 4325SOL    HW113874   1.377   0.322   0.098
 4325SOL    HW213875   1.348   0.450   0.001
 4326SOL     OW13876   6.201   2.859   4.833
 4326SOL    HW113877   6.259   2.880   4.754
 4326SOL    HW213878   6.210   2.930   4.902
 4327SOL     OW13879   5.905   5.316   2.194
 4327SOL    HW113880   5.867   5.396   2.146
 4327SOL    HW213881   5.840   5.283   2.262
 4328SOL     OW13882   4.940   4.255   5.858
 4328SOL    HW113883   4.961   4.158   5.858
 4328SOL    HW213884   4.985   4.299   5.781
 4329SOL     OW13885   3.699   2.063   5.824
 4329SOL    HW113886   3.649   2.028   5.903
 4329SOL    HW213887   3.661   2.025   5.740
 4330SOL     OW13888   3.197   0.789   4.785
 4330SOL    HW113889   3.123   0.749   4.840
 4330SOL    HW213890   3.272   0.817   4.845
 4331SOL     OW13891   4.860   2.990   1.021
 4331SOL    HW113892   4.828   3.053   1.092
 4331SOL    HW213893   4.820   2.900   1.037
 4332SOL     OW13894   5.316   4.513   2.781
 4332SOL    HW113895   5.410   4.540   2.802
 4332SOL    HW213896   5.313   4.468   2.692
 4333SOL     OW13897   4.099   1.526   5.347
 4333SOL    HW113898   4.150   1.442   5.326
 4333SOL    HW213899   4.160   1.605   5.338
 4334SOL     OW13900   2.182   2.245   2.408
 4334SOL    HW113901   2.161   2.327   2.354
 4334SOL    HW213902   2.224   2.176   2.350
 4335SOL     OW13903   3.164   4.026   3.485
 4335SOL    HW113904   3.145   3.928   3.477
 4335SOL    HW213905   3.093   4.069   3.541
 4336SOL     OW13906   0.903   6.495   5.688
 4336SOL    HW113907   0.892   6.400   5.660
 4336SOL    HW213908   0.987   6.533   5.649
 4337SOL     OW13909   1.307   4.707   0.665
 4337SOL    HW113910   1.367   4.677   0.591
 4337SOL    HW213911   1.354   4.776   0.720
 4338SOL     OW13912   5.043   6.002   4.262
 4338SOL    HW113913   4.998   5.949   4.334
 4338SOL    HW213914   5.044   6.098   4.287
 4339SOL     OW13915   6.004   3.476   5.230
 4339SOL    HW113916   5.997   3.376   5.225
 4339SOL    HW213917   6.051   3.510   5.149
 4340SOL     OW13918   6.139   4.258   2.725
 4340SOL    HW113919   6.041   4.255   2.705
 4340SOL    HW213920   6.188   4.201   2.660
 4341SOL     OW13921   1.142   5.296   1.979
 4341SOL    HW113922   1.158   5.249   2.066
 4341SOL    HW213923   1.229   5.317   1.935
 4342SOL     OW13924   0.054   3.318   4.011
 4342SOL    HW113925   0.043   3.224   3.978
 4342SOL    HW213926   0.058   3.380   3.933
 4343SOL     OW13927   2.688   6.512   6.214
 4343SOL    HW113928   2.622   6.478   6.148
 4343SOL    HW213929   2.777   6.469   6.199
 4344SOL     OW13930   2.072   5.278   2.958
 4344SOL    HW113931   2.040   5.198   2.907
 4344SOL    HW213932   2.005   5.351   2.951
 4345SOL     OW13933   1.789   2.580   5.836
 4345SOL    HW113934   1.789   2.525   5.752
 4345SOL    HW213935   1.738   2.532   5.907
 4346SOL     OW13936   1.984   3.302   1.771
 4346SOL    HW113937   1.953   3.309   1.866
 4346SOL    HW213938   2.083   3.294   1.768
 4347SOL     OW13939   6.086   1.238   2.459
 4347SOL    HW113940   6.015   1.244   2.390
 4347SOL    HW213941   6.089   1.145   2.497
 4348SOL     OW13942   0.511   3.148   2.268
 4348SOL    HW113943   0.542   3.061   2.230
 4348SOL    HW213944   0.434   3.132   2.330
 4349SOL     OW13945   6.729   1.548   3.123
 4349SOL    HW113946   6.813   1.499   3.146
 4349SOL    HW213947   6.742   1.646   3.141
 4350SOL     OW13948   4.907   2.273   4.865
 4350SOL    HW113949   4.986   2.250   4.809
 4350SOL    HW213950   4.911   2.370   4.891
 4351SOL     OW13951   2.305   6.275   0.691
 4351SOL    HW113952   2.350   6.363   0.702
 4351SOL    HW213953   2.368   6.201   0.714
 4352SOL     OW13954   1.316   2.527   2.107
 4352SOL    HW113955   1.312   2.519   2.008
 4352SOL    HW213956   1.224   2.540   2.143
 4353SOL     OW13957   3.272   4.441   0.666
 4353SOL    HW113958   3.214   4.362   0.685
 4353SOL    HW213959   3.232   4.522   0.708
 4354SOL     OW13960   1.746   6.452   5.515
 4354SOL    HW113961   1.668   6.514   5.510
 4354SOL    HW213962   1.720   6.367   5.560
 4355SOL     OW13963   3.684   0.275   2.160
 4355SOL    HW113964   3.781   0.288   2.138
 4355SOL    HW213965   3.655   0.345   2.225
 4356SOL     OW13966   4.566   4.454   1.701
 4356SOL    HW113967   4.524   4.543   1.723
 4356SOL    HW213968   4.518   4.382   1.751
 4357SOL     OW13969   6.479   0.073   6.869
 4357SOL    HW113970   6.554   0.060   6.935
 4357SOL    HW213971   6.396   0.029   6.905
 4358SOL     OW13972   6.752   5.940   0.228
 4358SOL    HW113973   6.736   6.005   0.154
 4358SOL    HW213974   6.834   5.886   0.208
 4359SOL     OW13975   1.418   2.138   5.679
 4359SOL    HW113976   1.482   2.212   5.700
 4359SOL    HW213977   1.468   2.051   5.675
 4360SOL     OW13978   1.425   3.210   2.560
 4360SOL    HW113979   1.469   3.177   2.477
 4360SOL    HW213980   1.444   3.147   2.635
 4361SOL     OW13981   2.719   2.535   1.714
 4361SOL    HW113982   2.710   2.631   1.688
 4361SOL    HW213983   2.788   2.526   1.786
 4362SOL     OW13984   6.479   4.071   4.223
 4362SOL    HW113985   6.429   4.136   4.165
 4362SOL    HW213986   6.450   4.083   4.318
 4363SOL     OW13987   5.378   2.553   6.605
 4363SOL    HW113988   5.435   2.505   6.670
 4363SOL    HW213989   5.436   2.600   6.538
 4364SOL     OW13990   3.224   3.844   5.198
 4364SOL    HW113991   3.159   3.826   5.125
 4364SOL    HW213992   3.239   3.943   5.206
 4365SOL     OW13993   2.273   1.848   1.811
 4365SOL    HW113994   2.332   1.853   1.891
 4365SOL    HW213995   2.315   1.789   1.742
 4366SOL     OW13996   5.386   6.834   0.204
 4366SOL    HW113997   5.474   6.871   0.177
 4366SOL    HW213998   5.350   6.775   0.131
 4367SOL     OW13999   2.014   5.115   5.302
 4367SOL    HW114000   1.967   5.080   5.383
 4367SOL    HW214001   1.951   5.118   5.224
 4368SOL     OW14002   4.329   5.362   1.183
 4368SOL    HW114003   4.342   5.459   1.160
 4368SOL    HW214004   4.408   5.310   1.152
 4369SOL     OW14005   4.064   5.387   3.040
 4369SOL    HW114006   4.108   5.477   3.042
 4369SOL    HW214007   3.977   5.393   2.991
 4370SOL     OW14008   4.788   4.311   2.967
 4370SOL    HW114009   4.755   4.352   3.052
 4370SOL    HW214010   4.864   4.365   2.931
 4371SOL     OW14011   6.576   0.702   1.539
 4371SOL    HW114012   6.656   0.660   1.581
 4371SOL    HW214013   6.507   0.632   1.519
 4372SOL     OW14014   4.346   1.158   3.069
 4372SOL    HW114015   4.373   1.251   3.046
 4372SOL    HW214016   4.293   1.158   3.155
 4373SOL     OW14017   6.867   3.015   0.019
 4373SOL    HW114018   6.864   3.070   0.103
 4373SOL    HW214019   6.833   3.069   6.969
 4374SOL     OW14020   0.771   1.855   1.678
 4374SOL    HW114021   0.811   1.836   1.588
 4374SOL    HW214022   0.832   1.912   1.731
 4375SOL     OW14023   3.385   0.818   3.913
 4375SOL    HW114024   3.433   0.905   3.921
 4375SOL    HW214025   3.306   0.829   3.852
 4376SOL     OW14026   6.906   0.280   2.919
 4376SOL    HW114027   6.832   0.272   2.985
 4376SOL    HW214028   6.877   0.338   2.843
 4377SOL     OW14029   5.865   4.281   0.299
 4377SOL    HW114030   5.946   4.302   0.245
 4377SOL    HW214031   5.843   4.358   0.359
 4378SOL     OW14032   1.638   1.445   2.867
 4378SOL    HW114033   1.648   1.361   2.920
 4378SOL    HW214034   1.637   1.423   2.770
 4379SOL     OW14035   2.401   1.294   3.818
 4379SOL    HW114036   2.448   1.307   3.906
 4379SOL    HW214037   2.400   1.197   3.795
 4380SOL     OW14038   1.261   0.087   1.319
 4380SOL    HW114039   1.163   0.104   1.311
 4380SOL    HW214040   1.312   0.170   1.296
 4381SOL     OW14041   0.897   6.265   4.339
 4381SOL    HW114042   0.918   6.342   4.400
 4381SOL    HW214043   0.901   6.179   4.391
 4382SOL     OW14044   6.812   3.570   6.188
 4382SOL    HW114045   6.908   3.565   6.162
 4382SOL    HW214046   6.789   3.494   6.249
 4383SOL     OW14047   6.970   3.722   6.371
 4383SOL    HW114048   6.972   3.814   6.332
 4383SOL    HW214049   6.892   3.672   6.334
 4384SOL     OW14050   5.955   0.416   3.994
 4384SOL    HW114051   6.026   0.355   4.029
 4384SOL    HW214052   5.959   0.418   3.894
 4385SOL     OW14053   4.509   2.374   5.362
 4385SOL    HW114054   4.510   2.427   5.277
 4385SOL    HW214055   4.574   2.298   5.355
 4386SOL     OW14056   1.327   4.023   5.404
 4386SOL    HW114057   1.247   4.048   5.459
 4386SOL    HW214058   1.346   3.926   5.415
 4387SOL     OW14059   0.118   2.616   2.040
 4387SOL    HW114060   0.156   2.568   1.962
 4387SOL    HW214061   0.057   2.555   2.091
 4388SOL     OW14062   4.055   2.480   6.100
 4388SOL    HW114063   4.095   2.416   6.035
 4388SOL    HW214064   4.082   2.574   6.077
 4389SOL     OW14065   6.818   3.762   0.595
 4389SOL    HW114066   6.814   3.720   0.686
 4389SOL    HW214067   6.897   3.727   0.545
 4390SOL     OW14068   4.623   0.260   1.178
 4390SOL    HW114069   4.548   0.220   1.231
 4390SOL    HW214070   4.659   0.192   1.113
 4391SOL     OW14071   2.985   4.865   6.980
 4391SOL    HW114072   3.033   4.804   0.016
 4391SOL    HW214073   2.968   4.818   6.894
 4392SOL     OW14074   0.598   2.260   4.903
 4392SOL    HW114075   0.517   2.204   4.890
 4392SOL    HW214076   0.577   2.355   4.879
 4393SOL     OW14077   6.549   0.385   2.128
 4393SOL    HW114078   6.617   0.436   2.075
 4393SOL    HW214079   6.549   0.289   2.099
 4394SOL     OW14080   0.252   6.414   1.606
 4394SOL    HW114081   0.212   6.322   1.604
 4394SOL    HW214082   0.347   6.409   1.575
 4395SOL     OW14083   2.038   0.385   1.476
 4395SOL    HW114084   2.112   0.452   1.470
 4395SOL    HW214085   1.972   0.402   1.403
 4396SOL     OW14086   1.681   1.594   4.140
 4396SOL    HW114087   1.753   1.660   4.162
 4396SOL    HW214088   1.644   1.614   4.049
 4397SOL     OW14089   1.897   2.795   4.503
 4397SOL    HW114090   1.917   2.879   4.453
 4397SOL    HW214091   1.937   2.801   4.595
 4398SOL     OW14092   1.674   3.216   6.170
 4398SOL    HW114093   1.632   3.146   6.113
 4398SOL    HW214094   1.744   3.264   6.117
 4399SOL     OW14095   2.831   6.765   1.873
 4399SOL    HW114096   2.920   6.720   1.874
 4399SOL    HW214097   2.785   6.748   1.960
 4400SOL     OW14098   2.124   6.591   3.667
 4400SOL    HW114099   2.188   6.526   3.625
 4400SOL    HW214100   2.034   6.581   3.625
 4401SOL     OW14101   3.869   6.400   5.079
 4401SOL    HW114102   3.790   6.371   5.133
 4401SOL    HW214103   3.856   6.373   4.984
 4402SOL     OW14104   0.608   0.141   3.170
 4402SOL    HW114105   0.554   0.210   3.122
 4402SOL    HW214106   0.676   0.103   3.107
 4403SOL     OW14107   1.483   6.383   0.926
 4403SOL    HW114108   1.567   6.437   0.937
 4403SOL    HW214109   1.492   6.325   0.845
 4404SOL     OW14110   1.067   6.451   5.372
 4404SOL    HW114111   1.032   6.361   5.346
 4404SOL    HW214112   1.038   6.519   5.303
 4405SOL     OW14113   2.153   4.889   2.441
 4405SOL    HW114114   2.063   4.859   2.410
 4405SOL    HW214115   2.214   4.902   2.363
 4406SOL     OW14116   6.938   3.444   0.799
 4406SOL    HW114117   6.877   3.523   0.805
 4406SOL    HW214118   6.883   3.360   0.796
 4407SOL     OW14119   0.181   5.304   1.241
 4407SOL    HW114120   0.193   5.301   1.142
 4407SOL    HW214121   0.269   5.287   1.286
 4408SOL     OW14122   2.251   6.299   6.745
 4408SOL    HW114123   2.258   6.358   6.666
 4408SOL    HW214124   2.241   6.204   6.715
 4409SOL     OW14125   4.820   1.057   1.470
 4409SOL    HW114126   4.806   0.960   1.455
 4409SOL    HW214127   4.823   1.076   1.568
 4410SOL     OW14128   6.434   5.842   0.169
 4410SOL    HW114129   6.345   5.815   0.132
 4410SOL    HW214130   6.489   5.760   0.183
 4411SOL     OW14131   3.354   4.596   5.402
 4411SOL    HW114132   3.290   4.666   5.370
 4411SOL    HW214133   3.388   4.622   5.492
 4412SOL     OW14134   5.228   6.720   4.168
 4412SOL    HW114135   5.317   6.762   4.152
 4412SOL    HW214136   5.156   6.784   4.145
 4413SOL     OW14137   5.098   5.973   3.684
 4413SOL    HW114138   5.186   6.011   3.714
 4413SOL    HW214139   5.114   5.891   3.629
 4414SOL     OW14140   4.221   5.682   0.928
 4414SOL    HW114141   4.210   5.583   0.931
 4414SOL    HW214142   4.131   5.726   0.928
 4415SOL     OW14143   4.177   3.578   0.704
 4415SOL    HW114144   4.187   3.478   0.694
 4415SOL    HW214145   4.080   3.602   0.701
 4416SOL     OW14146   3.792   1.333   4.006
 4416SOL    HW114147   3.714   1.309   4.064
 4416SOL    HW214148   3.759   1.352   3.913
 4417SOL     OW14149   5.837   3.004   3.875
 4417SOL    HW114150   5.925   2.959   3.891
 4417SOL    HW214151   5.813   2.998   3.778
 4418SOL     OW14152   6.271   1.895   2.303
 4418SOL    HW114153   6.210   1.821   2.273
 4418SOL    HW214154   6.303   1.946   2.223
 4419SOL     OW14155   6.944   0.065   6.029
 4419SOL    HW114156   6.852   0.095   6.002
 4419SOL    HW214157   6.964   0.099   6.121
 4420SOL     OW14158   3.436   1.577   1.087
 4420SOL    HW114159   3.356   1.557   1.031
 4420SOL    HW214160   3.517   1.535   1.045
 4421SOL     OW14161   1.893   1.970   5.378
 4421SOL    HW114162   1.881   2.043   5.445
 4421SOL    HW214163   1.867   2.004   5.287
 4422SOL     OW14164   0.918   4.683   0.069
 4422SOL    HW114165   1.001   4.697   0.123
 4422SOL    HW214166   0.943   4.672   6.999
 4423SOL     OW14167   6.858   4.518   6.147
 4423SOL    HW114168   6.841   4.479   6.237
 4423SOL    HW214169   6.952   4.500   6.120
 4424SOL     OW14170   5.212   6.242   5.016
 4424SOL    HW114171   5.307   6.208   5.017
 4424SOL    HW214172   5.186   6.271   5.108
 4425SOL     OW14173   1.920   5.113   1.385
 4425SOL    HW114174   1.925   5.096   1.286
 4425SOL    HW214175   1.843   5.174   1.404
 4426SOL     OW14176   1.189   1.497   3.900
 4426SOL    HW114177   1.204   1.501   3.999
 4426SOL    HW214178   1.211   1.586   3.860
 4427SOL     OW14179   4.369   6.133   2.564
 4427SOL    HW114180   4.315   6.217   2.554
 4427SOL    HW214181   4.319   6.068   2.622
 4428SOL     OW14182   5.033   0.905   4.496
 4428SOL    HW114183   5.104   0.950   4.441
 4428SOL    HW214184   4.967   0.860   4.436
 4429SOL     OW14185   2.743   6.508   2.641
 4429SOL    HW114186   2.704   6.600   2.640
 4429SOL    HW214187   2.818   6.503   2.575
 4430SOL     OW14188   5.359   4.501   4.286
 4430SOL    HW114189   5.375   4.599   4.301
 4430SOL    HW214190   5.446   4.452   4.292
 4431SOL     OW14191   2.662   1.014   3.261
 4431SOL    HW114192   2.656   1.054   3.169
 4431SOL    HW214193   2.729   0.940   3.260
 4432SOL     OW14194   2.022   3.121   6.636
 4432SOL    HW114195   2.107   3.115   6.585
 4432SOL    HW214196   1.989   3.215   6.635
 4433SOL     OW14197   0.382   2.939   4.711
 4433SOL    HW114198   0.404   3.033   4.685
 4433SOL    HW214199   0.423   2.919   4.800
 4434SOL     OW14200   5.532   1.873   2.753
 4434SOL    HW114201   5.443   1.855   2.795
 4434SOL    HW214202   5.518   1.905   2.659
 4435SOL     OW14203   3.922   3.651   1.519
 4435SOL    HW114204   4.015   3.675   1.493
 4435SOL    HW214205   3.859   3.724   1.492
 4436SOL     OW14206   3.774   1.329   1.163
 4436SOL    HW114207   3.726   1.363   1.083
 4436SOL    HW214208   3.725   1.251   1.201
 4437SOL     OW14209   0.667   3.209   2.575
 4437SOL    HW114210   0.752   3.176   2.533
 4437SOL    HW214211   0.675   3.306   2.596
 4438SOL     OW14212   4.914   6.718   5.685
 4438SOL    HW114213   4.948   6.646   5.624
 4438SOL    HW214214   4.986   6.744   5.749
 4439SOL     OW14215   0.636   4.996   2.484
 4439SOL    HW114216   0.545   4.981   2.522
 4439SOL    HW214217   0.705   4.977   2.553
 4440SOL     OW14218   2.323   4.927   0.511
 4440SOL    HW114219   2.388   4.862   0.552
 4440SOL    HW214220   2.336   5.017   0.553
 4441SOL     OW14221   0.125   1.237   0.873
 4441SOL    HW114222   0.091   1.165   0.935
 4441SOL    HW214223   0.158   1.314   0.927
 4442SOL     OW14224   1.328   5.264   5.581
 4442SOL    HW114225   1.233   5.287   5.560
 4442SOL    HW214226   1.347   5.284   5.677
 4443SOL     OW14227   1.051   3.974   6.245
 4443SOL    HW114228   1.134   3.999   6.194
 4443SOL    HW214229   1.027   4.048   6.308
 4444SOL     OW14230   4.595   4.094   0.483
 4444SOL    HW114231   4.571   3.997   0.491
 4444SOL    HW214232   4.619   4.131   0.573
 4445SOL     OW14233   1.376   6.238   0.106
 4445SOL    HW114234   1.464   6.202   0.136
 4445SOL    HW214235   1.391   6.312   0.040
 4446SOL     OW14236   5.575   1.696   0.105
 4446SOL    HW114237   5.629   1.770   0.143
 4446SOL    HW214238   5.563   1.624   0.173
 4447SOL     OW14239   6.200   3.725   4.931
 4447SOL    HW114240   6.159   3.782   5.002
 4447SOL    HW214241   6.131   3.701   4.863
 4448SOL     OW14242   3.048   0.038   1.140
 4448SOL    HW114243   3.008   6.989   1.191
 4448SOL    HW214244   2.998   0.050   1.054
 4449SOL     OW14245   4.439   1.005   6.486
 4449SOL    HW114246   4.441   1.009   6.386
 4449SOL    HW214247   4.370   1.068   6.521
 4450SOL     OW14248   3.183   1.268   6.835
 4450SOL    HW114249   3.114   1.214   6.882
 4450SOL    HW214250   3.224   1.213   6.762
 4451SOL     OW14251   4.309   5.329   4.737
 4451SOL    HW114252   4.378   5.268   4.775
 4451SOL    HW214253   4.257   5.281   4.666
 4452SOL     OW14254   6.358   5.332   4.603
 4452SOL    HW114255   6.423   5.323   4.528
 4452SOL    HW214256   6.342   5.428   4.622
 4453SOL     OW14257   1.422   3.093   1.758
 4453SOL    HW114258   1.426   3.143   1.672
 4453SOL    HW214259   1.343   3.126   1.812
 4454SOL     OW14260   0.923   1.277   0.131
 4454SOL    HW114261   0.922   1.291   0.230
 4454SOL    HW214262   1.000   1.217   0.107
 4455SOL     OW14263   5.325   5.591   5.154
 4455SOL    HW114264   5.225   5.586   5.159
 4455SOL    HW214265   5.363   5.597   5.246
 4456SOL     OW14266   2.523   5.620   3.373
 4456SOL    HW114267   2.594   5.674   3.328
 4456SOL    HW214268   2.437   5.670   3.372
 4457SOL     OW14269   2.197   1.777   4.467
 4457SOL    HW114270   2.280   1.777   4.411
 4457SOL    HW214271   2.172   1.683   4.490
 4458SOL     OW14272   2.462   3.771   1.547
 4458SOL    HW114273   2.384   3.792   1.605
 4458SOL    HW214274   2.430   3.732   1.460
 4459SOL     OW14275   2.722   1.799   4.050
 4459SOL    HW114276   2.817   1.829   4.052
 4459SOL    HW214277   2.661   1.878   4.057
 4460SOL     OW14278   0.769   2.948   6.389
 4460SOL    HW114279   0.756   2.874   6.456
 4460SOL    HW214280   0.681   2.974   6.351
 4461SOL     OW14281   1.763   0.864   0.647
 4461SOL    HW114282   1.834   0.824   0.705
 4461SOL    HW214283   1.744   0.957   0.677
 4462SOL     OW14284   6.498   4.190   2.211
 4462SOL    HW114285   6.555   4.191   2.129
 4462SOL    HW214286   6.411   4.235   2.192
 4463SOL     OW14287   5.321   1.714   1.379
 4463SOL    HW114288   5.291   1.623   1.406
 4463SOL    HW214289   5.280   1.782   1.440
 4464SOL     OW14290   0.663   5.824   0.087
 4464SOL    HW114291   0.673   5.820   7.014
 4464SOL    HW214292   0.751   5.805   0.130
 4465SOL     OW14293   2.747   4.966   0.261
 4465SOL    HW114294   2.766   4.869   0.241
 4465SOL    HW214295   2.806   5.024   0.205
 4466SOL     OW14296   1.276   2.158   2.556
 4466SOL    HW114297   1.269   2.061   2.534
 4466SOL    HW214298   1.307   2.209   2.476
 4467SOL     OW14299   2.381   5.478   3.689
 4467SOL    HW114300   2.323   5.448   3.613
 4467SOL    HW214301   2.365   5.575   3.707
 4468SOL     OW14302   1.072   4.524   1.172
 4468SOL    HW114303   1.004   4.594   1.194
 4468SOL    HW214304   1.082   4.519   1.072
 4469SOL     OW14305   2.975   1.080   1.634
 4469SOL    HW114306   2.953   1.042   1.724
 4469SOL    HW214307   3.055   1.033   1.597
 4470SOL     OW14308   0.613   1.738   2.081
 4470SOL    HW114309   0.628   1.741   1.982
 4470SOL    HW214310   0.523   1.700   2.100
 4471SOL     OW14311   2.013   2.581   7.003
 4471SOL    HW114312   1.940   2.548   6.943
 4471SOL    HW214313   2.094   2.523   6.992
 4472SOL     OW14314   1.202   1.874   0.671
 4472SOL    HW114315   1.187   1.784   0.711
 4472SOL    HW214316   1.114   1.915   0.648
 4473SOL     OW14317   5.493   3.242   3.596
 4473SOL    HW114318   5.554   3.203   3.665
 4473SOL    HW214319   5.438   3.315   3.637
 4474SOL     OW14320   2.718   6.919   2.230
 4474SOL    HW114321   2.771   6.840   2.261
 4474SOL    HW214322   2.621   6.903   2.244
 4475SOL     OW14323   0.885   3.632   1.788
 4475SOL    HW114324   0.819   3.692   1.833
 4475SOL    HW214325   0.850   3.606   1.698
 4476SOL     OW14326   6.102   0.955   4.526
 4476SOL    HW114327   6.085   1.051   4.507
 4476SOL    HW214328   6.032   0.919   4.588
 4477SOL     OW14329   1.948   0.502   5.148
 4477SOL    HW114330   1.859   0.470   5.179
 4477SOL    HW214331   1.978   0.578   5.205
 4478SOL     OW14332   1.142   0.321   1.669
 4478SOL    HW114333   1.234   0.326   1.631
 4478SOL    HW214334   1.107   0.228   1.662
 4479SOL     OW14335   1.447   1.613   1.002
 4479SOL    HW114336   1.391   1.569   0.931
 4479SOL    HW214337   1.521   1.665   0.958
 4480SOL     OW14338   0.603   4.530   5.025
 4480SOL    HW114339   0.665   4.537   5.103
 4480SOL    HW214340   0.653   4.553   4.941
 4481SOL     OW14341   2.533   5.205   5.025
 4481SOL    HW114342   2.434   5.212   5.012
 4481SOL    HW214343   2.554   5.205   5.123
 4482SOL     OW14344   2.422   3.143   5.670
 4482SOL    HW114345   2.477   3.226   5.681
 4482SOL    HW214346   2.387   3.138   5.576
 4483SOL     OW14347   0.557   2.638   2.093
 4483SOL    HW114348   0.559   2.571   2.167
 4483SOL    HW214349   0.479   2.621   2.034
 4484SOL     OW14350   2.654   3.020   0.122
 4484SOL    HW114351   2.691   3.109   0.148
 4484SOL    HW214352   2.698   2.948   0.176
 4485SOL     OW14353   4.547   2.806   5.319
 4485SOL    HW114354   4.475   2.744   5.352
 4485SOL    HW214355   4.518   2.901   5.332
 4486SOL     OW14356   5.763   5.012   4.949
 4486SOL    HW114357   5.759   4.921   4.908
 4486SOL    HW214358   5.693   5.019   5.020
 4487SOL     OW14359   2.405   2.861   0.064
 4487SOL    HW114360   2.453   2.923   0.126
 4487SOL    HW214361   2.338   2.912   0.010
 4488SOL     OW14362   1.164   3.738   4.357
 4488SOL    HW114363   1.080   3.711   4.405
 4488SOL    HW214364   1.180   3.675   4.280
 4489SOL     OW14365   5.068   5.555   5.150
 4489SOL    HW114366   5.017   5.594   5.227
 4489SOL    HW214367   5.017   5.478   5.111
 4490SOL     OW14368   4.839   2.453   1.335
 4490SOL    HW114369   4.751   2.406   1.327
 4490SOL    HW214370   4.853   2.511   1.255
 4491SOL     OW14371   0.903   3.345   3.221
 4491SOL    HW114372   0.967   3.313   3.290
 4491SOL    HW214373   0.872   3.267   3.165
 4492SOL     OW14374   5.996   2.444   2.274
 4492SOL    HW114375   6.040   2.418   2.360
 4492SOL    HW214376   6.039   2.527   2.239
 4493SOL     OW14377   5.809   6.545   4.601
 4493SOL    HW114378   5.714   6.571   4.588
 4493SOL    HW214379   5.851   6.606   4.668
 4494SOL     OW14380   1.188   0.487   6.155
 4494SOL    HW114381   1.122   0.452   6.221
 4494SOL    HW214382   1.178   0.586   6.148
 4495SOL     OW14383   4.081   0.258   2.978
 4495SOL    HW114384   4.057   0.163   2.999
 4495SOL    HW214385   4.167   0.259   2.927
 4496SOL     OW14386   5.165   6.305   0.147
 4496SOL    HW114387   5.171   6.354   0.233
 4496SOL    HW214388   5.069   6.288   0.125
 4497SOL     OW14389   3.901   2.653   6.720
 4497SOL    HW114390   3.881   2.746   6.688
 4497SOL    HW214391   3.827   2.621   6.778
 4498SOL     OW14392   6.861   4.902   6.501
 4498SOL    HW114393   6.951   4.874   6.536
 4498SOL    HW214394   6.841   4.851   6.418
 4499SOL     OW14395   5.806   2.138   3.735
 4499SOL    HW114396   5.737   2.142   3.808
 4499SOL    HW214397   5.841   2.230   3.717
 4500SOL     OW14398   3.729   4.510   6.743
 4500SOL    HW114399   3.746   4.448   6.666
 4500SOL    HW214400   3.791   4.588   6.737
 4501SOL     OW14401   5.768   2.654   3.044
 4501SOL    HW114402   5.683   2.686   3.086
 4501SOL    HW214403   5.767   2.677   2.946
 4502SOL     OW14404   1.006   4.122   6.678
 4502SOL    HW114405   1.044   4.061   6.747
 4502SOL    HW214406   1.059   4.114   6.594
 4503SOL     OW14407   2.994   0.251   2.067
 4503SOL    HW114408   2.992   0.153   2.049
 4503SOL    HW214409   2.901   0.285   2.076
 4504SOL     OW14410   6.280   2.316   4.507
 4504SOL    HW114411   6.189   2.357   4.500
 4504SOL    HW214412   6.275   2.219   4.483
 4505SOL     OW14413   6.642   4.259   1.989
 4505SOL    HW114414   6.734   4.293   1.972
 4505SOL    HW214415   6.587   4.267   1.906
 4506SOL     OW14416   5.249   2.797   3.854
 4506SOL    HW114417   5.273   2.885   3.812
 4506SOL    HW214418   5.271   2.723   3.790
 4507SOL     OW14419   0.055   3.101   3.844
 4507SOL    HW114420   0.129   3.126   3.781
 4507SOL    HW214421   0.082   3.020   3.896
 4508SOL     OW14422   1.423   4.663   0.070
 4508SOL    HW114423   1.421   4.716   7.012
 4508SOL    HW214424   1.506   4.607   0.072
 4509SOL     OW14425   4.609   2.603   3.061
 4509SOL    HW114426   4.692   2.602   3.116
 4509SOL    HW214427   4.620   2.666   2.984
 4510SOL     OW14428   4.833   1.138   4.374
 4510SOL    HW114429   4.878   1.097   4.453
 4510SOL    HW214430   4.873   1.102   4.290
 4511SOL     OW14431   6.168   3.719   0.717
 4511SOL    HW114432   6.095   3.713   0.650
 4511SOL    HW214433   6.157   3.802   0.771
 4512SOL     OW14434   3.573   1.924   5.641
 4512SOL    HW114435   3.579   1.910   5.542
 4512SOL    HW214436   3.480   1.905   5.672
 4513SOL     OW14437   0.708   5.866   6.415
 4513SOL    HW114438   0.678   5.839   6.506
 4513SOL    HW214439   0.749   5.957   6.418
 4514SOL     OW14440   3.446   2.847   0.123
 4514SOL    HW114441   3.376   2.911   0.092
 4514SOL    HW214442   3.402   2.763   0.155
 4515SOL     OW14443   5.080   1.427   4.973
 4515SOL    HW114444   5.069   1.328   4.984
 4515SOL    HW214445   5.168   1.455   5.012
 4516SOL     OW14446   2.214   0.600   5.621
 4516SOL    HW114447   2.222   0.522   5.683
 4516SOL    HW214448   2.137   0.584   5.558
 4517SOL     OW14449   4.476   6.566   6.425
 4517SOL    HW114450   4.459   6.476   6.467
 4517SOL    HW214451   4.451   6.563   6.328
 4518SOL     OW14452   1.032   6.596   1.490
 4518SOL    HW114453   0.998   6.505   1.465
 4518SOL    HW214454   1.086   6.633   1.415
 4519SOL     OW14455   4.994   6.472   6.741
 4519SOL    HW114456   5.072   6.409   6.748
 4519SOL    HW214457   4.914   6.422   6.707
 4520SOL     OW14458   4.359   5.673   5.781
 4520SOL    HW114459   4.458   5.660   5.793
 4520SOL    HW214460   4.335   5.650   5.687
 4521SOL     OW14461   5.143   2.326   5.134
 4521SOL    HW114462   5.099   2.236   5.124
 4521SOL    HW214463   5.229   2.315   5.183
 4522SOL     OW14464   6.285   4.027   3.059
 4522SOL    HW114465   6.326   3.936   3.062
 4522SOL    HW214466   6.194   4.024   3.099
 4523SOL     OW14467   1.873   4.017   6.908
 4523SOL    HW114468   1.890   4.031   6.811
 4523SOL    HW214469   1.786   3.969   6.920
 4524SOL     OW14470   6.811   3.416   2.274
 4524SOL    HW114471   6.768   3.327   2.288
 4524SOL    HW214472   6.909   3.409   2.291
 4525SOL     OW14473   3.366   2.075   5.437
 4525SOL    HW114474   3.399   2.099   5.346
 4525SOL    HW214475   3.317   1.987   5.433
 4526SOL     OW14476   0.231   1.116   0.108
 4526SOL    HW114477   0.327   1.130   0.132
 4526SOL    HW214478   0.185   1.068   0.183
 4527SOL     OW14479   6.524   0.548   2.878
 4527SOL    HW114480   6.499   0.629   2.825
 4527SOL    HW214481   6.442   0.512   2.923
 4528SOL     OW14482   4.317   0.759   6.354
 4528SOL    HW114483   4.358   0.707   6.279
 4528SOL    HW214484   4.308   0.855   6.327
 4529SOL     OW14485   3.045   1.517   5.779
 4529SOL    HW114486   2.989   1.571   5.842
 4529SOL    HW214487   3.019   1.420   5.787
 4530SOL     OW14488   2.509   5.437   3.929
 4530SOL    HW114489   2.605   5.436   3.901
 4530SOL    HW214490   2.451   5.452   3.849
 4531SOL     OW14491   0.955   3.639   6.643
 4531SOL    HW114492   0.980   3.694   6.563
 4531SOL    HW214493   0.894   3.565   6.614
 4532SOL     OW14494   5.013   0.848   2.986
 4532SOL    HW114495   5.083   0.852   3.057
 4532SOL    HW214496   4.997   0.753   2.959
 4533SOL     OW14497   1.663   1.459   3.266
 4533SOL    HW114498   1.578   1.411   3.286
 4533SOL    HW214499   1.647   1.527   3.194
 4534SOL     OW14500   4.201   2.245   5.326
 4534SOL    HW114501   4.188   2.265   5.229
 4534SOL    HW214502   4.276   2.180   5.337
 4535SOL     OW14503   3.500   1.071   1.276
 4535SOL    HW114504   3.462   0.981   1.299
 4535SOL    HW214505   3.462   1.140   1.336
 4536SOL     OW14506   3.010   1.305   5.418
 4536SOL    HW114507   2.927   1.273   5.373
 4536SOL    HW214508   3.056   1.229   5.464
 4537SOL     OW14509   4.090   3.649   2.678
 4537SOL    HW114510   4.190   3.640   2.679
 4537SOL    HW214511   4.061   3.684   2.589
 4538SOL     OW14512   2.110   1.677   2.505
 4538SOL    HW114513   2.118   1.626   2.591
 4538SOL    HW214514   2.188   1.739   2.496
 4539SOL     OW14515   2.101   5.650   4.426
 4539SOL    HW114516   2.170   5.641   4.498
 4539SOL    HW214517   2.051   5.736   4.439
 4540SOL     OW14518   1.247   1.392   0.931
 4540SOL    HW114519   1.308   1.406   0.853
 4540SOL    HW214520   1.156   1.365   0.898
 4541SOL     OW14521   4.699   1.388   6.748
 4541SOL    HW114522   4.775   1.339   6.791
 4541SOL    HW214523   4.612   1.353   6.784
 4542SOL     OW14524   0.188   1.980   1.333
 4542SOL    HW114525   0.236   1.893   1.321
 4542SOL    HW214526   0.111   1.968   1.395
 4543SOL     OW14527   4.394   2.202   0.709
 4543SOL    HW114528   4.324   2.201   0.780
 4543SOL    HW214529   4.461   2.130   0.727
 4544SOL     OW14530   4.243   4.548   0.821
 4544SOL    HW114531   4.199   4.491   0.752
 4544SOL    HW214532   4.183   4.557   0.900
 4545SOL     OW14533   0.412   3.682   5.360
 4545SOL    HW114534   0.367   3.748   5.420
 4545SOL    HW214535   0.353   3.602   5.349
 4546SOL     OW14536   3.055   6.955   5.272
 4546SOL    HW114537   3.102   7.016   5.335
 4546SOL    HW214538   3.000   7.008   5.207
 4547SOL     OW14539   6.383   0.676   0.178
 4547SOL    HW114540   6.378   0.729   0.094
 4547SOL    HW214541   6.338   0.726   0.252
 4548SOL     OW14542   2.622   2.078   3.405
 4548SOL    HW114543   2.550   2.096   3.472
 4548SOL    HW214544   2.620   2.149   3.334
 4549SOL     OW14545   5.300   4.089   2.216
 4549SOL    HW114546   5.236   4.108   2.291
 4549SOL    HW214547   5.250   4.083   2.130
 4550SOL     OW14548   0.994   4.463   3.828
 4550SOL    HW114549   1.040   4.452   3.740
 4550SOL    HW214550   1.050   4.518   3.889
 4551SOL     OW14551   0.841   3.690   5.525
 4551SOL    HW114552   0.815   3.595   5.542
 4551SOL    HW214553   0.758   3.745   5.513
 4552SOL     OW14554   5.931   2.303   1.503
 4552SOL    HW114555   5.841   2.262   1.493
 4552SOL    HW214556   5.949   2.366   1.427
 4553SOL     OW14557   5.138   4.266   0.038
 4553SOL    HW114558   5.186   4.297   6.983
 4553SOL    HW214559   5.138   4.339   0.106
 4554SOL     OW14560   0.188   7.013   1.398
 4554SOL    HW114561   0.286   7.002   1.385
 4554SOL    HW214562   0.160   6.964   1.481
 4555SOL     OW14563   1.264   1.243   6.639
 4555SOL    HW114564   1.276   1.275   6.545
 4555SOL    HW214565   1.324   1.296   6.700
 4556SOL     OW14566   6.233   3.161   5.405
 4556SOL    HW114567   6.150   3.197   5.362
 4556SOL    HW214568   6.216   3.142   5.501
 4557SOL     OW14569   5.950   4.981   4.632
 4557SOL    HW114570   5.958   4.951   4.537
 4557SOL    HW214571   5.893   5.063   4.636
 4558SOL     OW14572   6.731   3.246   5.172
 4558SOL    HW114573   6.811   3.187   5.183
 4558SOL    HW214574   6.694   3.270   5.261
 4559SOL     OW14575   0.713   3.473   2.601
 4559SOL    HW114576   0.802   3.519   2.603
 4559SOL    HW214577   0.644   3.532   2.643
 4560SOL     OW14578   6.336   4.490   2.232
 4560SOL    HW114579   6.372   4.513   2.142
 4560SOL    HW214580   6.271   4.415   2.224
 4561SOL     OW14581   3.547   1.639   3.818
 4561SOL    HW114582   3.515   1.733   3.832
 4561SOL    HW214583   3.642   1.640   3.787
 4562SOL     OW14584   2.062   6.522   0.450
 4562SOL    HW114585   2.043   6.520   0.352
 4562SOL    HW214586   2.001   6.588   0.494
 4563SOL     OW14587   6.691   3.479   1.138
 4563SOL    HW114588   6.681   3.564   1.189
 4563SOL    HW214589   6.787   3.451   1.139
 4564SOL     OW14590   6.895   4.445   2.328
 4564SOL    HW114591   6.874   4.441   2.425
 4564SOL    HW214592   6.963   4.516   2.311
 4565SOL     OW14593   1.357   1.700   4.764
 4565SOL    HW114594   1.400   1.616   4.795
 4565SOL    HW214595   1.395   1.727   4.675
 4566SOL     OW14596   0.473   3.522   0.981
 4566SOL    HW114597   0.528   3.498   1.062
 4566SOL    HW214598   0.531   3.570   0.915
 4567SOL     OW14599   0.063   0.405   0.026
 4567SOL    HW114600   0.099   0.445   6.969
 4567SOL    HW214601   6.997   0.371   0.010
 4568SOL     OW14602   0.975   4.653   4.981
 4568SOL    HW114603   0.941   4.586   4.916
 4568SOL    HW214604   0.976   4.614   5.073
 4569SOL     OW14605   2.855   0.466   2.658
 4569SOL    HW114606   2.828   0.392   2.720
 4569SOL    HW214607   2.870   0.428   2.567
 4570SOL     OW14608   6.280   6.361   2.119
 4570SOL    HW114609   6.207   6.403   2.065
 4570SOL    HW214610   6.240   6.305   2.191
 4571SOL     OW14611   4.260   3.346   6.844
 4571SOL    HW114612   4.181   3.330   6.903
 4571SOL    HW214613   4.264   3.275   6.774
 4572SOL     OW14614   2.014   1.888   6.521
 4572SOL    HW114615   2.024   1.948   6.441
 4572SOL    HW214616   2.016   1.792   6.491
 4573SOL     OW14617   0.940   0.040   0.570
 4573SOL    HW114618   0.904   0.015   0.660
 4573SOL    HW214619   0.888   7.020   0.499
 4574SOL     OW14620   5.822   4.144   6.758
 4574SOL    HW114621   5.857   4.224   6.806
 4574SOL    HW214622   5.793   4.170   6.666
 4575SOL     OW14623   5.885   0.965   4.685
 4575SOL    HW114624   5.831   0.977   4.602
 4575SOL    HW214625   5.826   0.937   4.761
 4576SOL     OW14626   2.641   4.718   5.519
 4576SOL    HW114627   2.670   4.649   5.452
 4576SOL    HW214628   2.627   4.805   5.472
 4577SOL     OW14629   1.449   2.542   3.155
 4577SOL    HW114630   1.413   2.620   3.207
 4577SOL    HW214631   1.541   2.564   3.122
 4578SOL     OW14632   0.851   1.062   3.850
 4578SOL    HW114633   0.869   1.158   3.870
 4578SOL    HW214634   0.759   1.038   3.880
 4579SOL     OW14635   5.107   1.291   1.378
 4579SOL    HW114636   5.031   1.324   1.323
 4579SOL    HW214637   5.160   1.368   1.412
 4580SOL     OW14638   5.546   4.296   0.924
 4580SOL    HW114639   5.626   4.324   0.977
 4580SOL    HW214640   5.463   4.323   0.972
 4581SOL     OW14641   2.657   6.374   2.208
 4581SOL    HW114642   2.602   6.312   2.152
 4581SOL    HW214643   2.753   6.348   2.202
 4582SOL     OW14644   4.573   0.951   3.089
 4582SOL    HW114645   4.538   0.912   3.174
 4582SOL    HW214646   4.521   1.033   3.065
 4583SOL     OW14647   2.106   0.949   6.182
 4583SOL    HW114648   2.152   1.019   6.127
 4583SOL    HW214649   2.160   0.931   6.265
 4584SOL     OW14650   1.725   6.238   5.897
 4584SOL    HW114651   1.735   6.147   5.937
 4584SOL    HW214652   1.685   6.231   5.806
 4585SOL     OW14653   1.618   3.987   3.402
 4585SOL    HW114654   1.605   4.045   3.482
 4585SOL    HW214655   1.616   3.891   3.430
 4586SOL     OW14656   5.401   3.850   1.002
 4586SOL    HW114657   5.487   3.807   1.029
 4586SOL    HW214658   5.420   3.923   0.936
 4587SOL     OW14659   3.509   3.193   4.408
 4587SOL    HW114660   3.568   3.145   4.472
 4587SOL    HW214661   3.440   3.131   4.372
 4588SOL     OW14662   3.293   3.347   5.904
 4588SOL    HW114663   3.311   3.285   5.828
 4588SOL    HW214664   3.251   3.297   5.979
 4589SOL     OW14665   5.663   6.472   1.794
 4589SOL    HW114666   5.710   6.550   1.753
 4589SOL    HW214667   5.566   6.475   1.768
 4590SOL     OW14668   3.494   6.252   1.506
 4590SOL    HW114669   3.562   6.181   1.522
 4590SOL    HW214670   3.510   6.294   1.416
 4591SOL     OW14671   1.871   0.849   4.624
 4591SOL    HW114672   1.841   0.940   4.595
 4591SOL    HW214673   1.857   0.840   4.723
 4592SOL     OW14674   2.617   2.014   3.834
 4592SOL    HW114675   2.587   2.029   3.928
 4592SOL    HW214676   2.544   1.969   3.783
 4593SOL     OW14677   6.246   5.856   2.651
 4593SOL    HW114678   6.334   5.892   2.621
 4593SOL    HW214679   6.238   5.864   2.750
 4594SOL     OW14680   3.452   0.305   3.024
 4594SOL    HW114681   3.546   0.316   2.992
 4594SOL    HW214682   3.439   0.356   3.109
 4595SOL     OW14683   4.610   2.817   5.917
 4595SOL    HW114684   4.623   2.905   5.962
 4595SOL    HW214685   4.545   2.762   5.969
 4596SOL     OW14686   6.859   0.811   2.267
 4596SOL    HW114687   6.810   0.747   2.327
 4596SOL    HW214688   6.955   0.783   2.261
 4597SOL     OW14689   2.962   5.491   6.840
 4597SOL    HW114690   3.012   5.533   6.764
 4597SOL    HW214691   2.961   5.392   6.828
 4598SOL     OW14692   2.133   5.790   1.231
 4598SOL    HW114693   2.178   5.788   1.141
 4598SOL    HW214694   2.097   5.700   1.252
 4599SOL     OW14695   1.671   3.753   2.258
 4599SOL    HW114696   1.581   3.789   2.233
 4599SOL    HW214697   1.714   3.815   2.325
 4600SOL     OW14698   0.544   0.057   5.979
 4600SOL    HW114699   0.448   0.081   5.970
 4600SOL    HW214700   0.567   7.013   5.912
 4601SOL     OW14701   0.612   1.653   5.300
 4601SOL    HW114702   0.581   1.748   5.312
 4601SOL    HW214703   0.653   1.621   5.386
 4602SOL     OW14704   3.010   0.014   6.337
 4602SOL    HW114705   3.081   6.979   6.303
 4602SOL    HW214706   2.954   6.994   6.404
 4603SOL     OW14707   3.659   6.070   0.884
 4603SOL    HW114708   3.723   5.999   0.856
 4603SOL    HW214709   3.579   6.029   0.927
 4604SOL     OW14710   5.092   6.754   5.883
 4604SOL    HW114711   5.119   6.848   5.904
 4604SOL    HW214712   5.117   6.695   5.959
 4605SOL     OW14713   2.290   0.323   1.910
 4605SOL    HW114714   2.212   0.263   1.925
 4605SOL    HW214715   2.267   0.392   1.841
 4606SOL     OW14716   6.778   7.006   2.462
 4606SOL    HW114717   6.866   7.017   2.510
 4606SOL    HW214718   6.790   0.003   2.365
 4607SOL     OW14719   2.132   3.584   3.289
 4607SOL    HW114720   2.146   3.671   3.336
 4607SOL    HW214721   2.114   3.601   3.193
 4608SOL     OW14722   0.473   3.949   3.607
 4608SOL    HW114723   0.494   3.969   3.512
 4608SOL    HW214724   0.412   3.870   3.613
 4609SOL     OW14725   5.160   5.160   7.027
 4609SOL    HW114726   5.085   5.198   6.972
 4609SOL    HW214727   5.183   5.069   6.992
 4610SOL     OW14728   4.835   2.165   6.627
 4610SOL    HW114729   4.743   2.135   6.601
 4610SOL    HW214730   4.898   2.088   6.621
 4611SOL     OW14731   0.390   0.859   5.796
 4611SOL    HW114732   0.446   0.919   5.739
 4611SOL    HW214733   0.427   0.766   5.792
 4612SOL     OW14734   2.220   6.691   1.738
 4612SOL    HW114735   2.178   6.752   1.806
 4612SOL    HW214736   2.319   6.687   1.754
 4613SOL     OW14737   1.536   5.435   2.303
 4613SOL    HW114738   1.572   5.518   2.260
 4613SOL    HW214739   1.593   5.357   2.277
 4614SOL     OW14740   6.051   3.143   3.705
 4614SOL    HW114741   6.122   3.213   3.705
 4614SOL    HW214742   5.989   3.158   3.628
 4615SOL     OW14743   1.337   0.700   1.818
 4615SOL    HW114744   1.243   0.670   1.802
 4615SOL    HW214745   1.394   0.620   1.839
 4616SOL     OW14746   5.975   2.817   4.155
 4616SOL    HW114747   6.055   2.866   4.191
 4616SOL    HW214748   5.995   2.782   4.064
 4617SOL     OW14749   1.506   2.322   2.271
 4617SOL    HW114750   1.542   2.413   2.293
 4617SOL    HW214751   1.411   2.316   2.301
 4618SOL     OW14752   2.802   3.304   5.426
 4618SOL    HW114753   2.754   3.220   5.453
 4618SOL    HW214754   2.736   3.371   5.392
 4619SOL     OW14755   3.499   6.552   3.861
 4619SOL    HW114756   3.434   6.617   3.822
 4619SOL    HW214757   3.466   6.459   3.847
 4620SOL     OW14758   0.455   5.254   1.273
 4620SOL    HW114759   0.485   5.349   1.266
 4620SOL    HW214760   0.504   5.198   1.206
 4621SOL     OW14761   5.240   0.361   2.366
 4621SOL    HW114762   5.301   0.419   2.313
 4621SOL    HW214763   5.145   0.381   2.340
 4622SOL     OW14764   4.409   4.734   1.387
 4622SOL    HW114765   4.367   4.748   1.297
 4622SOL    HW214766   4.393   4.639   1.416
 4623SOL     OW14767   3.848   5.850   0.779
 4623SOL    HW114768   3.778   5.796   0.732
 4623SOL    HW214769   3.917   5.879   0.713
 4624SOL     OW14770   3.450   1.291   3.118
 4624SOL    HW114771   3.394   1.277   3.036
 4624SOL    HW214772   3.390   1.312   3.196
 4625SOL     OW14773   2.299   6.124   1.707
 4625SOL    HW114774   2.361   6.195   1.740
 4625SOL    HW214775   2.342   6.076   1.630
 4626SOL     OW14776   4.186   3.687   1.415
 4626SOL    HW114777   4.227   3.605   1.377
 4626SOL    HW214778   4.255   3.737   1.468
 4627SOL     OW14779   0.233   5.992   4.955
 4627SOL    HW114780   0.206   6.024   5.046
 4627SOL    HW214781   0.332   5.979   4.953
 4628SOL     OW14782   4.855   4.629   3.834
 4628SOL    HW114783   4.778   4.693   3.833
 4628SOL    HW214784   4.895   4.623   3.743
 4629SOL     OW14785   2.797   5.343   6.452
 4629SOL    HW114786   2.817   5.250   6.421
 4629SOL    HW214787   2.877   5.380   6.499
 4630SOL     OW14788   2.326   5.252   2.430
 4630SOL    HW114789   2.421   5.249   2.401
 4630SOL    HW214790   2.321   5.276   2.527
 4631SOL     OW14791   0.862   6.932   3.762
 4631SOL    HW114792   0.935   6.869   3.735
 4631SOL    HW214793   0.789   6.881   3.806
 4632SOL     OW14794   2.290   5.283   2.698
 4632SOL    HW114795   2.293   5.337   2.782
 4632SOL    HW214796   2.256   5.191   2.719
 4633SOL     OW14797   5.087   1.397   4.456
 4633SOL    HW114798   5.147   1.455   4.401
 4633SOL    HW214799   5.043   1.329   4.397
 4634SOL     OW14800   2.990   3.815   4.928
 4634SOL    HW114801   2.926   3.842   4.999
 4634SOL    HW214802   3.035   3.729   4.954
 4635SOL     OW14803   4.154   4.260   1.383
 4635SOL    HW114804   4.187   4.223   1.470
 4635SOL    HW214805   4.231   4.300   1.333
 4636SOL     OW14806   1.873   5.095   1.114
 4636SOL    HW114807   1.777   5.099   1.087
 4636SOL    HW214808   1.903   4.999   1.116
 4637SOL     OW14809   0.895   6.570   0.312
 4637SOL    HW114810   0.970   6.624   0.274
 4637SOL    HW214811   0.823   6.561   0.244
 4638SOL     OW14812   3.603   5.299   6.946
 4638SOL    HW114813   3.539   5.249   6.888
 4638SOL    HW214814   3.689   5.314   6.896
 4639SOL     OW14815   2.536   2.727   6.555
 4639SOL    HW114816   2.556   2.648   6.613
 4639SOL    HW214817   2.513   2.806   6.613
 4640SOL     OW14818   6.253   3.032   3.943
 4640SOL    HW114819   6.273   2.956   3.881
 4640SOL    HW214820   6.339   3.066   3.981
 4641SOL     OW14821   1.990   0.029   3.604
 4641SOL    HW114822   2.003   0.018   3.505
 4641SOL    HW214823   1.909   7.006   3.633
 4642SOL     OW14824   1.719   0.554   3.315
 4642SOL    HW114825   1.818   0.554   3.302
 4642SOL    HW214826   1.688   0.646   3.339
 4643SOL     OW14827   6.621   2.290   0.578
 4643SOL    HW114828   6.521   2.286   0.582
 4643SOL    HW214829   6.659   2.273   0.669
 4644SOL     OW14830   6.505   0.901   5.972
 4644SOL    HW114831   6.442   0.948   5.910
 4644SOL    HW214832   6.591   0.951   5.977
 4645SOL     OW14833   1.249   0.832   4.430
 4645SOL    HW114834   1.187   0.880   4.492
 4645SOL    HW214835   1.329   0.889   4.412
 4646SOL     OW14836   2.771   5.246   4.286
 4646SOL    HW114837   2.729   5.207   4.368
 4646SOL    HW214838   2.709   5.236   4.208
 4647SOL     OW14839   1.290   0.516   3.224
 4647SOL    HW114840   1.230   0.462   3.166
 4647SOL    HW214841   1.319   0.598   3.174
 4648SOL     OW14842   2.450   0.804   4.258
 4648SOL    HW114843   2.504   0.862   4.320
 4648SOL    HW214844   2.510   0.748   4.203
 4649SOL     OW14845   5.715   0.784   1.052
 4649SOL    HW114846   5.666   0.810   0.969
 4649SOL    HW214847   5.737   0.867   1.104
 4650SOL     OW14848   4.437   6.177   1.623
 4650SOL    HW114849   4.409   6.261   1.670
 4650SOL    HW214850   4.508   6.197   1.556
 4651SOL     OW14851   6.043   3.738   6.794
 4651SOL    HW114852   6.046   3.656   6.737
 4651SOL    HW214853   5.995   3.811   6.746
 4652SOL     OW14854   6.060   6.369   4.793
 4652SOL    HW114855   5.969   6.410   4.789
 4652SOL    HW214856   6.114   6.415   4.863
 4653SOL     OW14857   5.192   5.197   0.289
 4653SOL    HW114858   5.231   5.105   0.294
 4653SOL    HW214859   5.161   5.216   0.196
 4654SOL     OW14860   6.795   6.734   5.706
 4654SOL    HW114861   6.706   6.771   5.731
 4654SOL    HW214862   6.859   6.809   5.688
 4655SOL     OW14863   4.936   3.841   1.864
 4655SOL    HW114864   5.007   3.846   1.795
 4655SOL    HW214865   4.976   3.814   1.952
 4656SOL     OW14866   0.949   0.519   1.579
 4656SOL    HW114867   1.034   0.469   1.601
 4656SOL    HW214868   0.966   0.617   1.587
 4657SOL     OW14869   5.507   6.049   2.055
 4657SOL    HW114870   5.606   6.038   2.047
 4657SOL    HW214871   5.470   5.977   2.114
 4658SOL     OW14872   2.743   2.813   5.577
 4658SOL    HW114873   2.786   2.786   5.663
 4658SOL    HW214874   2.799   2.783   5.500
 4659SOL     OW14875   3.310   4.132   1.160
 4659SOL    HW114876   3.279   4.050   1.208
 4659SOL    HW214877   3.233   4.173   1.111
 4660SOL     OW14878   1.588   7.012   3.820
 4660SOL    HW114879   1.517   6.974   3.761
 4660SOL    HW214880   1.557   0.071   3.859
 4661SOL     OW14881   2.882   4.643   5.965
 4661SOL    HW114882   2.792   4.629   6.006
 4661SOL    HW214883   2.873   4.656   5.866
 4662SOL     OW14884   2.955   0.237   4.743
 4662SOL    HW114885   2.958   0.285   4.655
 4662SOL    HW214886   2.889   0.162   4.737
 4663SOL     OW14887   0.444   6.944   0.310
 4663SOL    HW114888   0.525   6.895   0.342
 4663SOL    HW214889   0.401   6.991   0.387
 4664SOL     OW14890   6.923   0.549   0.592
 4664SOL    HW114891   6.965   0.493   0.663
 4664SOL    HW214892   6.949   0.512   0.502
 4665SOL     OW14893   2.561   0.526   6.273
 4665SOL    HW114894   2.648   0.492   6.238
 4665SOL    HW214895   2.491   0.521   6.202
 4666SOL     OW14896   2.244   2.474   6.682
 4666SOL    HW114897   2.252   2.524   6.768
 4666SOL    HW214898   2.231   2.376   6.701
 4667SOL     OW14899   6.675   3.939   2.136
 4667SOL    HW114900   6.706   4.009   2.201
 4667SOL    HW214901   6.640   3.860   2.186
 4668SOL     OW14902   4.338   1.687   4.874
 4668SOL    HW114903   4.363   1.783   4.864
 4668SOL    HW214904   4.248   1.679   4.916
 4669SOL     OW14905   5.762   0.075   6.919
 4669SOL    HW114906   5.683   0.061   6.859
 4669SOL    HW214907   5.766   0.001   6.986
 4670SOL     OW14908   1.260   3.386   0.095
 4670SOL    HW114909   1.256   3.287   0.111
 4670SOL    HW214910   1.218   3.406   0.006
 4671SOL     OW14911   0.845   3.187   0.387
 4671SOL    HW114912   0.758   3.236   0.383
 4671SOL    HW214913   0.890   3.192   0.297
 4672SOL     OW14914   4.243   4.530   5.913
 4672SOL    HW114915   4.263   4.623   5.882
 4672SOL    HW214916   4.161   4.531   5.971
 4673SOL     OW14917   5.152   0.071   0.096
 4673SOL    HW114918   5.229   0.078   0.033
 4673SOL    HW214919   5.084   0.007   0.059
 4674SOL     OW14920   5.900   1.723   0.238
 4674SOL    HW114921   5.979   1.722   0.299
 4674SOL    HW214922   5.852   1.810   0.247
 4675SOL     OW14923   3.906   0.108   6.715
 4675SOL    HW114924   3.893   0.089   6.812
 4675SOL    HW214925   3.869   0.032   6.661
 4676SOL     OW14926   0.580   6.460   4.456
 4676SOL    HW114927   0.534   6.389   4.403
 4676SOL    HW214928   0.626   6.524   4.394
 4677SOL     OW14929   3.016   0.545   0.288
 4677SOL    HW114930   3.036   0.459   0.335
 4677SOL    HW214931   2.931   0.536   0.236
 4678SOL     OW14932   2.108   5.162   2.267
 4678SOL    HW114933   2.186   5.180   2.327
 4678SOL    HW214934   2.141   5.143   2.174
 4679SOL     OW14935   3.543   1.625   6.287
 4679SOL    HW114936   3.550   1.618   6.188
 4679SOL    HW214937   3.519   1.536   6.326
 4680SOL     OW14938   2.302   6.520   1.475
 4680SOL    HW114939   2.283   6.601   1.420
 4680SOL    HW214940   2.219   6.490   1.522
 4681SOL     OW14941   6.255   6.558   4.219
 4681SOL    HW114942   6.165   6.602   4.227
 4681SOL    HW214943   6.311   6.582   4.299
 4682SOL     OW14944   4.303   5.413   0.076
 4682SOL    HW114945   4.215   5.460   0.077
 4682SOL    HW214946   4.297   5.329   0.130
 4683SOL     OW14947   5.347   4.521   2.255
 4683SOL    HW114948   5.318   4.584   2.327
 4683SOL    HW214949   5.404   4.569   2.188
 4684SOL     OW14950   0.517   2.483   4.564
 4684SOL    HW114951   0.538   2.490   4.662
 4684SOL    HW214952   0.445   2.548   4.541
 4685SOL     OW14953   6.608   5.371   4.454
 4685SOL    HW114954   6.629   5.460   4.415
 4685SOL    HW214955   6.640   5.299   4.393
 4686SOL     OW14956   5.242   5.682   0.182
 4686SOL    HW114957   5.294   5.736   0.115
 4686SOL    HW214958   5.282   5.591   0.189
 4687SOL     OW14959   6.450   4.132   5.047
 4687SOL    HW114960   6.492   4.086   4.969
 4687SOL    HW214961   6.463   4.077   5.129
 4688SOL     OW14962   0.275   3.078   6.504
 4688SOL    HW114963   0.308   3.150   6.564
 4688SOL    HW214964   0.224   3.011   6.557
 4689SOL     OW14965   5.977   0.236   6.090
 4689SOL    HW114966   5.962   0.296   6.011
 4689SOL    HW214967   5.918   0.266   6.165
 4690SOL     OW14968   0.941   0.833   6.803
 4690SOL    HW114969   0.944   0.841   6.902
 4690SOL    HW214970   0.934   0.925   6.763
 4691SOL     OW14971   2.713   3.815   1.679
 4691SOL    HW114972   2.623   3.815   1.636
 4691SOL    HW214973   2.749   3.909   1.681
 4692SOL     OW14974   6.805   5.238   2.855
 4692SOL    HW114975   6.798   5.187   2.940
 4692SOL    HW214976   6.788   5.177   2.778
 4693SOL     OW14977   0.504   1.030   4.759
 4693SOL    HW114978   0.590   1.074   4.784
 4693SOL    HW214979   0.430   1.068   4.815
 4694SOL     OW14980   3.062   0.699   0.497
 4694SOL    HW114981   3.137   0.752   0.459
 4694SOL    HW214982   3.028   0.634   0.429
 4695SOL     OW14983   3.261   3.123   1.884
 4695SOL    HW114984   3.167   3.106   1.855
 4695SOL    HW214985   3.321   3.052   1.846
 4696SOL     OW14986   1.215   4.675   6.054
 4696SOL    HW114987   1.115   4.684   6.053
 4696SOL    HW214988   1.256   4.766   6.055
 4697SOL     OW14989   1.791   3.651   0.925
 4697SOL    HW114990   1.703   3.616   0.891
 4697SOL    HW214991   1.861   3.636   0.856
 4698SOL     OW14992   4.745   4.728   2.557
 4698SOL    HW114993   4.696   4.815   2.559
 4698SOL    HW214994   4.683   4.655   2.528
 4699SOL     OW14995   0.647   0.337   2.607
 4699SOL    HW114996   0.600   0.305   2.690
 4699SOL    HW214997   0.607   0.292   2.527
 4700SOL     OW14998   5.533   1.642   1.652
 4700SOL    HW114999   5.625   1.602   1.647
 4700SOL    HW215000   5.535   1.734   1.614
 4701SOL     OW15001   1.232   1.549   0.138
 4701SOL    HW115002   1.145   1.593   0.116
 4701SOL    HW215003   1.232   1.455   0.103
 4702SOL     OW15004   4.204   4.450   6.496
 4702SOL    HW115005   4.210   4.406   6.586
 4702SOL    HW215006   4.296   4.463   6.460
 4703SOL     OW15007   0.545   2.141   2.484
 4703SOL    HW115008   0.548   2.231   2.527
 4703SOL    HW215009   0.633   2.096   2.492
 4704SOL     OW15010   7.013   6.162   0.940
 4704SOL    HW115011   6.930   6.148   0.886
 4704SOL    HW215012   0.053   6.092   0.917
 4705SOL     OW15013   3.429   2.896   3.027
 4705SOL    HW115014   3.520   2.929   3.003
 4705SOL    HW215015   3.408   2.922   3.121
 4706SOL     OW15016   4.147   5.854   6.493
 4706SOL    HW115017   4.170   5.914   6.416
 4706SOL    HW215018   4.053   5.871   6.521
 4707SOL     OW15019   2.324   5.770   1.022
 4707SOL    HW115020   2.258   5.805   0.956
 4707SOL    HW215021   2.416   5.793   0.993
 4708SOL     OW15022   2.415   2.928   0.856
 4708SOL    HW115023   2.371   2.858   0.912
 4708SOL    HW215024   2.388   2.916   0.760
 4709SOL     OW15025   4.003   5.181   5.115
 4709SOL    HW115026   3.924   5.215   5.166
 4709SOL    HW215027   4.004   5.082   5.118
 4710SOL     OW15028   4.412   0.968   6.177
 4710SOL    HW115029   4.374   0.914   6.102
 4710SOL    HW215030   4.439   1.058   6.143
 4711SOL     OW15031   4.283   0.382   2.723
 4711SOL    HW115032   4.375   0.392   2.762
 4711SOL    HW215033   4.287   0.319   2.645
 4712SOL     OW15034   2.283   4.840   0.871
 4712SOL    HW115035   2.355   4.776   0.844
 4712SOL    HW215036   2.286   4.920   0.812
 4713SOL     OW15037   3.180   4.660   0.865
 4713SOL    HW115038   3.176   4.632   0.961
 4713SOL    HW215039   3.224   4.750   0.858
 4714SOL     OW15040   2.185   2.122   0.019
 4714SOL    HW115041   2.212   2.029   7.025
 4714SOL    HW215042   2.109   2.121   0.085
 4715SOL     OW15043   6.557   3.777   2.375
 4715SOL    HW115044   6.502   3.715   2.432
 4715SOL    HW215045   6.559   3.868   2.417
 4716SOL     OW15046   3.672   5.072   6.408
 4716SOL    HW115047   3.663   5.011   6.487
 4716SOL    HW215048   3.677   5.017   6.324
 4717SOL     OW15049   1.218   5.946   2.277
 4717SOL    HW115050   1.170   5.859   2.287
 4717SOL    HW215051   1.151   6.019   2.263
 4718SOL     OW15052   5.551   1.614   6.806
 4718SOL    HW115053   5.631   1.607   6.866
 4718SOL    HW215054   5.510   1.704   6.815
 4719SOL     OW15055   5.010   3.156   2.685
 4719SOL    HW115056   4.981   3.223   2.754
 4719SOL    HW215057   4.951   3.164   2.605
 4720SOL     OW15058   2.492   6.581   5.613
 4720SOL    HW115059   2.463   6.561   5.519
 4720SOL    HW215060   2.559   6.656   5.611
 4721SOL     OW15061   0.378   2.332   2.027
 4721SOL    HW115062   0.333   2.318   1.938
 4721SOL    HW215063   0.476   2.315   2.016
 4722SOL     OW15064   1.732   6.061   6.700
 4722SOL    HW115065   1.792   5.982   6.688
 4722SOL    HW215066   1.712   6.072   6.797
 4723SOL     OW15067   1.732   5.765   5.949
 4723SOL    HW115068   1.723   5.722   5.859
 4723SOL    HW215069   1.796   5.713   6.005
 4724SOL     OW15070   4.223   6.397   2.611
 4724SOL    HW115071   4.286   6.385   2.687
 4724SOL    HW215072   4.148   6.457   2.638
 4725SOL     OW15073   5.098   6.681   3.207
 4725SOL    HW115074   5.080   6.688   3.305
 4725SOL    HW215075   5.174   6.619   3.191
 4726SOL     OW15076   1.107   3.232   6.457
 4726SOL    HW115077   1.180   3.172   6.490
 4726SOL    HW215078   1.144   3.323   6.440
 4727SOL     OW15079   0.144   5.758   6.642
 4727SOL    HW115080   0.116   5.806   6.725
 4727SOL    HW215081   0.219   5.696   6.663
 4728SOL     OW15082   5.089   1.453   0.614
 4728SOL    HW115083   5.135   1.535   0.647
 4728SOL    HW215084   5.089   1.384   0.686
 4729SOL     OW15085   2.126   0.984   2.872
 4729SOL    HW115086   2.100   1.080   2.861
 4729SOL    HW215087   2.172   0.972   2.960
 4730SOL     OW15088   2.247   6.196   5.601
 4730SOL    HW115089   2.162   6.179   5.651
 4730SOL    HW215090   2.241   6.283   5.553
 4731SOL     OW15091   5.385   0.414   5.653
 4731SOL    HW115092   5.374   0.410   5.553
 4731SOL    HW215093   5.459   0.477   5.675
 4732SOL     OW15094   6.928   3.250   6.644
 4732SOL    HW115095   6.885   3.169   6.604
 4732SOL    HW215096   6.861   3.300   6.699
 4733SOL     OW15097   1.317   3.833   3.426
 4733SOL    HW115098   1.277   3.783   3.350
 4733SOL    HW215099   1.335   3.928   3.398
 4734SOL     OW15100   5.642   2.599   0.149
 4734SOL    HW115101   5.619   2.694   0.132
 4734SOL    HW215102   5.676   2.557   0.065
 4735SOL     OW15103   1.106   4.638   3.415
 4735SOL    HW115104   1.129   4.573   3.488
 4735SOL    HW215105   1.017   4.615   3.377
 4736SOL     OW15106   0.159   1.240   6.673
 4736SOL    HW115107   0.226   1.167   6.668
 4736SOL    HW215108   0.200   1.325   6.641
 4737SOL     OW15109   2.503   4.877   2.437
 4737SOL    HW115110   2.516   4.901   2.533
 4737SOL    HW215111   2.410   4.903   2.410
 4738SOL     OW15112   0.359   6.232   1.984
 4738SOL    HW115113   0.327   6.172   1.911
 4738SOL    HW215114   0.335   6.327   1.963
 4739SOL     OW15115   4.578   0.217   1.976
 4739SOL    HW115116   4.559   0.161   2.056
 4739SOL    HW215117   4.658   0.181   1.928
 4740SOL     OW15118   0.520   1.499   2.491
 4740SOL    HW115119   0.604   1.445   2.482
 4740SOL    HW215120   0.543   1.596   2.496
 4741SOL     OW15121   3.871   2.392   0.832
 4741SOL    HW115122   3.911   2.364   0.920
 4741SOL    HW215123   3.814   2.317   0.797
 4742SOL     OW15124   1.858   6.797   6.861
 4742SOL    HW115125   1.809   6.852   6.929
 4742SOL    HW215126   1.929   6.852   6.818
 4743SOL     OW15127   1.964   3.479   2.830
 4743SOL    HW115128   1.876   3.512   2.795
 4743SOL    HW215129   2.037   3.503   2.766
 4744SOL     OW15130   1.885   5.457   0.752
 4744SOL    HW115131   1.905   5.367   0.792
 4744SOL    HW215132   1.963   5.487   0.697
 4745SOL     OW15133   2.778   3.776   0.177
 4745SOL    HW115134   2.756   3.753   0.082
 4745SOL    HW215135   2.868   3.739   0.200
 4746SOL     OW15136   4.054   5.656   3.833
 4746SOL    HW115137   4.075   5.712   3.913
 4746SOL    HW215138   4.100   5.568   3.840
 4747SOL     OW15139   1.288   2.967   0.535
 4747SOL    HW115140   1.299   2.907   0.614
 4747SOL    HW215141   1.239   3.050   0.564
 4748SOL     OW15142   1.633   6.593   1.782
 4748SOL    HW115143   1.650   6.659   1.854
 4748SOL    HW215144   1.570   6.523   1.814
 4749SOL     OW15145   2.312   6.953   6.969
 4749SOL    HW115146   2.350   6.977   6.880
 4749SOL    HW215147   2.357   6.871   7.003
 4750SOL     OW15148   6.508   3.986   5.265
 4750SOL    HW115149   6.591   4.018   5.309
 4750SOL    HW215150   6.508   3.886   5.261
 4751SOL     OW15151   5.116   2.171   2.768
 4751SOL    HW115152   5.026   2.146   2.732
 4751SOL    HW215153   5.114   2.166   2.868
 4752SOL     OW15154   4.356   1.322   0.616
 4752SOL    HW115155   4.346   1.237   0.668
 4752SOL    HW215156   4.279   1.383   0.636
 4753SOL     OW15157   1.039   6.759   4.467
 4753SOL    HW115158   1.079   6.805   4.547
 4753SOL    HW215159   1.091   6.782   4.385
 4754SOL     OW15160   4.535   4.060   5.944
 4754SOL    HW115161   4.463   4.037   6.010
 4754SOL    HW215162   4.623   4.028   5.978
 4755SOL     OW15163   1.990   0.820   0.849
 4755SOL    HW115164   2.063   0.796   0.785
 4755SOL    HW215165   1.991   0.919   0.865
 4756SOL     OW15166   6.884   4.186   6.522
 4756SOL    HW115167   6.887   4.170   6.621
 4756SOL    HW215168   6.977   4.198   6.487
 4757SOL     OW15169   1.446   2.754   1.700
 4757SOL    HW115170   1.450   2.690   1.623
 4757SOL    HW215171   1.359   2.803   1.698
 4758SOL     OW15172   1.230   0.076   3.485
 4758SOL    HW115173   1.132   0.094   3.471
 4758SOL    HW215174   1.241   0.019   3.567
 4759SOL     OW15175   0.729   5.488   0.036
 4759SOL    HW115176   0.796   5.416   0.015
 4759SOL    HW215177   0.777   5.574   0.051
 4760SOL     OW15178   1.231   6.825   0.921
 4760SOL    HW115179   1.239   6.900   0.855
 4760SOL    HW215180   1.294   6.840   0.997
 4761SOL     OW15181   0.122   0.171   0.701
 4761SOL    HW115182   0.028   0.169   0.735
 4761SOL    HW215183   0.168   0.252   0.736
 4762SOL     OW15184   1.648   5.590   1.987
 4762SOL    HW115185   1.660   5.647   1.906
 4762SOL    HW215186   1.720   5.611   2.053
 4763SOL     OW15187   4.684   5.891   2.439
 4763SOL    HW115188   4.596   5.933   2.415
 4763SOL    HW215189   4.747   5.963   2.467
 4764SOL     OW15190   4.845   3.652   5.369
 4764SOL    HW115191   4.846   3.750   5.390
 4764SOL    HW215192   4.790   3.637   5.287
 4765SOL     OW15193   3.551   0.985   5.683
 4765SOL    HW115194   3.635   0.931   5.675
 4765SOL    HW215195   3.558   1.067   5.626
 4766SOL     OW15196   5.990   0.170   4.272
 4766SOL    HW115197   6.027   0.216   4.192
 4766SOL    HW215198   5.927   0.098   4.242
 4767SOL     OW15199   2.367   5.762   5.096
 4767SOL    HW115200   2.396   5.793   5.186
 4767SOL    HW215201   2.405   5.671   5.078
 4768SOL     OW15202   4.549   3.346   6.411
 4768SOL    HW115203   4.578   3.395   6.329
 4768SOL    HW215204   4.570   3.401   6.492
 4769SOL     OW15205   2.760   5.955   0.893
 4769SOL    HW115206   2.846   5.919   0.857
 4769SOL    HW215207   2.752   6.052   0.871
 4770SOL     OW15208   6.681   2.122   5.565
 4770SOL    HW115209   6.703   2.186   5.638
 4770SOL    HW215210   6.765   2.087   5.524
 4771SOL     OW15211   2.345   6.926   5.080
 4771SOL    HW115212   2.248   6.953   5.082
 4771SOL    HW215213   2.352   6.827   5.068
 4772SOL     OW15214   2.992   4.699   0.676
 4772SOL    HW115215   2.995   4.611   0.629
 4772SOL    HW215216   3.059   4.700   0.750
 4773SOL     OW15217   1.470   5.992   4.366
 4773SOL    HW115218   1.528   5.975   4.445
 4773SOL    HW215219   1.506   5.942   4.287
 4774SOL     OW15220   1.691   4.485   0.427
 4774SOL    HW115221   1.641   4.399   0.421
 4774SOL    HW215222   1.769   4.482   0.364
 4775SOL     OW15223   4.964   6.812   4.751
 4775SOL    HW115224   5.013   6.732   4.716
 4775SOL    HW215225   4.869   6.787   4.771
 4776SOL     OW15226   1.382   1.001   5.050
 4776SOL    HW115227   1.365   0.938   5.127
 4776SOL    HW215228   1.478   0.993   5.021
 4777SOL     OW15229   1.589   5.969   0.387
 4777SOL    HW115230   1.628   5.877   0.400
 4777SOL    HW215231   1.603   6.022   0.471
 4778SOL     OW15232   0.810   2.698   4.816
 4778SOL    HW115233   0.782   2.785   4.775
 4778SOL    HW215234   0.839   2.636   4.743
 4779SOL     OW15235   6.153   0.637   4.133
 4779SOL    HW115236   6.081   0.596   4.076
 4779SOL    HW215237   6.110   0.692   4.204
 4780SOL     OW15238   5.812   2.659   5.854
 4780SOL    HW115239   5.794   2.561   5.853
 4780SOL    HW215240   5.866   2.684   5.774
 4781SOL     OW15241   2.597   5.871   2.313
 4781SOL    HW115242   2.547   5.958   2.306
 4781SOL    HW215243   2.585   5.833   2.404
 4782SOL     OW15244   5.903   5.314   5.576
 4782SOL    HW115245   6.000   5.289   5.579
 4782SOL    HW215246   5.885   5.387   5.642
 4783SOL     OW15247   5.843   4.011   0.433
 4783SOL    HW115248   5.885   3.952   0.364
 4783SOL    HW215249   5.889   4.099   0.435
 4784SOL     OW15250   6.061   2.277   6.301
 4784SOL    HW115251   6.028   2.325   6.220
 4784SOL    HW215252   6.011   2.191   6.311
 4785SOL     OW15253   0.109   6.563   3.263
 4785SOL    HW115254   0.060   6.495   3.210
 4785SOL    HW215255   0.189   6.521   3.306
 4786SOL     OW15256   2.968   0.437   1.029
 4786SOL    HW115257   2.944   0.407   0.936
 4786SOL    HW215258   3.028   0.517   1.024
 4787SOL     OW15259   4.589   2.371   4.356
 4787SOL    HW115260   4.596   2.450   4.416
 4787SOL    HW215261   4.594   2.287   4.409
 4788SOL     OW15262   5.987   5.729   6.930
 4788SOL    HW115263   5.945   5.649   6.888
 4788SOL    HW215264   6.006   5.798   6.860
 4789SOL     OW15265   4.770   2.011   2.220
 4789SOL    HW115266   4.743   2.107   2.228
 4789SOL    HW215267   4.713   1.955   2.280
 4790SOL     OW15268   5.333   1.676   5.457
 4790SOL    HW115269   5.233   1.673   5.468
 4790SOL    HW215270   5.374   1.715   5.539
 4791SOL     OW15271   0.461   2.655   0.663
 4791SOL    HW115272   0.554   2.688   0.680
 4791SOL    HW215273   0.439   2.665   0.566
 4792SOL     OW15274   1.514   4.978   4.692
 4792SOL    HW115275   1.547   4.972   4.598
 4792SOL    HW215276   1.458   5.060   4.703
 4793SOL     OW15277   1.241   3.866   6.038
 4793SOL    HW115278   1.266   3.958   6.009
 4793SOL    HW215279   1.299   3.839   6.116
 4794SOL     OW15280   4.501   0.632   3.992
 4794SOL    HW115281   4.588   0.679   4.005
 4794SOL    HW215282   4.476   0.634   3.895
 4795SOL     OW15283   0.099   1.715   4.436
 4795SOL    HW115284   0.159   1.653   4.386
 4795SOL    HW215285   0.010   1.719   4.392
 4796SOL     OW15286   3.796   1.169   5.790
 4796SOL    HW115287   3.824   1.250   5.738
 4796SOL    HW215288   3.815   1.087   5.737
 4797SOL     OW15289   0.147   5.722   4.614
 4797SOL    HW115290   0.184   5.796   4.558
 4797SOL    HW215291   0.213   5.699   4.687
 4798SOL     OW15292   5.544   4.882   6.221
 4798SOL    HW115293   5.589   4.836   6.145
 4798SOL    HW215294   5.463   4.830   6.248
 4799SOL     OW15295   3.392   1.801   6.872
 4799SOL    HW115296   3.392   1.901   6.871
 4799SOL    HW215297   3.311   1.767   6.825
 4800SOL     OW15298   1.935   4.457   0.316
 4800SOL    HW115299   2.000   4.510   0.370
 4800SOL    HW215300   1.969   4.446   0.222
 4801SOL     OW15301   4.532   2.471   0.811
 4801SOL    HW115302   4.480   2.554   0.788
 4801SOL    HW215303   4.495   2.393   0.760
 4802SOL     OW15304   6.951   6.268   2.085
 4802SOL    HW115305   6.920   6.363   2.083
 4802SOL    HW215306   7.005   6.248   2.003
 4803SOL     OW15307   5.843   4.951   0.574
 4803SOL    HW115308   5.886   5.041   0.569
 4803SOL    HW215309   5.760   4.956   0.629
 4804SOL     OW15310   5.142   1.703   0.092
 4804SOL    HW115311   5.084   1.754   0.028
 4804SOL    HW215312   5.186   1.628   0.044
 4805SOL     OW15313   6.485   1.912   1.934
 4805SOL    HW115314   6.527   1.924   2.024
 4805SOL    HW215315   6.386   1.909   1.943
 4806SOL     OW15316   1.139   3.744   3.185
 4806SOL    HW115317   1.181   3.807   3.120
 4806SOL    HW215318   1.047   3.720   3.154
 4807SOL     OW15319   1.411   3.524   6.640
 4807SOL    HW115320   1.442   3.434   6.670
 4807SOL    HW215321   1.345   3.513   6.565
 4808SOL     OW15322   4.103   6.055   0.885
 4808SOL    HW115323   4.044   6.135   0.897
 4808SOL    HW215324   4.081   6.010   0.799
 4809SOL     OW15325   3.580   4.666   1.545
 4809SOL    HW115326   3.527   4.665   1.460
 4809SOL    HW215327   3.537   4.604   1.611
 4810SOL     OW15328   0.555   3.970   4.404
 4810SOL    HW115329   0.639   3.978   4.459
 4810SOL    HW215330   0.517   4.061   4.389
 4811SOL     OW15331   4.045   3.730   3.992
 4811SOL    HW115332   4.048   3.642   3.945
 4811SOL    HW215333   4.077   3.802   3.930
 4812SOL     OW15334   0.732   7.011   1.619
 4812SOL    HW115335   0.668   0.061   1.616
 4812SOL    HW215336   0.785   7.015   1.704
 4813SOL     OW15337   5.826   1.745   6.873
 4813SOL    HW115338   5.881   1.827   6.889
 4813SOL    HW215339   5.861   1.670   6.928
 4814SOL     OW15340   0.127   3.542   2.616
 4814SOL    HW115341   0.153   3.628   2.659
 4814SOL    HW215342   0.111   3.473   2.687
 4815SOL     OW15343   5.033   5.221   2.946
 4815SOL    HW115344   4.982   5.290   2.997
 4815SOL    HW215345   5.022   5.236   2.848
 4816SOL     OW15346   1.846   0.368   1.282
 4816SOL    HW115347   1.791   0.371   1.199
 4816SOL    HW215348   1.816   0.291   1.339
 4817SOL     OW15349   3.778   0.585   1.786
 4817SOL    HW115350   3.735   0.571   1.875
 4817SOL    HW215351   3.828   0.672   1.786
 4818SOL     OW15352   2.211   0.348   4.257
 4818SOL    HW115353   2.207   0.300   4.170
 4818SOL    HW215354   2.305   0.379   4.273
 4819SOL     OW15355   2.984   2.296   1.143
 4819SOL    HW115356   2.922   2.373   1.127
 4819SOL    HW215357   3.049   2.289   1.066
 4820SOL     OW15358   6.980   3.390   1.107
 4820SOL    HW115359   7.017   3.298   1.102
 4820SOL    HW215360   6.973   3.429   1.015
 4821SOL     OW15361   6.250   5.620   1.675
 4821SOL    HW115362   6.267   5.672   1.758
 4821SOL    HW215363   6.210   5.531   1.699
 4822SOL     OW15364   1.585   3.306   3.579
 4822SOL    HW115365   1.649   3.378   3.605
 4822SOL    HW215366   1.515   3.343   3.518
 4823SOL     OW15367   0.486   0.118   3.879
 4823SOL    HW115368   0.472   0.215   3.898
 4823SOL    HW215369   0.420   0.087   3.812
 4824SOL     OW15370   5.164   2.371   3.252
 4824SOL    HW115371   5.101   2.420   3.312
 4824SOL    HW215372   5.256   2.374   3.289
 4825SOL     OW15373   1.588   2.910   4.447
 4825SOL    HW115374   1.609   2.913   4.545
 4825SOL    HW215375   1.658   2.959   4.396
 4826SOL     OW15376   0.192   6.517   0.732
 4826SOL    HW115377   0.187   6.616   0.717
 4826SOL    HW215378   0.113   6.473   0.689
 4827SOL     OW15379   5.102   0.974   1.817
 4827SOL    HW115380   5.034   0.907   1.789
 4827SOL    HW215381   5.124   1.034   1.740
 4828SOL     OW15382   5.891   4.172   1.786
 4828SOL    HW115383   5.904   4.267   1.815
 4828SOL    HW215384   5.794   4.156   1.768
 4829SOL     OW15385   3.851   6.859   5.965
 4829SOL    HW115386   3.858   6.816   6.055
 4829SOL    HW215387   3.764   6.908   5.958
 4830SOL     OW15388   4.889   5.716   3.946
 4830SOL    HW115389   4.916   5.623   3.923
 4830SOL    HW215390   4.838   5.755   3.869
 4831SOL     OW15391   6.567   4.921   5.441
 4831SOL    HW115392   6.558   4.928   5.342
 4831SOL    HW215393   6.476   4.925   5.483
 4832SOL     OW15394   3.221   2.621   5.828
 4832SOL    HW115395   3.158   2.603   5.903
 4832SOL    HW215396   3.189   2.699   5.775
 4833SOL     OW15397   4.733   1.906   2.795
 4833SOL    HW115398   4.662   1.836   2.790
 4833SOL    HW215399   4.741   1.940   2.889
 4834SOL     OW15400   3.929   0.018   0.928
 4834SOL    HW115401   3.861   0.086   0.899
 4834SOL    HW215402   3.896   6.997   1.009
 4835SOL     OW15403   1.991   6.912   6.329
 4835SOL    HW115404   1.945   6.884   6.413
 4835SOL    HW215405   2.074   6.964   6.352
 4836SOL     OW15406   4.336   1.877   3.705
 4836SOL    HW115407   4.321   1.780   3.689
 4836SOL    HW215408   4.380   1.889   3.794
 4837SOL     OW15409   3.168   2.833   1.844
 4837SOL    HW115410   3.260   2.818   1.881
 4837SOL    HW215411   3.124   2.745   1.828
 4838SOL     OW15412   3.056   4.879   2.326
 4838SOL    HW115413   3.004   4.827   2.258
 4838SOL    HW215414   3.027   4.852   2.418
 4839SOL     OW15415   0.602   4.216   5.700
 4839SOL    HW115416   0.675   4.176   5.754
 4839SOL    HW215417   0.517   4.217   5.753
 4840SOL     OW15418   6.556   6.660   6.410
 4840SOL    HW115419   6.581   6.756   6.398
 4840SOL    HW215420   6.632   6.611   6.452
 4841SOL     OW15421   3.733   5.570   1.808
 4841SOL    HW115422   3.822   5.615   1.805
 4841SOL    HW215423   3.676   5.611   1.878
 4842SOL     OW15424   3.273   5.131   1.339
 4842SOL    HW115425   3.263   5.168   1.432
 4842SOL    HW215426   3.350   5.068   1.336
 4843SOL     OW15427   6.104   3.908   0.898
 4843SOL    HW115428   6.071   3.852   0.974
 4843SOL    HW215429   6.099   4.005   0.923
 4844SOL     OW15430   6.846   3.807   6.830
 4844SOL    HW115431   6.828   3.859   6.747
 4844SOL    HW215432   6.785   3.727   6.833
 4845SOL     OW15433   6.876   5.128   4.591
 4845SOL    HW115434   6.898   5.222   4.615
 4845SOL    HW215435   6.809   5.127   4.516
 4846SOL     OW15436   0.121   3.667   1.051
 4846SOL    HW115437   0.181   3.693   1.127
 4846SOL    HW215438   0.155   3.583   1.009
 4847SOL     OW15439   3.829   1.771   5.513
 4847SOL    HW115440   3.741   1.813   5.489
 4847SOL    HW215441   3.854   1.704   5.443
 4848SOL     OW15442   1.460   1.471   4.838
 4848SOL    HW115443   1.478   1.473   4.937
 4848SOL    HW215444   1.440   1.377   4.810
 4849SOL     OW15445   1.986   6.769   0.216
 4849SOL    HW115446   2.076   6.812   0.220
 4849SOL    HW215447   1.997   6.670   0.216
 4850SOL     OW15448   3.879   0.799   2.021
 4850SOL    HW115449   3.943   0.828   1.950
 4850SOL    HW215450   3.868   0.874   2.088
 4851SOL     OW15451   3.647   6.260   5.201
 4851SOL    HW115452   3.578   6.293   5.265
 4851SOL    HW215453   3.605   6.245   5.111
 4852SOL     OW15454   1.439   0.514   6.510
 4852SOL    HW115455   1.496   0.512   6.592
 4852SOL    HW215456   1.485   0.463   6.437
 4853SOL     OW15457   3.508   1.764   2.407
 4853SOL    HW115458   3.579   1.809   2.460
 4853SOL    HW215459   3.546   1.684   2.361
 4854SOL     OW15460   4.622   6.256   2.636
 4854SOL    HW115461   4.642   6.288   2.728
 4854SOL    HW215462   4.537   6.203   2.637
 4855SOL     OW15463   5.823   2.376   2.048
 4855SOL    HW115464   5.793   2.281   2.041
 4855SOL    HW215465   5.871   2.390   2.135
 4856SOL     OW15466   2.286   4.231   2.961
 4856SOL    HW115467   2.215   4.300   2.945
 4856SOL    HW215468   2.331   4.209   2.875
 4857SOL     OW15469   1.282   1.707   6.002
 4857SOL    HW115470   1.275   1.694   5.903
 4857SOL    HW215471   1.268   1.803   6.024
 4858SOL     OW15472   1.878   0.717   3.921
 4858SOL    HW115473   1.872   0.811   3.953
 4858SOL    HW215474   1.827   0.657   3.983
 4859SOL     OW15475   1.339   6.363   4.117
 4859SOL    HW115476   1.304   6.270   4.109
 4859SOL    HW215477   1.364   6.382   4.212
 4860SOL     OW15478   3.629   5.290   2.307
 4860SOL    HW115479   3.704   5.253   2.361
 4860SOL    HW215480   3.542   5.263   2.348
 4861SOL     OW15481   5.519   5.163   0.285
 4861SOL    HW115482   5.492   5.196   0.194
 4861SOL    HW215483   5.447   5.104   0.321
 4862SOL     OW15484   1.950   5.510   4.227
 4862SOL    HW115485   2.016   5.572   4.269
 4862SOL    HW215486   1.943   5.528   4.129
 4863SOL     OW15487   5.808   4.866   0.307
 4863SOL    HW115488   5.829   4.907   0.395
 4863SOL    HW215489   5.722   4.905   0.272
 4864SOL     OW15490   3.568   1.307   4.164
 4864SOL    HW115491   3.581   1.215   4.201
 4864SOL    HW215492   3.473   1.320   4.138
 4865SOL     OW15493   1.858   0.185   4.920
 4865SOL    HW115494   1.914   0.268   4.927
 4865SOL    HW215495   1.796   0.194   4.842
 4866SOL     OW15496   6.426   3.801   1.291
 4866SOL    HW115497   6.394   3.828   1.382
 4866SOL    HW215498   6.401   3.872   1.225
 4867SOL     OW15499   4.619   5.715   2.239
 4867SOL    HW115500   4.685   5.725   2.165
 4867SOL    HW215501   4.640   5.779   2.313
 4868SOL     OW15502   6.657   4.848   2.346
 4868SOL    HW115503   6.590   4.869   2.274
 4868SOL    HW215504   6.610   4.809   2.425
 4869SOL     OW15505   1.591   1.490   0.751
 4869SOL    HW115506   1.612   1.588   0.754
 4869SOL    HW215507   1.607   1.450   0.842
 4870SOL     OW15508   0.218   6.118   1.479
 4870SOL    HW115509   0.315   6.128   1.499
 4870SOL    HW215510   0.196   6.022   1.463
 4871SOL     OW15511   1.164   0.353   4.308
 4871SOL    HW115512   1.140   0.378   4.402
 4871SOL    HW215513   1.205   0.261   4.308
 4872SOL     OW15514   6.454   6.712   3.201
 4872SOL    HW115515   6.474   6.710   3.103
 4872SOL    HW215516   6.442   6.619   3.235
 4873SOL     OW15517   6.617   5.794   4.452
 4873SOL    HW115518   6.669   5.805   4.536
 4873SOL    HW215519   6.660   5.724   4.394
 4874SOL     OW15520   5.218   3.291   2.421
 4874SOL    HW115521   5.252   3.237   2.499
 4874SOL    HW215522   5.157   3.362   2.454
 4875SOL     OW15523   5.391   0.057   6.986
 4875SOL    HW115524   5.439   0.065   6.899
 4875SOL    HW215525   5.380   6.987   7.009
 4876SOL     OW15526   6.917   1.157   3.799
 4876SOL    HW115527   6.981   1.113   3.863
 4876SOL    HW215528   6.866   1.229   3.846
 4877SOL     OW15529   0.638   2.356   5.560
 4877SOL    HW115530   0.594   2.275   5.521
 4877SOL    HW215531   0.694   2.329   5.639
 4878SOL     OW15532   6.875   1.680   2.174
 4878SOL    HW115533   6.938   1.747   2.214
 4878SOL    HW215534   6.888   1.592   2.220
 4879SOL     OW15535   4.332   2.332   1.947
 4879SOL    HW115536   4.266   2.402   1.922
 4879SOL    HW215537   4.325   2.255   1.883
 4880SOL     OW15538   6.330   3.574   0.266
 4880SOL    HW115539   6.246   3.560   0.213
 4880SOL    HW215540   6.357   3.488   0.309
 4881SOL     OW15541   1.789   1.653   6.670
 4881SOL    HW115542   1.813   1.664   6.573
 4881SOL    HW215543   1.798   1.557   6.696
 4882SOL     OW15544   3.988   2.022   5.523
 4882SOL    HW115545   3.939   2.107   5.504
 4882SOL    HW215546   3.928   1.944   5.509
 4883SOL     OW15547   5.142   4.388   0.890
 4883SOL    HW115548   5.144   4.397   0.790
 4883SOL    HW215549   5.074   4.320   0.916
 4884SOL     OW15550   3.566   5.437   1.193
 4884SOL    HW115551   3.528   5.530   1.189
 4884SOL    HW215552   3.506   5.379   1.248
 4885SOL     OW15553   2.386   4.526   1.426
 4885SOL    HW115554   2.425   4.592   1.490
 4885SOL    HW215555   2.327   4.462   1.476
 4886SOL     OW15556   3.368   6.917   1.601
 4886SOL    HW115557   3.276   6.914   1.563
 4886SOL    HW215558   3.377   6.997   1.661
 4887SOL     OW15559   0.304   6.064   1.778
 4887SOL    HW115560   0.282   5.967   1.763
 4887SOL    HW215561   0.383   6.089   1.722
 4888SOL     OW15562   2.576   6.984   2.871
 4888SOL    HW115563   2.523   6.959   2.790
 4888SOL    HW215564   2.665   6.940   2.866
 4889SOL     OW15565   6.305   1.943   5.454
 4889SOL    HW115566   6.323   1.865   5.395
 4889SOL    HW215567   6.304   2.027   5.399
 4890SOL     OW15568   0.480   1.623   5.669
 4890SOL    HW115569   0.462   1.721   5.661
 4890SOL    HW215570   0.578   1.605   5.657
 4891SOL     OW15571   3.102   5.129   0.298
 4891SOL    HW115572   3.014   5.132   0.251
 4891SOL    HW215573   3.155   5.051   0.264
 4892SOL     OW15574   5.393   5.672   2.024
 4892SOL    HW115575   5.309   5.685   1.972
 4892SOL    HW215576   5.382   5.711   2.115
 4893SOL     OW15577   6.428   3.578   1.998
 4893SOL    HW115578   6.432   3.631   1.913
 4893SOL    HW215579   6.508   3.600   2.055
 4894SOL     OW15580   3.414   0.327   2.610
 4894SOL    HW115581   3.403   0.279   2.697
 4894SOL    HW215582   3.332   0.313   2.554
 4895SOL     OW15583   0.844   4.841   3.619
 4895SOL    HW115584   0.870   4.754   3.578
 4895SOL    HW215585   0.787   4.824   3.700
 4896SOL     OW15586   2.534   4.904   2.710
 4896SOL    HW115587   2.589   4.837   2.760
 4896SOL    HW215588   2.517   4.984   2.769
 4897SOL     OW15589   1.567   5.760   5.165
 4897SOL    HW115590   1.596   5.665   5.171
 4897SOL    HW215591   1.494   5.776   5.232
 4898SOL     OW15592   4.118   0.976   4.789
 4898SOL    HW115593   4.189   1.040   4.760
 4898SOL    HW215594   4.110   0.903   4.721
 4899SOL     OW15595   6.445   5.111   3.095
 4899SOL    HW115596   6.370   5.142   3.036
 4899SOL    HW215597   6.407   5.072   3.179
 4900SOL     OW15598   4.123   5.973   6.018
 4900SOL    HW115599   4.048   5.963   5.952
 4900SOL    HW215600   4.124   5.894   6.079
 4901SOL     OW15601   2.197   1.306   5.801
 4901SOL    HW115602   2.232   1.307   5.707
 4901SOL    HW215603   2.107   1.350   5.803
 4902SOL     OW15604   1.176   1.129   5.696
 4902SOL    HW115605   1.217   1.215   5.665
 4902SOL    HW215606   1.209   1.054   5.637
 4903SOL     OW15607   4.530   5.632   0.804
 4903SOL    HW115608   4.576   5.709   0.761
 4903SOL    HW215609   4.554   5.547   0.756
 4904SOL     OW15610   1.973   0.596   5.488
 4904SOL    HW115611   1.957   0.689   5.456
 4904SOL    HW215612   1.921   0.579   5.571
 4905SOL     OW15613   2.168   0.807   3.600
 4905SOL    HW115614   2.109   0.733   3.633
 4905SOL    HW215615   2.124   0.850   3.521
 4906SOL     OW15616   4.590   3.061   6.148
 4906SOL    HW115617   4.575   2.993   6.220
 4906SOL    HW215618   4.503   3.100   6.120
 4907SOL     OW15619   5.033   0.799   1.263
 4907SOL    HW115620   4.957   0.811   1.199
 4907SOL    HW215621   5.105   0.746   1.218
 4908SOL     OW15622   5.297   6.639   0.022
 4908SOL    HW115623   5.211   6.589   0.022
 4908SOL    HW215624   5.316   6.672   6.956
 4909SOL     OW15625   6.556   5.220   3.669
 4909SOL    HW115626   6.555   5.169   3.583
 4909SOL    HW215627   6.508   5.307   3.658
 4910SOL     OW15628   5.713   0.757   4.159
 4910SOL    HW115629   5.745   0.850   4.144
 4910SOL    HW215630   5.644   0.733   4.090
 4911SOL     OW15631   1.788   3.569   3.362
 4911SOL    HW115632   1.710   3.572   3.301
 4911SOL    HW215633   1.852   3.498   3.333
 4912SOL     OW15634   5.381   1.828   5.730
 4912SOL    HW115635   5.372   1.926   5.716
 4912SOL    HW215636   5.345   1.804   5.820
 4913SOL     OW15637   4.599   3.774   5.664
 4913SOL    HW115638   4.539   3.780   5.744
 4913SOL    HW215639   4.553   3.813   5.584
 4914SOL     OW15640   4.165   6.911   5.385
 4914SOL    HW115641   4.149   6.980   5.456
 4914SOL    HW215642   4.121   6.941   5.300
 4915SOL     OW15643   2.930   6.550   5.531
 4915SOL    HW115644   3.021   6.530   5.494
 4915SOL    HW215645   2.864   6.485   5.494
 4916SOL     OW15646   0.446   1.021   3.881
 4916SOL    HW115647   0.480   0.928   3.866
 4916SOL    HW215648   0.385   1.021   3.960
 4917SOL     OW15649   4.072   5.921   0.640
 4917SOL    HW115650   4.081   5.966   0.551
 4917SOL    HW215651   4.152   5.862   0.655
 4918SOL     OW15652   5.930   6.347   2.127
 4918SOL    HW115653   5.952   6.427   2.184
 4918SOL    HW215654   5.880   6.280   2.181
 4919SOL     OW15655   3.485   2.848   2.468
 4919SOL    HW115656   3.495   2.749   2.453
 4919SOL    HW215657   3.446   2.864   2.559
 4920SOL     OW15658   5.704   0.069   5.261
 4920SOL    HW115659   5.778   0.080   5.196
 4920SOL    HW215660   5.621   0.114   5.226
 4921SOL     OW15661   1.667   5.047   0.081
 4921SOL    HW115662   1.692   5.051   7.011
 4921SOL    HW215663   1.572   5.017   0.089
 4922SOL     OW15664   3.255   2.096   4.857
 4922SOL    HW115665   3.214   2.147   4.933
 4922SOL    HW215666   3.221   2.131   4.770
 4923SOL     OW15667   2.431   1.497   3.119
 4923SOL    HW115668   2.341   1.454   3.118
 4923SOL    HW215669   2.488   1.456   3.047
 4924SOL     OW15670   2.586   1.960   4.779
 4924SOL    HW115671   2.504   2.015   4.766
 4924SOL    HW215672   2.657   1.989   4.715
 4925SOL     OW15673   4.879   0.307   2.991
 4925SOL    HW115674   4.795   0.358   3.010
 4925SOL    HW215675   4.875   0.217   3.035
 4926SOL     OW15676   5.695   2.165   1.479
 4926SOL    HW115677   5.597   2.151   1.468
 4926SOL    HW215678   5.733   2.092   1.537
 4927SOL     OW15679   2.995   3.070   5.786
 4927SOL    HW115680   3.001   3.163   5.823
 4927SOL    HW215681   3.020   3.004   5.858
 4928SOL     OW15682   1.319   0.810   6.865
 4928SOL    HW115683   1.298   0.891   6.920
 4928SOL    HW215684   1.274   0.817   6.776
 4929SOL     OW15685   6.636   0.094   3.523
 4929SOL    HW115686   6.595   0.157   3.589
 4929SOL    HW215687   6.569   0.026   3.495
 4930SOL     OW15688   5.911   0.362   2.721
 4930SOL    HW115689   5.836   0.356   2.655
 4930SOL    HW215690   5.889   0.427   2.792
 4931SOL     OW15691   6.401   6.490   1.429
 4931SOL    HW115692   6.399   6.518   1.333
 4931SOL    HW215693   6.336   6.416   1.443
 4932SOL     OW15694   3.894   3.920   3.314
 4932SOL    HW115695   3.851   3.984   3.378
 4932SOL    HW215696   3.890   3.957   3.222
 4933SOL     OW15697   2.214   6.720   2.891
 4933SOL    HW115698   2.305   6.689   2.919
 4933SOL    HW215699   2.148   6.646   2.901
 4934SOL     OW15700   3.998   6.516   2.399
 4934SOL    HW115701   4.017   6.479   2.308
 4934SOL    HW215702   3.911   6.480   2.432
 4935SOL     OW15703   1.620   1.868   6.695
 4935SOL    HW115704   1.656   1.920   6.617
 4935SOL    HW215705   1.674   1.784   6.706
 4936SOL     OW15706   2.659   5.046   0.818
 4936SOL    HW115707   2.739   5.084   0.865
 4936SOL    HW215708   2.676   5.041   0.720
 4937SOL     OW15709   4.889   3.062   5.557
 4937SOL    HW115710   4.821   3.071   5.629
 4937SOL    HW215711   4.847   3.020   5.477
 4938SOL     OW15712   3.107   5.478   5.999
 4938SOL    HW115713   3.160   5.495   6.082
 4938SOL    HW215714   3.011   5.500   6.015
 4939SOL     OW15715   5.488   2.433   4.951
 4939SOL    HW115716   5.536   2.368   4.892
 4939SOL    HW215717   5.553   2.470   5.018
 4940SOL     OW15718   1.156   0.870   4.971
 4940SOL    HW115719   1.078   0.920   5.010
 4940SOL    HW215720   1.241   0.918   4.994
 4941SOL     OW15721   3.619   1.902   6.042
 4941SOL    HW115722   3.563   1.921   6.123
 4941SOL    HW215723   3.619   1.804   6.024
 4942SOL     OW15724   4.885   3.525   5.612
 4942SOL    HW115725   4.794   3.532   5.651
 4942SOL    HW215726   4.884   3.560   5.518
 4943SOL     OW15727   4.041   2.247   6.964
 4943SOL    HW115728   3.965   2.253   0.001
 4943SOL    HW215729   4.126   2.275   7.011
 4944SOL     OW15730   2.169   3.962   3.096
 4944SOL    HW115731   2.200   4.054   3.073
 4944SOL    HW215732   2.234   3.920   3.159
 4945SOL     OW15733   1.102   0.958   3.769
 4945SOL    HW115734   1.009   0.988   3.788
 4945SOL    HW215735   1.166   1.032   3.792
 4946SOL     OW15736   0.659   2.960   1.493
 4946SOL    HW115737   0.755   2.934   1.501
 4946SOL    HW215738   0.642   3.043   1.546
 4947SOL     OW15739   1.193   6.308   0.925
 4947SOL    HW115740   1.289   6.336   0.919
 4947SOL    HW215741   1.174   6.237   0.858
 4948SOL     OW15742   2.664   0.825   2.460
 4948SOL    HW115743   2.705   0.895   2.402
 4948SOL    HW215744   2.566   0.844   2.472
 4949SOL     OW15745   4.530   0.872   5.583
 4949SOL    HW115746   4.541   0.934   5.661
 4949SOL    HW215747   4.448   0.816   5.596
 4950SOL     OW15748   2.814   5.707   3.709
 4950SOL    HW115749   2.721   5.719   3.673
 4950SOL    HW215750   2.878   5.699   3.632
 4951SOL     OW15751   4.855   1.595   5.026
 4951SOL    HW115752   4.811   1.626   4.942
 4951SOL    HW215753   4.942   1.551   5.003
 4952SOL     OW15754   0.314   0.036   5.248
 4952SOL    HW115755   0.396   0.091   5.235
 4952SOL    HW215756   0.278   0.051   5.341
 4953SOL     OW15757   2.425   5.753   2.060
 4953SOL    HW115758   2.521   5.774   2.046
 4953SOL    HW215759   2.368   5.826   2.022
 4954SOL     OW15760   4.340   4.566   0.022
 4954SOL    HW115761   4.271   4.565   6.976
 4954SOL    HW215762   4.427   4.598   7.011
 4955SOL     OW15763   2.037   5.678   6.781
 4955SOL    HW115764   2.108   5.679   6.851
 4955SOL    HW215765   2.078   5.655   6.692
 4956SOL     OW15766   4.076   0.328   5.184
 4956SOL    HW115767   3.982   0.345   5.213
 4956SOL    HW215768   4.077   0.288   5.093
 4957SOL     OW15769   6.921   1.264   4.143
 4957SOL    HW115770   6.857   1.336   4.115
 4957SOL    HW215771   6.983   1.301   4.212
 4958SOL     OW15772   0.378   6.519   6.238
 4958SOL    HW115773   0.433   6.449   6.193
 4958SOL    HW215774   0.288   6.481   6.262
 4959SOL     OW15775   0.735   1.255   6.658
 4959SOL    HW115776   0.755   1.286   6.751
 4959SOL    HW215777   0.820   1.241   6.608
 4960SOL     OW15778   3.455   6.291   4.192
 4960SOL    HW115779   3.453   6.193   4.172
 4960SOL    HW215780   3.545   6.316   4.227
 4961SOL     OW15781   5.321   1.384   5.077
 4961SOL    HW115782   5.377   1.457   5.116
 4961SOL    HW215783   5.371   1.340   5.002
 4962SOL     OW15784   5.855   3.033   1.945
 4962SOL    HW115785   5.884   3.128   1.932
 4962SOL    HW215786   5.772   3.030   2.001
 4963SOL     OW15787   6.449   6.025   1.474
 4963SOL    HW115788   6.416   6.022   1.380
 4963SOL    HW215789   6.482   6.118   1.494
 4964SOL     OW15790   3.422   6.283   2.766
 4964SOL    HW115791   3.415   6.232   2.852
 4964SOL    HW215792   3.497   6.348   2.772
 4965SOL     OW15793   0.315   6.890   5.007
 4965SOL    HW115794   0.289   6.921   5.099
 4965SOL    HW215795   0.302   6.964   4.942
 4966SOL     OW15796   2.081   6.079   4.541
 4966SOL    HW115797   2.174   6.061   4.574
 4966SOL    HW215798   2.054   6.172   4.565
 4967SOL     OW15799   3.785   3.305   6.753
 4967SOL    HW115800   3.877   3.287   6.718
 4967SOL    HW215801   3.787   3.386   6.811
 4968SOL     OW15802   5.123   3.233   3.121
 4968SOL    HW115803   5.179   3.274   3.049
 4968SOL    HW215804   5.169   3.246   3.209
 4969SOL     OW15805   1.874   0.860   2.700
 4969SOL    HW115806   1.822   0.944   2.686
 4969SOL    HW215807   1.878   0.839   2.798
 4970SOL     OW15808   1.091   2.261   5.052
 4970SOL    HW115809   1.072   2.252   5.149
 4970SOL    HW215810   1.161   2.332   5.038
 4971SOL     OW15811   6.213   5.685   3.637
 4971SOL    HW115812   6.147   5.610   3.629
 4971SOL    HW215813   6.166   5.768   3.666
 4972SOL     OW15814   2.525   3.292   0.446
 4972SOL    HW115815   2.616   3.327   0.424
 4972SOL    HW215816   2.496   3.329   0.534
 4973SOL     OW15817   6.618   6.462   1.769
 4973SOL    HW115818   6.598   6.399   1.843
 4973SOL    HW215819   6.541   6.525   1.757
 4974SOL     OW15820   5.983   5.074   1.456
 4974SOL    HW115821   6.000   5.073   1.554
 4974SOL    HW215822   6.065   5.106   1.409
 4975SOL     OW15823   6.178   6.081   0.904
 4975SOL    HW115824   6.162   6.093   0.806
 4975SOL    HW215825   6.276   6.071   0.921
 4976SOL     OW15826   3.283   0.746   3.635
 4976SOL    HW115827   3.246   0.653   3.634
 4976SOL    HW215828   3.380   0.742   3.610
 4977SOL     OW15829   5.088   3.611   0.775
 4977SOL    HW115830   5.100   3.535   0.712
 4977SOL    HW215831   5.058   3.577   0.864
 4978SOL     OW15832   6.811   3.724   5.512
 4978SOL    HW115833   6.787   3.817   5.483
 4978SOL    HW215834   6.910   3.717   5.522
 4979SOL     OW15835   6.482   2.439   5.014
 4979SOL    HW115836   6.475   2.340   5.001
 4979SOL    HW215837   6.487   2.484   4.925
 4980SOL     OW15838   4.090   6.704   3.074
 4980SOL    HW115839   4.140   6.712   2.987
 4980SOL    HW215840   4.151   6.667   3.144
 4981SOL     OW15841   4.526   6.218   5.504
 4981SOL    HW115842   4.444   6.274   5.512
 4981SOL    HW215843   4.503   6.130   5.463
 4982SOL     OW15844   2.180   1.823   6.733
 4982SOL    HW115845   2.277   1.816   6.711
 4982SOL    HW215846   2.131   1.862   6.655
 4983SOL     OW15847   5.200   3.192   3.914
 4983SOL    HW115848   5.217   3.190   4.013
 4983SOL    HW215849   5.103   3.179   3.896
 4984SOL     OW15850   5.418   3.649   4.649
 4984SOL    HW115851   5.373   3.559   4.644
 4984SOL    HW215852   5.500   3.648   4.591
 4985SOL     OW15853   6.099   6.031   4.019
 4985SOL    HW115854   6.103   6.115   3.965
 4985SOL    HW215855   6.188   5.984   4.015
 4986SOL     OW15856   6.104   4.537   3.008
 4986SOL    HW115857   6.123   4.569   3.100
 4986SOL    HW215858   6.088   4.438   3.009
 4987SOL     OW15859   0.788   2.255   1.151
 4987SOL    HW115860   0.864   2.278   1.090
 4987SOL    HW215861   0.743   2.172   1.119
 4988SOL     OW15862   6.731   1.452   4.009
 4988SOL    HW115863   6.673   1.532   3.996
 4988SOL    HW215864   6.680   1.369   3.985
 4989SOL     OW15865   5.329   1.494   1.562
 4989SOL    HW115866   5.402   1.549   1.603
 4989SOL    HW215867   5.344   1.398   1.583
 4990SOL     OW15868   0.862   2.361   6.376
 4990SOL    HW115869   0.827   2.381   6.284
 4990SOL    HW215870   0.818   2.422   6.442
 4991SOL     OW15871   0.679   3.331   3.936
 4991SOL    HW115872   0.646   3.411   3.886
 4991SOL    HW215873   0.614   3.255   3.924
 4992SOL     OW15874   3.926   0.313   4.338
 4992SOL    HW115875   3.834   0.273   4.342
 4992SOL    HW215876   3.939   0.357   4.250
 4993SOL     OW15877   2.626   4.787   3.780
 4993SOL    HW115878   2.664   4.872   3.816
 4993SOL    HW215879   2.625   4.717   3.852
 4994SOL     OW15880   1.360   0.069   2.576
 4994SOL    HW115881   1.393   7.002   2.565
 4994SOL    HW215882   1.293   0.072   2.650
 4995SOL     OW15883   6.945   3.065   6.084
 4995SOL    HW115884   6.890   2.990   6.121
 4995SOL    HW215885   0.010   3.031   6.064
 4996SOL     OW15886   0.623   0.696   1.720
 4996SOL    HW115887   0.714   0.707   1.759
 4996SOL    HW215888   0.601   0.774   1.663
 4997SOL     OW15889   6.873   2.206   2.805
 4997SOL    HW115890   6.958   2.223   2.853
 4997SOL    HW215891   6.863   2.108   2.788
 4998SOL     OW15892   2.172   4.844   5.313
 4998SOL    HW115893   2.105   4.782   5.353
 4998SOL    HW215894   2.139   4.939   5.320
 4999SOL     OW15895   5.052   5.744   1.430
 4999SOL    HW115896   5.062   5.832   1.477
 4999SOL    HW215897   5.001   5.758   1.344
 5000SOL     OW15898   0.657   0.504   4.417
 5000SOL    HW115899   0.741   0.557   4.405
 5000SOL    HW215900   0.658   0.426   4.355
 5001SOL     OW15901   1.878   3.947   6.104
 5001SOL    HW115902   1.850   3.868   6.050
 5001SOL    HW215903   1.968   3.930   6.145
 5002SOL     OW15904   1.282   2.743   3.251
 5002SOL    HW115905   1.341   2.823   3.240
 5002SOL    HW215906   1.219   2.737   3.173
 5003SOL     OW15907   0.392   6.535   3.328
 5003SOL    HW115908   0.399   6.614   3.267
 5003SOL    HW215909   0.449   6.550   3.409
 5004SOL     OW15910   2.915   5.738   5.818
 5004SOL    HW115911   3.012   5.752   5.800
 5004SOL    HW215912   2.869   5.826   5.830
 5005SOL     OW15913   3.359   2.221   0.720
 5005SOL    HW115914   3.281   2.239   0.660
 5005SOL    HW215915   3.369   2.123   0.733
 5006SOL     OW15916   5.713   0.139   5.805
 5006SOL    HW115917   5.628   0.122   5.754
 5006SOL    HW215918   5.690   0.165   5.899
 5007SOL     OW15919   2.955   0.518   5.951
 5007SOL    HW115920   3.031   0.494   5.890
 5007SOL    HW215921   2.991   0.560   6.034
 5008SOL     OW15922   5.864   0.800   3.126
 5008SOL    HW115923   5.764   0.801   3.127
 5008SOL    HW215924   5.897   0.891   3.098
 5009SOL     OW15925   1.494   6.134   1.881
 5009SOL    HW115926   1.573   6.075   1.867
 5009SOL    HW215927   1.498   6.176   1.972
 5010SOL     OW15928   3.099   3.999   3.876
 5010SOL    HW115929   3.171   4.066   3.891
 5010SOL    HW215930   3.032   4.006   3.950
 5011SOL     OW15931   2.072   3.348   2.060
 5011SOL    HW115932   2.030   3.407   2.130
 5011SOL    HW215933   2.141   3.399   2.010
 5012SOL     OW15934   6.439   2.872   5.954
 5012SOL    HW115935   6.468   2.927   5.876
 5012SOL    HW215936   6.395   2.931   6.022
 5013SOL     OW15937   4.441   0.685   5.845
 5013SOL    HW115938   4.379   0.672   5.768
 5013SOL    HW215939   4.389   0.697   5.930
 5014SOL     OW15940   6.434   6.021   0.939
 5014SOL    HW115941   6.445   5.972   0.852
 5014SOL    HW215942   6.504   6.092   0.946
 5015SOL     OW15943   4.643   1.636   3.613
 5015SOL    HW115944   4.620   1.541   3.592
 5015SOL    HW215945   4.634   1.691   3.530
 5016SOL     OW15946   2.104   1.295   2.978
 5016SOL    HW115947   2.049   1.295   2.894
 5016SOL    HW215948   2.201   1.306   2.955
 5017SOL     OW15949   2.245   2.413   0.633
 5017SOL    HW115950   2.157   2.396   0.589
 5017SOL    HW215951   2.245   2.375   0.725
 5018SOL     OW15952   0.621   4.074   2.554
 5018SOL    HW115953   0.541   4.122   2.590
 5018SOL    HW215954   0.602   3.976   2.552
 5019SOL     OW15955   2.221   4.177   0.439
 5019SOL    HW115956   2.280   4.105   0.476
 5019SOL    HW215957   2.210   4.249   0.508
 5020SOL     OW15958   5.963   5.774   5.700
 5020SOL    HW115959   5.897   5.823   5.643
 5020SOL    HW215960   5.921   5.749   5.787
 5021SOL     OW15961   1.223   4.459   6.197
 5021SOL    HW115962   1.131   4.438   6.231
 5021SOL    HW215963   1.220   4.545   6.146
 5022SOL     OW15964   2.123   6.916   0.551
 5022SOL    HW115965   2.167   6.908   0.461
 5022SOL    HW215966   2.150   7.002   0.594
 5023SOL     OW15967   6.441   2.546   1.121
 5023SOL    HW115968   6.415   2.640   1.100
 5023SOL    HW215969   6.417   2.526   1.217
 5024SOL     OW15970   6.867   3.824   2.731
 5024SOL    HW115971   6.816   3.903   2.764
 5024SOL    HW215972   6.824   3.740   2.764
 5025SOL     OW15973   4.630   1.883   2.444
 5025SOL    HW115974   4.712   1.861   2.498
 5025SOL    HW215975   4.570   1.943   2.497
 5026SOL     OW15976   6.250   6.102   5.741
 5026SOL    HW115977   6.237   6.004   5.756
 5026SOL    HW215978   6.346   6.126   5.756
 5027SOL     OW15979   0.807   7.014   3.059
 5027SOL    HW115980   0.861   6.977   3.134
 5027SOL    HW215981   0.744   6.944   3.026
 5028SOL     OW15982   0.467   5.799   1.939
 5028SOL    HW115983   0.401   5.770   2.008
 5028SOL    HW215984   0.435   5.772   1.849
 5029SOL     OW15985   6.881   2.690   2.701
 5029SOL    HW115986   6.891   2.782   2.662
 5029SOL    HW215987   6.788   2.656   2.682
 5030SOL     OW15988   0.056   0.007   0.042
 5030SOL    HW115989   0.102   6.976   0.109
 5030SOL    HW215990   0.116   0.021   6.990
 5031SOL     OW15991   5.828   1.032   4.387
 5031SOL    HW115992   5.865   1.003   4.299
 5031SOL    HW215993   5.859   1.125   4.407
 5032SOL     OW15994   1.251   4.927   0.980
 5032SOL    HW115995   1.327   4.894   1.037
 5032SOL    HW215996   1.245   5.026   0.987
 5033SOL     OW15997   2.816   5.496   5.390
 5033SOL    HW115998   2.739   5.538   5.342
 5033SOL    HW215999   2.825   5.400   5.361
 5034SOL     OW16000   6.471   3.085   1.715
 5034SOL    HW116001   6.374   3.067   1.697
 5034SOL    HW216002   6.480   3.140   1.798
 5035SOL     OW16003   5.436   5.067   0.781
 5035SOL    HW116004   5.524   5.110   0.766
 5035SOL    HW216005   5.450   4.974   0.817
 5036SOL     OW16006   1.435   6.082   6.352
 5036SOL    HW116007   1.477   6.002   6.309
 5036SOL    HW216008   1.364   6.119   6.292
 5037SOL     OW16009   4.192   1.885   3.279
 5037SOL    HW116010   4.271   1.884   3.340
 5037SOL    HW216011   4.223   1.897   3.185
 5038SOL     OW16012   1.421   6.018   5.966
 5038SOL    HW116013   1.341   6.049   5.916
 5038SOL    HW216014   1.428   5.918   5.959
 5039SOL     OW16015   2.112   2.939   5.132
 5039SOL    HW116016   2.099   2.928   5.231
 5039SOL    HW216017   2.210   2.951   5.113
 5040SOL     OW16018   2.425   3.372   6.911
 5040SOL    HW116019   2.504   3.430   6.893
 5040SOL    HW216020   2.424   3.345   7.007
 5041SOL     OW16021   0.794   4.209   1.447
 5041SOL    HW116022   0.872   4.223   1.508
 5041SOL    HW216023   0.818   4.240   1.355
 5042SOL     OW16024   6.480   3.088   6.767
 5042SOL    HW116025   6.479   3.060   6.671
 5042SOL    HW216026   6.391   3.126   6.791
 5043SOL     OW16027   3.849   1.558   4.939
 5043SOL    HW116028   3.931   1.512   4.903
 5043SOL    HW216029   3.768   1.526   4.890
 5044SOL     OW16030   6.102   6.240   3.872
 5044SOL    HW116031   6.169   6.290   3.926
 5044SOL    HW216032   6.070   6.298   3.797
 5045SOL     OW16033   5.699   3.275   0.234
 5045SOL    HW116034   5.780   3.261   0.291
 5045SOL    HW216035   5.618   3.243   0.282
 5046SOL     OW16036   3.666   2.974   5.031
 5046SOL    HW116037   3.645   3.051   5.091
 5046SOL    HW216038   3.631   2.889   5.072
 5047SOL     OW16039   5.386   1.144   2.645
 5047SOL    HW116040   5.389   1.233   2.690
 5047SOL    HW216041   5.477   1.104   2.643
 5048SOL     OW16042   6.769   2.619   2.307
 5048SOL    HW116043   6.717   2.703   2.321
 5048SOL    HW216044   6.750   2.555   2.381
 5049SOL     OW16045   0.637   1.593   2.839
 5049SOL    HW116046   0.672   1.667   2.782
 5049SOL    HW216047   0.648   1.506   2.791
 5050SOL     OW16048   0.127   1.580   2.356
 5050SOL    HW116049   0.150   1.674   2.328
 5050SOL    HW216050   0.206   1.521   2.341
 5051SOL     OW16051   2.830   4.104   1.158
 5051SOL    HW116052   2.745   4.052   1.162
 5051SOL    HW216053   2.899   4.051   1.109
 5052SOL     OW16054   3.531   4.492   0.588
 5052SOL    HW116055   3.559   4.443   0.505
 5052SOL    HW216056   3.437   4.467   0.611
 5053SOL     OW16057   1.851   4.404   2.287
 5053SOL    HW116058   1.877   4.399   2.383
 5053SOL    HW216059   1.779   4.472   2.275
 5054SOL     OW16060   3.477   5.628   5.318
 5054SOL    HW116061   3.497   5.542   5.365
 5054SOL    HW216062   3.562   5.672   5.290
 5055SOL     OW16063   0.402   2.091   4.856
 5055SOL    HW116064   0.420   2.064   4.761
 5055SOL    HW216065   0.403   2.009   4.914
 5056SOL     OW16066   0.052   3.933   6.563
 5056SOL    HW116067   7.003   3.991   6.533
 5056SOL    HW216068   0.016   3.844   6.591
 5057SOL     OW16069   1.009   5.205   3.213
 5057SOL    HW116070   1.081   5.141   3.239
 5057SOL    HW216071   1.049   5.279   3.159
 5058SOL     OW16072   3.543   3.748   6.947
 5058SOL    HW116073   3.476   3.798   6.893
 5058SOL    HW216074   3.634   3.787   6.932
 5059SOL     OW16075   4.586   2.615   4.519
 5059SOL    HW116076   4.607   2.705   4.557
 5059SOL    HW216077   4.523   2.567   4.580
 5060SOL     OW16078   0.214   3.061   5.361
 5060SOL    HW116079   0.258   2.972   5.359
 5060SOL    HW216080   0.186   3.083   5.454
 5061SOL     OW16081   3.014   3.780   4.238
 5061SOL    HW116082   3.077   3.856   4.225
 5061SOL    HW216083   2.996   3.736   4.149
 5062SOL     OW16084   5.177   1.640   2.253
 5062SOL    HW116085   5.196   1.577   2.178
 5062SOL    HW216086   5.082   1.671   2.247
 5063SOL     OW16087   1.614   6.864   1.630
 5063SOL    HW116088   1.606   6.769   1.659
 5063SOL    HW216089   1.530   6.891   1.583
 5064SOL     OW16090   4.764   5.104   0.927
 5064SOL    HW116091   4.761   5.007   0.949
 5064SOL    HW216092   4.722   5.119   0.837
 5065SOL     OW16093   1.514   0.337   3.261
 5065SOL    HW116094   1.430   0.384   3.234
 5065SOL    HW216095   1.575   0.402   3.306
 5066SOL     OW16096   2.280   4.194   2.268
 5066SOL    HW116097   2.256   4.116   2.326
 5066SOL    HW216098   2.342   4.255   2.317
 5067SOL     OW16099   4.144   1.946   2.011
 5067SOL    HW116100   4.076   1.890   1.963
 5067SOL    HW216101   4.191   2.004   1.944
 5068SOL     OW16102   3.394   5.863   0.672
 5068SOL    HW116103   3.326   5.914   0.619
 5068SOL    HW216104   3.351   5.781   0.711
 5069SOL     OW16105   2.160   3.389   6.245
 5069SOL    HW116106   2.097   3.314   6.226
 5069SOL    HW216107   2.134   3.469   6.191
 5070SOL     OW16108   5.627   3.196   3.821
 5070SOL    HW116109   5.602   3.246   3.904
 5070SOL    HW216110   5.710   3.144   3.836
 5071SOL     OW16111   3.805   1.526   3.787
 5071SOL    HW116112   3.814   1.531   3.687
 5071SOL    HW216113   3.887   1.566   3.830
 5072SOL     OW16114   1.444   1.035   0.952
 5072SOL    HW116115   1.432   1.120   1.002
 5072SOL    HW216116   1.453   0.959   1.017
 5073SOL     OW16117   2.348   6.417   2.242
 5073SOL    HW116118   2.376   6.437   2.336
 5073SOL    HW216119   2.282   6.486   2.212
 5074SOL     OW16120   3.474   1.628   1.686
 5074SOL    HW116121   3.466   1.719   1.727
 5074SOL    HW216122   3.383   1.585   1.683
 5075SOL     OW16123   0.885   2.874   0.208
 5075SOL    HW116124   0.947   2.912   0.276
 5075SOL    HW216125   0.925   2.886   0.117
 5076SOL     OW16126   5.135   0.430   6.874
 5076SOL    HW116127   5.155   0.498   6.803
 5076SOL    HW216128   5.112   0.477   6.959
 5077SOL     OW16129   1.724   3.657   5.058
 5077SOL    HW116130   1.656   3.652   4.985
 5077SOL    HW216131   1.714   3.743   5.107
 5078SOL     OW16132   0.619   1.462   4.397
 5078SOL    HW116133   0.598   1.560   4.404
 5078SOL    HW216134   0.676   1.435   4.474
 5079SOL     OW16135   2.138   1.943   5.796
 5079SOL    HW116136   2.054   1.997   5.800
 5079SOL    HW216137   2.162   1.925   5.701
 5080SOL     OW16138   6.121   5.576   5.521
 5080SOL    HW116139   6.148   5.489   5.561
 5080SOL    HW216140   6.058   5.623   5.583
 5081SOL     OW16141   2.767   5.102   4.979
 5081SOL    HW116142   2.766   5.019   5.036
 5081SOL    HW216143   2.676   5.143   4.979
 5082SOL     OW16144   4.655   6.683   6.938
 5082SOL    HW116145   4.621   6.688   0.005
 5082SOL    HW216146   4.613   6.606   6.891
 5083SOL     OW16147   2.894   1.000   1.898
 5083SOL    HW116148   2.980   0.998   1.949
 5083SOL    HW216149   2.824   1.046   1.953
 5084SOL     OW16150   0.971   4.892   4.872
 5084SOL    HW116151   0.953   4.804   4.915
 5084SOL    HW216152   1.055   4.888   4.819
 5085SOL     OW16153   1.285   2.854   5.984
 5085SOL    HW116154   1.215   2.782   5.994
 5085SOL    HW216155   1.304   2.894   6.074
 5086SOL     OW16156   0.604   4.323   2.390
 5086SOL    HW116157   0.618   4.246   2.451
 5086SOL    HW216158   0.606   4.408   2.442
 5087SOL     OW16159   6.628   5.312   2.602
 5087SOL    HW116160   6.699   5.242   2.615
 5087SOL    HW216161   6.573   5.290   2.522
 5088SOL     OW16162   4.584   5.923   2.802
 5088SOL    HW116163   4.554   5.900   2.710
 5088SOL    HW216164   4.513   5.976   2.848
 5089SOL     OW16165   6.012   4.143   4.253
 5089SOL    HW116166   6.106   4.152   4.219
 5089SOL    HW216167   5.949   4.184   4.187
 5090SOL     OW16168   2.134   0.447   3.428
 5090SOL    HW116169   2.083   0.380   3.373
 5090SOL    HW216170   2.130   0.420   3.524
 5091SOL     OW16171   6.458   0.249   0.459
 5091SOL    HW116172   6.443   0.288   0.368
 5091SOL    HW216173   6.555   0.231   0.472
 5092SOL     OW16174   4.045   3.417   4.284
 5092SOL    HW116175   4.031   3.394   4.188
 5092SOL    HW216176   4.091   3.342   4.331
 5093SOL     OW16177   2.505   1.410   2.373
 5093SOL    HW116178   2.601   1.386   2.388
 5093SOL    HW216179   2.485   1.407   2.275
 5094SOL     OW16180   2.556   6.242   6.427
 5094SOL    HW116181   2.517   6.310   6.490
 5094SOL    HW216182   2.625   6.286   6.369
 5095SOL     OW16183   0.482   1.491   3.449
 5095SOL    HW116184   0.384   1.476   3.456
 5095SOL    HW216185   0.521   1.504   3.541
 5096SOL     OW16186   5.702   4.262   6.518
 5096SOL    HW116187   5.663   4.181   6.474
 5096SOL    HW216188   5.635   4.302   6.579
 5097SOL     OW16189   6.439   6.881   0.194
 5097SOL    HW116190   6.379   6.879   0.113
 5097SOL    HW216191   6.393   6.931   0.267
 5098SOL     OW16192   4.037   2.282   1.522
 5098SOL    HW116193   4.062   2.361   1.466
 5098SOL    HW216194   3.998   2.313   1.608
 5099SOL     OW16195   0.074   6.332   1.352
 5099SOL    HW116196   0.130   6.268   1.405
 5099SOL    HW216197   0.099   6.426   1.376
 5100SOL     OW16198   4.449   5.432   3.073
 5100SOL    HW116199   4.396   5.439   3.158
 5100SOL    HW216200   4.544   5.406   3.095
 5101SOL     OW16201   4.241   0.446   4.621
 5101SOL    HW116202   4.200   0.519   4.567
 5101SOL    HW216203   4.253   0.477   4.716
 5102SOL     OW16204   5.098   5.226   4.069
 5102SOL    HW116205   5.102   5.140   4.120
 5102SOL    HW216206   5.110   5.302   4.132
 5103SOL     OW16207   0.612   0.658   4.676
 5103SOL    HW116208   0.541   0.725   4.698
 5103SOL    HW216209   0.583   0.603   4.597
 5104SOL     OW16210   3.502   5.934   1.986
 5104SOL    HW116211   3.422   5.889   1.946
 5104SOL    HW216212   3.562   5.967   1.913
 5105SOL     OW16213   3.113   3.090   0.202
 5105SOL    HW116214   3.209   3.120   0.202
 5105SOL    HW216215   3.103   3.012   0.141
 5106SOL     OW16216   3.859   1.666   0.870
 5106SOL    HW116217   3.867   1.582   0.817
 5106SOL    HW216218   3.816   1.737   0.814
 5107SOL     OW16219   5.609   3.121   1.344
 5107SOL    HW116220   5.686   3.124   1.408
 5107SOL    HW216221   5.643   3.127   1.251
 5108SOL     OW16222   4.547   4.186   5.531
 5108SOL    HW116223   4.615   4.149   5.468
 5108SOL    HW216224   4.594   4.229   5.608
 5109SOL     OW16225   1.533   2.650   0.811
 5109SOL    HW116226   1.500   2.561   0.843
 5109SOL    HW216227   1.537   2.650   0.711
 5110SOL     OW16228   0.376   6.923   6.419
 5110SOL    HW116229   0.444   6.979   6.466
 5110SOL    HW216230   0.361   6.959   6.326
 5111SOL     OW16231   0.849   6.964   4.391
 5111SOL    HW116232   0.886   6.893   4.451
 5111SOL    HW216233   0.771   7.008   4.436
 5112SOL     OW16234   0.154   0.501   2.555
 5112SOL    HW116235   0.216   0.579   2.555
 5112SOL    HW216236   0.083   0.514   2.624
 5113SOL     OW16237   1.484   5.689   0.774
 5113SOL    HW116238   1.570   5.676   0.825
 5113SOL    HW216239   1.415   5.729   0.835
 5114SOL     OW16240   3.708   6.961   0.468
 5114SOL    HW116241   3.693   0.014   0.410
 5114SOL    HW216242   3.755   6.891   0.415
 5115SOL     OW16243   1.709   3.657   1.817
 5115SOL    HW116244   1.798   3.634   1.777
 5115SOL    HW216245   1.636   3.635   1.752
 5116SOL     OW16246   2.532   6.120   6.903
 5116SOL    HW116247   2.559   6.102   6.997
 5116SOL    HW216248   2.597   6.184   6.862
 5117SOL     OW16249   0.998   3.499   4.221
 5117SOL    HW116250   1.095   3.518   4.203
 5117SOL    HW216251   0.946   3.514   4.137
 5118SOL     OW16252   6.117   6.761   0.265
 5118SOL    HW116253   6.174   6.760   0.347
 5118SOL    HW216254   6.161   6.707   0.194
 5119SOL     OW16255   4.946   1.375   0.886
 5119SOL    HW116256   4.990   1.433   0.955
 5119SOL    HW216257   4.859   1.415   0.860
 5120SOL     OW16258   4.732   7.016   4.961
 5120SOL    HW116259   4.814   0.002   5.018
 5120SOL    HW216260   4.754   0.011   4.866
 5121SOL     OW16261   3.479   3.664   0.417
 5121SOL    HW116262   3.392   3.644   0.461
 5121SOL    HW216263   3.463   3.716   0.333
 5122SOL     OW16264   3.578   5.758   2.868
 5122SOL    HW116265   3.540   5.850   2.853
 5122SOL    HW216266   3.570   5.734   2.964
 5123SOL     OW16267   5.746   2.562   2.759
 5123SOL    HW116268   5.766   2.653   2.723
 5123SOL    HW216269   5.753   2.495   2.685
 5124SOL     OW16270   2.190   6.206   3.144
 5124SOL    HW116271   2.220   6.135   3.207
 5124SOL    HW216272   2.100   6.239   3.171
 5125SOL     OW16273   0.433   2.159   3.251
 5125SOL    HW116274   0.445   2.254   3.279
 5125SOL    HW216275   0.420   2.153   3.152
 5126SOL     OW16276   1.152   6.488   7.003
 5126SOL    HW116277   1.065   6.439   7.002
 5126SOL    HW216278   1.227   6.423   7.008
 5127SOL     OW16279   1.538   5.523   6.995
 5127SOL    HW116280   1.471   5.579   6.947
 5127SOL    HW216281   1.586   5.464   6.930
 5128SOL     OW16282   6.954   6.046   0.556
 5128SOL    HW116283   6.889   6.017   0.626
 5128SOL    HW216284   6.931   6.138   0.524
 5129SOL     OW16285   5.097   6.443   1.593
 5129SOL    HW116286   5.007   6.482   1.615
 5129SOL    HW216287   5.165   6.516   1.588
 5130SOL     OW16288   0.088   4.810   2.817
 5130SOL    HW116289   0.132   4.775   2.735
 5130SOL    HW216290   0.128   4.899   2.841
 5131SOL     OW16291   1.460   3.333   4.231
 5131SOL    HW116292   1.493   3.371   4.318
 5131SOL    HW216293   1.538   3.308   4.174
 5132SOL     OW16294   4.167   2.984   6.362
 5132SOL    HW116295   4.259   3.009   6.393
 5132SOL    HW216296   4.114   3.066   6.346
 5133SOL     OW16297   3.388   4.729   0.433
 5133SOL    HW116298   3.421   4.673   0.509
 5133SOL    HW216299   3.327   4.800   0.468
 5134SOL     OW16300   0.377   2.945   1.433
 5134SOL    HW116301   0.476   2.947   1.417
 5134SOL    HW216302   0.358   2.899   1.520
 5135SOL     OW16303   6.099   1.946   5.640
 5135SOL    HW116304   6.177   1.940   5.578
 5135SOL    HW216305   6.098   2.035   5.685
 5136SOL     OW16306   5.182   0.559   5.366
 5136SOL    HW116307   5.095   0.527   5.403
 5136SOL    HW216308   5.257   0.513   5.412
 5137SOL     OW16309   5.794   3.193   6.555
 5137SOL    HW116310   5.842   3.165   6.638
 5137SOL    HW216311   5.702   3.225   6.579
 5138SOL     OW16312   3.775   3.034   6.466
 5138SOL    HW116313   3.687   3.082   6.460
 5138SOL    HW216314   3.800   2.998   6.376
 5139SOL     OW16315   1.219   6.978   3.731
 5139SOL    HW116316   1.138   6.933   3.768
 5139SOL    HW216317   1.236   0.035   3.782
 5140SOL     OW16318   2.693   1.673   6.901
 5140SOL    HW116319   2.638   1.593   6.925
 5140SOL    HW216320   2.785   1.644   6.876
 5141SOL     OW16321   6.222   3.298   1.007
 5141SOL    HW116322   6.249   3.249   1.090
 5141SOL    HW216323   6.134   3.263   0.975
 5142SOL     OW16324   5.883   1.697   4.134
 5142SOL    HW116325   5.928   1.683   4.046
 5142SOL    HW216326   5.921   1.779   4.178
 5143SOL     OW16327   0.750   4.360   3.919
 5143SOL    HW116328   0.833   4.382   3.868
 5143SOL    HW216329   0.767   4.282   3.979
 5144SOL     OW16330   1.664   6.652   6.230
 5144SOL    HW116331   1.581   6.662   6.176
 5144SOL    HW216332   1.740   6.627   6.169
 5145SOL     OW16333   2.774   5.399   6.144
 5145SOL    HW116334   2.782   5.498   6.142
 5145SOL    HW216335   2.793   5.366   6.236
 5146SOL     OW16336   4.543   3.794   6.753
 5146SOL    HW116337   4.602   3.752   6.684
 5146SOL    HW216338   4.452   3.752   6.750
 5147SOL     OW16339   6.973   4.153   1.812
 5147SOL    HW116340   6.926   4.078   1.859
 5147SOL    HW216341   0.043   4.130   1.802
 5148SOL     OW16342   0.456   6.256   1.167
 5148SOL    HW116343   0.413   6.333   1.120
 5148SOL    HW216344   0.425   6.170   1.125
 5149SOL     OW16345   6.087   0.061   3.821
 5149SOL    HW116346   6.035   0.008   3.889
 5149SOL    HW216347   6.156   0.116   3.868
 5150SOL     OW16348   1.989   5.744   3.825
 5150SOL    HW116349   1.924   5.712   3.895
 5150SOL    HW216350   1.940   5.760   3.740
 5151SOL     OW16351   5.337   1.151   0.044
 5151SOL    HW116352   5.394   1.179   0.121
 5151SOL    HW216353   5.371   1.193   6.987
 5152SOL     OW16354   2.477   5.017   6.373
 5152SOL    HW116355   2.495   5.081   6.448
 5152SOL    HW216356   2.393   5.044   6.325
 5153SOL     OW16357   2.130   1.405   6.280
 5153SOL    HW116358   2.211   1.352   6.303
 5153SOL    HW216359   2.153   1.503   6.279
 5154SOL     OW16360   1.957   3.138   6.324
 5154SOL    HW116361   2.004   3.121   6.410
 5154SOL    HW216362   1.960   3.055   6.268
 5155SOL     OW16363   4.497   6.677   2.005
 5155SOL    HW116364   4.572   6.744   2.003
 5155SOL    HW216365   4.410   6.726   2.000
 5156SOL     OW16366   6.861   2.362   6.380
 5156SOL    HW116367   6.797   2.360   6.303
 5156SOL    HW216368   6.942   2.309   6.358
 5157SOL     OW16369   4.968   2.768   3.779
 5157SOL    HW116370   5.014   2.736   3.861
 5157SOL    HW216371   5.025   2.836   3.733
 5158SOL     OW16372   2.997   1.889   1.403
 5158SOL    HW116373   2.966   1.809   1.352
 5158SOL    HW216374   2.957   1.972   1.363
 5159SOL     OW16375   1.111   3.805   4.996
 5159SOL    HW116376   1.094   3.741   4.921
 5159SOL    HW216377   1.041   3.795   5.066
 5160SOL     OW16378   1.596   4.067   4.793
 5160SOL    HW116379   1.566   3.989   4.848
 5160SOL    HW216380   1.526   4.138   4.796
 5161SOL     OW16381   1.318   4.436   5.075
 5161SOL    HW116382   1.325   4.531   5.043
 5161SOL    HW216383   1.244   4.390   5.026
 5162SOL     OW16384   0.250   5.402   4.103
 5162SOL    HW116385   0.172   5.343   4.123
 5162SOL    HW216386   0.334   5.359   4.137
 5163SOL     OW16387   4.114   4.804   1.503
 5163SOL    HW116388   4.180   4.879   1.509
 5163SOL    HW216389   4.149   4.725   1.552
 5164SOL     OW16390   5.806   2.581   6.126
 5164SOL    HW116391   5.748   2.547   6.053
 5164SOL    HW216392   5.807   2.681   6.124
 5165SOL     OW16393   5.911   4.518   4.859
 5165SOL    HW116394   5.816   4.503   4.886
 5165SOL    HW216395   5.922   4.612   4.827
 5166SOL     OW16396   1.802   5.226   1.973
 5166SOL    HW116397   1.791   5.312   2.023
 5166SOL    HW216398   1.793   5.243   1.875
 5167SOL     OW16399   5.973   6.908   5.502
 5167SOL    HW116400   5.931   6.926   5.591
 5167SOL    HW216401   5.990   6.809   5.492
 5168SOL     OW16402   5.043   2.504   3.713
 5168SOL    HW116403   5.141   2.512   3.732
 5168SOL    HW216404   4.999   2.593   3.729
 5169SOL     OW16405   3.360   3.317   6.374
 5169SOL    HW116406   3.407   3.329   6.286
 5169SOL    HW216407   3.273   3.365   6.372
 5170SOL     OW16408   6.962   3.991   6.249
 5170SOL    HW116409   6.871   4.016   6.215
 5170SOL    HW216410   7.022   4.071   6.245
 5171SOL     OW16411   2.391   4.719   4.624
 5171SOL    HW116412   2.387   4.631   4.671
 5171SOL    HW216413   2.455   4.779   4.671
 5172SOL     OW16414   1.343   3.273   1.546
 5172SOL    HW116415   1.243   3.277   1.540
 5172SOL    HW216416   1.383   3.291   1.456
 5173SOL     OW16417   5.795   4.115   6.202
 5173SOL    HW116418   5.800   4.027   6.153
 5173SOL    HW216419   5.727   4.108   6.275
 5174SOL     OW16420   1.929   4.651   4.604
 5174SOL    HW116421   1.953   4.554   4.598
 5174SOL    HW216422   2.001   4.701   4.650
 5175SOL     OW16423   2.047   4.532   6.755
 5175SOL    HW116424   2.090   4.610   6.709
 5175SOL    HW216425   2.104   4.451   6.744
 5176SOL     OW16426   3.734   3.100   0.692
 5176SOL    HW116427   3.735   3.001   0.705
 5176SOL    HW216428   3.639   3.131   0.683
 5177SOL     OW16429   5.030   0.366   5.728
 5177SOL    HW116430   5.100   0.324   5.785
 5177SOL    HW216431   4.993   0.446   5.775
 5178SOL     OW16432   2.593   2.280   0.989
 5178SOL    HW116433   2.553   2.366   1.020
 5178SOL    HW216434   2.592   2.276   0.889
 5179SOL     OW16435   4.830   5.996   5.418
 5179SOL    HW116436   4.888   5.949   5.351
 5179SOL    HW216437   4.851   6.094   5.416
 5180SOL     OW16438   3.052   2.514   6.614
 5180SOL    HW116439   3.032   2.435   6.557
 5180SOL    HW216440   3.014   2.501   6.705
 5181SOL     OW16441   4.019   1.225   2.996
 5181SOL    HW116442   4.041   1.146   3.053
 5181SOL    HW216443   3.952   1.199   2.927
 5182SOL     OW16444   5.452   4.984   1.571
 5182SOL    HW116445   5.411   5.074   1.577
 5182SOL    HW216446   5.428   4.942   1.483
 5183SOL     OW16447   4.685   6.879   1.922
 5183SOL    HW116448   4.623   6.892   1.845
 5183SOL    HW216449   4.778   6.902   1.894
 5184SOL     OW16450   0.812   1.798   3.834
 5184SOL    HW116451   0.813   1.882   3.779
 5184SOL    HW216452   0.835   1.720   3.777
 5185SOL     OW16453   4.381   0.443   3.050
 5185SOL    HW116454   4.348   0.534   3.025
 5185SOL    HW216455   4.436   0.406   2.975
 5186SOL     OW16456   6.347   4.237   0.898
 5186SOL    HW116457   6.352   4.242   0.798
 5186SOL    HW216458   6.422   4.289   0.938
 5187SOL     OW16459   6.531   0.984   4.009
 5187SOL    HW116460   6.570   0.895   3.985
 5187SOL    HW216461   6.432   0.974   4.023
 5188SOL     OW16462   0.308   5.238   0.733
 5188SOL    HW116463   0.329   5.151   0.689
 5188SOL    HW216464   0.393   5.289   0.748
 5189SOL     OW16465   4.717   5.140   0.270
 5189SOL    HW116466   4.798   5.154   0.327
 5189SOL    HW216467   4.635   5.147   0.326
 5190SOL     OW16468   1.192   2.259   4.576
 5190SOL    HW116469   1.172   2.166   4.546
 5190SOL    HW216470   1.106   2.308   4.591
 5191SOL     OW16471   3.732   1.015   1.623
 5191SOL    HW116472   3.633   1.000   1.622
 5191SOL    HW216473   3.757   1.068   1.703
 5192SOL     OW16474   4.768   5.659   2.529
 5192SOL    HW116475   4.854   5.659   2.580
 5192SOL    HW216476   4.748   5.752   2.498
 5193SOL     OW16477   4.703   4.422   3.529
 5193SOL    HW116478   4.623   4.437   3.587
 5193SOL    HW216479   4.776   4.486   3.556
 5194SOL     OW16480   5.156   0.273   5.946
 5194SOL    HW116481   5.242   0.233   5.913
 5194SOL    HW216482   5.169   0.311   6.037
 5195SOL     OW16483   6.152   6.682   4.614
 5195SOL    HW116484   6.075   6.653   4.670
 5195SOL    HW216485   6.121   6.696   4.520
 5196SOL     OW16486   0.971   3.906   1.562
 5196SOL    HW116487   0.876   3.911   1.593
 5196SOL    HW216488   1.020   3.988   1.592
 5197SOL     OW16489   1.790   6.356   3.926
 5197SOL    HW116490   1.765   6.437   3.873
 5197SOL    HW216491   1.865   6.307   3.880
 5198SOL     OW16492   2.628   7.015   5.109
 5198SOL    HW116493   2.636   0.078   5.066
 5198SOL    HW216494   2.532   6.995   5.128
 5199SOL     OW16495   2.413   5.478   1.407
 5199SOL    HW116496   2.396   5.498   1.310
 5199SOL    HW216497   2.408   5.562   1.460
 5200SOL     OW16498   0.833   2.341   5.083
 5200SOL    HW116499   0.910   2.292   5.041
 5200SOL    HW216500   0.749   2.314   5.037
 5201SOL     OW16501   5.707   5.260   4.629
 5201SOL    HW116502   5.620   5.274   4.582
 5201SOL    HW216503   5.778   5.239   4.562
 5202SOL     OW16504   5.352   3.140   0.030
 5202SOL    HW116505   5.276   3.137   6.992
 5202SOL    HW216506   5.323   3.189   0.112
 5203SOL     OW16507   1.549   0.288   5.868
 5203SOL    HW116508   1.592   0.230   5.937
 5203SOL    HW216509   1.573   0.383   5.884
 5204SOL     OW16510   3.217   6.803   6.733
 5204SOL    HW116511   3.224   6.735   6.660
 5204SOL    HW216512   3.197   6.756   6.820
 5205SOL     OW16513   6.694   5.678   0.292
 5205SOL    HW116514   6.683   5.764   0.242
 5205SOL    HW216515   6.669   5.691   0.388
 5206SOL     OW16516   0.765   4.647   5.221
 5206SOL    HW116517   0.741   4.609   5.311
 5206SOL    HW216518   0.807   4.737   5.234
 5207SOL     OW16519   6.813   0.264   4.168
 5207SOL    HW116520   6.816   0.191   4.236
 5207SOL    HW216521   6.848   0.348   4.208
 5208SOL     OW16522   4.862   2.652   6.998
 5208SOL    HW116523   4.765   2.641   6.978
 5208SOL    HW216524   4.883   2.610   0.060
 5209SOL     OW16525   4.845   0.080   3.163
 5209SOL    HW116526   4.824   7.011   3.182
 5209SOL    HW216527   4.822   0.136   3.242
 5210SOL     OW16528   5.079   4.336   1.271
 5210SOL    HW116529   5.073   4.422   1.221
 5210SOL    HW216530   5.175   4.309   1.281
 5211SOL     OW16531   4.842   2.285   4.314
 5211SOL    HW116532   4.895   2.350   4.367
 5211SOL    HW216533   4.746   2.313   4.312
 5212SOL     OW16534   1.564   2.122   0.733
 5212SOL    HW116535   1.623   2.120   0.813
 5212SOL    HW216536   1.485   2.182   0.752
 5213SOL     OW16537   4.045   3.722   2.214
 5213SOL    HW116538   3.983   3.646   2.195
 5213SOL    HW216539   4.046   3.785   2.136
 5214SOL     OW16540   5.059   4.468   6.336
 5214SOL    HW116541   5.052   4.460   6.237
 5214SOL    HW216542   5.153   4.494   6.361
 5215SOL     OW16543   0.017   3.445   4.266
 5215SOL    HW116544   0.109   3.423   4.299
 5215SOL    HW216545   0.001   3.399   4.179
 5216SOL     OW16546   5.072   5.367   0.887
 5216SOL    HW116547   5.061   5.450   0.941
 5216SOL    HW216548   5.168   5.337   0.891
 5217SOL     OW16549   3.633   5.296   4.052
 5217SOL    HW116550   3.608   5.288   3.955
 5217SOL    HW216551   3.574   5.237   4.107
 5218SOL     OW16552   0.383   1.474   0.854
 5218SOL    HW116553   0.400   1.446   0.760
 5218SOL    HW216554   0.333   1.560   0.855
 5219SOL     OW16555   3.562   1.696   4.536
 5219SOL    HW116556   3.484   1.748   4.570
 5219SOL    HW216557   3.552   1.684   4.437
 5220SOL     OW16558   1.303   5.282   3.362
 5220SOL    HW116559   1.304   5.210   3.432
 5220SOL    HW216560   1.210   5.319   3.353
 5221SOL     OW16561   0.019   0.233   1.361
 5221SOL    HW116562   0.017   0.135   1.379
 5221SOL    HW216563   6.984   0.254   1.285
 5222SOL     OW16564   4.296   5.079   1.763
 5222SOL    HW116565   4.249   4.995   1.790
 5222SOL    HW216566   4.263   5.155   1.820
 5223SOL     OW16567   0.329   2.363   0.875
 5223SOL    HW116568   0.407   2.425   0.877
 5223SOL    HW216569   0.268   2.384   0.951
 5224SOL     OW16570   0.863   1.615   4.771
 5224SOL    HW116571   0.959   1.592   4.786
 5224SOL    HW216572   0.855   1.680   4.696
 5225SOL     OW16573   6.616   1.636   4.430
 5225SOL    HW116574   6.567   1.712   4.387
 5225SOL    HW216575   6.550   1.568   4.462
 5226SOL     OW16576   0.204   5.438   3.602
 5226SOL    HW116577   0.180   5.363   3.540
 5226SOL    HW216578   0.302   5.435   3.623
 5227SOL     OW16579   0.068   3.947   5.914
 5227SOL    HW116580   0.005   3.896   5.973
 5227SOL    HW216581   0.022   3.970   5.828
 5228SOL     OW16582   1.103   2.543   6.659
 5228SOL    HW116583   1.049   2.612   6.707
 5228SOL    HW216584   1.199   2.553   6.683
 5229SOL     OW16585   3.446   5.999   6.838
 5229SOL    HW116586   3.473   5.927   6.775
 5229SOL    HW216587   3.460   5.967   6.932
 5230SOL     OW16588   0.015   0.164   2.483
 5230SOL    HW116589   7.001   0.127   2.567
 5230SOL    HW216590   7.001   0.253   2.463
 5231SOL     OW16591   5.500   1.534   3.504
 5231SOL    HW116592   5.579   1.472   3.504
 5231SOL    HW216593   5.517   1.609   3.440
 5232SOL     OW16594   1.614   3.892   5.988
 5232SOL    HW116595   1.646   3.806   5.949
 5232SOL    HW216596   1.532   3.875   6.044
 5233SOL     OW16597   3.347   1.404   2.324
 5233SOL    HW116598   3.256   1.445   2.316
 5233SOL    HW216599   3.369   1.391   2.421
 5234SOL     OW16600   2.113   3.116   0.433
 5234SOL    HW116601   2.014   3.103   0.436
 5234SOL    HW216602   2.151   3.061   0.359
 5235SOL     OW16603   2.185   2.217   0.383
 5235SOL    HW116604   2.131   2.178   0.309
 5235SOL    HW216605   2.271   2.252   0.347
 5236SOL     OW16606   3.194   4.929   1.974
 5236SOL    HW116607   3.097   4.907   1.962
 5236SOL    HW216608   3.209   4.963   2.067
 5237SOL     OW16609   1.881   1.801   4.739
 5237SOL    HW116610   1.963   1.775   4.688
 5237SOL    HW216611   1.838   1.719   4.776
 5238SOL     OW16612   1.106   4.622   2.586
 5238SOL    HW116613   1.083   4.717   2.605
 5238SOL    HW216614   1.098   4.606   2.487
 5239SOL     OW16615   3.522   4.054   0.990
 5239SOL    HW116616   3.564   4.000   1.063
 5239SOL    HW216617   3.437   4.095   1.023
 5240SOL     OW16618   2.874   2.765   5.819
 5240SOL    HW116619   2.820   2.690   5.857
 5240SOL    HW216620   2.845   2.851   5.860
 5241SOL     OW16621   1.532   6.213   2.149
 5241SOL    HW116622   1.582   6.299   2.138
 5241SOL    HW216623   1.534   6.185   2.245
 5242SOL     OW16624   5.228   0.536   1.719
 5242SOL    HW116625   5.131   0.513   1.725
 5242SOL    HW216626   5.249   0.571   1.628
 5243SOL     OW16627   2.427   6.363   1.827
 5243SOL    HW116628   2.344   6.419   1.838
 5243SOL    HW216629   2.440   6.306   1.909
 5244SOL     OW16630   4.885   3.456   0.477
 5244SOL    HW116631   4.887   3.394   0.399
 5244SOL    HW216632   4.945   3.421   0.549
 5245SOL     OW16633   3.887   4.124   0.382
 5245SOL    HW116634   3.818   4.111   0.453
 5245SOL    HW216635   3.978   4.123   0.423
 5246SOL     OW16636   6.572   2.327   2.438
 5246SOL    HW116637   6.541   2.245   2.389
 5246SOL    HW216638   6.514   2.405   2.415
 5247SOL     OW16639   3.827   1.534   5.257
 5247SOL    HW116640   3.797   1.531   5.162
 5247SOL    HW216641   3.926   1.519   5.262
 5248SOL     OW16642   6.999   1.970   3.061
 5248SOL    HW116643   0.027   1.894   3.027
 5248SOL    HW216644   0.019   2.056   3.040
 5249SOL     OW16645   1.430   5.231   6.804
 5249SOL    HW116646   1.394   5.235   6.897
 5249SOL    HW216647   1.402   5.313   6.754
 5250SOL     OW16648   1.657   5.696   0.422
 5250SOL    HW116649   1.625   5.623   0.481
 5250SOL    HW216650   1.631   5.676   0.327
 5251SOL     OW16651   0.847   4.736   1.157
 5251SOL    HW116652   0.907   4.760   1.081
 5251SOL    HW216653   0.848   4.808   1.226
 5252SOL     OW16654   2.889   0.082   2.327
 5252SOL    HW116655   2.937   0.070   2.240
 5252SOL    HW216656   2.805   0.028   2.325
 5253SOL     OW16657   5.975   4.349   5.078
 5253SOL    HW116658   5.953   4.410   5.002
 5253SOL    HW216659   6.029   4.398   5.146
 5254SOL     OW16660   5.464   0.445   3.482
 5254SOL    HW116661   5.553   0.427   3.524
 5254SOL    HW216662   5.424   0.358   3.451
 5255SOL     OW16663   5.196   2.166   4.840
 5255SOL    HW116664   5.200   2.263   4.866
 5255SOL    HW216665   5.247   2.152   4.755
 5256SOL     OW16666   5.117   1.469   3.283
 5256SOL    HW116667   5.019   1.490   3.284
 5256SOL    HW216668   5.142   1.432   3.194
 5257SOL     OW16669   4.786   0.123   0.530
 5257SOL    HW116670   4.797   0.078   0.441
 5257SOL    HW216671   4.691   0.152   0.541
 5258SOL     OW16672   5.699   2.133   2.732
 5258SOL    HW116673   5.645   2.158   2.812
 5258SOL    HW216674   5.672   2.042   2.701
 5259SOL     OW16675   5.050   5.523   2.758
 5259SOL    HW116676   5.050   5.614   2.716
 5259SOL    HW216677   5.091   5.457   2.695
 5260SOL     OW16678   3.216   5.300   0.110
 5260SOL    HW116679   3.184   5.263   0.198
 5260SOL    HW216680   3.198   5.399   0.108
 5261SOL     OW16681   0.163   4.653   0.612
 5261SOL    HW116682   0.163   4.659   0.712
 5261SOL    HW216683   0.071   4.633   0.580
 5262SOL     OW16684   2.339   0.779   3.134
 5262SOL    HW116685   2.348   0.879   3.132
 5262SOL    HW216686   2.317   0.746   3.043
 5263SOL     OW16687   1.880   1.291   3.333
 5263SOL    HW116688   1.814   1.352   3.290
 5263SOL    HW216689   1.973   1.321   3.309
 5264SOL     OW16690   6.538   2.089   2.251
 5264SOL    HW116691   6.564   2.006   2.301
 5264SOL    HW216692   6.620   2.135   2.218
 5265SOL     OW16693   5.820   2.849   4.652
 5265SOL    HW116694   5.725   2.849   4.682
 5265SOL    HW216695   5.865   2.933   4.682
 5266SOL     OW16696   2.294   6.719   1.306
 5266SOL    HW116697   2.292   6.812   1.343
 5266SOL    HW216698   2.228   6.712   1.231
 5267SOL     OW16699   4.607   2.266   4.842
 5267SOL    HW116700   4.685   2.313   4.884
 5267SOL    HW216701   4.568   2.200   4.906
 5268SOL     OW16702   5.191   0.625   6.688
 5268SOL    HW116703   5.263   0.693   6.677
 5268SOL    HW216704   5.104   0.671   6.708
 5269SOL     OW16705   0.626   6.752   2.306
 5269SOL    HW116706   0.703   6.739   2.244
 5269SOL    HW216707   0.635   6.840   2.353
 5270SOL     OW16708   5.334   1.923   0.790
 5270SOL    HW116709   5.271   1.969   0.728
 5270SOL    HW216710   5.374   1.990   0.852
 5271SOL     OW16711   6.416   4.672   4.927
 5271SOL    HW116712   6.483   4.599   4.922
 5271SOL    HW216713   6.448   4.751   4.874
 5272SOL     OW16714   3.886   6.232   0.889
 5272SOL    HW116715   3.794   6.193   0.898
 5272SOL    HW216716   3.908   6.284   0.972
 5273SOL     OW16717   0.894   2.931   2.677
 5273SOL    HW116718   0.891   2.934   2.577
 5273SOL    HW216719   0.981   2.891   2.707
 5274SOL     OW16720   5.044   6.601   2.704
 5274SOL    HW116721   4.980   6.666   2.745
 5274SOL    HW216722   5.079   6.540   2.774
 5275SOL     OW16723   2.844   0.770   1.158
 5275SOL    HW116724   2.823   0.773   1.256
 5275SOL    HW216725   2.820   0.858   1.116
 5276SOL     OW16726   2.465   0.550   2.255
 5276SOL    HW116727   2.532   0.486   2.292
 5276SOL    HW216728   2.456   0.535   2.157
 5277SOL     OW16729   3.107   0.900   2.546
 5277SOL    HW116730   3.074   0.849   2.625
 5277SOL    HW216731   3.194   0.861   2.515
 5278SOL     OW16732   4.912   4.568   3.581
 5278SOL    HW116733   4.975   4.501   3.543
 5278SOL    HW216734   4.889   4.636   3.512
 5279SOL     OW16735   2.551   5.499   0.957
 5279SOL    HW116736   2.623   5.442   0.997
 5279SOL    HW216737   2.519   5.459   0.872
 5280SOL     OW16738   2.710   6.452   5.124
 5280SOL    HW116739   2.745   6.533   5.172
 5280SOL    HW216740   2.654   6.480   5.047
 5281SOL     OW16741   0.088   1.837   2.260
 5281SOL    HW116742   0.118   1.878   2.174
 5281SOL    HW216743   0.065   1.909   2.326
 5282SOL     OW16744   2.273   1.534   3.831
 5282SOL    HW116745   2.291   1.436   3.825
 5282SOL    HW216746   2.356   1.582   3.856
 5283SOL     OW16747   5.294   6.229   1.345
 5283SOL    HW116748   5.329   6.287   1.418
 5283SOL    HW216749   5.194   6.225   1.350
 5284SOL     OW16750   5.559   4.572   2.931
 5284SOL    HW116751   5.548   4.575   3.031
 5284SOL    HW216752   5.637   4.513   2.909
 5285SOL     OW16753   3.281   4.979   3.864
 5285SOL    HW116754   3.330   4.999   3.948
 5285SOL    HW216755   3.340   4.927   3.802
 5286SOL     OW16756   2.344   4.411   1.086
 5286SOL    HW116757   2.342   4.502   1.126
 5286SOL    HW216758   2.327   4.343   1.157
 5287SOL     OW16759   2.572   1.633   0.640
 5287SOL    HW116760   2.603   1.714   0.590
 5287SOL    HW216761   2.554   1.657   0.735
 5288SOL     OW16762   3.773   0.308   1.526
 5288SOL    HW116763   3.846   0.365   1.489
 5288SOL    HW216764   3.692   0.314   1.468
 5289SOL     OW16765   0.907   5.234   0.334
 5289SOL    HW116766   0.999   5.220   0.369
 5289SOL    HW216767   0.873   5.149   0.295
 5290SOL     OW16768   3.720   5.858   6.901
 5290SOL    HW116769   3.814   5.828   6.883
 5290SOL    HW216770   3.665   5.844   6.819
 5291SOL     OW16771   2.349   5.505   5.894
 5291SOL    HW116772   2.367   5.447   5.815
 5291SOL    HW216773   2.377   5.457   5.977
 5292SOL     OW16774   5.388   3.368   6.881
 5292SOL    HW116775   5.337   3.409   6.957
 5292SOL    HW216776   5.426   3.280   6.911
 5293SOL     OW16777   0.786   1.114   4.809
 5293SOL    HW116778   0.785   1.211   4.785
 5293SOL    HW216779   0.783   1.059   4.726
 5294SOL     OW16780   5.867   2.748   6.380
 5294SOL    HW116781   5.790   2.810   6.364
 5294SOL    HW216782   5.949   2.784   6.334
 5295SOL     OW16783   5.033   1.315   2.716
 5295SOL    HW116784   5.066   1.257   2.790
 5295SOL    HW216785   5.047   1.411   2.740
 5296SOL     OW16786   1.749   4.811   0.201
 5296SOL    HW116787   1.737   4.788   0.298
 5296SOL    HW216788   1.725   4.906   0.186
 5297SOL     OW16789   2.021   1.729   0.698
 5297SOL    HW116790   1.954   1.803   0.690
 5297SOL    HW216791   1.998   1.656   0.633
 5298SOL     OW16792   6.510   4.900   2.083
 5298SOL    HW116793   6.443   4.874   2.014
 5298SOL    HW216794   6.600   4.865   2.057
 5299SOL     OW16795   2.368   0.743   1.521
 5299SOL    HW116796   2.445   0.788   1.475
 5299SOL    HW216797   2.296   0.810   1.539
 5300SOL     OW16798   0.088   5.588   3.135
 5300SOL    HW116799   0.068   5.611   3.040
 5300SOL    HW216800   0.002   5.580   3.185
 5301SOL     OW16801   4.370   1.541   0.033
 5301SOL    HW116802   4.286   1.590   0.056
 5301SOL    HW216803   4.411   1.504   0.116
 5302SOL     OW16804   0.065   4.444   3.172
 5302SOL    HW116805   7.003   4.482   3.196
 5302SOL    HW216806   0.107   4.501   3.101
 5303SOL     OW16807   6.640   4.770   3.850
 5303SOL    HW116808   6.721   4.789   3.794
 5303SOL    HW216809   6.633   4.839   3.922
 5304SOL     OW16810   5.026   2.235   6.012
 5304SOL    HW116811   5.076   2.310   6.054
 5304SOL    HW216812   4.993   2.264   5.922
 5305SOL     OW16813   2.209   0.579   4.030
 5305SOL    HW116814   2.202   0.521   4.111
 5305SOL    HW216815   2.123   0.575   3.979
 5306SOL     OW16816   2.273   6.523   5.798
 5306SOL    HW116817   2.327   6.560   5.721
 5306SOL    HW216818   2.303   6.430   5.817
 5307SOL     OW16819   4.356   6.580   6.177
 5307SOL    HW116820   4.356   6.510   6.106
 5307SOL    HW216821   4.421   6.652   6.153
 5308SOL     OW16822   6.967   0.366   3.742
 5308SOL    HW116823   6.914   0.451   3.746
 5308SOL    HW216824   6.919   0.294   3.792
 5309SOL     OW16825   3.512   3.684   3.462
 5309SOL    HW116826   3.463   3.674   3.375
 5309SOL    HW216827   3.548   3.776   3.469
 5310SOL     OW16828   5.457   2.585   1.530
 5310SOL    HW116829   5.367   2.580   1.574
 5310SOL    HW216830   5.500   2.672   1.554
 5311SOL     OW16831   2.736   5.557   6.987
 5311SOL    HW116832   2.816   5.542   6.928
 5311SOL    HW216833   2.711   5.654   6.984
 5312SOL     OW16834   1.363   4.587   2.646
 5312SOL    HW116835   1.316   4.557   2.563
 5312SOL    HW216836   1.324   4.673   2.678
 5313SOL     OW16837   1.000   5.967   6.824
 5313SOL    HW116838   1.031   5.897   6.889
 5313SOL    HW216839   1.054   6.050   6.837
 5314SOL     OW16840   4.644   5.308   0.032
 5314SOL    HW116841   4.574   5.360   0.082
 5314SOL    HW216842   4.693   5.249   0.096
 5315SOL     OW16843   5.597   3.991   1.569
 5315SOL    HW116844   5.597   4.076   1.623
 5315SOL    HW216845   5.554   3.918   1.622
 5316SOL     OW16846   6.967   4.904   4.732
 5316SOL    HW116847   0.019   4.847   4.711
 5316SOL    HW216848   6.974   4.991   4.683
 5317SOL     OW16849   5.352   0.629   2.616
 5317SOL    HW116850   5.255   0.650   2.602
 5317SOL    HW216851   5.363   0.532   2.637
 5318SOL     OW16852   0.135   2.849   4.765
 5318SOL    HW116853   0.227   2.878   4.739
 5318SOL    HW216854   0.109   2.769   4.711
 5319SOL     OW16855   5.640   0.311   7.018
 5319SOL    HW116856   5.558   0.264   0.023
 5319SOL    HW216857   5.701   0.245   6.974
 5320SOL     OW16858   5.415   3.581   6.698
 5320SOL    HW116859   5.420   3.512   6.769
 5320SOL    HW216860   5.338   3.643   6.717
 5321SOL     OW16861   1.691   5.477   5.465
 5321SOL    HW116862   1.681   5.479   5.365
 5321SOL    HW216863   1.670   5.385   5.498
 5322SOL     OW16864   4.388   5.721   6.438
 5322SOL    HW116865   4.291   5.744   6.449
 5322SOL    HW216866   4.425   5.688   6.525
 5323SOL     OW16867   4.009   1.878   6.990
 5323SOL    HW116868   3.990   1.975   7.003
 5323SOL    HW216869   3.942   1.839   6.927
 5324SOL     OW16870   4.260   3.047   1.246
 5324SOL    HW116871   4.271   3.075   1.341
 5324SOL    HW216872   4.242   3.127   1.189
 5325SOL     OW16873   5.003   6.564   1.935
 5325SOL    HW116874   4.954   6.624   1.998
 5325SOL    HW216875   4.944   6.542   1.857
 5326SOL     OW16876   6.776   5.803   2.106
 5326SOL    HW116877   6.781   5.886   2.050
 5326SOL    HW216878   6.826   5.729   2.061
 5327SOL     OW16879   6.667   6.795   4.716
 5327SOL    HW116880   6.571   6.781   4.739
 5327SOL    HW216881   6.675   6.825   4.621
 5328SOL     OW16882   3.808   3.806   6.952
 5328SOL    HW116883   3.842   3.837   0.014
 5328SOL    HW216884   3.866   3.843   6.880
 5329SOL     OW16885   0.680   4.480   0.739
 5329SOL    HW116886   0.659   4.402   0.799
 5329SOL    HW216887   0.746   4.540   0.785
 5330SOL     OW16888   3.503   3.915   1.468
 5330SOL    HW116889   3.482   3.871   1.555
 5330SOL    HW216890   3.443   3.879   1.397
 5331SOL     OW16891   4.314   1.761   0.352
 5331SOL    HW116892   4.326   1.666   0.324
 5331SOL    HW216893   4.390   1.789   0.410
 5332SOL     OW16894   6.028   5.542   0.690
 5332SOL    HW116895   6.017   5.468   0.757
 5332SOL    HW216896   6.114   5.529   0.640
 5333SOL     OW16897   1.563   1.416   3.736
 5333SOL    HW116898   1.627   1.418   3.659
 5333SOL    HW216899   1.481   1.365   3.710
 5334SOL     OW16900   4.622   4.404   3.220
 5334SOL    HW116901   4.538   4.349   3.211
 5334SOL    HW216902   4.660   4.391   3.312
 5335SOL     OW16903   0.056   4.760   1.508
 5335SOL    HW116904   0.057   4.748   1.409
 5335SOL    HW216905   0.135   4.714   1.548
 5336SOL     OW16906   2.001   1.954   4.319
 5336SOL    HW116907   2.070   1.915   4.380
 5336SOL    HW216908   2.030   2.044   4.288
 5337SOL     OW16909   6.669   4.221   1.361
 5337SOL    HW116910   6.740   4.156   1.387
 5337SOL    HW216911   6.699   4.314   1.383
 5338SOL     OW16912   6.242   2.937   0.209
 5338SOL    HW116913   6.207   2.850   0.174
 5338SOL    HW216914   6.342   2.939   0.199
 5339SOL     OW16915   6.027   2.385   2.726
 5339SOL    HW116916   6.110   2.349   2.769
 5339SOL    HW216917   5.988   2.316   2.666
 5340SOL     OW16918   5.696   2.846   2.210
 5340SOL    HW116919   5.676   2.749   2.193
 5340SOL    HW216920   5.613   2.893   2.238
 5341SOL     OW16921   4.832   4.777   3.399
 5341SOL    HW116922   4.793   4.742   3.314
 5341SOL    HW216923   4.761   4.823   3.452
 5342SOL     OW16924   6.000   7.012   5.212
 5342SOL    HW116925   5.964   0.004   5.304
 5342SOL    HW216926   6.072   0.052   5.191
 5343SOL     OW16927   3.978   3.738   5.502
 5343SOL    HW116928   4.001   3.834   5.517
 5343SOL    HW216929   4.007   3.711   5.410
 5344SOL     OW16930   0.306   1.484   6.678
 5344SOL    HW116931   0.308   1.497   6.777
 5344SOL    HW216932   0.257   1.561   6.636
 5345SOL     OW16933   5.447   1.299   6.870
 5345SOL    HW116934   5.470   1.297   6.773
 5345SOL    HW216935   5.530   1.315   6.924
 5346SOL     OW16936   2.947   5.198   3.734
 5346SOL    HW116937   2.940   5.117   3.675
 5346SOL    HW216938   2.891   5.184   3.816
 5347SOL     OW16939   6.239   2.190   4.047
 5347SOL    HW116940   6.188   2.254   4.104
 5347SOL    HW216941   6.321   2.159   4.096
 5348SOL     OW16942   5.295   2.203   4.317
 5348SOL    HW116943   5.314   2.247   4.229
 5348SOL    HW216944   5.302   2.104   4.307
 5349SOL     OW16945   1.178   2.850   1.594
 5349SOL    HW116946   1.215   2.852   1.502
 5349SOL    HW216947   1.162   2.944   1.625
 5350SOL     OW16948   1.982   6.542   5.769
 5350SOL    HW116949   2.067   6.594   5.775
 5350SOL    HW216950   1.970   6.508   5.676
 5351SOL     OW16951   0.355   5.456   1.764
 5351SOL    HW116952   0.401   5.531   1.716
 5351SOL    HW216953   0.419   5.382   1.780
 5352SOL     OW16954   1.875   3.767   3.987
 5352SOL    HW116955   1.861   3.865   3.981
 5352SOL    HW216956   1.960   3.742   3.941
 5353SOL     OW16957   4.381   5.530   3.359
 5353SOL    HW116958   4.363   5.482   3.445
 5353SOL    HW216959   4.472   5.572   3.362
 5354SOL     OW16960   4.026   5.496   0.725
 5354SOL    HW116961   4.053   5.463   0.815
 5354SOL    HW216962   4.060   5.589   0.711
 5355SOL     OW16963   5.576   4.988   5.150
 5355SOL    HW116964   5.514   5.048   5.200
 5355SOL    HW216965   5.523   4.918   5.101
 5356SOL     OW16966   0.657   4.703   1.401
 5356SOL    HW116967   0.701   4.698   1.312
 5356SOL    HW216968   0.643   4.611   1.437
 5357SOL     OW16969   4.771   5.002   1.858
 5357SOL    HW116970   4.674   5.013   1.835
 5357SOL    HW216971   4.827   5.053   1.793
 5358SOL     OW16972   4.309   1.275   0.012
 5358SOL    HW116973   4.313   1.375   0.003
 5358SOL    HW216974   4.217   1.248   0.040
 5359SOL     OW16975   1.715   2.013   0.162
 5359SOL    HW116976   1.702   2.000   0.260
 5359SOL    HW216977   1.701   1.926   0.115
 5360SOL     OW16978   5.776   4.492   3.871
 5360SOL    HW116979   5.817   4.546   3.797
 5360SOL    HW216980   5.699   4.439   3.835
 5361SOL     OW16981   3.543   6.428   2.425
 5361SOL    HW116982   3.519   6.487   2.502
 5361SOL    HW216983   3.603   6.477   2.362
 5362SOL     OW16984   5.265   0.081   2.329
 5362SOL    HW116985   5.364   0.065   2.328
 5362SOL    HW216986   5.247   0.173   2.364
 5363SOL     OW16987   5.409   5.410   4.959
 5363SOL    HW116988   5.373   5.466   5.034
 5363SOL    HW216989   5.373   5.317   4.967
 5364SOL     OW16990   4.781   0.664   2.669
 5364SOL    HW116991   4.752   0.630   2.758
 5364SOL    HW216992   4.823   0.754   2.679
 5365SOL     OW16993   3.227   3.603   4.255
 5365SOL    HW116994   3.140   3.650   4.265
 5365SOL    HW216995   3.211   3.507   4.231
 5366SOL     OW16996   6.371   6.742   1.524
 5366SOL    HW116997   6.419   6.656   1.511
 5366SOL    HW216998   6.436   6.815   1.547
 5367SOL     OW16999   0.051   6.566   1.037
 5367SOL    HW117000   0.111   6.488   1.058
 5367SOL    HW217001   0.001   6.591   1.119
 5368SOL     OW17002   6.562   5.565   3.456
 5368SOL    HW117003   6.579   5.663   3.463
 5368SOL    HW217004   6.638   5.521   3.409
 5369SOL     OW17005   2.894   5.580   1.967
 5369SOL    HW117006   2.869   5.494   2.012
 5369SOL    HW217007   2.821   5.647   1.979
 5370SOL     OW17008   3.197   3.733   1.596
 5370SOL    HW117009   3.283   3.735   1.648
 5370SOL    HW217010   3.124   3.697   1.654
 5371SOL     OW17011   6.849   5.166   5.701
 5371SOL    HW117012   6.934   5.174   5.649
 5371SOL    HW217013   6.858   5.093   5.769
 5372SOL     OW17014   0.560   0.687   2.440
 5372SOL    HW117015   0.550   0.733   2.351
 5372SOL    HW217016   0.657   0.670   2.457
 5373SOL     OW17017   3.945   0.077   5.997
 5373SOL    HW117018   3.872   0.142   5.978
 5373SOL    HW217019   3.917   7.013   5.967
 5374SOL     OW17020   2.894   5.253   1.431
 5374SOL    HW117021   2.821   5.265   1.363
 5374SOL    HW217022   2.923   5.157   1.432
 5375SOL     OW17023   0.500   5.998   4.922
 5375SOL    HW117024   0.586   6.046   4.911
 5375SOL    HW217025   0.488   5.972   5.018
 5376SOL     OW17026   1.217   1.652   0.388
 5376SOL    HW117027   1.202   1.600   0.304
 5376SOL    HW217028   1.137   1.709   0.407
 5377SOL     OW17029   2.480   0.567   3.259
 5377SOL    HW117030   2.421   0.642   3.229
 5377SOL    HW217031   2.494   0.573   3.358
 5378SOL     OW17032   5.943   0.733   1.594
 5378SOL    HW117033   5.887   0.810   1.565
 5378SOL    HW217034   5.955   0.735   1.693
 5379SOL     OW17035   0.434   3.133   6.056
 5379SOL    HW117036   0.340   3.098   6.061
 5379SOL    HW217037   0.432   3.233   6.051
 5380SOL     OW17038   4.926   0.047   1.404
 5380SOL    HW117039   4.949   0.119   1.340
 5380SOL    HW217040   4.982   0.056   1.487
 5381SOL     OW17041   4.884   6.802   3.105
 5381SOL    HW117042   4.963   6.756   3.146
 5381SOL    HW217043   4.821   6.832   3.177
 5382SOL     OW17044   4.069   1.742   2.298
 5382SOL    HW117045   4.152   1.779   2.340
 5382SOL    HW217046   4.060   1.645   2.323
 5383SOL     OW17047   1.827   3.010   4.297
 5383SOL    HW117048   1.903   3.068   4.265
 5383SOL    HW217049   1.807   2.940   4.228
 5384SOL     OW17050   4.554   5.902   5.466
 5384SOL    HW117051   4.511   5.928   5.553
 5384SOL    HW217052   4.649   5.933   5.465
 5385SOL     OW17053   5.956   2.634   5.578
 5385SOL    HW117054   5.920   2.563   5.517
 5385SOL    HW217055   6.052   2.614   5.598
 5386SOL     OW17056   6.718   4.291   3.788
 5386SOL    HW117057   6.769   4.283   3.873
 5386SOL    HW217058   6.713   4.201   3.743
 5387SOL     OW17059   2.149   1.216   2.565
 5387SOL    HW117060   2.203   1.268   2.499
 5387SOL    HW217061   2.179   1.121   2.565
 5388SOL     OW17062   0.904   0.006   2.389
 5388SOL    HW117063   0.805   7.024   2.376
 5388SOL    HW217064   0.950   0.000   2.301
 5389SOL     OW17065   4.808   1.977   4.388
 5389SOL    HW117066   4.742   2.045   4.355
 5389SOL    HW217067   4.868   1.950   4.313
 5390SOL     OW17068   6.492   3.253   3.730
 5390SOL    HW117069   6.497   3.191   3.651
 5390SOL    HW217070   6.576   3.306   3.736
 5391SOL     OW17071   2.153   2.689   0.197
 5391SOL    HW117072   2.128   2.655   0.107
 5391SOL    HW217073   2.249   2.669   0.215
 5392SOL     OW17074   5.001   1.779   3.616
 5392SOL    HW117075   4.941   1.733   3.682
 5392SOL    HW217076   5.050   1.854   3.662
 5393SOL     OW17077   3.719   1.437   5.478
 5393SOL    HW117078   3.759   1.471   5.393
 5393SOL    HW217079   3.625   1.470   5.486
 5394SOL     OW17080   2.049   0.399   0.560
 5394SOL    HW117081   2.119   0.328   0.551
 5394SOL    HW217082   2.092   0.489   0.557
 5395SOL     OW17083   4.907   2.610   1.113
 5395SOL    HW117084   4.868   2.575   1.028
 5395SOL    HW217085   4.981   2.674   1.092
 5396SOL     OW17086   6.038   5.481   2.760
 5396SOL    HW117087   6.027   5.395   2.810
 5396SOL    HW217088   6.072   5.462   2.668
 5397SOL     OW17089   6.310   1.278   3.196
 5397SOL    HW117090   6.317   1.268   3.295
 5397SOL    HW217091   6.284   1.190   3.156
 5398SOL     OW17092   4.939   2.462   3.418
 5398SOL    HW117093   4.899   2.372   3.436
 5398SOL    HW217094   4.944   2.514   3.503
 5399SOL     OW17095   2.061   6.967   5.573
 5399SOL    HW117096   1.991   7.000   5.637
 5399SOL    HW217097   2.048   7.012   5.484
 5400SOL     OW17098   3.550   3.269   1.440
 5400SOL    HW117099   3.587   3.186   1.481
 5400SOL    HW217100   3.603   3.292   1.358
 5401SOL     OW17101   5.679   4.362   2.301
 5401SOL    HW117102   5.647   4.432   2.365
 5401SOL    HW217103   5.612   4.350   2.227
 5402SOL     OW17104   1.984   0.286   0.804
 5402SOL    HW117105   1.944   0.368   0.846
 5402SOL    HW217106   1.985   0.297   0.705
 5403SOL     OW17107   4.965   3.287   0.263
 5403SOL    HW117108   4.922   3.200   0.286
 5403SOL    HW217109   5.062   3.273   0.242
 5404SOL     OW17110   6.257   0.980   1.047
 5404SOL    HW117111   6.302   0.907   1.098
 5404SOL    HW217112   6.260   1.065   1.099
 5405SOL     OW17113   5.325   5.569   6.903
 5405SOL    HW117114   5.357   5.577   6.998
 5405SOL    HW217115   5.384   5.507   6.852
 5406SOL     OW17116   2.750   0.470   4.002
 5406SOL    HW117117   2.832   0.506   3.956
 5406SOL    HW217118   2.736   0.375   3.975
 5407SOL     OW17119   2.252   0.548   1.389
 5407SOL    HW117120   2.211   0.570   1.300
 5407SOL    HW217121   2.314   0.621   1.416
 5408SOL     OW17122   2.543   2.511   4.576
 5408SOL    HW117123   2.532   2.503   4.477
 5408SOL    HW217124   2.640   2.500   4.600
 5409SOL     OW17125   0.957   2.953   1.192
 5409SOL    HW117126   0.949   2.854   1.186
 5409SOL    HW217127   0.998   2.988   1.108
 5410SOL     OW17128   0.983   2.126   0.910
 5410SOL    HW117129   1.031   2.196   0.857
 5410SOL    HW217130   0.933   2.066   0.848
 5411SOL     OW17131   3.836   5.003   6.972
 5411SOL    HW117132   3.845   5.087   6.918
 5411SOL    HW217133   3.926   4.975   7.005
 5412SOL     OW17134   0.407   2.188   5.977
 5412SOL    HW117135   0.359   2.262   6.024
 5412SOL    HW217136   0.505   2.206   5.975
 5413SOL     OW17137   6.670   6.567   5.165
 5413SOL    HW117138   6.598   6.572   5.233
 5413SOL    HW217139   6.634   6.530   5.080
 5414SOL     OW17140   6.499   4.406   5.810
 5414SOL    HW117141   6.471   4.459   5.890
 5414SOL    HW217142   6.447   4.320   5.807
 5415SOL     OW17143   3.481   0.360   0.647
 5415SOL    HW117144   3.562   0.386   0.699
 5415SOL    HW217145   3.501   0.362   0.549
 5416SOL     OW17146   3.427   5.005   5.249
 5416SOL    HW117147   3.368   4.926   5.265
 5416SOL    HW217148   3.522   4.976   5.249
 5417SOL     OW17149   4.665   6.330   3.591
 5417SOL    HW117150   4.667   6.356   3.494
 5417SOL    HW217151   4.727   6.253   3.606
 5418SOL     OW17152   6.451   4.091   4.523
 5418SOL    HW117153   6.408   4.051   4.603
 5418SOL    HW217154   6.432   4.189   4.521
 5419SOL     OW17155   3.758   6.923   6.617
 5419SOL    HW117156   3.691   6.886   6.683
 5419SOL    HW217157   3.803   6.847   6.570
 5420SOL     OW17158   1.458   0.976   1.249
 5420SOL    HW117159   1.450   1.069   1.212
 5420SOL    HW217160   1.372   0.952   1.295
 5421SOL     OW17161   3.480   4.942   2.333
 5421SOL    HW117162   3.460   4.911   2.426
 5421SOL    HW217163   3.401   4.990   2.296
 5422SOL     OW17164   2.336   6.272   3.832
 5422SOL    HW117165   2.316   6.369   3.834
 5422SOL    HW217166   2.262   6.224   3.785
 5423SOL     OW17167   6.442   6.192   2.721
 5423SOL    HW117168   6.395   6.269   2.677
 5423SOL    HW217169   6.395   6.168   2.806
 5424SOL     OW17170   4.500   4.248   5.265
 5424SOL    HW117171   4.508   4.236   5.364
 5424SOL    HW217172   4.560   4.183   5.218
 5425SOL     OW17173   0.195   3.412   6.324
 5425SOL    HW117174   0.191   3.475   6.246
 5425SOL    HW217175   0.206   3.318   6.291
 5426SOL     OW17176   5.754   5.329   2.438
 5426SOL    HW117177   5.669   5.298   2.480
 5426SOL    HW217178   5.762   5.428   2.450
 5427SOL     OW17179   4.943   2.372   6.501
 5427SOL    HW117180   4.910   2.293   6.553
 5427SOL    HW217181   4.967   2.446   6.563
 5428SOL     OW17182   6.600   5.306   3.238
 5428SOL    HW117183   6.538   5.384   3.239
 5428SOL    HW217184   6.577   5.246   3.160
 5429SOL     OW17185   2.762   0.200   3.967
 5429SOL    HW117186   2.757   0.163   3.874
 5429SOL    HW217187   2.707   0.143   4.028
 5430SOL     OW17188   2.313   3.716   6.492
 5430SOL    HW117189   2.284   3.795   6.547
 5430SOL    HW217190   2.344   3.643   6.552
 5431SOL     OW17191   3.034   5.232   5.500
 5431SOL    HW117192   2.965   5.168   5.534
 5431SOL    HW217193   3.034   5.314   5.557
 5432SOL     OW17194   5.643   5.701   1.181
 5432SOL    HW117195   5.544   5.707   1.180
 5432SOL    HW217196   5.681   5.763   1.111
 5433SOL     OW17197   1.373   6.907   1.150
 5433SOL    HW117198   1.473   6.902   1.149
 5433SOL    HW217199   1.345   6.978   1.215
 5434SOL     OW17200   5.148   0.753   5.148
 5434SOL    HW117201   5.162   0.655   5.154
 5434SOL    HW217202   5.060   0.772   5.104
 5435SOL     OW17203   6.373   4.029   1.098
 5435SOL    HW117204   6.349   4.116   1.056
 5435SOL    HW217205   6.448   3.987   1.047
 5436SOL     OW17206   1.397   4.943   3.091
 5436SOL    HW117207   1.351   5.000   3.159
 5436SOL    HW217208   1.329   4.904   3.030
 5437SOL     OW17209   3.845   5.721   0.366
 5437SOL    HW117210   3.899   5.801   0.339
 5437SOL    HW217211   3.781   5.747   0.438
 5438SOL     OW17212   4.594   4.386   2.769
 5438SOL    HW117213   4.659   4.324   2.813
 5438SOL    HW217214   4.528   4.418   2.836
 5439SOL     OW17215   1.061   4.729   1.487
 5439SOL    HW117216   1.145   4.676   1.473
 5439SOL    HW217217   0.982   4.670   1.469
 5440SOL     OW17218   5.415   6.194   3.533
 5440SOL    HW117219   5.387   6.160   3.623
 5440SOL    HW217220   5.504   6.238   3.540
 5441SOL     OW17221   4.464   2.313   3.746
 5441SOL    HW117222   4.539   2.251   3.722
 5441SOL    HW217223   4.378   2.275   3.713
 5442SOL     OW17224   5.192   6.990   4.759
 5442SOL    HW117225   5.172   0.032   4.829
 5442SOL    HW217226   5.118   6.924   4.755
 5443SOL     OW17227   4.883   0.110   4.472
 5443SOL    HW117228   4.961   0.171   4.488
 5443SOL    HW217229   4.823   0.150   4.402
 5444SOL     OW17230   0.322   1.058   4.149
 5444SOL    HW117231   0.296   0.983   4.209
 5444SOL    HW217232   0.338   1.140   4.204
 5445SOL     OW17233   5.174   5.609   5.493
 5445SOL    HW117234   5.237   5.624   5.417
 5445SOL    HW217235   5.086   5.653   5.474
 5446SOL     OW17236   0.773   4.425   5.688
 5446SOL    HW117237   0.848   4.399   5.750
 5446SOL    HW217238   0.714   4.346   5.673
 5447SOL     OW17239   1.040   1.312   0.766
 5447SOL    HW117240   1.009   1.405   0.747
 5447SOL    HW217241   1.121   1.293   0.710
 5448SOL     OW17242   4.084   5.597   3.569
 5448SOL    HW117243   4.076   5.613   3.667
 5448SOL    HW217244   4.041   5.673   3.519
 5449SOL     OW17245   3.157   1.737   2.151
 5449SOL    HW117246   3.109   1.823   2.166
 5449SOL    HW217247   3.247   1.756   2.111
 5450SOL     OW17248   4.268   5.713   1.868
 5450SOL    HW117249   4.263   5.812   1.881
 5450SOL    HW217250   4.257   5.692   1.771
 5451SOL     OW17251   1.160   0.354   2.992
 5451SOL    HW117252   1.135   0.412   2.914
 5451SOL    HW217253   1.079   0.306   3.024
 5452SOL     OW17254   2.092   4.709   2.152
 5452SOL    HW117255   2.063   4.715   2.057
 5452SOL    HW217256   2.103   4.612   2.177
 5453SOL     OW17257   5.668   4.231   3.233
 5453SOL    HW117258   5.655   4.150   3.290
 5453SOL    HW217259   5.627   4.216   3.143
 5454SOL     OW17260   5.966   5.552   3.644
 5454SOL    HW117261   5.903   5.475   3.635
 5454SOL    HW217262   5.956   5.613   3.566
 5455SOL     OW17263   0.343   2.055   3.020
 5455SOL    HW117264   0.285   1.996   3.077
 5455SOL    HW217265   0.420   2.002   2.986
 5456SOL     OW17266   5.211   0.965   6.328
 5456SOL    HW117267   5.294   1.016   6.352
 5456SOL    HW217268   5.165   0.935   6.411
 5457SOL     OW17269   6.178   2.099   0.564
 5457SOL    HW117270   6.266   2.058   0.590
 5457SOL    HW217271   6.103   2.044   0.602
 5458SOL     OW17272   5.946   4.675   0.971
 5458SOL    HW117273   5.970   4.583   1.004
 5458SOL    HW217274   5.970   4.683   0.875
 5459SOL     OW17275   2.319   4.515   5.732
 5459SOL    HW117276   2.349   4.484   5.822
 5459SOL    HW217277   2.355   4.454   5.662
 5460SOL     OW17278   1.700   0.221   0.291
 5460SOL    HW117279   1.768   0.149   0.298
 5460SOL    HW217280   1.741   0.302   0.249
 5461SOL     OW17281   6.876   1.197   6.852
 5461SOL    HW117282   6.807   1.131   6.881
 5461SOL    HW217283   6.967   1.162   6.873
 5462SOL     OW17284   5.148   5.899   6.540
 5462SOL    HW117285   5.162   5.855   6.629
 5462SOL    HW217286   5.050   5.906   6.521
 5463SOL     OW17287   0.012   2.817   0.103
 5463SOL    HW117288   7.009   2.827   0.198
 5463SOL    HW217289   7.006   2.895   0.049
 5464SOL     OW17290   6.130   6.459   5.483
 5464SOL    HW117291   6.164   6.529   5.546
 5464SOL    HW217292   6.060   6.405   5.529
 5465SOL     OW17293   0.213   6.167   3.342
 5465SOL    HW117294   0.115   6.157   3.356
 5465SOL    HW217295   0.259   6.081   3.366
 5466SOL     OW17296   6.112   2.850   5.221
 5466SOL    HW117297   6.093   2.902   5.305
 5466SOL    HW217298   6.042   2.872   5.152
 5467SOL     OW17299   5.466   3.911   3.231
 5467SOL    HW117300   5.474   3.921   3.131
 5467SOL    HW217301   5.553   3.934   3.274
 5468SOL     OW17302   6.819   1.676   2.473
 5468SOL    HW117303   6.795   1.582   2.497
 5468SOL    HW217304   6.913   1.695   2.501
 5469SOL     OW17305   1.957   0.834   5.362
 5469SOL    HW117306   1.995   0.903   5.423
 5469SOL    HW217307   1.951   0.871   5.269
 5470SOL     OW17308   4.051   5.251   4.600
 5470SOL    HW117309   4.027   5.243   4.697
 5470SOL    HW217310   4.053   5.347   4.573
 5471SOL     OW17311   4.916   0.158   2.458
 5471SOL    HW117312   4.946   0.101   2.534
 5471SOL    HW217313   4.933   0.254   2.480
 5472SOL     OW17314   3.308   1.531   5.908
 5472SOL    HW117315   3.241   1.501   5.840
 5472SOL    HW217316   3.378   1.460   5.919
 5473SOL     OW17317   1.820   4.753   1.672
 5473SOL    HW117318   1.790   4.763   1.577
 5473SOL    HW217319   1.906   4.802   1.685
 5474SOL     OW17320   0.526   5.428   3.510
 5474SOL    HW117321   0.537   5.478   3.596
 5474SOL    HW217322   0.616   5.403   3.474
 5475SOL     OW17323   0.166   1.894   6.744
 5475SOL    HW117324   0.259   1.888   6.779
 5475SOL    HW217325   0.154   1.979   6.693
 5476SOL     OW17326   2.786   6.296   5.997
 5476SOL    HW117327   2.689   6.320   6.002
 5476SOL    HW217328   2.830   6.348   5.924
 5477SOL     OW17329   2.283   5.281   4.264
 5477SOL    HW117330   2.190   5.270   4.229
 5477SOL    HW217331   2.284   5.262   4.362
 5478SOL     OW17332   5.911   4.549   6.267
 5478SOL    HW117333   5.945   4.460   6.236
 5478SOL    HW217334   5.912   4.553   6.367
 5479SOL     OW17335   4.398   1.985   4.615
 5479SOL    HW117336   4.468   2.015   4.550
 5479SOL    HW217337   4.385   2.055   4.685
 5480SOL     OW17338   6.307   4.361   5.045
 5480SOL    HW117339   6.282   4.401   4.957
 5480SOL    HW217340   6.353   4.274   5.032
 5481SOL     OW17341   4.122   1.167   6.216
 5481SOL    HW117342   4.178   1.142   6.295
 5481SOL    HW217343   4.029   1.134   6.230
 5482SOL     OW17344   3.491   3.424   1.667
 5482SOL    HW117345   3.497   3.396   1.571
 5482SOL    HW217346   3.577   3.405   1.713
 5483SOL     OW17347   6.390   3.240   5.760
 5483SOL    HW117348   6.322   3.282   5.821
 5483SOL    HW217349   6.414   3.305   5.688
 5484SOL     OW17350   6.611   6.413   4.147
 5484SOL    HW117351   6.597   6.430   4.245
 5484SOL    HW217352   6.681   6.476   4.113
 5485SOL     OW17353   3.757   0.020   5.122
 5485SOL    HW117354   3.660   0.044   5.133
 5485SOL    HW217355   3.766   6.947   5.118
 5486SOL     OW17356   1.697   0.639   3.618
 5486SOL    HW117357   1.628   0.659   3.687
 5486SOL    HW217358   1.683   0.699   3.539
 5487SOL     OW17359   6.266   4.708   0.492
 5487SOL    HW117360   6.361   4.736   0.503
 5487SOL    HW217361   6.245   4.634   0.557
 5488SOL     OW17362   4.878   2.125   6.937
 5488SOL    HW117363   4.876   2.224   6.952
 5488SOL    HW217364   4.829   2.104   6.852
 5489SOL     OW17365   1.683   4.242   2.648
 5489SOL    HW117366   1.650   4.283   2.733
 5489SOL    HW217367   1.722   4.152   2.668
 5490SOL     OW17368   3.551   0.458   0.388
 5490SOL    HW117369   3.637   0.430   0.344
 5490SOL    HW217370   3.474   0.431   0.331
 5491SOL     OW17371   1.498   4.910   0.514
 5491SOL    HW117372   1.587   4.865   0.512
 5491SOL    HW217373   1.467   4.918   0.609
 5492SOL     OW17374   1.318   1.753   6.505
 5492SOL    HW117375   1.219   1.749   6.514
 5492SOL    HW217376   1.356   1.661   6.515
 5493SOL     OW17377   3.808   3.087   5.881
 5493SOL    HW117378   3.801   3.187   5.876
 5493SOL    HW217379   3.790   3.049   5.790
 5494SOL     OW17380   6.814   3.676   0.865
 5494SOL    HW117381   6.819   3.765   0.911
 5494SOL    HW217382   6.718   3.653   0.848
 5495SOL     OW17383   3.715   3.898   1.759
 5495SOL    HW117384   3.730   3.985   1.804
 5495SOL    HW217385   3.765   3.896   1.672
 5496SOL     OW17386   3.701   5.924   1.797
 5496SOL    HW117387   3.710   5.946   1.700
 5496SOL    HW217388   3.770   5.856   1.822
 5497SOL     OW17389   0.817   1.801   3.129
 5497SOL    HW117390   0.876   1.722   3.144
 5497SOL    HW217391   0.733   1.791   3.183
 5498SOL     OW17392   4.580   0.975   5.853
 5498SOL    HW117393   4.496   1.019   5.885
 5498SOL    HW217394   4.578   0.878   5.877
 5499SOL     OW17395   0.152   0.815   3.981
 5499SOL    HW117396   0.160   0.832   3.883
 5499SOL    HW217397   0.130   0.900   4.029
 5500SOL     OW17398   2.253   5.506   0.240
 5500SOL    HW117399   2.199   5.562   0.177
 5500SOL    HW217400   2.248   5.410   0.211
 5501SOL     OW17401   2.745   0.315   2.111
 5501SOL    HW117402   2.700   0.297   2.198
 5501SOL    HW217403   2.679   0.358   2.048
 5502SOL     OW17404   5.849   3.883   5.627
 5502SOL    HW117405   5.861   3.979   5.653
 5502SOL    HW217406   5.913   3.860   5.553
 5503SOL     OW17407   1.179   4.367   3.333
 5503SOL    HW117408   1.158   4.330   3.242
 5503SOL    HW217409   1.202   4.464   3.324
 5504SOL     OW17410   3.704   0.761   4.699
 5504SOL    HW117411   3.653   0.677   4.715
 5504SOL    HW217412   3.798   0.750   4.730
 5505SOL     OW17413   2.235   6.337   4.771
 5505SOL    HW117414   2.220   6.435   4.783
 5505SOL    HW217415   2.240   6.292   4.860
 5506SOL     OW17416   6.831   0.751   4.654
 5506SOL    HW117417   6.882   0.701   4.724
 5506SOL    HW217418   6.865   0.844   4.648
 5507SOL     OW17419   2.125   6.180   2.798
 5507SOL    HW117420   2.046   6.120   2.784
 5507SOL    HW217421   2.157   6.173   2.893
 5508SOL     OW17422   2.371   0.518   6.544
 5508SOL    HW117423   2.436   0.533   6.470
 5508SOL    HW217424   2.394   0.577   6.621
 5509SOL     OW17425   5.992   6.298   0.164
 5509SOL    HW117426   5.913   6.248   0.199
 5509SOL    HW217427   6.001   6.384   0.214
 5510SOL     OW17428   4.131   6.609   6.367
 5510SOL    HW117429   4.193   6.567   6.301
 5510SOL    HW217430   4.152   6.706   6.377
 5511SOL     OW17431   0.850   0.388   2.395
 5511SOL    HW117432   0.777   0.324   2.418
 5511SOL    HW217433   0.843   0.468   2.454
 5512SOL     OW17434   6.772   2.207   0.783
 5512SOL    HW117435   6.842   2.185   0.715
 5512SOL    HW217436   6.755   2.127   0.841
 5513SOL     OW17437   4.777   4.502   4.564
 5513SOL    HW117438   4.815   4.584   4.520
 5513SOL    HW217439   4.706   4.529   4.628
 5514SOL     OW17440   5.903   4.973   2.973
 5514SOL    HW117441   5.833   4.982   2.902
 5514SOL    HW217442   5.865   4.925   3.052
 5515SOL     OW17443   6.783   2.738   1.559
 5515SOL    HW117444   6.788   2.815   1.623
 5515SOL    HW217445   6.830   2.659   1.599
 5516SOL     OW17446   1.699   2.799   6.925
 5516SOL    HW117447   1.751   2.873   6.883
 5516SOL    HW217448   1.745   2.712   6.907
 5517SOL     OW17449   3.336   2.368   1.709
 5517SOL    HW117450   3.349   2.269   1.704
 5517SOL    HW217451   3.424   2.414   1.703
 5518SOL     OW17452   5.465   5.186   6.204
 5518SOL    HW117453   5.385   5.170   6.262
 5518SOL    HW217454   5.511   5.100   6.186
 5519SOL     OW17455   5.150   3.838   2.939
 5519SOL    HW117456   5.195   3.752   2.914
 5519SOL    HW217457   5.051   3.826   2.938
 5520SOL     OW17458   1.695   4.385   2.913
 5520SOL    HW117459   1.763   4.326   2.957
 5520SOL    HW217460   1.607   4.375   2.960
 5521SOL     OW17461   5.022   6.287   1.983
 5521SOL    HW117462   5.103   6.229   1.983
 5521SOL    HW217463   5.049   6.383   1.968
 5522SOL     OW17464   2.382   3.637   1.346
 5522SOL    HW117465   2.332   3.648   1.261
 5522SOL    HW217466   2.433   3.551   1.345
 5523SOL     OW17467   3.533   6.801   3.056
 5523SOL    HW117468   3.568   6.886   3.018
 5523SOL    HW217469   3.514   6.813   3.154
 5524SOL     OW17470   0.372   5.445   4.979
 5524SOL    HW117471   0.387   5.422   5.075
 5524SOL    HW217472   0.444   5.404   4.923
 5525SOL     OW17473   6.619   4.992   6.958
 5525SOL    HW117474   6.658   5.054   7.026
 5525SOL    HW217475   6.597   4.905   7.002
 5526SOL     OW17476   6.270   3.472   4.018
 5526SOL    HW117477   6.358   3.445   3.979
 5526SOL    HW217478   6.274   3.465   4.118
 5527SOL     OW17479   0.565   2.861   2.235
 5527SOL    HW117480   0.547   2.832   2.329
 5527SOL    HW217481   0.571   2.781   2.176
 5528SOL     OW17482   0.109   2.501   5.709
 5528SOL    HW117483   0.146   2.590   5.737
 5528SOL    HW217484   0.157   2.428   5.759
 5529SOL     OW17485   2.212   0.250   4.855
 5529SOL    HW117486   2.157   0.328   4.827
 5529SOL    HW217487   2.306   0.279   4.871
 5530SOL     OW17488   0.162   2.539   1.532
 5530SOL    HW117489   0.153   2.471   1.460
 5530SOL    HW217490   0.219   2.614   1.500
 5531SOL     OW17491   4.062   3.387   4.629
 5531SOL    HW117492   4.040   3.399   4.726
 5531SOL    HW217493   4.061   3.476   4.584
 5532SOL     OW17494   1.342   0.894   0.575
 5532SOL    HW117495   1.326   0.830   0.650
 5532SOL    HW217496   1.266   0.888   0.510
 5533SOL     OW17497   2.613   1.154   3.013
 5533SOL    HW117498   2.623   1.252   2.999
 5533SOL    HW217499   2.657   1.105   2.937
 5534SOL     OW17500   0.857   3.052   6.872
 5534SOL    HW117501   0.797   3.099   6.937
 5534SOL    HW217502   0.812   2.969   6.840
 5535SOL     OW17503   6.697   3.219   2.996
 5535SOL    HW117504   6.776   3.163   3.021
 5535SOL    HW217505   6.618   3.160   2.980
 5536SOL     OW17506   2.186   0.847   4.162
 5536SOL    HW117507   2.276   0.844   4.205
 5536SOL    HW217508   2.178   0.773   4.095
 5537SOL     OW17509   3.733   0.481   4.711
 5537SOL    HW117510   3.796   0.526   4.648
 5537SOL    HW217511   3.779   0.404   4.756
 5538SOL     OW17512   4.118   0.449   5.473
 5538SOL    HW117513   4.125   0.371   5.411
 5538SOL    HW217514   4.068   0.523   5.428
 5539SOL     OW17515   0.624   1.689   1.814
 5539SOL    HW117516   0.669   1.600   1.804
 5539SOL    HW217517   0.670   1.756   1.756
 5540SOL     OW17518   5.110   3.135   1.436
 5540SOL    HW117519   5.075   3.127   1.529
 5540SOL    HW217520   5.109   3.232   1.408
 5541SOL     OW17521   4.987   3.310   5.458
 5541SOL    HW117522   4.965   3.218   5.492
 5541SOL    HW217523   4.948   3.378   5.521
 5542SOL     OW17524   5.633   5.607   5.592
 5542SOL    HW117525   5.646   5.661   5.675
 5542SOL    HW217526   5.687   5.646   5.517
 5543SOL     OW17527   2.636   5.589   6.702
 5543SOL    HW117528   2.598   5.593   6.609
 5543SOL    HW217529   2.563   5.576   6.768
 5544SOL     OW17530   5.573   4.716   5.540
 5544SOL    HW117531   5.641   4.686   5.607
 5544SOL    HW217532   5.611   4.791   5.486
 5545SOL     OW17533   4.475   1.340   2.549
 5545SOL    HW117534   4.467   1.248   2.588
 5545SOL    HW217535   4.559   1.383   2.583
 5546SOL     OW17536   0.708   6.579   4.230
 5546SOL    HW117537   0.639   6.595   4.159
 5546SOL    HW217538   0.779   6.649   4.223
 5547SOL     OW17539   3.488   0.878   5.191
 5547SOL    HW117540   3.429   0.938   5.137
 5547SOL    HW217541   3.460   0.783   5.178
 5548SOL     OW17542   6.375   4.012   6.051
 5548SOL    HW117543   6.346   3.920   6.075
 5548SOL    HW217544   6.352   4.075   6.125
 5549SOL     OW17545   4.083   3.404   1.673
 5549SOL    HW117546   4.068   3.309   1.698
 5549SOL    HW217547   4.025   3.463   1.731
 5550SOL     OW17548   2.477   4.690   3.028
 5550SOL    HW117549   2.517   4.630   3.097
 5550SOL    HW217550   2.378   4.697   3.043
 5551SOL     OW17551   1.105   6.496   2.375
 5551SOL    HW117552   1.016   6.471   2.412
 5551SOL    HW217553   1.175   6.485   2.446
 5552SOL     OW17554   5.967   0.575   6.224
 5552SOL    HW117555   5.875   0.606   6.202
 5552SOL    HW217556   5.997   0.616   6.310
 5553SOL     OW17557   4.328   6.783   6.487
 5553SOL    HW117558   4.370   6.702   6.447
 5553SOL    HW217559   4.396   6.833   6.541
 5554SOL     OW17560   5.236   3.434   1.939
 5554SOL    HW117561   5.265   3.409   1.846
 5554SOL    HW217562   5.139   3.412   1.950
 5555SOL     OW17563   1.138   3.222   2.231
 5555SOL    HW117564   1.148   3.267   2.320
 5555SOL    HW217565   1.164   3.285   2.158
 5556SOL     OW17566   6.331   0.647   3.893
 5556SOL    HW117567   6.429   0.630   3.883
 5556SOL    HW217568   6.308   0.654   3.990
 5557SOL     OW17569   4.112   5.439   1.877
 5557SOL    HW117570   4.052   5.461   1.955
 5557SOL    HW217571   4.122   5.519   1.819
 5558SOL     OW17572   3.584   3.450   6.928
 5558SOL    HW117573   3.590   3.547   6.952
 5558SOL    HW217574   3.544   3.441   6.837
 5559SOL     OW17575   1.631   0.266   2.059
 5559SOL    HW117576   1.540   0.227   2.052
 5559SOL    HW217577   1.630   0.344   2.122
 5560SOL     OW17578   0.187   5.593   1.278
 5560SOL    HW117579   0.268   5.626   1.229
 5560SOL    HW217580   0.181   5.494   1.268
 5561SOL     OW17581   2.742   0.582   4.545
 5561SOL    HW117582   2.770   0.674   4.570
 5561SOL    HW217583   2.725   0.577   4.446
 5562SOL     OW17584   4.611   3.379   0.550
 5562SOL    HW117585   4.590   3.299   0.493
 5562SOL    HW217586   4.708   3.377   0.575
 5563SOL     OW17587   2.882   5.333   2.875
 5563SOL    HW117588   2.894   5.373   2.966
 5563SOL    HW217589   2.802   5.274   2.875
 5564SOL     OW17590   4.609   0.093   6.120
 5564SOL    HW117591   4.537   0.032   6.089
 5564SOL    HW217592   4.587   0.187   6.095
 5565SOL     OW17593   3.643   2.390   6.307
 5565SOL    HW117594   3.730   2.379   6.356
 5565SOL    HW217595   3.572   2.417   6.371
 5566SOL     OW17596   2.030   4.497   0.039
 5566SOL    HW117597   2.005   4.519   6.971
 5566SOL    HW217598   2.130   4.489   0.045
 5567SOL     OW17599   0.143   4.248   1.601
 5567SOL    HW117600   0.073   4.302   1.554
 5567SOL    HW217601   0.110   4.154   1.612
 5568SOL     OW17602   4.695   1.223   3.394
 5568SOL    HW117603   4.742   1.260   3.313
 5568SOL    HW217604   4.762   1.212   3.468
 5569SOL     OW17605   2.017   1.994   2.459
 5569SOL    HW117606   2.084   2.066   2.438
 5569SOL    HW217607   2.064   1.915   2.499
 5570SOL     OW17608   5.926   3.609   3.568
 5570SOL    HW117609   5.891   3.701   3.585
 5570SOL    HW217610   5.883   3.544   3.630
 5571SOL     OW17611   6.417   5.775   2.201
 5571SOL    HW117612   6.478   5.749   2.276
 5571SOL    HW217613   6.421   5.875   2.188
 5572SOL     OW17614   1.067   4.639   4.492
 5572SOL    HW117615   0.990   4.691   4.527
 5572SOL    HW217616   1.145   4.701   4.478
 5573SOL     OW17617   1.338   5.897   5.241
 5573SOL    HW117618   1.241   5.877   5.254
 5573SOL    HW217619   1.360   5.986   5.280
 5574SOL     OW17620   0.271   2.812   0.759
 5574SOL    HW117621   0.341   2.743   0.737
 5574SOL    HW217622   0.200   2.770   0.815
 5575SOL     OW17623   6.525   1.103   0.533
 5575SOL    HW117624   6.431   1.097   0.566
 5575SOL    HW217625   6.568   1.186   0.569
 5576SOL     OW17626   1.315   4.468   2.390
 5576SOL    HW117627   1.383   4.394   2.395
 5576SOL    HW217628   1.344   4.534   2.321
 5577SOL     OW17629   2.674   2.500   6.678
 5577SOL    HW117630   2.582   2.476   6.649
 5577SOL    HW217631   2.739   2.434   6.642
 5578SOL     OW17632   3.629   3.922   2.354
 5578SOL    HW117633   3.623   3.824   2.373
 5578SOL    HW217634   3.698   3.963   2.413
 5579SOL     OW17635   0.600   4.066   0.574
 5579SOL    HW117636   0.640   3.975   0.563
 5579SOL    HW217637   0.637   4.127   0.505
 5580SOL     OW17638   4.812   1.752   5.884
 5580SOL    HW117639   4.822   1.845   5.918
 5580SOL    HW217640   4.886   1.730   5.821
 5581SOL     OW17641   1.600   0.724   2.072
 5581SOL    HW117642   1.631   0.812   2.037
 5581SOL    HW217643   1.610   0.654   2.001
 5582SOL     OW17644   3.250   4.253   6.353
 5582SOL    HW117645   3.343   4.255   6.315
 5582SOL    HW217646   3.254   4.251   6.452
 5583SOL     OW17647   4.508   1.046   2.653
 5583SOL    HW117648   4.570   1.073   2.726
 5583SOL    HW217649   4.415   1.040   2.687
 5584SOL     OW17650   6.804   3.913   4.397
 5584SOL    HW117651   6.897   3.937   4.424
 5584SOL    HW217652   6.790   3.936   4.300
 5585SOL     OW17653   5.696   5.768   2.980
 5585SOL    HW117654   5.721   5.713   2.900
 5585SOL    HW217655   5.743   5.731   3.061
 5586SOL     OW17656   0.323   3.995   6.033
 5586SOL    HW117657   0.238   3.948   6.011
 5586SOL    HW217658   0.395   3.928   6.050
 5587SOL     OW17659   4.232   6.854   0.169
 5587SOL    HW117660   4.174   6.936   0.172
 5587SOL    HW217661   4.175   6.773   0.155
 5588SOL     OW17662   2.227   5.692   3.129
 5588SOL    HW117663   2.191   5.681   3.037
 5588SOL    HW217664   2.294   5.767   3.129
 5589SOL     OW17665   6.296   3.745   5.787
 5589SOL    HW117666   6.259   3.818   5.728
 5589SOL    HW217667   6.384   3.714   5.749
 5590SOL     OW17668   6.999   6.060   3.726
 5590SOL    HW117669   0.044   5.995   3.705
 5590SOL    HW217670   6.993   6.129   3.654
 5591SOL     OW17671   6.626   2.155   1.851
 5591SOL    HW117672   6.674   2.160   1.938
 5591SOL    HW217673   6.571   2.072   1.847
 5592SOL     OW17674   2.192   5.381   3.517
 5592SOL    HW117675   2.119   5.450   3.515
 5592SOL    HW217676   2.151   5.290   3.523
 5593SOL     OW17677   0.584   3.137   7.002
 5593SOL    HW117678   0.517   3.171   0.042
 5593SOL    HW217679   0.536   3.090   6.928
 5594SOL     OW17680   5.424   0.828   5.617
 5594SOL    HW117681   5.446   0.744   5.667
 5594SOL    HW217682   5.509   0.869   5.583
 5595SOL     OW17683   0.830   1.870   4.922
 5595SOL    HW117684   0.812   1.921   4.838
 5595SOL    HW217685   0.821   1.772   4.903
 5596SOL     OW17686   4.163   0.585   2.914
 5596SOL    HW117687   4.134   0.508   2.857
 5596SOL    HW217688   4.220   0.647   2.860
 5597SOL     OW17689   4.687   2.775   4.811
 5597SOL    HW117690   4.698   2.815   4.902
 5597SOL    HW217691   4.644   2.841   4.750
 5598SOL     OW17692   5.225   3.837   4.370
 5598SOL    HW117693   5.175   3.839   4.284
 5598SOL    HW217694   5.182   3.769   4.431
 5599SOL     OW17695   1.053   1.855   3.947
 5599SOL    HW117696   1.079   1.795   4.023
 5599SOL    HW217697   0.969   1.821   3.905
 5600SOL     OW17698   0.909   1.214   2.001
 5600SOL    HW117699   0.987   1.222   2.063
 5600SOL    HW217700   0.839   1.280   2.027
 5601SOL     OW17701   2.439   0.886   5.138
 5601SOL    HW117702   2.387   0.817   5.088
 5601SOL    HW217703   2.480   0.844   5.220
 5602SOL     OW17704   6.103   1.614   1.281
 5602SOL    HW117705   6.158   1.551   1.336
 5602SOL    HW217706   6.068   1.687   1.340
 5603SOL     OW17707   5.712   1.867   6.499
 5603SOL    HW117708   5.811   1.877   6.513
 5603SOL    HW217709   5.666   1.861   6.587
 5604SOL     OW17710   6.251   2.042   4.424
 5604SOL    HW117711   6.256   1.965   4.360
 5604SOL    HW217712   6.187   2.020   4.498
 5605SOL     OW17713   0.363   0.751   5.064
 5605SOL    HW117714   0.397   0.657   5.072
 5605SOL    HW217715   0.394   0.804   5.142
 5606SOL     OW17716   5.012   6.576   6.988
 5606SOL    HW117717   5.011   6.533   6.897
 5606SOL    HW217718   4.962   6.662   6.984
 5607SOL     OW17719   5.091   0.729   2.624
 5607SOL    HW117720   5.156   0.805   2.619
 5607SOL    HW217721   5.036   0.728   2.540
 5608SOL     OW17722   4.735   0.070   4.710
 5608SOL    HW117723   4.799   0.076   4.633
 5608SOL    HW217724   4.710   0.162   4.740
 5609SOL     OW17725   2.741   6.356   1.253
 5609SOL    HW117726   2.677   6.386   1.323
 5609SOL    HW217727   2.832   6.345   1.293
 5610SOL     OW17728   4.201   6.390   0.569
 5610SOL    HW117729   4.266   6.425   0.502
 5610SOL    HW217730   4.250   6.369   0.654
 5611SOL     OW17731   1.091   5.483   2.565
 5611SOL    HW117732   1.143   5.461   2.483
 5611SOL    HW217733   1.039   5.567   2.550
 5612SOL     OW17734   3.948   2.057   6.774
 5612SOL    HW117735   4.002   2.048   6.690
 5612SOL    HW217736   4.000   2.110   6.842
 5613SOL     OW17737   5.695   4.002   3.927
 5613SOL    HW117738   5.738   3.922   3.885
 5613SOL    HW217739   5.597   3.985   3.936
 5614SOL     OW17740   4.605   2.468   4.076
 5614SOL    HW117741   4.667   2.545   4.061
 5614SOL    HW217742   4.606   2.444   4.173
 5615SOL     OW17743   0.425   1.479   4.664
 5615SOL    HW117744   0.390   1.400   4.715
 5615SOL    HW217745   0.353   1.514   4.604
 5616SOL     OW17746   2.594   1.934   5.043
 5616SOL    HW117747   2.596   1.954   4.945
 5616SOL    HW217748   2.688   1.922   5.076
 5617SOL     OW17749   3.111   0.522   6.194
 5617SOL    HW117750   3.097   0.617   6.222
 5617SOL    HW217751   3.169   0.476   6.261
 5618SOL     OW17752   0.079   4.368   3.880
 5618SOL    HW117753   0.129   4.398   3.799
 5618SOL    HW217754   0.007   4.303   3.853
 5619SOL     OW17755   2.686   3.859   5.877
 5619SOL    HW117756   2.730   3.788   5.931
 5619SOL    HW217757   2.753   3.930   5.853
 5620SOL     OW17758   4.081   2.858   0.888
 5620SOL    HW117759   4.110   2.764   0.868
 5620SOL    HW217760   3.991   2.856   0.931
 5621SOL     OW17761   1.629   2.225   6.489
 5621SOL    HW117762   1.546   2.268   6.454
 5621SOL    HW217763   1.636   2.132   6.454
 5622SOL     OW17764   4.870   0.444   6.138
 5622SOL    HW117765   4.951   0.441   6.078
 5622SOL    HW217766   4.899   0.450   6.233
 5623SOL     OW17767   2.256   6.180   4.994
 5623SOL    HW117768   2.298   6.095   4.961
 5623SOL    HW217769   2.184   6.158   5.059
 5624SOL     OW17770   0.865   4.207   3.494
 5624SOL    HW117771   0.825   4.121   3.528
 5624SOL    HW217772   0.953   4.188   3.450
 5625SOL     OW17773   6.737   1.384   4.902
 5625SOL    HW117774   6.711   1.457   4.965
 5625SOL    HW217775   6.769   1.423   4.816
 5626SOL     OW17776   2.618   6.388   3.960
 5626SOL    HW117777   2.611   6.317   3.889
 5626SOL    HW217778   2.607   6.345   4.050
 5627SOL     OW17779   0.882   5.549   6.586
 5627SOL    HW117780   0.789   5.585   6.589
 5627SOL    HW217781   0.945   5.624   6.567
 5628SOL     OW17782   1.293   2.617   0.057
 5628SOL    HW117783   1.327   2.689   7.024
 5628SOL    HW217784   1.200   2.640   0.088
 5629SOL     OW17785   3.228   4.059   2.339
 5629SOL    HW117786   3.269   3.968   2.332
 5629SOL    HW217787   3.190   4.071   2.431
 5630SOL     OW17788   2.076   4.734   0.729
 5630SOL    HW117789   2.149   4.762   0.792
 5630SOL    HW217790   2.014   4.810   0.714
 5631SOL     OW17791   4.345   1.495   0.320
 5631SOL    HW117792   4.283   1.418   0.333
 5631SOL    HW217793   4.425   1.485   0.379
 5632SOL     OW17794   3.489   2.515   5.848
 5632SOL    HW117795   3.491   2.456   5.929
 5632SOL    HW217796   3.394   2.539   5.827
 5633SOL     OW17797   6.797   3.337   4.345
 5633SOL    HW117798   6.872   3.399   4.321
 5633SOL    HW217799   6.812   3.248   4.302
 5634SOL     OW17800   2.301   5.562   4.590
 5634SOL    HW117801   2.301   5.507   4.674
 5634SOL    HW217802   2.382   5.541   4.536
 5635SOL     OW17803   1.842   3.889   5.452
 5635SOL    HW117804   1.929   3.924   5.417
 5635SOL    HW217805   1.854   3.795   5.484
 5636SOL     OW17806   3.769   6.650   3.904
 5636SOL    HW117807   3.793   6.731   3.850
 5636SOL    HW217808   3.682   6.613   3.871
 5637SOL     OW17809   4.640   6.784   3.709
 5637SOL    HW117810   4.630   6.707   3.646
 5637SOL    HW217811   4.704   6.851   3.670
 5638SOL     OW17812   6.123   3.677   1.546
 5638SOL    HW117813   6.090   3.697   1.638
 5638SOL    HW217814   6.158   3.760   1.504
 5639SOL     OW17815   0.755   0.591   0.423
 5639SOL    HW117816   0.764   0.522   0.495
 5639SOL    HW217817   0.780   0.550   0.335
 5640SOL     OW17818   3.101   0.509   3.982
 5640SOL    HW117819   3.165   0.449   3.935
 5640SOL    HW217820   3.084   0.590   3.926
 5641SOL     OW17821   0.736   5.272   5.226
 5641SOL    HW117822   0.656   5.215   5.247
 5641SOL    HW217823   0.791   5.228   5.156
 5642SOL     OW17824   2.257   6.886   6.047
 5642SOL    HW117825   2.323   6.931   5.988
 5642SOL    HW217826   2.179   6.947   6.064
 5643SOL     OW17827   4.512   1.484   5.216
 5643SOL    HW117828   4.483   1.571   5.257
 5643SOL    HW217829   4.511   1.491   5.117
 5644SOL     OW17830   3.296   0.094   4.817
 5644SOL    HW117831   3.239   0.173   4.841
 5644SOL    HW217832   3.293   0.028   4.891
 5645SOL     OW17833   6.611   4.033   3.704
 5645SOL    HW117834   6.544   4.016   3.777
 5645SOL    HW217835   6.673   3.955   3.697
 5646SOL     OW17836   1.497   5.374   3.175
 5646SOL    HW117837   1.454   5.376   3.085
 5646SOL    HW217838   1.435   5.330   3.240
 5647SOL     OW17839   5.238   6.927   1.102
 5647SOL    HW117840   5.212   6.847   1.048
 5647SOL    HW217841   5.157   6.962   1.149
 5648SOL     OW17842   1.582   5.799   2.719
 5648SOL    HW117843   1.541   5.887   2.746
 5648SOL    HW217844   1.579   5.736   2.796
 5649SOL     OW17845   1.054   6.747   3.734
 5649SOL    HW117846   1.048   6.690   3.652
 5649SOL    HW217847   1.024   6.694   3.814
 5650SOL     OW17848   1.056   4.950   1.679
 5650SOL    HW117849   0.976   5.008   1.665
 5650SOL    HW217850   1.073   4.897   1.596
 5651SOL     OW17851   1.514   0.867   0.340
 5651SOL    HW117852   1.473   0.863   0.431
 5651SOL    HW217853   1.510   0.776   0.298
 5652SOL     OW17854   6.796   6.017   0.767
 5652SOL    HW117855   6.829   5.940   0.822
 5652SOL    HW217856   6.728   6.068   0.819
 5653SOL     OW17857   0.120   6.157   6.838
 5653SOL    HW117858   0.069   6.135   6.921
 5653SOL    HW217859   0.126   6.077   6.779
 5654SOL     OW17860   0.931   5.509   4.416
 5654SOL    HW117861   1.022   5.505   4.456
 5654SOL    HW217862   0.932   5.468   4.325
 5655SOL     OW17863   0.023   2.988   3.270
 5655SOL    HW117864   0.110   3.006   3.315
 5655SOL    HW217865   0.005   2.890   3.270
 5656SOL     OW17866   6.755   3.913   6.550
 5656SOL    HW117867   6.702   3.850   6.492
 5656SOL    HW217868   6.785   3.991   6.496
 5657SOL     OW17869   4.760   4.172   5.346
 5657SOL    HW117870   4.739   4.261   5.385
 5657SOL    HW217871   4.846   4.176   5.296
 5658SOL     OW17872   2.808   3.389   5.710
 5658SOL    HW117873   2.828   3.363   5.616
 5658SOL    HW217874   2.894   3.401   5.761
 5659SOL     OW17875   3.784   3.625   6.197
 5659SOL    HW117876   3.773   3.625   6.296
 5659SOL    HW217877   3.721   3.690   6.155
 5660SOL     OW17878   4.128   6.370   5.972
 5660SOL    HW117879   4.186   6.299   5.932
 5660SOL    HW217880   4.154   6.459   5.936
 5661SOL     OW17881   1.790   5.500   4.738
 5661SOL    HW117882   1.787   5.600   4.748
 5661SOL    HW217883   1.881   5.472   4.707
 5662SOL     OW17884   2.601   0.330   2.371
 5662SOL    HW117885   2.537   0.284   2.432
 5662SOL    HW217886   2.692   0.330   2.411
 5663SOL     OW17887   2.522   2.011   0.603
 5663SOL    HW117888   2.442   1.953   0.587
 5663SOL    HW217889   2.562   2.037   0.516
 5664SOL     OW17890   6.543   3.056   3.957
 5664SOL    HW117891   6.609   3.097   4.021
 5664SOL    HW217892   6.545   3.107   3.870
 5665SOL     OW17893   1.025   6.120   0.274
 5665SOL    HW117894   1.109   6.161   0.308
 5665SOL    HW217895   1.044   6.028   0.240
 5666SOL     OW17896   6.206   0.250   3.585
 5666SOL    HW117897   6.291   0.285   3.545
 5666SOL    HW217898   6.151   0.207   3.514
 5667SOL     OW17899   0.929   5.132   4.988
 5667SOL    HW117900   0.887   5.189   4.917
 5667SOL    HW217901   0.953   5.043   4.949
 5668SOL     OW17902   6.051   2.955   3.039
 5668SOL    HW117903   6.123   2.895   3.004
 5668SOL    HW217904   6.038   2.938   3.136
 5669SOL     OW17905   6.661   5.020   0.581
 5669SOL    HW117906   6.747   5.017   0.632
 5669SOL    HW217907   6.593   5.072   0.633
 5670SOL     OW17908   1.480   3.076   3.775
 5670SOL    HW117909   1.545   3.103   3.705
 5670SOL    HW217910   1.388   3.069   3.736
 5671SOL     OW17911   6.480   5.752   5.565
 5671SOL    HW117912   6.508   5.815   5.637
 5671SOL    HW217913   6.441   5.669   5.606
 5672SOL     OW17914   5.188   4.226   5.268
 5672SOL    HW117915   5.186   4.229   5.368
 5672SOL    HW217916   5.283   4.227   5.236
 5673SOL     OW17917   1.070   6.246   1.163
 5673SOL    HW117918   1.119   6.241   1.076
 5673SOL    HW217919   1.084   6.162   1.215
 5674SOL     OW17920   2.155   4.758   4.742
 5674SOL    HW117921   2.244   4.758   4.696
 5674SOL    HW217922   2.165   4.727   4.836
 5675SOL     OW17923   4.766   2.279   0.225
 5675SOL    HW117924   4.793   2.269   0.321
 5675SOL    HW217925   4.703   2.206   0.201
 5676SOL     OW17926   2.712   1.735   2.298
 5676SOL    HW117927   2.749   1.826   2.314
 5676SOL    HW217928   2.761   1.692   2.222
 5677SOL     OW17929   0.437   0.649   0.366
 5677SOL    HW117930   0.484   0.592   0.297
 5677SOL    HW217931   0.406   0.590   0.441
 5678SOL     OW17932   4.654   1.263   2.282
 5678SOL    HW117933   4.574   1.322   2.270
 5678SOL    HW217934   4.626   1.176   2.323
 5679SOL     OW17935   5.484   1.674   4.381
 5679SOL    HW117936   5.520   1.652   4.291
 5679SOL    HW217937   5.507   1.600   4.445
 5680SOL     OW17938   2.196   5.410   6.823
 5680SOL    HW117939   2.125   5.473   6.857
 5680SOL    HW217940   2.285   5.438   6.860
 5681SOL     OW17941   0.654   3.649   2.386
 5681SOL    HW117942   0.636   3.711   2.462
 5681SOL    HW217943   0.585   3.577   2.383
 5682SOL     OW17944   2.441   5.803   4.013
 5682SOL    HW117945   2.435   5.871   4.086
 5682SOL    HW217946   2.417   5.713   4.049
 5683SOL     OW17947   3.787   2.439   6.076
 5683SOL    HW117948   3.883   2.436   6.101
 5683SOL    HW217949   3.731   2.414   6.155
 5684SOL     OW17950   1.757   3.597   6.184
 5684SOL    HW117951   1.726   3.676   6.238
 5684SOL    HW217952   1.853   3.610   6.159
 5685SOL     OW17953   2.214   2.121   3.205
 5685SOL    HW117954   2.136   2.146   3.147
 5685SOL    HW217955   2.185   2.053   3.272
 5686SOL     OW17956   3.264   1.380   4.466
 5686SOL    HW117957   3.188   1.412   4.522
 5686SOL    HW217958   3.249   1.404   4.370
 5687SOL     OW17959   1.100   6.084   6.240
 5687SOL    HW117960   1.150   6.154   6.189
 5687SOL    HW217961   1.082   6.116   6.333
 5688SOL     OW17962   1.896   2.756   2.967
 5688SOL    HW117963   1.946   2.747   2.880
 5688SOL    HW217964   1.908   2.848   3.003
 5689SOL     OW17965   2.547   0.784   1.762
 5689SOL    HW117966   2.503   0.732   1.689
 5689SOL    HW217967   2.645   0.765   1.761
 5690SOL     OW17968   1.802   5.193   6.610
 5690SOL    HW117969   1.837   5.286   6.599
 5690SOL    HW217970   1.768   5.181   6.704
 5691SOL     OW17971   3.572   1.167   2.401
 5691SOL    HW117972   3.569   1.163   2.301
 5691SOL    HW217973   3.639   1.235   2.430
 5692SOL     OW17974   5.023   4.547   1.097
 5692SOL    HW117975   5.058   4.501   1.015
 5692SOL    HW217976   4.924   4.534   1.103
 5693SOL     OW17977   4.375   0.217   1.323
 5693SOL    HW117978   4.349   0.305   1.283
 5693SOL    HW217979   4.307   0.148   1.298
 5694SOL     OW17980   0.505   0.215   2.400
 5694SOL    HW117981   0.466   0.216   2.308
 5694SOL    HW217982   0.432   0.231   2.468
 5695SOL     OW17983   1.175   1.474   2.731
 5695SOL    HW117984   1.097   1.530   2.761
 5695SOL    HW217985   1.259   1.509   2.772
 5696SOL     OW17986   1.229   0.230   3.805
 5696SOL    HW117987   1.264   0.284   3.728
 5696SOL    HW217988   1.165   0.286   3.858
 5697SOL     OW17989   5.824   2.061   2.347
 5697SOL    HW117990   5.908   2.058   2.292
 5697SOL    HW217991   5.764   2.133   2.313
 5698SOL     OW17992   1.415   4.242   4.568
 5698SOL    HW117993   1.417   4.319   4.633
 5698SOL    HW217994   1.340   4.256   4.503
 5699SOL     OW17995   2.254   2.779   2.675
 5699SOL    HW117996   2.157   2.781   2.651
 5699SOL    HW217997   2.299   2.701   2.631
 5700SOL     OW17998   6.450   6.939   3.357
 5700SOL    HW117999   6.448   6.845   3.324
 5700SOL    HW218000   6.447   6.939   3.457
 5701SOL     OW18001   6.763   0.515   1.378
 5701SOL    HW118002   6.811   0.569   1.309
 5701SOL    HW218003   6.722   0.435   1.335
 5702SOL     OW18004   1.544   6.659   4.319
 5702SOL    HW118005   1.447   6.638   4.334
 5702SOL    HW218006   1.590   6.576   4.286
 5703SOL     OW18007   6.547   4.272   6.638
 5703SOL    HW118008   6.617   4.211   6.599
 5703SOL    HW218009   6.545   4.358   6.586
 5704SOL     OW18010   4.864   3.791   2.985
 5704SOL    HW118011   4.808   3.874   2.974
 5704SOL    HW218012   4.833   3.740   3.065
 5705SOL     OW18013   5.490   5.757   6.408
 5705SOL    HW118014   5.551   5.683   6.434
 5705SOL    HW218015   5.434   5.782   6.487
 5706SOL     OW18016   5.284   2.679   1.730
 5706SOL    HW118017   5.283   2.600   1.790
 5706SOL    HW218018   5.195   2.687   1.684
 5707SOL     OW18019   6.201   0.359   0.598
 5707SOL    HW118020   6.187   0.396   0.506
 5707SOL    HW218021   6.285   0.396   0.636
 5708SOL     OW18022   4.952   6.371   2.482
 5708SOL    HW118023   4.863   6.413   2.463
 5708SOL    HW218024   5.008   6.435   2.535
 5709SOL     OW18025   0.749   0.718   2.845
 5709SOL    HW118026   0.822   0.762   2.793
 5709SOL    HW218027   0.661   0.734   2.800
 5710SOL     OW18028   3.161   1.768   0.431
 5710SOL    HW118029   3.128   1.674   0.438
 5710SOL    HW218030   3.214   1.779   0.347
 5711SOL     OW18031   5.034   0.597   1.959
 5711SOL    HW118032   5.131   0.573   1.954
 5711SOL    HW218033   5.013   0.666   1.891
 5712SOL     OW18034   6.509   6.627   0.163
 5712SOL    HW118035   6.501   6.726   0.169
 5712SOL    HW218036   6.598   6.603   0.124
 5713SOL     OW18037   3.208   4.528   1.120
 5713SOL    HW118038   3.169   4.447   1.078
 5713SOL    HW218039   3.261   4.502   1.201
 5714SOL     OW18040   6.852   6.265   0.425
 5714SOL    HW118041   6.765   6.308   0.402
 5714SOL    HW218042   6.911   6.266   0.344
 5715SOL     OW18043   6.922   0.673   2.977
 5715SOL    HW118044   6.904   0.602   3.045
 5715SOL    HW218045   6.850   0.742   2.982
 5716SOL     OW18046   1.103   5.802   6.225
 5716SOL    HW118047   1.097   5.901   6.214
 5716SOL    HW218048   1.094   5.758   6.135
 5717SOL     OW18049   2.224   5.535   1.721
 5717SOL    HW118050   2.212   5.523   1.820
 5717SOL    HW218051   2.245   5.447   1.679
 5718SOL     OW18052   0.935   3.473   0.096
 5718SOL    HW118053   0.884   3.521   0.025
 5718SOL    HW218054   0.997   3.537   0.141
 5719SOL     OW18055   3.013   3.734   0.691
 5719SOL    HW118056   3.079   3.803   0.661
 5719SOL    HW218057   3.022   3.719   0.790
 5720SOL     OW18058   1.711   6.455   4.782
 5720SOL    HW118059   1.629   6.457   4.726
 5720SOL    HW218060   1.707   6.528   4.850
 5721SOL     OW18061   5.852   4.512   0.566
 5721SOL    HW118062   5.854   4.545   0.472
 5721SOL    HW218063   5.757   4.500   0.595
 5722SOL     OW18064   6.883   2.316   5.319
 5722SOL    HW118065   6.856   2.279   5.408
 5722SOL    HW218066   6.898   2.415   5.326
 5723SOL     OW18067   4.288   3.756   0.162
 5723SOL    HW118068   4.252   3.761   0.255
 5723SOL    HW218069   4.387   3.769   0.163
 5724SOL     OW18070   5.925   3.174   3.462
 5724SOL    HW118071   5.984   3.124   3.398
 5724SOL    HW218072   5.861   3.109   3.504
 5725SOL     OW18073   6.732   5.100   4.384
 5725SOL    HW118074   6.799   5.045   4.335
 5725SOL    HW218075   6.650   5.045   4.401
 5726SOL     OW18076   6.120   5.225   4.287
 5726SOL    HW118077   6.063   5.250   4.210
 5726SOL    HW218078   6.075   5.251   4.372
 5727SOL     OW18079   7.009   2.389   4.928
 5727SOL    HW118080   6.936   2.445   4.887
 5727SOL    HW218081   0.005   2.426   5.019
 5728SOL     OW18082   5.145   5.964   5.017
 5728SOL    HW118083   5.153   6.053   4.973
 5728SOL    HW218084   5.070   5.913   4.976
 5729SOL     OW18085   1.198   2.049   6.240
 5729SOL    HW118086   1.116   1.991   6.244
 5729SOL    HW218087   1.279   1.992   6.228
 5730SOL     OW18088   6.361   4.243   6.413
 5730SOL    HW118089   6.393   4.257   6.507
 5730SOL    HW218090   6.304   4.162   6.409
 5731SOL     OW18091   0.078   0.163   2.215
 5731SOL    HW118092   0.048   0.183   2.308
 5731SOL    HW218093   0.144   0.088   2.217
 5732SOL     OW18094   1.160   6.702   3.190
 5732SOL    HW118095   1.073   6.674   3.229
 5732SOL    HW218096   1.167   6.802   3.190
 5733SOL     OW18097   4.049   6.582   5.338
 5733SOL    HW118098   3.963   6.633   5.336
 5733SOL    HW218099   4.093   6.595   5.427
 5734SOL     OW18100   1.173   6.875   4.859
 5734SOL    HW118101   1.076   6.854   4.846
 5734SOL    HW218102   1.184   6.974   4.869
 5735SOL     OW18103   3.027   1.278   1.064
 5735SOL    HW118104   2.931   1.253   1.077
 5735SOL    HW218105   3.085   1.221   1.122
 5736SOL     OW18106   0.200   4.449   0.282
 5736SOL    HW118107   0.138   4.375   0.255
 5736SOL    HW218108   0.291   4.430   0.246
 5737SOL     OW18109   5.527   6.487   6.735
 5737SOL    HW118110   5.459   6.558   6.754
 5737SOL    HW218111   5.526   6.464   6.638
 5738SOL     OW18112   1.476   3.270   6.666
 5738SOL    HW118113   1.527   3.250   6.582
 5738SOL    HW218114   1.403   3.203   6.678
 5739SOL     OW18115   1.904   0.969   6.523
 5739SOL    HW118116   1.839   0.955   6.448
 5739SOL    HW218117   1.965   1.044   6.501
 5740SOL     OW18118   4.426   5.697   0.453
 5740SOL    HW118119   4.375   5.668   0.372
 5740SOL    HW218120   4.496   5.763   0.426
 5741SOL     OW18121   6.706   5.552   4.274
 5741SOL    HW118122   6.736   5.461   4.246
 5741SOL    HW218123   6.645   5.590   4.205
 5742SOL     OW18124   5.070   6.409   2.236
 5742SOL    HW118125   5.030   6.370   2.319
 5742SOL    HW218126   5.020   6.375   2.156
 5743SOL     OW18127   2.748   0.049   4.755
 5743SOL    HW118128   2.649   0.062   4.752
 5743SOL    HW218129   2.771   7.010   4.826
 5744SOL     OW18130   4.769   0.755   0.742
 5744SOL    HW118131   4.807   0.731   0.653
 5744SOL    HW218132   4.712   0.837   0.733
 5745SOL     OW18133   2.678   1.754   4.523
 5745SOL    HW118134   2.591   1.720   4.558
 5745SOL    HW218135   2.738   1.778   4.599
 5746SOL     OW18136   4.910   0.760   0.516
 5746SOL    HW118137   4.884   0.842   0.465
 5746SOL    HW218138   4.924   0.684   0.453
 5747SOL     OW18139   0.219   5.398   2.824
 5747SOL    HW118140   0.131   5.353   2.807
 5747SOL    HW218141   0.215   5.493   2.792
 5748SOL     OW18142   2.016   4.734   1.873
 5748SOL    HW118143   1.927   4.712   1.833
 5748SOL    HW218144   2.083   4.666   1.845
 5749SOL     OW18145   1.985   1.270   4.274
 5749SOL    HW118146   2.023   1.180   4.296
 5749SOL    HW218147   1.983   1.282   4.175
 5750SOL     OW18148   5.903   5.273   4.862
 5750SOL    HW118149   5.849   5.200   4.902
 5750SOL    HW218150   5.846   5.355   4.853
 5751SOL     OW18151   2.107   2.614   5.029
 5751SOL    HW118152   2.062   2.679   5.090
 5751SOL    HW218153   2.203   2.641   5.016
 5752SOL     OW18154   6.522   0.610   6.004
 5752SOL    HW118155   6.445   0.564   5.961
 5752SOL    HW218156   6.513   0.709   5.992
 5753SOL     OW18157   3.347   3.037   6.571
 5753SOL    HW118158   3.347   3.089   6.657
 5753SOL    HW218159   3.376   3.095   6.496
 5754SOL     OW18160   5.773   5.490   2.012
 5754SOL    HW118161   5.836   5.444   1.950
 5754SOL    HW218162   5.781   5.589   2.001
 5755SOL     OW18163   2.824   3.452   6.632
 5755SOL    HW118164   2.920   3.436   6.608
 5755SOL    HW218165   2.789   3.528   6.578
 5756SOL     OW18166   6.536   4.754   3.370
 5756SOL    HW118167   6.530   4.732   3.468
 5756SOL    HW218168   6.562   4.849   3.358
 5757SOL     OW18169   6.299   6.043   1.250
 5757SOL    HW118170   6.199   6.039   1.240
 5757SOL    HW218171   6.333   6.125   1.204
 5758SOL     OW18172   2.749   2.399   4.745
 5758SOL    HW118173   2.723   2.393   4.841
 5758SOL    HW218174   2.823   2.466   4.734
 5759SOL     OW18175   5.075   2.306   6.288
 5759SOL    HW118176   5.039   2.327   6.379
 5759SOL    HW218177   5.072   2.388   6.231
 5760SOL     OW18178   1.641   6.135   2.448
 5760SOL    HW118179   1.647   6.223   2.495
 5760SOL    HW218180   1.723   6.081   2.467
 5761SOL     OW18181   5.704   0.109   4.958
 5761SOL    HW118182   5.635   0.048   4.998
 5761SOL    HW218183   5.783   0.056   4.929
 5762SOL     OW18184   5.665   6.882   0.317
 5762SOL    HW118185   5.572   6.895   0.352
 5762SOL    HW218186   5.725   6.851   0.391
 5763SOL     OW18187   1.014   6.620   0.556
 5763SOL    HW118188   1.070   6.694   0.518
 5763SOL    HW218189   0.937   6.602   0.495
 5764SOL     OW18190   6.026   4.479   5.407
 5764SOL    HW118191   6.060   4.539   5.479
 5764SOL    HW218192   6.103   4.434   5.362
 5765SOL     OW18193   6.145   4.115   6.595
 5765SOL    HW118194   6.057   4.105   6.640
 5765SOL    HW218195   6.218   4.112   6.664
 5766SOL     OW18196   3.368   1.563   1.960
 5766SOL    HW118197   3.272   1.537   1.961
 5766SOL    HW218198   3.381   1.644   2.018
 5767SOL     OW18199   1.091   6.098   0.807
 5767SOL    HW118200   0.995   6.110   0.783
 5767SOL    HW218201   1.103   6.009   0.852
 5768SOL     OW18202   6.904   0.538   3.328
 5768SOL    HW118203   6.991   0.572   3.291
 5768SOL    HW218204   6.863   0.474   3.263
 5769SOL     OW18205   2.882   6.228   3.297
 5769SOL    HW118206   2.848   6.197   3.208
 5769SOL    HW218207   2.822   6.195   3.369
 5770SOL     OW18208   0.052   6.811   0.766
 5770SOL    HW118209   0.030   6.790   0.862
 5770SOL    HW218210   0.150   6.830   0.758
 5771SOL     OW18211   1.248   0.580   1.076
 5771SOL    HW118212   1.347   0.565   1.083
 5771SOL    HW218213   1.202   0.540   1.155
 5772SOL     OW18214   5.773   2.521   0.687
 5772SOL    HW118215   5.762   2.581   0.608
 5772SOL    HW218216   5.868   2.523   0.717
 5773SOL     OW18217   5.503   6.691   4.094
 5773SOL    HW118218   5.501   6.602   4.140
 5773SOL    HW218219   5.515   6.677   3.996
 5774SOL     OW18220   2.555   4.507   3.242
 5774SOL    HW118221   2.501   4.555   3.311
 5774SOL    HW218222   2.625   4.451   3.286
 5775SOL     OW18223   0.096   0.220   0.436
 5775SOL    HW118224   0.094   0.198   0.533
 5775SOL    HW218225   0.018   0.179   0.390
 5776SOL     OW18226   5.334   0.583   6.382
 5776SOL    HW118227   5.376   0.604   6.293
 5776SOL    HW218228   5.335   0.665   6.439
 5777SOL     OW18229   6.257   0.952   4.120
 5777SOL    HW118230   6.236   0.973   4.024
 5777SOL    HW218231   6.183   0.899   4.159
 5778SOL     OW18232   1.758   0.247   2.534
 5778SOL    HW118233   1.771   0.199   2.621
 5778SOL    HW218234   1.847   0.264   2.493
 5779SOL     OW18235   3.872   1.103   1.354
 5779SOL    HW118236   3.822   1.025   1.391
 5779SOL    HW218237   3.940   1.072   1.288
 5780SOL     OW18238   6.459   4.565   2.022
 5780SOL    HW118239   6.430   4.659   2.002
 5780SOL    HW218240   6.552   4.566   2.058
 5781SOL     OW18241   1.865   4.092   4.891
 5781SOL    HW118242   1.864   4.160   4.964
 5781SOL    HW218243   1.772   4.078   4.857
 5782SOL     OW18244   1.850   0.912   1.549
 5782SOL    HW118245   1.860   1.002   1.591
 5782SOL    HW218246   1.752   0.890   1.541
 5783SOL     OW18247   1.449   0.117   0.714
 5783SOL    HW118248   1.472   0.149   0.622
 5783SOL    HW218249   1.371   0.054   0.709
 5784SOL     OW18250   0.735   6.407   0.104
 5784SOL    HW118251   0.697   6.435   0.015
 5784SOL    HW218252   0.822   6.361   0.091
 5785SOL     OW18253   1.170   0.863   1.091
 5785SOL    HW118254   1.169   0.906   1.001
 5785SOL    HW218255   1.182   0.765   1.082
 5786SOL     OW18256   1.661   3.602   1.509
 5786SOL    HW118257   1.612   3.638   1.430
 5786SOL    HW218258   1.663   3.502   1.504
 5787SOL     OW18259   6.160   2.948   4.302
 5787SOL    HW118260   6.258   2.941   4.317
 5787SOL    HW218261   6.112   2.921   4.386
 5788SOL     OW18262   3.129   0.694   2.022
 5788SOL    HW118263   3.094   0.670   2.113
 5788SOL    HW218264   3.116   0.792   2.006
 5789SOL     OW18265   3.899   3.715   0.574
 5789SOL    HW118266   3.893   3.619   0.547
 5789SOL    HW218267   3.833   3.769   0.521
 5790SOL     OW18268   5.711   5.451   4.833
 5790SOL    HW118269   5.623   5.451   4.880
 5790SOL    HW218270   5.700   5.410   4.742
 5791SOL     OW18271   3.758   1.338   2.496
 5791SOL    HW118272   3.858   1.334   2.488
 5791SOL    HW218273   3.732   1.336   2.592
 5792SOL     OW18274   4.939   3.338   2.881
 5792SOL    HW118275   4.983   3.415   2.834
 5792SOL    HW218276   4.947   3.351   2.979
 5793SOL     OW18277   6.078   2.617   4.942
 5793SOL    HW118278   6.055   2.549   4.872
 5793SOL    HW218279   6.103   2.703   4.899
 5794SOL     OW18280   2.635   6.800   5.596
 5794SOL    HW118281   2.687   6.829   5.677
 5794SOL    HW218282   2.692   6.808   5.515
 5795SOL     OW18283   0.781   5.069   1.536
 5795SOL    HW118284   0.798   5.003   1.463
 5795SOL    HW218285   0.742   5.022   1.615
 5796SOL     OW18286   4.247   1.402   6.113
 5796SOL    HW118287   4.169   1.343   6.134
 5796SOL    HW218288   4.217   1.498   6.115
 5797SOL     OW18289   4.969   1.830   6.943
 5797SOL    HW118290   4.887   1.779   6.971
 5797SOL    HW218291   4.947   1.927   6.935
 5798SOL     OW18292   1.255   3.637   5.202
 5798SOL    HW118293   1.247   3.697   5.123
 5798SOL    HW218294   1.240   3.542   5.174
 5799SOL     OW18295   1.466   6.662   3.191
 5799SOL    HW118296   1.389   6.672   3.127
 5799SOL    HW218297   1.432   6.675   3.285
 5800SOL     OW18298   0.345   6.809   0.777
 5800SOL    HW118299   0.427   6.753   0.790
 5800SOL    HW218300   0.355   6.894   0.828
 5801SOL     OW18301   2.183   2.833   2.210
 5801SOL    HW118302   2.212   2.759   2.271
 5801SOL    HW218303   2.224   2.821   2.120
 5802SOL     OW18304   6.714   1.759   2.887
 5802SOL    HW118305   6.683   1.826   2.821
 5802SOL    HW218306   6.807   1.731   2.864
 5803SOL     OW18307   1.089   5.557   4.774
 5803SOL    HW118308   1.062   5.639   4.723
 5803SOL    HW218309   1.144   5.583   4.853
 5804SOL     OW18310   5.885   6.512   3.492
 5804SOL    HW118311   5.944   6.574   3.441
 5804SOL    HW218312   5.919   6.418   3.483
 5805SOL     OW18313   2.421   3.389   0.677
 5805SOL    HW118314   2.373   3.461   0.626
 5805SOL    HW218315   2.415   3.408   0.775
 5806SOL     OW18316   0.493   3.019   3.676
 5806SOL    HW118317   0.508   2.954   3.751
 5806SOL    HW218318   0.487   2.969   3.589
 5807SOL     OW18319   1.245   6.264   0.364
 5807SOL    HW118320   1.253   6.343   0.425
 5807SOL    HW218321   1.309   6.275   0.287
 5808SOL     OW18322   6.045   0.828   4.285
 5808SOL    HW118323   5.962   0.771   4.293
 5808SOL    HW218324   6.057   0.880   4.370
 5809SOL     OW18325   0.145   2.598   6.285
 5809SOL    HW118326   0.148   2.543   6.369
 5809SOL    HW218327   0.218   2.569   6.223
 5810SOL     OW18328   4.164   6.829   4.759
 5810SOL    HW118329   4.121   6.890   4.693
 5810SOL    HW218330   4.205   6.751   4.710
 5811SOL     OW18331   3.078   3.099   6.208
 5811SOL    HW118332   3.167   3.082   6.166
 5811SOL    HW218333   3.078   3.062   6.301
 5812SOL     OW18334   5.657   2.995   0.675
 5812SOL    HW118335   5.624   2.992   0.770
 5812SOL    HW218336   5.666   2.901   0.641
 5813SOL     OW18337   4.683   6.077   0.774
 5813SOL    HW118338   4.678   6.165   0.727
 5813SOL    HW218339   4.630   6.082   0.859
 5814SOL     OW18340   5.854   1.788   2.376
 5814SOL    HW118341   5.870   1.741   2.463
 5814SOL    HW218342   5.837   1.885   2.395
 5815SOL     OW18343   6.738   0.809   4.237
 5815SOL    HW118344   6.707   0.760   4.157
 5815SOL    HW218345   6.707   0.762   4.320
 5816SOL     OW18346   0.219   4.160   2.742
 5816SOL    HW118347   0.122   4.173   2.722
 5816SOL    HW218348   0.248   4.070   2.708
 5817SOL     OW18349   5.657   4.207   4.468
 5817SOL    HW118350   5.755   4.224   4.483
 5817SOL    HW218351   5.619   4.279   4.411
 5818SOL     OW18352   1.637   0.031   4.484
 5818SOL    HW118353   1.629   0.033   4.384
 5818SOL    HW218354   1.659   0.122   4.518
 5819SOL     OW18355   4.054   4.819   0.037
 5819SOL    HW118356   4.153   4.810   0.044
 5819SOL    HW218357   4.018   4.750   7.001
 5820SOL     OW18358   5.865   5.062   2.455
 5820SOL    HW118359   5.821   4.990   2.509
 5820SOL    HW218360   5.804   5.141   2.449
 5821SOL     OW18361   6.350   0.731   1.192
 5821SOL    HW118362   6.337   0.659   1.261
 5821SOL    HW218363   6.437   0.778   1.210
 5822SOL     OW18364   1.342   2.508   2.638
 5822SOL    HW118365   1.245   2.523   2.656
 5822SOL    HW218366   1.367   2.550   2.551
 5823SOL     OW18367   2.287   6.413   3.571
 5823SOL    HW118368   2.379   6.453   3.565
 5823SOL    HW218369   2.288   6.321   3.532
 5824SOL     OW18370   1.152   0.431   2.337
 5824SOL    HW118371   1.208   0.398   2.413
 5824SOL    HW218372   1.056   0.433   2.365
 5825SOL     OW18373   6.283   0.466   4.317
 5825SOL    HW118374   6.238   0.526   4.251
 5825SOL    HW218375   6.275   0.505   4.408
 5826SOL     OW18376   7.001   0.009   5.328
 5826SOL    HW118377   6.903   7.022   5.339
 5826SOL    HW218378   7.017   0.090   5.272
 5827SOL     OW18379   1.906   4.289   5.224
 5827SOL    HW118380   1.899   4.376   5.175
 5827SOL    HW218381   1.981   4.235   5.186
 5828SOL     OW18382   4.741   0.027   4.171
 5828SOL    HW118383   4.697   0.020   4.081
 5828SOL    HW218384   4.770   0.122   4.187
 5829SOL     OW18385   2.690   0.735   3.830
 5829SOL    HW118386   2.607   0.699   3.873
 5829SOL    HW218387   2.688   0.716   3.732
 5830SOL     OW18388   3.737   5.719   5.237
 5830SOL    HW118389   3.799   5.641   5.249
 5830SOL    HW218390   3.776   5.799   5.282
 5831SOL     OW18391   1.607   1.302   5.325
 5831SOL    HW118392   1.626   1.240   5.402
 5831SOL    HW218393   1.512   1.332   5.330
 5832SOL     OW18394   3.548   4.750   1.228
 5832SOL    HW118395   3.450   4.768   1.232
 5832SOL    HW218396   3.597   4.823   1.275
 5833SOL     OW18397   4.164   3.610   5.673
 5833SOL    HW118398   4.082   3.666   5.666
 5833SOL    HW218399   4.178   3.561   5.587
 5834SOL     OW18400   6.423   4.522   0.133
 5834SOL    HW118401   6.440   4.463   0.054
 5834SOL    HW218402   6.339   4.574   0.119
 5835SOL     OW18403   5.651   1.016   2.519
 5835SOL    HW118404   5.657   1.115   2.505
 5835SOL    HW218405   5.707   0.970   2.451
 5836SOL     OW18406   4.700   6.957   1.473
 5836SOL    HW118407   4.697   6.862   1.504
 5836SOL    HW218408   4.791   6.977   1.436
 5837SOL     OW18409   3.349   4.173   0.331
 5837SOL    HW118410   3.387   4.262   0.305
 5837SOL    HW218411   3.256   4.165   0.294
 5838SOL     OW18412   2.679   1.812   1.288
 5838SOL    HW118413   2.738   1.770   1.219
 5838SOL    HW218414   2.685   1.912   1.281
 5839SOL     OW18415   1.622   2.509   1.942
 5839SOL    HW118416   1.597   2.417   1.972
 5839SOL    HW218417   1.621   2.512   1.842
 5840SOL     OW18418   0.653   3.291   2.059
 5840SOL    HW118419   0.708   3.336   2.129
 5840SOL    HW218420   0.584   3.233   2.103
 5841SOL     OW18421   4.537   1.146   0.482
 5841SOL    HW118422   4.565   1.199   0.402
 5841SOL    HW218423   4.451   1.182   0.518
 5842SOL     OW18424   2.910   1.474   0.730
 5842SOL    HW118425   2.862   1.410   0.670
 5842SOL    HW218426   2.854   1.492   0.811
 5843SOL     OW18427   1.640   3.323   1.420
 5843SOL    HW118428   1.607   3.228   1.417
 5843SOL    HW218429   1.727   3.329   1.370
 5844SOL     OW18430   0.725   0.345   5.017
 5844SOL    HW118431   0.802   0.342   4.953
 5844SOL    HW218432   0.640   0.364   4.966
 5845SOL     OW18433   0.827   5.852   1.684
 5845SOL    HW118434   0.812   5.891   1.775
 5845SOL    HW218435   0.922   5.821   1.676
 5846SOL     OW18436   6.620   3.838   5.959
 5846SOL    HW118437   6.573   3.774   6.020
 5846SOL    HW218438   6.585   3.930   5.975
 5847SOL     OW18439   2.670   3.025   0.778
 5847SOL    HW118440   2.589   2.994   0.828
 5847SOL    HW218441   2.645   3.049   0.685
 5848SOL     OW18442   1.695   6.260   3.631
 5848SOL    HW118443   1.630   6.235   3.703
 5848SOL    HW218444   1.781   6.210   3.644
 5849SOL     OW18445   2.108   6.096   5.220
 5849SOL    HW118446   2.079   6.191   5.230
 5849SOL    HW218447   2.150   6.065   5.306
 5850SOL     OW18448   1.602   2.449   1.648
 5850SOL    HW118449   1.658   2.377   1.607
 5850SOL    HW218450   1.571   2.511   1.576
 5851SOL     OW18451   5.552   3.299   4.882
 5851SOL    HW118452   5.528   3.375   4.822
 5851SOL    HW218453   5.642   3.316   4.923
 5852SOL     OW18454   4.995   5.252   3.368
 5852SOL    HW118455   4.922   5.203   3.320
 5852SOL    HW218456   5.084   5.212   3.343
 5853SOL     OW18457   3.573   5.039   5.769
 5853SOL    HW118458   3.602   5.133   5.752
 5853SOL    HW218459   3.509   5.038   5.846
 5854SOL     OW18460   2.595   4.578   6.104
 5854SOL    HW118461   2.593   4.566   6.203
 5854SOL    HW218462   2.552   4.666   6.081
 5855SOL     OW18463   2.070   2.622   3.900
 5855SOL    HW118464   2.086   2.628   3.998
 5855SOL    HW218465   2.107   2.536   3.865
 5856SOL     OW18466   1.764   6.850   2.928
 5856SOL    HW118467   1.748   6.860   3.026
 5856SOL    HW218468   1.715   6.921   2.878
 5857SOL     OW18469   0.702   3.667   6.312
 5857SOL    HW118470   0.609   3.701   6.326
 5857SOL    HW218471   0.760   3.740   6.276
 5858SOL     OW18472   2.176   1.910   3.386
 5858SOL    HW118473   2.104   1.864   3.438
 5858SOL    HW218474   2.197   1.856   3.304
 5859SOL     OW18475   6.153   0.275   2.791
 5859SOL    HW118476   6.080   0.326   2.746
 5859SOL    HW218477   6.182   0.199   2.733
 5860SOL     OW18478   0.239   3.322   3.480
 5860SOL    HW118479   0.310   3.341   3.412
 5860SOL    HW218480   0.155   3.370   3.455
 5861SOL     OW18481   6.085   1.264   4.972
 5861SOL    HW118482   6.006   1.250   5.032
 5861SOL    HW218483   6.058   1.323   4.895
 5862SOL     OW18484   0.001   5.335   2.678
 5862SOL    HW118485   0.008   5.261   2.611
 5862SOL    HW218486   6.956   5.313   2.744
 5863SOL     OW18487   3.530   0.369   4.888
 5863SOL    HW118488   3.434   0.345   4.878
 5863SOL    HW218489   3.568   0.394   4.799
 5864SOL     OW18490   3.396   3.870   3.143
 5864SOL    HW118491   3.455   3.791   3.124
 5864SOL    HW218492   3.302   3.850   3.114
 5865SOL     OW18493   5.948   0.929   5.595
 5865SOL    HW118494   5.951   1.003   5.528
 5865SOL    HW218495   6.014   0.947   5.668
 5866SOL     OW18496   4.215   3.227   1.881
 5866SOL    HW118497   4.296   3.176   1.910
 5866SOL    HW218498   4.178   3.277   1.959
 5867SOL     OW18499   2.305   1.968   1.394
 5867SOL    HW118500   2.389   1.922   1.365
 5867SOL    HW218501   2.326   2.064   1.415
 5868SOL     OW18502   0.198   1.793   6.420
 5868SOL    HW118503   0.262   1.733   6.371
 5868SOL    HW218504   0.156   1.742   6.495
 5869SOL     OW18505   0.865   4.814   4.083
 5869SOL    HW118506   0.884   4.722   4.117
 5869SOL    HW218507   0.805   4.810   4.003
 5870SOL     OW18508   4.470   4.757   5.004
 5870SOL    HW118509   4.394   4.819   5.022
 5870SOL    HW218510   4.435   4.670   4.969
 5871SOL     OW18511   3.269   2.987   3.546
 5871SOL    HW118512   3.259   2.976   3.645
 5871SOL    HW218513   3.269   3.085   3.524
 5872SOL     OW18514   4.355   6.410   2.356
 5872SOL    HW118515   4.305   6.365   2.282
 5872SOL    HW218516   4.292   6.431   2.431
 5873SOL     OW18517   3.595   4.854   3.039
 5873SOL    HW118518   3.569   4.758   3.036
 5873SOL    HW218519   3.538   4.902   3.106
 5874SOL     OW18520   2.054   3.988   5.328
 5874SOL    HW118521   2.066   4.003   5.230
 5874SOL    HW218522   2.121   4.042   5.379
 5875SOL     OW18523   3.309   1.805   0.227
 5875SOL    HW118524   3.386   1.793   0.164
 5875SOL    HW218525   3.255   1.884   0.198
 5876SOL     OW18526   4.019   3.119   1.711
 5876SOL    HW118527   4.090   3.146   1.776
 5876SOL    HW218528   3.972   3.037   1.745
 5877SOL     OW18529   6.007   5.899   1.050
 5877SOL    HW118530   6.063   5.979   1.026
 5877SOL    HW218531   5.983   5.904   1.147
 5878SOL     OW18532   1.746   4.837   2.558
 5878SOL    HW118533   1.714   4.886   2.638
 5878SOL    HW218534   1.790   4.900   2.494
 5879SOL     OW18535   6.171   3.970   0.100
 5879SOL    HW118536   6.085   3.938   0.139
 5879SOL    HW218537   6.237   3.895   0.100
 5880SOL     OW18538   3.058   6.507   1.432
 5880SOL    HW118539   2.989   6.567   1.473
 5880SOL    HW218540   3.136   6.563   1.403
 5881SOL     OW18541   0.585   4.505   3.747
 5881SOL    HW118542   0.667   4.458   3.777
 5881SOL    HW218543   0.505   4.466   3.792
 5882SOL     OW18544   5.315   0.502   0.780
 5882SOL    HW118545   5.223   0.538   0.764
 5882SOL    HW218546   5.335   0.504   0.878
 5883SOL     OW18547   6.736   2.713   6.636
 5883SOL    HW118548   6.826   2.681   6.610
 5883SOL    HW218549   6.704   2.663   6.717
 5884SOL     OW18550   1.041   1.222   3.620
 5884SOL    HW118551   0.986   1.264   3.692
 5884SOL    HW218552   1.040   1.280   3.538
 5885SOL     OW18553   6.591   6.737   1.114
 5885SOL    HW118554   6.663   6.682   1.070
 5885SOL    HW218555   6.596   6.725   1.213
 5886SOL     OW18556   0.550   2.663   5.251
 5886SOL    HW118557   0.460   2.702   5.268
 5886SOL    HW218558   0.608   2.731   5.205
 5887SOL     OW18559   3.808   0.676   3.976
 5887SOL    HW118560   3.846   0.589   4.006
 5887SOL    HW218561   3.712   0.662   3.949
 5888SOL     OW18562   1.757   6.089   2.947
 5888SOL    HW118563   1.815   6.109   3.026
 5888SOL    HW218564   1.703   6.169   2.923
 5889SOL     OW18565   2.180   0.512   0.951
 5889SOL    HW118566   2.178   0.582   1.022
 5889SOL    HW218567   2.274   0.481   0.936
 5890SOL     OW18568   1.357   6.574   5.187
 5890SOL    HW118569   1.261   6.583   5.212
 5890SOL    HW218570   1.367   6.581   5.087
 5891SOL     OW18571   3.861   3.538   6.880
 5891SOL    HW118572   3.914   3.538   6.795
 5891SOL    HW218573   3.835   3.632   6.902
 5892SOL     OW18574   1.063   5.890   1.272
 5892SOL    HW118575   1.059   5.938   1.359
 5892SOL    HW218576   1.155   5.856   1.256
 5893SOL     OW18577   1.439   2.959   3.195
 5893SOL    HW118578   1.525   2.995   3.232
 5893SOL    HW218579   1.431   2.984   3.098
 5894SOL     OW18580   1.839   4.558   3.768
 5894SOL    HW118581   1.845   4.590   3.863
 5894SOL    HW218582   1.929   4.564   3.725
 5895SOL     OW18583   5.407   2.685   4.916
 5895SOL    HW118584   5.456   2.598   4.907
 5895SOL    HW218585   5.394   2.706   5.013
 5896SOL     OW18586   3.851   2.319   6.462
 5896SOL    HW118587   3.942   2.312   6.421
 5896SOL    HW218588   3.858   2.304   6.561
 5897SOL     OW18589   3.971   0.077   1.479
 5897SOL    HW118590   3.932   7.024   1.524
 5897SOL    HW218591   3.911   0.156   1.494
 5898SOL     OW18592   0.950   6.888   1.479
 5898SOL    HW118593   0.873   6.938   1.516
 5898SOL    HW218594   0.931   6.790   1.481
 5899SOL     OW18595   5.947   7.002   4.920
 5899SOL    HW118596   5.955   6.983   5.018
 5899SOL    HW218597   6.038   7.016   4.882
 5900SOL     OW18598   4.582   4.952   2.868
 5900SOL    HW118599   4.528   5.033   2.894
 5900SOL    HW218600   4.656   4.979   2.807
 5901SOL     OW18601   1.893   6.545   6.758
 5901SOL    HW118602   1.808   6.497   6.734
 5901SOL    HW218603   1.870   6.630   6.805
 5902SOL     OW18604   6.930   2.419   0.821
 5902SOL    HW118605   6.856   2.352   0.830
 5902SOL    HW218606   7.013   2.382   0.863
 5903SOL     OW18607   5.845   4.605   0.291
 5903SOL    HW118608   5.841   4.705   0.295
 5903SOL    HW218609   5.763   4.570   0.246
 5904SOL     OW18610   0.508   3.418   2.351
 5904SOL    HW118611   0.505   3.344   2.283
 5904SOL    HW218612   0.450   3.395   2.429
 5905SOL     OW18613   6.856   6.505   2.775
 5905SOL    HW118614   6.893   6.485   2.684
 5905SOL    HW218615   6.913   6.575   2.819
 5906SOL     OW18616   5.499   0.749   3.968
 5906SOL    HW118617   5.431   0.677   3.979
 5906SOL    HW218618   5.565   0.722   3.898
 5907SOL     OW18619   1.381   6.525   1.192
 5907SOL    HW118620   1.413   6.431   1.188
 5907SOL    HW218621   1.459   6.587   1.198
 5908SOL     OW18622   0.788   1.896   5.599
 5908SOL    HW118623   0.734   1.975   5.628
 5908SOL    HW218624   0.793   1.894   5.499
 5909SOL     OW18625   1.158   5.839   0.008
 5909SOL    HW118626   1.118   5.771   0.070
 5909SOL    HW218627   1.225   5.793   6.976
 5910SOL     OW18628   0.838   3.015   3.510
 5910SOL    HW118629   0.873   2.928   3.547
 5910SOL    HW218630   0.792   2.998   3.423
 5911SOL     OW18631   6.898   5.740   6.268
 5911SOL    HW118632   6.837   5.700   6.337
 5911SOL    HW218633   6.869   5.834   6.250
 5912SOL     OW18634   5.795   1.532   5.346
 5912SOL    HW118635   5.820   1.595   5.420
 5912SOL    HW218636   5.813   1.575   5.258
 5913SOL     OW18637   5.733   2.911   0.395
 5913SOL    HW118638   5.741   2.936   0.299
 5913SOL    HW218639   5.640   2.880   0.415
 5914SOL     OW18640   0.924   6.827   6.601
 5914SOL    HW118641   0.958   6.755   6.661
 5914SOL    HW218642   0.841   6.797   6.555
 5915SOL     OW18643   2.970   6.518   0.110
 5915SOL    HW118644   3.043   6.586   0.102
 5915SOL    HW218645   3.005   6.429   0.082
 5916SOL     OW18646   0.728   6.428   1.722
 5916SOL    HW118647   0.777   6.345   1.695
 5916SOL    HW218648   0.788   6.507   1.712
 5917SOL     OW18649   2.751   3.668   6.482
 5917SOL    HW118650   2.823   3.737   6.489
 5917SOL    HW218651   2.684   3.696   6.414
 5918SOL     OW18652   2.527   6.129   5.685
 5918SOL    HW118653   2.430   6.150   5.677
 5918SOL    HW218654   2.580   6.214   5.682
 5919SOL     OW18655   2.973   3.427   3.475
 5919SOL    HW118656   3.059   3.475   3.495
 5919SOL    HW218657   2.994   3.340   3.431
 5920SOL     OW18658   5.539   1.126   6.149
 5920SOL    HW118659   5.496   1.051   6.099
 5920SOL    HW218660   5.478   1.205   6.150
 5921SOL     OW18661   3.849   4.619   6.997
 5921SOL    HW118662   3.931   4.581   0.012
 5921SOL    HW218663   3.773   4.614   0.034
 5922SOL     OW18664   6.346   3.839   3.686
 5922SOL    HW118665   6.317   3.915   3.744
 5922SOL    HW218666   6.387   3.875   3.602
 5923SOL     OW18667   6.205   1.099   1.385
 5923SOL    HW118668   6.229   1.090   1.482
 5923SOL    HW218669   6.287   1.114   1.331
 5924SOL     OW18670   5.327   6.896   2.828
 5924SOL    HW118671   5.349   6.873   2.923
 5924SOL    HW218672   5.404   6.943   2.786
 5925SOL     OW18673   4.039   6.031   1.591
 5925SOL    HW118674   4.090   6.000   1.511
 5925SOL    HW218675   4.025   6.130   1.586
 5926SOL     OW18676   4.266   4.887   3.445
 5926SOL    HW118677   4.279   4.854   3.351
 5926SOL    HW218678   4.279   4.986   3.448
 5927SOL     OW18679   1.792   4.081   2.014
 5927SOL    HW118680   1.753   4.083   1.922
 5927SOL    HW218681   1.868   4.017   2.017
 5928SOL     OW18682   4.117   0.039   1.223
 5928SOL    HW118683   4.084   0.071   1.312
 5928SOL    HW218684   4.099   6.968   1.215
 5929SOL     OW18685   6.582   0.484   5.444
 5929SOL    HW118686   6.513   0.524   5.383
 5929SOL    HW218687   6.672   0.524   5.424
 5930SOL     OW18688   1.379   3.172   1.222
 5930SOL    HW118689   1.470   3.149   1.256
 5930SOL    HW218690   1.310   3.129   1.281
 5931SOL     OW18691   6.043   6.242   2.910
 5931SOL    HW118692   6.001   6.268   2.823
 5931SOL    HW218693   5.976   6.193   2.966
 5932SOL     OW18694   3.320   0.082   6.472
 5932SOL    HW118695   3.418   0.095   6.490
 5932SOL    HW218696   3.269   0.094   6.557
 5933SOL     OW18697   6.979   5.795   4.091
 5933SOL    HW118698   0.040   5.755   4.115
 5933SOL    HW218699   6.918   5.723   4.057
 5934SOL     OW18700   3.755   3.979   5.880
 5934SOL    HW118701   3.719   3.926   5.957
 5934SOL    HW218702   3.786   3.917   5.809
 5935SOL     OW18703   0.282   6.000   5.621
 5935SOL    HW118704   0.267   5.918   5.677
 5935SOL    HW218705   0.379   6.025   5.624
 5936SOL     OW18706   3.116   3.142   2.525
 5936SOL    HW118707   3.164   3.077   2.466
 5936SOL    HW218708   3.066   3.207   2.468
 5937SOL     OW18709   6.853   2.455   2.081
 5937SOL    HW118710   6.827   2.486   2.173
 5937SOL    HW218711   6.822   2.523   2.014
 5938SOL     OW18712   5.991   5.492   5.055
 5938SOL    HW118713   6.036   5.420   5.003
 5938SOL    HW218714   5.947   5.453   5.135
 5939SOL     OW18715   3.489   5.998   4.029
 5939SOL    HW118716   3.532   5.997   3.939
 5939SOL    HW218717   3.555   5.968   4.099
 5940SOL     OW18718   4.705   5.374   3.118
 5940SOL    HW118719   4.780   5.410   3.063
 5940SOL    HW218720   4.731   5.287   3.159
 5941SOL     OW18721   6.170   2.456   2.491
 5941SOL    HW118722   6.234   2.506   2.433
 5941SOL    HW218723   6.183   2.483   2.587
 5942SOL     OW18724   5.998   3.241   5.809
 5942SOL    HW118725   5.954   3.266   5.895
 5942SOL    HW218726   5.984   3.314   5.742
 5943SOL     OW18727   4.539   3.847   0.618
 5943SOL    HW118728   4.633   3.824   0.593
 5943SOL    HW218729   4.485   3.763   0.625
 5944SOL     OW18730   0.862   2.467   0.254
 5944SOL    HW118731   0.772   2.484   0.215
 5944SOL    HW218732   0.853   2.445   0.351
 5945SOL     OW18733   0.651   6.467   4.980
 5945SOL    HW118734   0.647   6.511   5.070
 5945SOL    HW218735   0.693   6.376   4.990
 5946SOL     OW18736   3.346   4.833   6.972
 5946SOL    HW118737   3.286   4.777   6.915
 5946SOL    HW218738   3.424   4.865   6.918
 5947SOL     OW18739   3.209   3.088   4.542
 5947SOL    HW118740   3.259   3.174   4.538
 5947SOL    HW218741   3.173   3.074   4.635
 5948SOL     OW18742   4.778   4.265   2.012
 5948SOL    HW118743   4.805   4.294   1.920
 5948SOL    HW218744   4.679   4.275   2.023
 5949SOL     OW18745   5.930   5.409   1.420
 5949SOL    HW118746   5.942   5.310   1.425
 5949SOL    HW218747   5.846   5.435   1.469
 5950SOL     OW18748   5.306   2.376   5.476
 5950SOL    HW118749   5.355   2.356   5.391
 5950SOL    HW218750   5.249   2.457   5.463
 5951SOL     OW18751   0.677   5.536   5.283
 5951SOL    HW118752   0.708   5.447   5.248
 5951SOL    HW218753   0.738   5.608   5.249
 5952SOL     OW18754   3.787   5.202   2.515
 5952SOL    HW118755   3.728   5.138   2.565
 5952SOL    HW218756   3.879   5.200   2.554
 5953SOL     OW18757   6.044   3.332   4.438
 5953SOL    HW118758   6.000   3.279   4.365
 5953SOL    HW218759   5.997   3.419   4.448
 5954SOL     OW18760   0.309   5.291   5.545
 5954SOL    HW118761   0.293   5.243   5.459
 5954SOL    HW218762   0.235   5.356   5.561
 5955SOL     OW18763   4.658   5.220   1.278
 5955SOL    HW118764   4.576   5.211   1.222
 5955SOL    HW218765   4.669   5.138   1.334
 5956SOL     OW18766   5.263   2.431   4.562
 5956SOL    HW118767   5.310   2.400   4.479
 5956SOL    HW218768   5.202   2.358   4.595
 5957SOL     OW18769   1.595   1.172   3.005
 5957SOL    HW118770   1.570   1.128   2.919
 5957SOL    HW218771   1.513   1.184   3.061
 5958SOL     OW18772   3.934   0.416   3.137
 5958SOL    HW118773   3.997   0.360   3.083
 5958SOL    HW218774   3.986   0.468   3.205
 5959SOL     OW18775   4.645   2.343   5.615
 5959SOL    HW118776   4.557   2.350   5.569
 5959SOL    HW218777   4.719   2.366   5.551
 5960SOL     OW18778   3.123   6.417   4.630
 5960SOL    HW118779   3.048   6.382   4.573
 5960SOL    HW218780   3.141   6.353   4.704
 5961SOL     OW18781   3.858   1.906   2.325
 5961SOL    HW118782   3.896   1.993   2.295
 5961SOL    HW218783   3.921   1.832   2.300
 5962SOL     OW18784   5.192   6.056   5.979
 5962SOL    HW118785   5.174   6.149   5.948
 5962SOL    HW218786   5.264   6.016   5.923
 5963SOL     OW18787   3.220   4.641   6.807
 5963SOL    HW118788   3.148   4.583   6.843
 5963SOL    HW218789   3.204   4.659   6.710
 5964SOL     OW18790   2.463   6.837   3.056
 5964SOL    HW118791   2.382   6.868   3.106
 5964SOL    HW218792   2.505   6.915   3.009
 5965SOL     OW18793   2.126   0.349   6.593
 5965SOL    HW118794   2.195   0.283   6.564
 5965SOL    HW218795   2.170   0.437   6.610
 5966SOL     OW18796   1.761   0.072   5.590
 5966SOL    HW118797   1.741   0.014   5.511
 5966SOL    HW218798   1.691   0.142   5.599
 5967SOL     OW18799   2.852   1.932   5.161
 5967SOL    HW118800   2.849   1.858   5.229
 5967SOL    HW218801   2.928   1.993   5.182
 5968SOL     OW18802   5.522   2.238   0.321
 5968SOL    HW118803   5.475   2.149   0.324
 5968SOL    HW218804   5.544   2.267   0.414
 5969SOL     OW18805   4.689   0.515   6.584
 5969SOL    HW118806   4.764   0.524   6.518
 5969SOL    HW218807   4.608   0.562   6.550
 5970SOL     OW18808   0.223   4.300   0.876
 5970SOL    HW118809   0.302   4.305   0.814
 5970SOL    HW218810   0.252   4.320   0.969
 5971SOL     OW18811   6.007   0.368   2.269
 5971SOL    HW118812   5.956   0.429   2.329
 5971SOL    HW218813   5.947   0.336   2.196
 5972SOL     OW18814   5.626   5.192   6.683
 5972SOL    HW118815   5.722   5.175   6.706
 5972SOL    HW218816   5.596   5.128   6.612
 5973SOL     OW18817   2.163   3.705   2.613
 5973SOL    HW118818   2.135   3.621   2.566
 5973SOL    HW218819   2.255   3.731   2.583
 5974SOL     OW18820   4.666   0.497   0.235
 5974SOL    HW118821   4.597   0.498   0.163
 5974SOL    HW218822   4.623   0.511   0.324
 5975SOL     OW18823   5.140   5.294   1.181
 5975SOL    HW118824   5.204   5.270   1.108
 5975SOL    HW218825   5.190   5.333   1.259
 5976SOL     OW18826   3.620   3.607   5.859
 5976SOL    HW118827   3.692   3.653   5.806
 5976SOL    HW218828   3.531   3.640   5.830
 5977SOL     OW18829   0.991   5.284   0.060
 5977SOL    HW118830   0.971   5.284   0.158
 5977SOL    HW218831   0.999   5.190   0.028
 5978SOL     OW18832   3.691   5.064   0.546
 5978SOL    HW118833   3.639   5.094   0.467
 5978SOL    HW218834   3.631   5.058   0.626
 5979SOL     OW18835   6.476   0.542   2.329
 5979SOL    HW118836   6.411   0.491   2.386
 5979SOL    HW218837   6.517   0.479   2.263
 5980SOL     OW18838   3.124   2.957   2.118
 5980SOL    HW118839   3.165   2.982   2.031
 5980SOL    HW218840   3.055   2.886   2.104
 5981SOL     OW18841   4.734   1.810   0.344
 5981SOL    HW118842   4.805   1.869   0.384
 5981SOL    HW218843   4.746   1.717   0.378
 5982SOL     OW18844   5.632   2.234   2.281
 5982SOL    HW118845   5.594   2.184   2.203
 5982SOL    HW218846   5.565   2.302   2.312
 5983SOL     OW18847   1.154   0.798   4.054
 5983SOL    HW118848   1.172   0.720   4.114
 5983SOL    HW218849   1.062   0.790   4.016
 5984SOL     OW18850   5.622   6.618   3.827
 5984SOL    HW118851   5.709   6.668   3.818
 5984SOL    HW218852   5.638   6.521   3.812
 5985SOL     OW18853   6.251   2.303   3.717
 5985SOL    HW118854   6.253   2.208   3.747
 5985SOL    HW218855   6.312   2.358   3.773
 5986SOL     OW18856   4.264   4.025   5.826
 5986SOL    HW118857   4.361   4.044   5.815
 5986SOL    HW218858   4.233   4.060   5.915
 5987SOL     OW18859   6.379   0.860   4.398
 5987SOL    HW118860   6.392   0.866   4.299
 5987SOL    HW218861   6.282   0.871   4.420
 5988SOL     OW18862   3.387   1.103   6.678
 5988SOL    HW118863   3.414   1.070   6.768
 5988SOL    HW218864   3.468   1.132   6.627
 5989SOL     OW18865   1.924   5.352   6.315
 5989SOL    HW118866   1.920   5.338   6.414
 5989SOL    HW218867   1.860   5.290   6.270
 5990SOL     OW18868   3.908   3.917   1.051
 5990SOL    HW118869   3.995   3.964   1.061
 5990SOL    HW218870   3.870   3.937   0.960
 5991SOL     OW18871   4.375   5.656   0.171
 5991SOL    HW118872   4.300   5.711   0.135
 5991SOL    HW218873   4.363   5.560   0.145
 5992SOL     OW18874   2.810   6.980   2.631
 5992SOL    HW118875   2.879   6.991   2.559
 5992SOL    HW218876   2.855   6.977   2.720
 5993SOL     OW18877   5.917   3.822   6.413
 5993SOL    HW118878   5.988   3.755   6.393
 5993SOL    HW218879   5.913   3.837   6.512
 5994SOL     OW18880   7.001   3.071   0.781
 5994SOL    HW118881   6.997   2.996   0.846
 5994SOL    HW218882   6.947   3.148   0.816
 5995SOL     OW18883   4.606   2.970   1.635
 5995SOL    HW118884   4.617   2.980   1.734
 5995SOL    HW218885   4.614   3.060   1.592
 5996SOL     OW18886   2.082   6.047   1.270
 5996SOL    HW118887   2.093   5.947   1.273
 5996SOL    HW218888   2.123   6.082   1.186
 5997SOL     OW18889   0.208   6.386   3.600
 5997SOL    HW118890   0.225   6.345   3.510
 5997SOL    HW218891   0.237   6.322   3.672
 5998SOL     OW18892   5.695   0.571   1.715
 5998SOL    HW118893   5.754   0.576   1.634
 5998SOL    HW218894   5.690   0.660   1.758
 5999SOL     OW18895   4.002   2.875   1.259
 5999SOL    HW118896   3.931   2.887   1.190
 5999SOL    HW218897   4.075   2.942   1.245
 6000SOL     OW18898   0.431   6.106   6.953
 6000SOL    HW118899   0.335   6.131   6.939
 6000SOL    HW218900   0.435   6.022   7.008
 6001SOL     OW18901   5.511   6.138   6.342
 6001SOL    HW118902   5.555   6.052   6.368
 6001SOL    HW218903   5.574   6.214   6.358
 6002SOL     OW18904   6.749   6.946   5.240
 6002SOL    HW118905   6.654   6.929   5.269
 6002SOL    HW218906   6.751   6.958   5.141
 6003SOL     OW18907   6.673   2.352   4.729
 6003SOL    HW118908   6.740   2.283   4.757
 6003SOL    HW218909   6.619   2.318   4.652
 6004SOL     OW18910   5.689   2.646   3.460
 6004SOL    HW118911   5.759   2.672   3.394
 6004SOL    HW218912   5.599   2.672   3.427
 6005SOL     OW18913   5.425   4.619   5.178
 6005SOL    HW118914   5.340   4.566   5.180
 6005SOL    HW218915   5.410   4.702   5.124
 6006SOL     OW18916   3.489   0.058   5.171
 6006SOL    HW118917   3.514   0.151   5.142
 6006SOL    HW218918   3.412   0.025   5.116
 6007SOL     OW18919   7.017   3.839   0.253
 6007SOL    HW118920   0.058   3.826   0.181
 6007SOL    HW218921   7.005   3.936   0.271
 6008SOL     OW18922   2.151   4.398   5.409
 6008SOL    HW118923   2.113   4.470   5.352
 6008SOL    HW218924   2.216   4.344   5.355
 6009SOL     OW18925   4.684   5.842   3.150
 6009SOL    HW118926   4.727   5.849   3.060
 6009SOL    HW218927   4.638   5.754   3.158
 6010SOL     OW18928   0.303   3.777   4.418
 6010SOL    HW118929   0.390   3.815   4.387
 6010SOL    HW218930   0.320   3.706   4.485
 6011SOL     OW18931   4.553   2.434   2.739
 6011SOL    HW118932   4.498   2.466   2.661
 6011SOL    HW218933   4.628   2.378   2.705
 6012SOL     OW18934   6.205   0.555   6.927
 6012SOL    HW118935   6.122   0.589   6.882
 6012SOL    HW218936   6.224   0.462   6.894
 6013SOL     OW18937   4.928   1.096   2.526
 6013SOL    HW118938   4.974   1.179   2.556
 6013SOL    HW218939   4.906   1.040   2.606
 6014SOL     OW18940   3.538   3.380   4.057
 6014SOL    HW118941   3.501   3.301   4.104
 6014SOL    HW218942   3.491   3.463   4.089
 6015SOL     OW18943   5.742   3.282   4.368
 6015SOL    HW118944   5.819   3.225   4.341
 6015SOL    HW218945   5.750   3.372   4.325
 6016SOL     OW18946   4.981   2.032   5.683
 6016SOL    HW118947   5.035   2.115   5.687
 6016SOL    HW218948   4.884   2.056   5.670
 6017SOL     OW18949   0.314   4.232   4.775
 6017SOL    HW118950   0.405   4.192   4.764
 6017SOL    HW218951   0.246   4.171   4.734
 6018SOL     OW18952   3.430   1.187   4.574
 6018SOL    HW118953   3.377   1.254   4.523
 6018SOL    HW218954   3.524   1.219   4.586
 6019SOL     OW18955   0.872   3.563   5.934
 6019SOL    HW118956   0.828   3.512   6.008
 6019SOL    HW218957   0.930   3.502   5.881
 6020SOL     OW18958   0.972   4.852   0.947
 6020SOL    HW118959   1.071   4.837   0.946
 6020SOL    HW218960   0.953   4.948   0.969
 6021SOL     OW18961   4.537   0.345   2.857
 6021SOL    HW118962   4.615   0.353   2.796
 6021SOL    HW218963   4.521   0.249   2.879
 6022SOL     OW18964   6.526   2.005   3.326
 6022SOL    HW118965   6.454   2.016   3.394
 6022SOL    HW218966   6.497   1.939   3.257
 6023SOL     OW18967   5.200   0.166   1.357
 6023SOL    HW118968   5.155   0.112   1.429
 6023SOL    HW218969   5.290   0.195   1.388
 6024SOL     OW18970   0.442   4.747   0.834
 6024SOL    HW118971   0.463   4.663   0.785
 6024SOL    HW218972   0.382   4.727   0.911
 6025SOL     OW18973   2.757   1.219   3.683
 6025SOL    HW118974   2.704   1.298   3.713
 6025SOL    HW218975   2.727   1.137   3.732
 6026SOL     OW18976   6.213   4.601   4.471
 6026SOL    HW118977   6.212   4.611   4.571
 6026SOL    HW218978   6.121   4.620   4.435
 6027SOL     OW18979   6.319   3.469   6.201
 6027SOL    HW118980   6.407   3.461   6.249
 6027SOL    HW218981   6.259   3.531   6.252
 6028SOL     OW18982   5.346   5.254   1.507
 6028SOL    HW118983   5.324   5.343   1.467
 6028SOL    HW218984   5.417   5.266   1.577
 6029SOL     OW18985   2.072   6.819   3.432
 6029SOL    HW118986   2.114   6.831   3.342
 6029SOL    HW218987   2.000   6.749   3.426
 6030SOL     OW18988   4.949   3.708   4.742
 6030SOL    HW118989   5.026   3.752   4.790
 6030SOL    HW218990   4.896   3.654   4.806
 6031SOL     OW18991   1.347   5.843   3.833
 6031SOL    HW118992   1.303   5.760   3.801
 6031SOL    HW218993   1.278   5.912   3.853
 6032SOL     OW18994   3.146   5.729   3.670
 6032SOL    HW118995   3.176   5.810   3.720
 6032SOL    HW218996   3.145   5.749   3.572
 6033SOL     OW18997   2.381   2.540   2.571
 6033SOL    HW118998   2.307   2.482   2.535
 6033SOL    HW218999   2.465   2.487   2.573
 6034SOL     OW19000   0.992   0.412   6.347
 6034SOL    HW119001   1.065   0.416   6.415
 6034SOL    HW219002   0.904   0.409   6.393
 6035SOL     OW19003   0.634   0.953   2.612
 6035SOL    HW119004   0.669   0.906   2.532
 6035SOL    HW219005   0.654   1.051   2.605
 6036SOL     OW19006   6.320   4.810   1.884
 6036SOL    HW119007   6.379   4.783   1.808
 6036SOL    HW219008   6.249   4.873   1.851
 6037SOL     OW19009   3.858   0.407   0.938
 6037SOL    HW119010   3.824   0.327   0.888
 6037SOL    HW219011   3.943   0.383   0.985
 6038SOL     OW19012   0.240   2.348   6.364
 6038SOL    HW119013   0.267   2.361   6.268
 6038SOL    HW219014   0.195   2.259   6.374
 6039SOL     OW19015   3.763   3.748   3.775
 6039SOL    HW119016   3.766   3.677   3.845
 6039SOL    HW219017   3.768   3.706   3.684
 6040SOL     OW19018   1.667   1.316   0.317
 6040SOL    HW119019   1.706   1.319   0.409
 6040SOL    HW219020   1.581   1.367   0.316
 6041SOL     OW19021   3.171   2.965   5.397
 6041SOL    HW119022   3.095   3.007   5.446
 6041SOL    HW219023   3.202   3.026   5.324
 6042SOL     OW19024   4.055   6.204   3.173
 6042SOL    HW119025   4.118   6.266   3.127
 6042SOL    HW219026   3.962   6.222   3.142
 6043SOL     OW19027   1.226   0.613   4.253
 6043SOL    HW119028   1.252   0.672   4.329
 6043SOL    HW219029   1.185   0.529   4.289
 6044SOL     OW19030   2.038   1.971   1.856
 6044SOL    HW119031   2.128   1.928   1.854
 6044SOL    HW219032   2.031   2.031   1.936
 6045SOL     OW19033   4.955   3.096   3.810
 6045SOL    HW119034   4.903   3.056   3.885
 6045SOL    HW219035   4.892   3.136   3.744
 6046SOL     OW19036   3.371   3.095   1.260
 6046SOL    HW119037   3.360   3.010   1.311
 6046SOL    HW219038   3.418   3.163   1.317
 6047SOL     OW19039   5.299   2.441   1.334
 6047SOL    HW119040   5.329   2.535   1.318
 6047SOL    HW219041   5.371   2.378   1.306
 6048SOL     OW19042   5.468   5.282   5.272
 6048SOL    HW119043   5.445   5.299   5.367
 6048SOL    HW219044   5.391   5.238   5.226
 6049SOL     OW19045   5.511   4.239   6.080
 6049SOL    HW119046   5.561   4.307   6.133
 6049SOL    HW219047   5.455   4.285   6.011
 6050SOL     OW19048   2.917   5.110   0.931
 6050SOL    HW119049   2.964   5.041   0.986
 6050SOL    HW219050   2.971   5.194   0.930
 6051SOL     OW19051   0.828   0.660   2.490
 6051SOL    HW119052   0.843   0.749   2.446
 6051SOL    HW219053   0.881   0.656   2.575
 6052SOL     OW19054   5.461   0.624   1.454
 6052SOL    HW119055   5.401   0.545   1.437
 6052SOL    HW219056   5.527   0.632   1.379
 6053SOL     OW19057   4.127   0.655   6.139
 6053SOL    HW119058   4.142   0.707   6.223
 6053SOL    HW219059   4.146   0.712   6.059
 6054SOL     OW19060   3.502   5.055   0.761
 6054SOL    HW119061   3.499   5.144   0.805
 6054SOL    HW219062   3.525   4.984   0.828
 6055SOL     OW19063   3.395   5.330   6.545
 6055SOL    HW119064   3.337   5.260   6.502
 6055SOL    HW219065   3.436   5.387   6.474
 6056SOL     OW19066   5.959   2.960   5.005
 6056SOL    HW119067   5.949   3.031   4.935
 6056SOL    HW219068   5.884   2.895   4.999
 6057SOL     OW19069   5.852   0.529   2.430
 6057SOL    HW119070   5.790   0.607   2.427
 6057SOL    HW219071   5.804   0.450   2.469
 6058SOL     OW19072   5.912   3.232   0.442
 6058SOL    HW119073   5.943   3.137   0.435
 6058SOL    HW219074   5.905   3.258   0.538
 6059SOL     OW19075   5.033   3.971   5.549
 6059SOL    HW119076   5.101   3.909   5.509
 6059SOL    HW219077   4.963   3.917   5.595
 6060SOL     OW19078   3.335   3.249   0.527
 6060SOL    HW119079   3.401   3.306   0.478
 6060SOL    HW219080   3.383   3.191   0.592
 6061SOL     OW19081   4.700   4.744   0.731
 6061SOL    HW119082   4.603   4.736   0.710
 6061SOL    HW219083   4.719   4.834   0.770
 6062SOL     OW19084   2.600   2.091   6.707
 6062SOL    HW119085   2.567   2.186   6.708
 6062SOL    HW219086   2.582   2.049   6.795
 6063SOL     OW19087   3.696   4.224   5.368
 6063SOL    HW119088   3.711   4.126   5.377
 6063SOL    HW219089   3.597   4.242   5.365
 6064SOL     OW19090   0.682   0.279   0.937
 6064SOL    HW119091   0.778   0.285   0.910
 6064SOL    HW219092   0.649   0.369   0.966
 6065SOL     OW19093   1.077   5.431   1.582
 6065SOL    HW119094   1.042   5.496   1.515
 6065SOL    HW219095   1.020   5.433   1.664
 6066SOL     OW19096   5.199   1.163   3.773
 6066SOL    HW119097   5.186   1.212   3.859
 6066SOL    HW219098   5.267   1.210   3.718
 6067SOL     OW19099   4.963   0.606   5.874
 6067SOL    HW119100   4.995   0.693   5.836
 6067SOL    HW219101   4.864   0.610   5.889
 6068SOL     OW19102   5.211   2.436   4.918
 6068SOL    HW119103   5.191   2.401   5.009
 6068SOL    HW219104   5.309   2.455   4.910
 6069SOL     OW19105   6.704   2.966   6.193
 6069SOL    HW119106   6.636   2.999   6.127
 6069SOL    HW219107   6.708   3.029   6.270
 6070SOL     OW19108   3.694   2.204   1.659
 6070SOL    HW119109   3.695   2.265   1.738
 6070SOL    HW219110   3.688   2.258   1.575
 6071SOL     OW19111   0.182   5.920   4.409
 6071SOL    HW119112   0.168   5.975   4.327
 6071SOL    HW219113   0.262   5.954   4.459
 6072SOL     OW19114   6.647   1.733   1.406
 6072SOL    HW119115   6.550   1.754   1.418
 6072SOL    HW219116   6.701   1.778   1.478
 6073SOL     OW19117   5.142   3.013   0.734
 6073SOL    HW119118   5.099   2.946   0.793
 6073SOL    HW219119   5.120   3.105   0.767
 6074SOL     OW19120   1.768   0.071   2.208
 6074SOL    HW119121   1.741   0.115   2.123
 6074SOL    HW219122   1.837   0.127   2.254
 6075SOL     OW19123   4.447   6.904   5.578
 6075SOL    HW119124   4.411   6.964   5.649
 6075SOL    HW219125   4.403   6.927   5.491
 6076SOL     OW19126   2.910   4.961   3.587
 6076SOL    HW119127   2.859   4.876   3.576
 6076SOL    HW219128   2.909   5.013   3.502
 6077SOL     OW19129   5.269   6.452   0.847
 6077SOL    HW119130   5.292   6.433   0.942
 6077SOL    HW219131   5.173   6.481   0.841
 6078SOL     OW19132   4.453   4.544   1.099
 6078SOL    HW119133   4.367   4.594   1.111
 6078SOL    HW219134   4.433   4.446   1.095
 6079SOL     OW19135   4.895   4.720   6.668
 6079SOL    HW119136   4.923   4.788   6.736
 6079SOL    HW219137   4.962   4.645   6.667
 6080SOL     OW19138   0.428   5.109   1.539
 6080SOL    HW119139   0.465   5.182   1.481
 6080SOL    HW219140   0.333   5.130   1.562
 6081SOL     OW19141   6.845   3.083   5.786
 6081SOL    HW119142   6.911   3.080   5.861
 6081SOL    HW219143   6.845   3.173   5.744
 6082SOL     OW19144   3.286   6.350   2.361
 6082SOL    HW119145   3.384   6.358   2.380
 6082SOL    HW219146   3.234   6.384   2.440
 6083SOL     OW19147   5.404   5.920   0.342
 6083SOL    HW119148   5.436   5.902   0.249
 6083SOL    HW219149   5.307   5.944   0.340
 6084SOL     OW19150   1.113   6.334   1.934
 6084SOL    HW119151   1.077   6.251   1.974
 6084SOL    HW219152   1.107   6.328   1.834
 6085SOL     OW19153   5.959   6.145   5.967
 6085SOL    HW119154   5.884   6.207   5.942
 6085SOL    HW219155   6.030   6.197   6.015
 6086SOL     OW19156   3.861   3.015   6.174
 6086SOL    HW119157   3.936   2.952   6.193
 6086SOL    HW219158   3.831   3.002   6.079
 6087SOL     OW19159   4.875   6.243   1.054
 6087SOL    HW119160   4.897   6.147   1.064
 6087SOL    HW219161   4.958   6.298   1.063
 6088SOL     OW19162   5.820   6.247   5.167
 6088SOL    HW119163   5.781   6.190   5.239
 6088SOL    HW219164   5.919   6.231   5.162
 6089SOL     OW19165   6.662   2.540   2.612
 6089SOL    HW119166   6.602   2.617   2.634
 6089SOL    HW219167   6.607   2.465   2.573
 6090SOL     OW19168   2.907   5.197   4.540
 6090SOL    HW119169   2.808   5.196   4.549
 6090SOL    HW219170   2.935   5.143   4.460
 6091SOL     OW19171   3.081   1.705   0.820
 6091SOL    HW119172   3.041   1.621   0.784
 6091SOL    HW219173   3.025   1.740   0.895
 6092SOL     OW19174   4.496   1.021   1.850
 6092SOL    HW119175   4.559   1.055   1.919
 6092SOL    HW219176   4.528   0.932   1.815
 6093SOL     OW19177   2.534   2.176   2.311
 6093SOL    HW119178   2.467   2.133   2.371
 6093SOL    HW219179   2.490   2.200   2.224
 6094SOL     OW19180   1.176   6.386   3.125
 6094SOL    HW119181   1.079   6.365   3.117
 6094SOL    HW219182   1.198   6.407   3.220
 6095SOL     OW19183   4.942   4.903   6.851
 6095SOL    HW119184   4.949   5.002   6.839
 6095SOL    HW219185   4.871   4.883   6.918
 6096SOL     OW19186   5.340   6.624   1.656
 6096SOL    HW119187   5.317   6.571   1.738
 6096SOL    HW219188   5.404   6.572   1.600
 6097SOL     OW19189   1.430   5.340   1.896
 6097SOL    HW119190   1.395   5.432   1.878
 6097SOL    HW219191   1.519   5.345   1.939
 6098SOL     OW19192   6.232   0.883   6.072
 6098SOL    HW119193   6.192   0.857   6.160
 6098SOL    HW219194   6.331   0.879   6.078
 6099SOL     OW19195   4.643   6.152   5.756
 6099SOL    HW119196   4.587   6.173   5.677
 6099SOL    HW219197   4.722   6.213   5.759
 6100SOL     OW19198   6.967   5.849   1.861
 6100SOL    HW119199   6.984   5.898   1.946
 6100SOL    HW219200   6.958   5.751   1.880
 6101SOL     OW19201   5.831   2.824   2.842
 6101SOL    HW119202   5.800   2.895   2.779
 6101SOL    HW219203   5.931   2.815   2.834
 6102SOL     OW19204   4.048   5.964   2.495
 6102SOL    HW119205   3.993   5.905   2.436
 6102SOL    HW219206   3.994   6.043   2.524
 6103SOL     OW19207   6.467   1.120   1.258
 6103SOL    HW119208   6.498   1.130   1.163
 6103SOL    HW219209   6.509   1.039   1.298
 6104SOL     OW19210   6.131   0.743   5.124
 6104SOL    HW119211   6.197   0.751   5.049
 6104SOL    HW219212   6.051   0.692   5.092
 6105SOL     OW19213   1.970   5.615   5.607
 6105SOL    HW119214   2.051   5.659   5.648
 6105SOL    HW219215   1.998   5.561   5.528
 6106SOL     OW19216   1.245   5.057   0.409
 6106SOL    HW119217   1.204   4.966   0.397
 6106SOL    HW219218   1.319   5.051   0.476
 6107SOL     OW19219   4.562   5.622   3.873
 6107SOL    HW119220   4.556   5.544   3.935
 6107SOL    HW219221   4.501   5.608   3.795
 6108SOL     OW19222   1.396   2.071   3.122
 6108SOL    HW119223   1.363   2.140   3.185
 6108SOL    HW219224   1.381   2.101   3.028
 6109SOL     OW19225   5.259   1.062   4.630
 6109SOL    HW119226   5.232   0.976   4.672
 6109SOL    HW219227   5.211   1.074   4.543
 6110SOL     OW19228   1.810   2.567   6.827
 6110SOL    HW119229   1.741   2.497   6.844
 6110SOL    HW219230   1.866   2.541   6.749
 6111SOL     OW19231   1.474   3.413   1.733
 6111SOL    HW119232   1.566   3.407   1.694
 6111SOL    HW219233   1.411   3.359   1.677
 6112SOL     OW19234   4.272   0.629   2.520
 6112SOL    HW119235   4.233   0.540   2.544
 6112SOL    HW219236   4.350   0.616   2.458
 6113SOL     OW19237   2.494   3.509   6.600
 6113SOL    HW119238   2.528   3.422   6.636
 6113SOL    HW219239   2.570   3.562   6.563
 6114SOL     OW19240   5.196   3.134   2.181
 6114SOL    HW119241   5.103   3.133   2.146
 6114SOL    HW219242   5.206   3.208   2.248
 6115SOL     OW19243   6.856   1.725   5.395
 6115SOL    HW119244   6.846   1.705   5.298
 6115SOL    HW219245   6.835   1.822   5.411
 6116SOL     OW19246   4.198   2.443   5.602
 6116SOL    HW119247   4.101   2.436   5.626
 6116SOL    HW219248   4.253   2.429   5.684
 6117SOL     OW19249   1.078   2.065   3.328
 6117SOL    HW119250   1.137   1.984   3.335
 6117SOL    HW219251   1.001   2.045   3.266
 6118SOL     OW19252   5.349   1.210   1.554
 6118SOL    HW119253   5.265   1.162   1.580
 6118SOL    HW219254   5.422   1.144   1.542
 6119SOL     OW19255   0.735   2.686   0.390
 6119SOL    HW119256   0.795   2.712   0.315
 6119SOL    HW219257   0.702   2.769   0.437
 6120SOL     OW19258   1.647   6.770   5.843
 6120SOL    HW119259   1.623   6.867   5.836
 6120SOL    HW219260   1.567   6.718   5.873
 6121SOL     OW19261   0.856   4.136   5.835
 6121SOL    HW119262   0.937   4.184   5.802
 6121SOL    HW219263   0.882   4.042   5.861
 6122SOL     OW19264   4.868   5.106   6.261
 6122SOL    HW119265   4.878   5.206   6.262
 6122SOL    HW219266   4.790   5.081   6.204
 6123SOL     OW19267   5.483   1.027   5.333
 6123SOL    HW119268   5.448   0.941   5.294
 6123SOL    HW219269   5.411   1.096   5.330
 6124SOL     OW19270   0.764   6.642   5.460
 6124SOL    HW119271   0.713   6.645   5.546
 6124SOL    HW219272   0.862   6.635   5.479
 6125SOL     OW19273   2.386   3.801   6.946
 6125SOL    HW119274   2.353   3.865   7.016
 6125SOL    HW219275   2.486   3.796   6.951
 6126SOL     OW19276   1.142   1.801   5.769
 6126SOL    HW119277   1.217   1.760   5.717
 6126SOL    HW219278   1.127   1.895   5.739
 6127SOL     OW19279   4.066   0.730   1.632
 6127SOL    HW119280   4.131   0.805   1.626
 6127SOL    HW219281   3.983   0.754   1.583
 6128SOL     OW19282   5.605   5.289   0.550
 6128SOL    HW119283   5.627   5.379   0.589
 6128SOL    HW219284   5.544   5.300   0.472
 6129SOL     OW19285   1.551   3.958   3.729
 6129SOL    HW119286   1.506   3.904   3.800
 6129SOL    HW219287   1.576   3.898   3.652
 6130SOL     OW19288   6.232   2.154   3.206
 6130SOL    HW119289   6.214   2.056   3.202
 6130SOL    HW219290   6.331   2.170   3.208
 6131SOL     OW19291   0.854   2.272   2.107
 6131SOL    HW119292   0.935   2.227   2.071
 6131SOL    HW219293   0.859   2.274   2.207
 6132SOL     OW19294   3.477   1.950   6.283
 6132SOL    HW119295   3.515   2.002   6.360
 6132SOL    HW219296   3.395   1.901   6.312
 6133SOL     OW19297   1.364   2.298   3.282
 6133SOL    HW119298   1.395   2.306   3.377
 6133SOL    HW219299   1.373   2.387   3.236
 6134SOL     OW19300   4.390   0.356   6.507
 6134SOL    HW119301   4.455   0.419   6.549
 6134SOL    HW219302   4.362   0.288   6.574
 6135SOL     OW19303   5.840   6.291   0.432
 6135SOL    HW119304   5.759   6.315   0.378
 6135SOL    HW219305   5.828   6.201   0.472
 6136SOL     OW19306   1.396   2.643   1.156
 6136SOL    HW119307   1.335   2.684   1.087
 6136SOL    HW219308   1.478   2.699   1.165
 6137SOL     OW19309   0.895   3.755   2.286
 6137SOL    HW119310   0.965   3.687   2.309
 6137SOL    HW219311   0.816   3.744   2.346
 6138SOL     OW19312   3.795   0.101   2.536
 6138SOL    HW119313   3.745   0.105   2.449
 6138SOL    HW219314   3.758   0.170   2.599
 6139SOL     OW19315   0.634   0.043   5.596
 6139SOL    HW119316   0.540   0.064   5.570
 6139SOL    HW219317   0.691   0.123   5.582
 6140SOL     OW19318   0.674   1.447   3.266
 6140SOL    HW119319   0.605   1.479   3.201
 6140SOL    HW219320   0.629   1.426   3.353
 6141SOL     OW19321   1.067   0.438   5.910
 6141SOL    HW119322   1.135   0.452   5.982
 6141SOL    HW219323   1.068   0.342   5.882
 6142SOL     OW19324   1.286   0.052   6.105
 6142SOL    HW119325   1.331   0.115   6.169
 6142SOL    HW219326   1.191   0.039   6.133
 6143SOL     OW19327   6.981   4.453   1.039
 6143SOL    HW119328   6.995   4.440   1.138
 6143SOL    HW219329   6.971   4.364   0.995
 6144SOL     OW19330   5.217   4.216   3.256
 6144SOL    HW119331   5.197   4.135   3.202
 6144SOL    HW219332   5.268   4.282   3.200
 6145SOL     OW19333   5.734   4.503   4.464
 6145SOL    HW119334   5.794   4.450   4.523
 6145SOL    HW219335   5.638   4.480   4.484
 6146SOL     OW19336   3.402   6.576   4.115
 6146SOL    HW119337   3.444   6.571   4.025
 6146SOL    HW219338   3.391   6.484   4.153
 6147SOL     OW19339   2.320   2.890   4.532
 6147SOL    HW119340   2.253   2.961   4.511
 6147SOL    HW219341   2.327   2.879   4.631
 6148SOL     OW19342   3.888   5.224   6.849
 6148SOL    HW119343   3.855   5.224   6.755
 6148SOL    HW219344   3.961   5.292   6.859
 6149SOL     OW19345   1.605   7.011   1.859
 6149SOL    HW119346   1.609   6.957   1.775
 6149SOL    HW219347   1.691   0.034   1.871
 6150SOL     OW19348   5.835   3.886   6.688
 6150SOL    HW119349   5.746   3.841   6.675
 6150SOL    HW219350   5.821   3.981   6.715
 6151SOL     OW19351   4.717   4.831   4.454
 6151SOL    HW119352   4.800   4.816   4.401
 6151SOL    HW219353   4.655   4.889   4.401
 6152SOL     OW19354   0.756   5.782   4.797
 6152SOL    HW119355   0.668   5.789   4.751
 6152SOL    HW219356   0.746   5.726   4.880
 6153SOL     OW19357   5.010   5.057   1.105
 6153SOL    HW119358   5.049   5.143   1.137
 6153SOL    HW219359   4.948   5.075   1.028
 6154SOL     OW19360   5.430   3.341   2.693
 6154SOL    HW119361   5.480   3.423   2.665
 6154SOL    HW219362   5.479   3.295   2.767
 6155SOL     OW19363   2.975   0.768   2.762
 6155SOL    HW119364   2.911   0.690   2.764
 6155SOL    HW219365   3.024   0.772   2.849
 6156SOL     OW19366   4.854   4.360   1.764
 6156SOL    HW119367   4.765   4.352   1.720
 6156SOL    HW219368   4.892   4.451   1.745
 6157SOL     OW19369   0.792   2.474   3.283
 6157SOL    HW119370   0.802   2.415   3.203
 6157SOL    HW219371   0.784   2.569   3.254
 6158SOL     OW19372   3.011   1.931   0.098
 6158SOL    HW119373   3.020   1.844   0.051
 6158SOL    HW219374   3.098   1.980   0.095
 6159SOL     OW19375   5.387   3.021   0.608
 6159SOL    HW119376   5.438   3.002   0.692
 6159SOL    HW219377   5.292   3.042   0.632
 6160SOL     OW19378   0.287   6.816   6.755
 6160SOL    HW119379   0.369   6.873   6.758
 6160SOL    HW219380   0.287   6.753   6.832
 6161SOL     OW19381   5.067   1.050   0.189
 6161SOL    HW119382   5.120   1.038   0.273
 6161SOL    HW219383   5.129   1.073   0.114
 6162SOL     OW19384   6.015   6.487   3.754
 6162SOL    HW119385   6.024   6.561   3.821
 6162SOL    HW219386   5.989   6.525   3.665
 6163SOL     OW19387   5.444   5.833   2.290
 6163SOL    HW119388   5.533   5.833   2.335
 6163SOL    HW219389   5.394   5.915   2.316
 6164SOL     OW19390   3.538   3.897   4.712
 6164SOL    HW119391   3.585   3.886   4.800
 6164SOL    HW219392   3.508   3.991   4.702
 6165SOL     OW19393   3.902   2.214   5.936
 6165SOL    HW119394   3.856   2.300   5.957
 6165SOL    HW219395   3.836   2.148   5.900
 6166SOL     OW19396   6.310   1.852   0.352
 6166SOL    HW119397   6.311   1.949   0.326
 6166SOL    HW219398   6.218   1.826   0.380
 6167SOL     OW19399   0.784   4.550   3.069
 6167SOL    HW119400   0.693   4.543   3.028
 6167SOL    HW219401   0.840   4.611   3.014
 6168SOL     OW19402   0.482   2.415   3.339
 6168SOL    HW119403   0.578   2.430   3.315
 6168SOL    HW219404   0.469   2.434   3.436
 6169SOL     OW19405   0.640   1.118   6.056
 6169SOL    HW119406   0.719   1.141   6.112
 6169SOL    HW219407   0.585   1.047   6.102
 6170SOL     OW19408   3.349   4.438   6.121
 6170SOL    HW119409   3.271   4.398   6.073
 6170SOL    HW219410   3.415   4.367   6.143
 6171SOL     OW19411   1.341   3.697   1.442
 6171SOL    HW119412   1.333   3.793   1.414
 6171SOL    HW219413   1.271   3.675   1.509
 6172SOL     OW19414   7.007   0.680   2.704
 6172SOL    HW119415   7.012   0.776   2.675
 6172SOL    HW219416   6.984   0.675   2.801
 6173SOL     OW19417   6.837   4.786   2.747
 6173SOL    HW119418   6.854   4.808   2.651
 6173SOL    HW219419   6.924   4.764   2.792
 6174SOL     OW19420   5.852   4.695   2.923
 6174SOL    HW119421   5.900   4.685   3.010
 6174SOL    HW219422   5.895   4.768   2.869
 6175SOL     OW19423   5.662   6.907   3.469
 6175SOL    HW119424   5.684   7.005   3.464
 6175SOL    HW219425   5.708   6.859   3.394
 6176SOL     OW19426   6.248   2.853   6.923
 6176SOL    HW119427   6.345   2.865   6.945
 6176SOL    HW219428   6.235   2.764   6.882
 6177SOL     OW19429   5.553   1.840   1.364
 6177SOL    HW119430   5.552   1.899   1.445
 6177SOL    HW219431   5.473   1.781   1.366
 6178SOL     OW19432   4.737   5.606   1.486
 6178SOL    HW119433   4.789   5.536   1.534
 6178SOL    HW219434   4.663   5.563   1.434
 6179SOL     OW19435   0.077   4.117   4.667
 6179SOL    HW119436   0.099   4.039   4.608
 6179SOL    HW219437   0.005   4.172   4.625
 6180SOL     OW19438   3.088   6.824   6.176
 6180SOL    HW119439   3.186   6.806   6.172
 6180SOL    HW219440   3.052   6.833   6.083
 6181SOL     OW19441   5.202   6.542   0.290
 6181SOL    HW119442   5.137   6.602   0.336
 6181SOL    HW219443   5.241   6.590   0.212
 6182SOL     OW19444   5.336   4.732   5.417
 6182SOL    HW119445   5.363   4.689   5.330
 6182SOL    HW219446   5.416   4.736   5.478
 6183SOL     OW19447   2.522   0.240   2.984
 6183SOL    HW119448   2.572   0.318   2.945
 6183SOL    HW219449   2.535   0.160   2.926
 6184SOL     OW19450   1.836   6.582   6.012
 6184SOL    HW119451   1.746   6.604   5.974
 6184SOL    HW219452   1.890   6.536   5.941
 6185SOL     OW19453   1.622   4.483   0.071
 6185SOL    HW119454   1.618   4.383   0.068
 6185SOL    HW219455   1.715   4.512   0.092
 6186SOL     OW19456   5.850   6.772   3.764
 6186SOL    HW119457   5.866   6.827   3.846
 6186SOL    HW219458   5.885   6.821   3.684
 6187SOL     OW19459   4.674   4.442   4.321
 6187SOL    HW119460   4.675   4.456   4.420
 6187SOL    HW219461   4.736   4.507   4.278
 6188SOL     OW19462   2.460   6.088   1.483
 6188SOL    HW119463   2.557   6.100   1.505
 6188SOL    HW219464   2.428   6.166   1.429
 6189SOL     OW19465   4.571   4.494   3.764
 6189SOL    HW119466   4.593   4.588   3.789
 6189SOL    HW219467   4.583   4.435   3.843
 6190SOL     OW19468   6.293   3.746   6.071
 6190SOL    HW119469   6.365   3.684   6.102
 6190SOL    HW219470   6.307   3.768   5.974
 6191SOL     OW19471   4.307   2.337   0.463
 6191SOL    HW119472   4.322   2.295   0.553
 6191SOL    HW219473   4.347   2.279   0.392
 6192SOL     OW19474   3.812   3.483   0.459
 6192SOL    HW119475   3.868   3.406   0.489
 6192SOL    HW219476   3.729   3.449   0.415
 6193SOL     OW19477   4.135   0.932   2.580
 6193SOL    HW119478   4.066   0.870   2.617
 6193SOL    HW219479   4.173   0.988   2.654
 6194SOL     OW19480   2.041   6.503   0.182
 6194SOL    HW119481   1.969   6.438   0.159
 6194SOL    HW219482   2.103   6.512   0.104
 6195SOL     OW19483   3.537   5.405   5.451
 6195SOL    HW119484   3.468   5.337   5.426
 6195SOL    HW219485   3.616   5.359   5.491
 6196SOL     OW19486   6.205   2.214   0.979
 6196SOL    HW119487   6.237   2.307   0.961
 6196SOL    HW219488   6.238   2.153   0.907
 6197SOL     OW19489   4.690   3.582   0.783
 6197SOL    HW119490   4.731   3.492   0.800
 6197SOL    HW219491   4.756   3.639   0.734
 6198SOL     OW19492   3.257   5.630   2.320
 6198SOL    HW119493   3.292   5.583   2.401
 6198SOL    HW219494   3.170   5.589   2.294
 6199SOL     OW19495   0.368   7.016   0.970
 6199SOL    HW119496   0.455   0.011   1.016
 6199SOL    HW219497   0.307   6.970   1.035
 6200SOL     OW19498   2.295   1.010   5.580
 6200SOL    HW119499   2.307   1.109   5.577
 6200SOL    HW219500   2.218   0.987   5.640
 6201SOL     OW19501   2.210   3.591   5.583
 6201SOL    HW119502   2.301   3.551   5.588
 6201SOL    HW219503   2.216   3.690   5.588
 6202SOL     OW19504   3.926   1.899   1.421
 6202SOL    HW119505   3.930   1.812   1.471
 6202SOL    HW219506   3.830   1.919   1.398
 6203SOL     OW19507   5.211   0.013   3.660
 6203SOL    HW119508   5.228   6.967   3.726
 6203SOL    HW219509   5.132   0.067   3.690
 6204SOL     OW19510   0.680   4.977   5.047
 6204SOL    HW119511   0.607   4.987   4.980
 6204SOL    HW219512   0.738   4.900   5.021
 6205SOL     OW19513   5.650   6.808   6.505
 6205SOL    HW119514   5.593   6.735   6.466
 6205SOL    HW219515   5.680   6.782   6.596
 6206SOL     OW19516   6.598   0.085   2.619
 6206SOL    HW119517   6.675   0.043   2.572
 6206SOL    HW219518   6.552   0.017   2.677
 6207SOL     OW19519   1.493   3.940   5.023
 6207SOL    HW119520   1.577   3.944   5.077
 6207SOL    HW219521   1.417   3.977   5.076
 6208SOL     OW19522   6.149   0.340   6.482
 6208SOL    HW119523   6.154   0.414   6.415
 6208SOL    HW219524   6.227   0.346   6.544
 6209SOL     OW19525   4.746   5.543   6.679
 6209SOL    HW119526   4.777   5.456   6.641
 6209SOL    HW219527   4.779   5.553   6.772
 6210SOL     OW19528   5.844   4.865   3.589
 6210SOL    HW119529   5.765   4.845   3.647
 6210SOL    HW219530   5.814   4.918   3.510
 6211SOL     OW19531   3.405   6.436   4.562
 6211SOL    HW119532   3.306   6.444   4.555
 6211SOL    HW219533   3.448   6.480   4.483
 6212SOL     OW19534   1.195   5.003   3.290
 6212SOL    HW119535   1.250   4.937   3.340
 6212SOL    HW219536   1.115   4.958   3.252
 6213SOL     OW19537   4.938   6.971   6.397
 6213SOL    HW119538   4.992   7.018   6.466
 6213SOL    HW219539   4.936   7.025   6.313
 6214SOL     OW19540   5.814   4.921   3.284
 6214SOL    HW119541   5.737   4.984   3.295
 6214SOL    HW219542   5.896   4.960   3.328
 6215SOL     OW19543   3.559   1.661   6.631
 6215SOL    HW119544   3.610   1.625   6.710
 6215SOL    HW219545   3.619   1.662   6.551
 6216SOL     OW19546   6.414   2.565   2.408
 6216SOL    HW119547   6.421   2.641   2.473
 6216SOL    HW219548   6.432   2.597   2.316
 6217SOL     OW19549   6.599   2.831   2.330
 6217SOL    HW119550   6.501   2.834   2.347
 6217SOL    HW219551   6.623   2.895   2.256
 6218SOL     OW19552   3.378   5.289   4.465
 6218SOL    HW119553   3.315   5.247   4.531
 6218SOL    HW219554   3.402   5.381   4.495
 6219SOL     OW19555   0.689   1.371   4.777
 6219SOL    HW119556   0.590   1.381   4.773
 6219SOL    HW219557   0.732   1.461   4.778
 6220SOL     OW19558   1.190   3.849   5.728
 6220SOL    HW119559   1.165   3.867   5.823
 6220SOL    HW219560   1.278   3.893   5.708
 6221SOL     OW19561   6.353   5.552   6.087
 6221SOL    HW119562   6.324   5.641   6.124
 6221SOL    HW219563   6.424   5.567   6.017
 6222SOL     OW19564   0.930   6.380   1.349
 6222SOL    HW119565   0.843   6.331   1.354
 6222SOL    HW219566   0.990   6.335   1.283
 6223SOL     OW19567   0.066   3.908   4.412
 6223SOL    HW119568   0.155   3.868   4.391
 6223SOL    HW219569   0.027   3.863   4.491
 6224SOL     OW19570   1.907   2.223   6.326
 6224SOL    HW119571   1.864   2.251   6.413
 6224SOL    HW219572   1.900   2.298   6.260
 6225SOL     OW19573   2.979   3.182   1.002
 6225SOL    HW119574   2.998   3.280   0.999
 6225SOL    HW219575   3.006   3.140   0.915
 6226SOL     OW19576   5.573   2.205   4.632
 6226SOL    HW119577   5.586   2.176   4.727
 6226SOL    HW219578   5.522   2.135   4.583
 6227SOL     OW19579   3.856   5.284   6.567
 6227SOL    HW119580   3.787   5.226   6.523
 6227SOL    HW219581   3.933   5.295   6.505
 6228SOL     OW19582   0.168   2.876   2.501
 6228SOL    HW119583   0.089   2.835   2.455
 6228SOL    HW219584   0.250   2.823   2.480
 6229SOL     OW19585   0.887   2.910   2.417
 6229SOL    HW119586   0.969   2.853   2.413
 6229SOL    HW219587   0.891   2.979   2.344
 6230SOL     OW19588   1.094   1.055   4.158
 6230SOL    HW119589   1.054   1.054   4.250
 6230SOL    HW219590   1.129   0.965   4.135
 6231SOL     OW19591   6.835   4.659   1.774
 6231SOL    HW119592   6.764   4.590   1.758
 6231SOL    HW219593   6.895   4.664   1.694
 6232SOL     OW19594   6.306   1.624   0.929
 6232SOL    HW119595   6.261   1.698   0.978
 6232SOL    HW219596   6.238   1.557   0.900
 6233SOL     OW19597   5.567   0.750   7.012
 6233SOL    HW119598   5.553   0.839   0.027
 6233SOL    HW219599   5.516   0.680   0.036
 6234SOL     OW19600   6.928   1.134   5.822
 6234SOL    HW119601   6.870   1.198   5.773
 6234SOL    HW219602   7.022   1.141   5.787
 6235SOL     OW19603   1.385   0.150   2.053
 6235SOL    HW119604   1.366   0.098   1.969
 6235SOL    HW219605   1.410   0.086   2.126
 6236SOL     OW19606   0.815   4.988   0.212
 6236SOL    HW119607   0.841   4.893   0.195
 6236SOL    HW219608   0.749   5.018   0.144
 6237SOL     OW19609   3.333   6.267   0.332
 6237SOL    HW119610   3.323   6.169   0.314
 6237SOL    HW219611   3.428   6.286   0.357
 6238SOL     OW19612   4.296   4.809   3.161
 6238SOL    HW119613   4.370   4.797   3.095
 6238SOL    HW219614   4.212   4.831   3.113
 6239SOL     OW19615   2.850   6.655   1.561
 6239SOL    HW119616   2.865   6.709   1.643
 6239SOL    HW219617   2.784   6.582   1.580
 6240SOL     OW19618   3.046   2.270   0.061
 6240SOL    HW119619   3.115   2.198   0.071
 6240SOL    HW219620   3.042   2.324   0.144
 6241SOL     OW19621   2.334   0.760   2.402
 6241SOL    HW119622   2.300   0.718   2.486
 6241SOL    HW219623   2.392   0.695   2.353
 6242SOL     OW19624   5.390   0.692   3.368
 6242SOL    HW119625   5.379   0.596   3.391
 6242SOL    HW219626   5.441   0.739   3.440
 6243SOL     OW19627   5.122   6.637   3.507
 6243SOL    HW119628   5.044   6.638   3.570
 6243SOL    HW219629   5.156   6.544   3.498
 6244SOL     OW19630   1.835   2.210   2.212
 6244SOL    HW119631   1.873   2.279   2.150
 6244SOL    HW219632   1.836   2.245   2.306
 6245SOL     OW19633   2.445   4.799   1.324
 6245SOL    HW119634   2.529   4.787   1.376
 6245SOL    HW219635   2.382   4.857   1.375
 6246SOL     OW19636   2.508   3.138   6.420
 6246SOL    HW119637   2.552   3.183   6.497
 6246SOL    HW219638   2.412   3.120   6.441
 6247SOL     OW19639   0.690   6.220   3.426
 6247SOL    HW119640   0.659   6.184   3.338
 6247SOL    HW219641   0.693   6.320   3.422
 6248SOL     OW19642   2.451   3.889   0.956
 6248SOL    HW119643   2.365   3.839   0.956
 6248SOL    HW219644   2.502   3.869   1.039
 6249SOL     OW19645   0.399   4.691   0.477
 6249SOL    HW119646   0.312   4.664   0.519
 6249SOL    HW219647   0.382   4.761   0.408
 6250SOL     OW19648   6.329   5.976   0.389
 6250SOL    HW119649   6.278   5.943   0.468
 6250SOL    HW219650   6.334   5.904   0.320
 6251SOL     OW19651   3.662   6.624   7.019
 6251SOL    HW119652   3.629   6.681   6.944
 6251SOL    HW219653   3.746   6.664   0.030
 6252SOL     OW19654   1.704   6.897   4.727
 6252SOL    HW119655   1.685   6.961   4.652
 6252SOL    HW219656   1.618   6.862   4.763
 6253SOL     OW19657   2.134   3.984   2.584
 6253SOL    HW119658   2.167   3.985   2.490
 6253SOL    HW219659   2.098   3.894   2.607
 6254SOL     OW19660   5.431   1.044   0.671
 6254SOL    HW119661   5.336   1.049   0.639
 6254SOL    HW219662   5.479   1.128   0.646
 6255SOL     OW19663   2.024   0.860   1.273
 6255SOL    HW119664   2.042   0.902   1.362
 6255SOL    HW219665   1.952   0.792   1.283
 6256SOL     OW19666   3.212   5.488   2.968
 6256SOL    HW119667   3.288   5.512   2.908
 6256SOL    HW219668   3.229   5.399   3.009
 6257SOL     OW19669   5.668   2.288   1.069
 6257SOL    HW119670   5.645   2.332   1.156
 6257SOL    HW219671   5.618   2.331   0.995
 6258SOL     OW19672   4.466   0.394   3.815
 6258SOL    HW119673   4.563   0.374   3.831
 6258SOL    HW219674   4.411   0.345   3.882
 6259SOL     OW19675   2.842   2.142   0.809
 6259SOL    HW119676   2.894   2.165   0.892
 6259SOL    HW219677   2.904   2.114   0.737
 6260SOL     OW19678   2.270   4.322   6.897
 6260SOL    HW119679   2.264   4.277   6.986
 6260SOL    HW219680   2.215   4.272   6.830
 6261SOL     OW19681   2.908   0.266   6.331
 6261SOL    HW119682   2.938   0.171   6.319
 6261SOL    HW219683   2.965   0.310   6.401
 6262SOL     OW19684   1.489   4.197   1.322
 6262SOL    HW119685   1.528   4.158   1.239
 6262SOL    HW219686   1.560   4.247   1.372
 6263SOL     OW19687   0.254   0.395   5.875
 6263SOL    HW119688   0.160   0.420   5.852
 6263SOL    HW219689   0.289   0.456   5.945
 6264SOL     OW19690   1.658   6.860   1.141
 6264SOL    HW119691   1.747   6.869   1.096
 6264SOL    HW219692   1.657   6.777   1.197
 6265SOL     OW19693   3.249   3.886   1.002
 6265SOL    HW119694   3.336   3.920   0.964
 6265SOL    HW219695   3.249   3.900   1.101
 6266SOL     OW19696   4.504   0.531   4.568
 6266SOL    HW119697   4.421   0.477   4.580
 6266SOL    HW219698   4.504   0.607   4.634
 6267SOL     OW19699   3.309   0.351   0.258
 6267SOL    HW119700   3.301   0.398   0.170
 6267SOL    HW219701   3.220   0.352   0.304
 6268SOL     OW19702   2.945   6.467   2.828
 6268SOL    HW119703   3.009   6.540   2.804
 6268SOL    HW219704   2.862   6.475   2.772
 6269SOL     OW19705   6.571   5.720   2.432
 6269SOL    HW119706   6.635   5.678   2.496
 6269SOL    HW219707   6.537   5.806   2.472
 6270SOL     OW19708   1.678   0.254   4.708
 6270SOL    HW119709   1.722   0.322   4.649
 6270SOL    HW219710   1.602   0.297   4.756
 6271SOL     OW19711   6.057   2.219   5.468
 6271SOL    HW119712   6.138   2.274   5.448
 6271SOL    HW219713   6.057   2.195   5.565
 6272SOL     OW19714   1.144   2.629   5.700
 6272SOL    HW119715   1.134   2.623   5.800
 6272SOL    HW219716   1.237   2.656   5.677
 6273SOL     OW19717   1.962   0.194   2.339
 6273SOL    HW119718   1.949   0.281   2.292
 6273SOL    HW219719   2.013   0.210   2.424
 6274SOL     OW19720   2.593   5.680   5.873
 6274SOL    HW119721   2.610   5.664   5.776
 6274SOL    HW219722   2.510   5.631   5.900
 6275SOL     OW19723   2.029   6.617   4.969
 6275SOL    HW119724   2.026   6.548   4.897
 6275SOL    HW219725   1.971   6.695   4.944
 6276SOL     OW19726   1.658   5.256   3.982
 6276SOL    HW119727   1.608   5.272   4.068
 6276SOL    HW219728   1.641   5.163   3.951
 6277SOL     OW19729   5.564   3.172   2.059
 6277SOL    HW119730   5.480   3.147   2.010
 6277SOL    HW219731   5.566   3.272   2.071
 6278SOL     OW19732   4.735   0.356   4.693
 6278SOL    HW119733   4.815   0.414   4.677
 6278SOL    HW219734   4.661   0.383   4.632
 6279SOL     OW19735   3.620   1.128   6.513
 6279SOL    HW119736   3.678   1.135   6.594
 6279SOL    HW219737   3.609   1.032   6.488
 6280SOL     OW19738   0.338   1.938   6.076
 6280SOL    HW119739   0.268   1.932   6.148
 6280SOL    HW219740   0.352   2.034   6.051
 6281SOL     OW19741   1.740   5.723   4.911
 6281SOL    HW119742   1.793   5.802   4.879
 6281SOL    HW219743   1.677   5.752   4.983
 6282SOL     OW19744   0.935   0.452   4.862
 6282SOL    HW119745   0.939   0.478   4.766
 6282SOL    HW219746   0.969   0.527   4.918
 6283SOL     OW19747   6.343   3.136   5.139
 6283SOL    HW119748   6.324   3.123   5.237
 6283SOL    HW219749   6.410   3.068   5.109
 6284SOL     OW19750   1.952   5.604   5.061
 6284SOL    HW119751   1.994   5.690   5.089
 6284SOL    HW219752   1.883   5.623   4.991
 6285SOL     OW19753   1.437   2.768   3.543
 6285SOL    HW119754   1.485   2.838   3.595
 6285SOL    HW219755   1.339   2.786   3.544
 6286SOL     OW19756   6.265   2.046   3.815
 6286SOL    HW119757   6.173   2.015   3.791
 6286SOL    HW219758   6.262   2.094   3.902
 6287SOL     OW19759   4.071   4.930   3.062
 6287SOL    HW119760   4.004   4.892   2.997
 6287SOL    HW219761   4.139   4.983   3.011
 6288SOL     OW19762   5.623   4.583   2.475
 6288SOL    HW119763   5.568   4.629   2.544
 6288SOL    HW219764   5.638   4.645   2.397
 6289SOL     OW19765   1.337   4.367   2.840
 6289SOL    HW119766   1.338   4.451   2.786
 6289SOL    HW219767   1.373   4.386   2.932
 6290SOL     OW19768   6.180   3.734   4.480
 6290SOL    HW119769   6.267   3.715   4.524
 6290SOL    HW219770   6.133   3.807   4.529
 6291SOL     OW19771   3.631   3.146   3.588
 6291SOL    HW119772   3.630   3.057   3.545
 6291SOL    HW219773   3.701   3.148   3.659
 6292SOL     OW19774   0.860   2.567   3.789
 6292SOL    HW119775   0.934   2.538   3.849
 6292SOL    HW219776   0.829   2.490   3.733
 6293SOL     OW19777   4.431   0.104   6.807
 6293SOL    HW119778   4.359   0.139   6.747
 6293SOL    HW219779   4.501   0.058   6.752
 6294SOL     OW19780   3.488   4.943   4.048
 6294SOL    HW119781   3.465   5.020   4.108
 6294SOL    HW219782   3.559   4.887   4.092
 6295SOL     OW19783   5.126   5.033   5.281
 6295SOL    HW119784   5.093   4.945   5.245
 6295SOL    HW219785   5.156   5.091   5.205
 6296SOL     OW19786   6.707   6.319   4.661
 6296SOL    HW119787   6.649   6.305   4.741
 6296SOL    HW219788   6.793   6.271   4.674
 6297SOL     OW19789   4.963   6.999   5.107
 6297SOL    HW119790   5.022   6.986   5.187
 6297SOL    HW219791   4.953   6.912   5.059
 6298SOL     OW19792   1.650   2.395   6.024
 6298SOL    HW119793   1.589   2.346   5.961
 6298SOL    HW219794   1.605   2.479   6.055
 6299SOL     OW19795   4.810   1.642   0.590
 6299SOL    HW119796   4.862   1.619   0.508
 6299SOL    HW219797   4.871   1.685   0.657
 6300SOL     OW19798   5.219   0.989   4.992
 6300SOL    HW119799   5.210   0.895   4.959
 6300SOL    HW219800   5.241   0.988   5.089
 6301SOL     OW19801   2.606   0.898   1.412
 6301SOL    HW119802   2.683   0.835   1.420
 6301SOL    HW219803   2.631   0.988   1.448
 6302SOL     OW19804   1.340   1.783   4.031
 6302SOL    HW119805   1.416   1.725   4.001
 6302SOL    HW219806   1.315   1.846   3.957
 6303SOL     OW19807   2.239   0.938   4.554
 6303SOL    HW119808   2.211   0.942   4.650
 6303SOL    HW219809   2.306   1.010   4.536
 6304SOL     OW19810   2.089   1.101   0.761
 6304SOL    HW119811   2.098   1.159   0.842
 6304SOL    HW219812   2.051   1.154   0.685
 6305SOL     OW19813   6.503   6.984   0.634
 6305SOL    HW119814   6.530   6.922   0.708
 6305SOL    HW219815   6.544   0.047   0.649
 6306SOL     OW19816   1.144   4.188   4.483
 6306SOL    HW119817   1.130   4.197   4.384
 6306SOL    HW219818   1.198   4.106   4.502
 6307SOL     OW19819   4.070   4.007   5.591
 6307SOL    HW119820   4.134   4.017   5.667
 6307SOL    HW219821   4.026   4.095   5.573
 6308SOL     OW19822   1.441   2.023   5.022
 6308SOL    HW119823   1.409   2.057   5.111
 6308SOL    HW219824   1.541   2.020   5.021
 6309SOL     OW19825   4.902   3.874   4.275
 6309SOL    HW119826   4.880   3.971   4.286
 6309SOL    HW219827   4.871   3.843   4.185
 6310SOL     OW19828   2.128   5.504   3.931
 6310SOL    HW119829   2.139   5.577   3.998
 6310SOL    HW219830   2.186   5.524   3.852
 6311SOL     OW19831   5.567   0.588   5.705
 6311SOL    HW119832   5.628   0.652   5.658
 6311SOL    HW219833   5.610   0.558   5.790
 6312SOL     OW19834   5.688   5.103   5.566
 6312SOL    HW119835   5.770   5.159   5.556
 6312SOL    HW219836   5.680   5.042   5.487
 6313SOL     OW19837   1.595   5.915   3.055
 6313SOL    HW119838   1.642   5.996   3.022
 6313SOL    HW219839   1.518   5.943   3.113
 6314SOL     OW19840   4.223   6.423   1.545
 6314SOL    HW119841   4.272   6.414   1.631
 6314SOL    HW219842   4.248   6.510   1.501
 6315SOL     OW19843   3.853   2.928   6.690
 6315SOL    HW119844   3.855   2.983   6.606
 6315SOL    HW219845   3.895   2.980   6.765
 6316SOL     OW19846   4.721   2.041   6.293
 6316SOL    HW119847   4.677   2.082   6.373
 6316SOL    HW219848   4.725   1.942   6.303
 6317SOL     OW19849   5.274   5.398   3.420
 6317SOL    HW119850   5.225   5.349   3.348
 6317SOL    HW219851   5.346   5.340   3.456
 6318SOL     OW19852   3.052   1.936   4.783
 6318SOL    HW119853   3.031   2.016   4.727
 6318SOL    HW219854   3.134   1.953   4.837
 6319SOL     OW19855   0.005   2.422   3.202
 6319SOL    HW119856   7.023   2.337   3.255
 6319SOL    HW219857   0.098   2.429   3.166
 6320SOL     OW19858   6.177   4.641   4.749
 6320SOL    HW119859   6.133   4.722   4.788
 6320SOL    HW219860   6.254   4.615   4.807
 6321SOL     OW19861   3.241   4.919   0.852
 6321SOL    HW119862   3.340   4.925   0.862
 6321SOL    HW219863   3.197   4.949   0.936
 6322SOL     OW19864   1.603   2.500   6.582
 6322SOL    HW119865   1.582   2.437   6.507
 6322SOL    HW219866   1.648   2.449   6.656
 6323SOL     OW19867   3.840   2.879   1.031
 6323SOL    HW119868   3.767   2.915   1.090
 6323SOL    HW219869   3.818   2.785   1.005
 6324SOL     OW19870   4.667   0.361   5.950
 6324SOL    HW119871   4.731   0.385   6.023
 6324SOL    HW219872   4.577   0.345   5.989
 6325SOL     OW19873   1.111   2.194   2.022
 6325SOL    HW119874   1.129   2.099   2.045
 6325SOL    HW219875   1.133   2.209   1.925
 6326SOL     OW19876   4.840   6.444   1.721
 6326SOL    HW119877   4.747   6.477   1.737
 6326SOL    HW219878   4.843   6.345   1.733
 6327SOL     OW19879   0.035   0.508   5.340
 6327SOL    HW119880   6.974   0.556   5.336
 6327SOL    HW219881   0.043   0.459   5.427
 6328SOL     OW19882   1.687   3.785   0.429
 6328SOL    HW119883   1.739   3.857   0.474
 6328SOL    HW219884   1.732   3.697   0.442
 6329SOL     OW19885   2.288   2.852   3.501
 6329SOL    HW119886   2.258   2.812   3.415
 6329SOL    HW219887   2.367   2.802   3.536
 6330SOL     OW19888   4.747   0.808   1.524
 6330SOL    HW119889   4.813   0.827   1.596
 6330SOL    HW219890   4.755   0.713   1.495
 6331SOL     OW19891   5.886   2.152   0.394
 6331SOL    HW119892   5.796   2.196   0.404
 6331SOL    HW219893   5.936   2.158   0.480
 6332SOL     OW19894   6.990   3.923   2.293
 6332SOL    HW119895   7.006   4.020   2.310
 6332SOL    HW219896   0.043   3.870   2.322
 6333SOL     OW19897   4.126   4.951   4.095
 6333SOL    HW119898   4.167   4.875   4.146
 6333SOL    HW219899   4.040   4.921   4.054
 6334SOL     OW19900   2.217   0.393   2.303
 6334SOL    HW119901   2.166   0.444   2.234
 6334SOL    HW219902   2.301   0.443   2.326
 6335SOL     OW19903   4.689   1.472   0.821
 6335SOL    HW119904   4.712   1.524   0.739
 6335SOL    HW219905   4.593   1.484   0.842
 6336SOL     OW19906   6.869   1.377   6.013
 6336SOL    HW119907   6.917   1.292   5.991
 6336SOL    HW219908   6.896   1.448   5.947
 6337SOL     OW19909   4.675   4.035   6.375
 6337SOL    HW119910   4.705   4.104   6.440
 6337SOL    HW219911   4.752   4.007   6.318
 6338SOL     OW19912   2.754   2.091   2.677
 6338SOL    HW119913   2.786   2.120   2.588
 6338SOL    HW219914   2.736   1.993   2.676
 6339SOL     OW19915   0.294   3.209   3.747
 6339SOL    HW119916   0.365   3.141   3.731
 6339SOL    HW219917   0.297   3.277   3.673
 6340SOL     OW19918   2.038   4.914   3.063
 6340SOL    HW119919   2.101   4.837   3.054
 6340SOL    HW219920   2.029   4.939   3.159
 6341SOL     OW19921   0.684   5.079   3.523
 6341SOL    HW119922   0.590   5.088   3.492
 6341SOL    HW219923   0.703   4.984   3.545
 6342SOL     OW19924   2.613   1.513   1.651
 6342SOL    HW119925   2.580   1.578   1.583
 6342SOL    HW219926   2.695   1.467   1.615
 6343SOL     OW19927   5.178   2.554   6.179
 6343SOL    HW119928   5.240   2.487   6.219
 6343SOL    HW219929   5.205   2.646   6.207
 6344SOL     OW19930   5.897   3.501   5.666
 6344SOL    HW119931   5.888   3.565   5.590
 6344SOL    HW219932   5.991   3.503   5.701
 6345SOL     OW19933   4.479   1.476   2.255
 6345SOL    HW119934   4.476   1.465   2.354
 6345SOL    HW219935   4.551   1.542   2.231
 6346SOL     OW19936   6.947   3.377   3.562
 6346SOL    HW119937   6.989   3.452   3.509
 6346SOL    HW219938   6.942   3.296   3.504
 6347SOL     OW19939   2.214   0.705   1.141
 6347SOL    HW119940   2.307   0.714   1.177
 6347SOL    HW219941   2.157   0.779   1.176
 6348SOL     OW19942   1.239   4.012   5.101
 6348SOL    HW119943   1.173   4.075   5.143
 6348SOL    HW219944   1.191   3.930   5.070
 6349SOL     OW19945   3.297   0.333   1.602
 6349SOL    HW119946   3.299   0.411   1.665
 6349SOL    HW219947   3.351   0.356   1.521
 6350SOL     OW19948   2.638   4.616   4.012
 6350SOL    HW119949   2.545   4.583   4.000
 6350SOL    HW219950   2.642   4.679   4.090
 6351SOL     OW19951   6.678   3.183   2.366
 6351SOL    HW119952   6.651   3.249   2.436
 6351SOL    HW219953   6.767   3.144   2.389
 6352SOL     OW19954   2.283   5.168   4.541
 6352SOL    HW119955   2.377   5.135   4.531
 6352SOL    HW219956   2.220   5.091   4.538
 6353SOL     OW19957   6.427   0.439   6.379
 6353SOL    HW119958   6.493   0.437   6.304
 6353SOL    HW219959   6.335   0.456   6.343
 6354SOL     OW19960   1.360   0.334   2.512
 6354SOL    HW119961   1.378   0.239   2.537
 6354SOL    HW219962   1.438   0.370   2.461
 6355SOL     OW19963   1.494   4.700   5.602
 6355SOL    HW119964   1.452   4.789   5.586
 6355SOL    HW219965   1.464   4.636   5.531
 6356SOL     OW19966   4.109   4.759   2.502
 6356SOL    HW119967   4.194   4.713   2.529
 6356SOL    HW219968   4.088   4.831   2.568
 6357SOL     OW19969   4.765   2.607   2.135
 6357SOL    HW119970   4.816   2.540   2.189
 6357SOL    HW219971   4.772   2.697   2.179
 6358SOL     OW19972   0.702   2.183   6.026
 6358SOL    HW119973   0.741   2.194   5.935
 6358SOL    HW219974   0.757   2.117   6.078
 6359SOL     OW19975   5.801   6.910   5.751
 6359SOL    HW119976   5.749   6.995   5.750
 6359SOL    HW219977   5.738   6.832   5.752
 6360SOL     OW19978   2.197   3.946   4.104
 6360SOL    HW119979   2.227   3.968   4.011
 6360SOL    HW219980   2.230   4.017   4.167
 6361SOL     OW19981   6.111   0.140   0.198
 6361SOL    HW119982   6.029   0.192   0.176
 6361SOL    HW219983   6.112   0.054   0.147
 6362SOL     OW19984   5.928   5.461   6.152
 6362SOL    HW119985   5.953   5.513   6.234
 6362SOL    HW219986   6.001   5.396   6.130
 6363SOL     OW19987   2.504   4.968   2.957
 6363SOL    HW119988   2.445   4.992   3.034
 6363SOL    HW219989   2.513   4.869   2.952
 6364SOL     OW19990   3.554   1.344   5.876
 6364SOL    HW119991   3.553   1.261   5.821
 6364SOL    HW219992   3.627   1.404   5.846
 6365SOL     OW19993   4.979   6.887   4.382
 6365SOL    HW119994   5.060   6.910   4.328
 6365SOL    HW219995   4.939   6.971   4.419
 6366SOL     OW19996   0.436   5.808   6.268
 6366SOL    HW119997   0.405   5.902   6.281
 6366SOL    HW219998   0.524   5.795   6.313
 6367SOL     OW19999   3.993   0.461   4.059
 6367SOL    HW120000   4.092   0.470   4.061
 6367SOL    HW220001   3.967   0.385   4.000
 6368SOL     OW20002   3.509   0.309   3.456
 6368SOL    HW120003   3.491   0.391   3.511
 6368SOL    HW220004   3.551   0.239   3.514
 6369SOL     OW20005   2.516   5.272   4.711
 6369SOL    HW120006   2.427   5.281   4.754
 6369SOL    HW220007   2.588   5.296   4.776
 6370SOL     OW20008   1.506   3.036   2.362
 6370SOL    HW120009   1.580   3.101   2.344
 6370SOL    HW220010   1.439   3.040   2.288
 6371SOL     OW20011   4.882   3.254   4.123
 6371SOL    HW120012   4.837   3.168   4.098
 6371SOL    HW220013   4.889   3.261   4.222
 6372SOL     OW20014   3.352   6.943   1.972
 6372SOL    HW120015   3.391   6.990   1.893
 6372SOL    HW220016   3.420   6.938   2.045
 6373SOL     OW20017   6.126   3.782   3.986
 6373SOL    HW120018   6.075   3.769   4.071
 6373SOL    HW220019   6.223   3.772   4.004
 6374SOL     OW20020   3.892   3.992   4.009
 6374SOL    HW120021   3.944   3.996   4.094
 6374SOL    HW220022   3.955   3.970   3.934
 6375SOL     OW20023   0.300   1.692   4.001
 6375SOL    HW120024   0.376   1.756   4.013
 6375SOL    HW220025   0.335   1.598   4.000
 6376SOL     OW20026   6.550   2.569   5.672
 6376SOL    HW120027   6.630   2.510   5.666
 6376SOL    HW220028   6.502   2.551   5.758
 6377SOL     OW20029   6.322   1.658   5.662
 6377SOL    HW120030   6.231   1.661   5.703
 6377SOL    HW220031   6.391   1.646   5.734
 6378SOL     OW20032   5.050   4.887   3.589
 6378SOL    HW120033   4.975   4.871   3.525
 6378SOL    HW220034   5.050   4.984   3.616
 6379SOL     OW20035   2.366   4.512   4.412
 6379SOL    HW120036   2.402   4.441   4.473
 6379SOL    HW220037   2.350   4.595   4.465
 6380SOL     OW20038   0.239   1.441   5.690
 6380SOL    HW120039   0.173   1.489   5.631
 6380SOL    HW220040   0.331   1.471   5.668
 6381SOL     OW20041   3.736   3.343   2.500
 6381SOL    HW120042   3.680   3.288   2.561
 6381SOL    HW220043   3.805   3.286   2.456
 6382SOL     OW20044   1.120   2.900   0.313
 6382SOL    HW120045   1.094   2.803   0.307
 6382SOL    HW220046   1.191   2.911   0.383
 6383SOL     OW20047   2.367   2.404   2.918
 6383SOL    HW120048   2.429   2.421   2.841
 6383SOL    HW220049   2.389   2.467   2.992
 6384SOL     OW20050   5.788   4.390   1.164
 6384SOL    HW120051   5.844   4.401   1.246
 6384SOL    HW220052   5.697   4.428   1.181
 6385SOL     OW20053   6.797   4.709   4.362
 6385SOL    HW120054   6.838   4.631   4.315
 6385SOL    HW220055   6.815   4.792   4.311
 6386SOL     OW20056   2.532   3.955   6.634
 6386SOL    HW120057   2.442   3.913   6.647
 6386SOL    HW220058   2.554   3.957   6.536
 6387SOL     OW20059   0.815   1.823   6.795
 6387SOL    HW120060   0.805   1.736   6.747
 6387SOL    HW220061   0.883   1.813   6.867
 6388SOL     OW20062   4.385   4.543   1.967
 6388SOL    HW120063   4.445   4.463   1.963
 6388SOL    HW220064   4.368   4.567   2.062
 6389SOL     OW20065   0.663   6.038   2.260
 6389SOL    HW120066   0.704   5.947   2.262
 6389SOL    HW220067   0.631   6.058   2.168
 6390SOL     OW20068   1.340   2.600   4.541
 6390SOL    HW120069   1.307   2.645   4.623
 6390SOL    HW220070   1.376   2.510   4.564
 6391SOL     OW20071   3.087   0.063   6.029
 6391SOL    HW120072   3.059   7.012   5.973
 6391SOL    HW220073   3.027   0.069   6.109
 6392SOL     OW20074   2.368   6.766   3.396
 6392SOL    HW120075   2.329   6.805   3.313
 6392SOL    HW220076   2.384   6.668   3.383
 6393SOL     OW20077   6.134   6.381   1.365
 6393SOL    HW120078   6.152   6.336   1.277
 6393SOL    HW220079   6.067   6.328   1.417
 6394SOL     OW20080   2.604   3.975   1.403
 6394SOL    HW120081   2.630   4.052   1.461
 6394SOL    HW220082   2.561   3.904   1.459
 6395SOL     OW20083   5.687   2.773   1.288
 6395SOL    HW120084   5.726   2.685   1.261
 6395SOL    HW220085   5.760   2.839   1.302
 6396SOL     OW20086   5.270   2.866   6.762
 6396SOL    HW120087   5.281   2.799   6.835
 6396SOL    HW220088   5.189   2.922   6.780
 6397SOL     OW20089   5.955   1.990   6.923
 6397SOL    HW120090   5.977   2.010   7.019
 6397SOL    HW220091   5.893   2.060   6.888
 6398SOL     OW20092   3.215   0.966   0.648
 6398SOL    HW120093   3.248   1.046   0.598
 6398SOL    HW220094   3.231   0.883   0.594
 6399SOL     OW20095   1.866   4.959   6.383
 6399SOL    HW120096   1.823   5.049   6.376
 6399SOL    HW220097   1.929   4.946   6.307
 6400SOL     OW20098   1.934   5.615   3.219
 6400SOL    HW120099   2.030   5.622   3.190
 6400SOL    HW220100   1.875   5.644   3.145
 6401SOL     OW20101   6.512   4.410   3.657
 6401SOL    HW120102   6.598   4.390   3.702
 6401SOL    HW220103   6.512   4.370   3.565
 6402SOL     OW20104   3.090   0.781   3.024
 6402SOL    HW120105   3.146   0.698   3.030
 6402SOL    HW220106   3.149   0.861   3.024
 6403SOL     OW20107   0.480   6.195   6.384
 6403SOL    HW120108   0.576   6.211   6.360
 6403SOL    HW220109   0.468   6.099   6.410
 6404SOL     OW20110   4.083   1.397   2.764
 6404SOL    HW120111   4.004   1.448   2.798
 6404SOL    HW220112   4.103   1.321   2.825
 6405SOL     OW20113   2.002   1.121   3.498
 6405SOL    HW120114   1.975   1.202   3.448
 6405SOL    HW220115   1.989   1.136   3.596
 6406SOL     OW20116   1.949   2.178   3.574
 6406SOL    HW120117   2.020   2.190   3.505
 6406SOL    HW220118   1.886   2.256   3.571
 6407SOL     OW20119   3.250   6.836   2.922
 6407SOL    HW120120   3.189   6.792   2.987
 6407SOL    HW220121   3.343   6.839   2.959
 6408SOL     OW20122   6.280   2.429   7.012
 6408SOL    HW120123   6.373   2.403   6.983
 6408SOL    HW220124   6.280   2.525   0.012
 6409SOL     OW20125   0.057   4.100   3.036
 6409SOL    HW120126   7.024   4.160   2.983
 6409SOL    HW220127   0.146   4.144   3.049
 6410SOL     OW20128   1.743   1.451   0.100
 6410SOL    HW120129   1.677   1.526   0.086
 6410SOL    HW220130   1.706   1.388   0.168
 6411SOL     OW20131   0.635   3.005   3.178
 6411SOL    HW120132   0.566   2.999   3.105
 6411SOL    HW220133   0.723   3.031   3.139
 6412SOL     OW20134   0.309   2.779   5.399
 6412SOL    HW120135   0.364   2.718   5.456
 6412SOL    HW220136   0.214   2.746   5.397
 6413SOL     OW20137   5.015   5.034   3.139
 6413SOL    HW120138   5.016   4.945   3.092
 6413SOL    HW220139   5.040   5.106   3.075
 6414SOL     OW20140   6.057   0.585   2.079
 6414SOL    HW120141   6.056   0.499   2.130
 6414SOL    HW220142   6.146   0.596   2.034
 6415SOL     OW20143   2.609   2.169   2.913
 6415SOL    HW120144   2.617   2.143   2.816
 6415SOL    HW220145   2.592   2.267   2.920
 6416SOL     OW20146   0.743   0.719   5.630
 6416SOL    HW120147   0.687   0.663   5.691
 6416SOL    HW220148   0.766   0.805   5.675
 6417SOL     OW20149   0.127   4.470   2.500
 6417SOL    HW120150   0.074   4.435   2.577
 6417SOL    HW220151   0.193   4.401   2.471
 6418SOL     OW20152   5.876   4.739   2.404
 6418SOL    HW120153   5.808   4.750   2.476
 6418SOL    HW220154   5.954   4.688   2.439
 6419SOL     OW20155   2.796   5.081   2.555
 6419SOL    HW120156   2.713   5.038   2.522
 6419SOL    HW220157   2.786   5.103   2.652
 6420SOL     OW20158   3.375   3.546   5.660
 6420SOL    HW120159   3.381   3.447   5.670
 6420SOL    HW220160   3.434   3.576   5.585
 6421SOL     OW20161   6.080   1.722   2.210
 6421SOL    HW120162   6.082   1.625   2.186
 6421SOL    HW220163   5.990   1.744   2.249
 6422SOL     OW20164   6.828   0.189   3.880
 6422SOL    HW120165   6.791   0.098   3.863
 6422SOL    HW220166   6.820   0.211   3.978
 6423SOL     OW20167   4.600   4.508   2.489
 6423SOL    HW120168   4.549   4.470   2.412
 6423SOL    HW220169   4.594   4.445   2.567
 6424SOL     OW20170   6.607   5.421   5.906
 6424SOL    HW120171   6.589   5.332   5.864
 6424SOL    HW220172   6.702   5.422   5.940
 6425SOL     OW20173   6.538   5.749   3.732
 6425SOL    HW120174   6.498   5.807   3.803
 6425SOL    HW220175   6.505   5.655   3.743
 6426SOL     OW20176   0.640   4.368   3.511
 6426SOL    HW120177   0.595   4.382   3.599
 6426SOL    HW220178   0.719   4.308   3.522
 6427SOL     OW20179   1.912   3.377   6.670
 6427SOL    HW120180   1.848   3.373   6.746
 6427SOL    HW220181   1.863   3.401   6.586
 6428SOL     OW20182   6.289   3.414   0.642
 6428SOL    HW120183   6.326   3.498   0.682
 6428SOL    HW220184   6.227   3.371   0.708
 6429SOL     OW20185   0.612   1.505   5.052
 6429SOL    HW120186   0.705   1.480   5.026
 6429SOL    HW220187   0.614   1.560   5.136
 6430SOL     OW20188   4.958   1.157   2.141
 6430SOL    HW120189   4.913   1.100   2.209
 6430SOL    HW220190   4.950   1.253   2.167
 6431SOL     OW20191   5.758   0.124   3.057
 6431SOL    HW120192   5.791   0.039   3.016
 6431SOL    HW220193   5.672   0.107   3.104
 6432SOL     OW20194   3.893   3.916   0.177
 6432SOL    HW120195   3.973   3.972   0.154
 6432SOL    HW220196   3.864   3.937   0.270
 6433SOL     OW20197   3.695   4.287   0.883
 6433SOL    HW120198   3.675   4.286   0.785
 6433SOL    HW220199   3.647   4.212   0.928
 6434SOL     OW20200   1.862   4.000   0.547
 6434SOL    HW120201   1.919   4.009   0.465
 6434SOL    HW220202   1.835   4.091   0.579
 6435SOL     OW20203   4.089   5.296   0.320
 6435SOL    HW120204   4.138   5.241   0.253
 6435SOL    HW220205   4.011   5.340   0.277
 6436SOL     OW20206   2.155   3.125   4.005
 6436SOL    HW120207   2.158   3.212   3.956
 6436SOL    HW220208   2.069   3.078   3.986
 6437SOL     OW20209   1.521   1.049   0.692
 6437SOL    HW120210   1.447   0.991   0.656
 6437SOL    HW220211   1.520   1.046   0.792
 6438SOL     OW20212   0.369   4.347   5.874
 6438SOL    HW120213   0.348   4.443   5.894
 6438SOL    HW220214   0.323   4.288   5.940
 6439SOL     OW20215   0.088   6.890   1.651
 6439SOL    HW120216   0.107   6.899   1.748
 6439SOL    HW220217   7.026   6.932   1.630
 6440SOL     OW20218   2.032   1.454   1.991
 6440SOL    HW120219   2.062   1.532   2.046
 6440SOL    HW220220   1.992   1.385   2.051
 6441SOL     OW20221   0.889   0.089   2.642
 6441SOL    HW120222   0.796   0.059   2.660
 6441SOL    HW220223   0.913   0.069   2.547
 6442SOL     OW20224   1.796   1.519   3.521
 6442SOL    HW120225   1.880   1.492   3.567
 6442SOL    HW220226   1.791   1.475   3.431
 6443SOL     OW20227   3.750   2.597   6.932
 6443SOL    HW120228   3.670   2.652   6.955
 6443SOL    HW220229   3.763   2.526   7.001
 6444SOL     OW20230   1.201   2.632   3.733
 6444SOL    HW120231   1.207   2.533   3.723
 6444SOL    HW220232   1.274   2.664   3.794
 6445SOL     OW20233   4.808   2.777   5.715
 6445SOL    HW120234   4.797   2.876   5.728
 6445SOL    HW220235   4.765   2.729   5.791
 6446SOL     OW20236   0.829   1.226   6.237
 6446SOL    HW120237   0.911   1.265   6.196
 6446SOL    HW220238   0.765   1.299   6.260
 6447SOL     OW20239   0.058   5.776   2.295
 6447SOL    HW120240   7.012   5.832   2.255
 6447SOL    HW220241   0.106   5.829   2.365
 6448SOL     OW20242   5.560   4.763   2.274
 6448SOL    HW120243   5.530   4.714   2.192
 6448SOL    HW220244   5.481   4.795   2.325
 6449SOL     OW20245   3.691   4.536   1.200
 6449SOL    HW120246   3.777   4.569   1.239
 6449SOL    HW220247   3.621   4.607   1.210
 6450SOL     OW20248   0.104   3.544   1.548
 6450SOL    HW120249   0.076   3.523   1.454
 6450SOL    HW220250   0.188   3.597   1.547
 6451SOL     OW20251   2.602   6.518   4.869
 6451SOL    HW120252   2.606   6.428   4.826
 6451SOL    HW220253   2.518   6.565   4.842
 6452SOL     OW20254   3.463   6.153   5.545
 6452SOL    HW120255   3.537   6.099   5.503
 6452SOL    HW220256   3.386   6.093   5.566
 6453SOL     OW20257   1.990   6.065   6.855
 6453SOL    HW120258   1.941   6.152   6.859
 6453SOL    HW220259   2.008   6.041   6.760
 6454SOL     OW20260   3.007   1.113   3.725
 6454SOL    HW120261   3.071   1.184   3.695
 6454SOL    HW220262   2.913   1.145   3.713
 6455SOL     OW20263   0.785   2.394   4.171
 6455SOL    HW120264   0.796   2.493   4.157
 6455SOL    HW220265   0.874   2.350   4.169
 6456SOL     OW20266   1.701   0.355   3.557
 6456SOL    HW120267   1.609   0.353   3.595
 6456SOL    HW220268   1.741   0.446   3.571
 6457SOL     OW20269   5.253   1.104   1.177
 6457SOL    HW120270   5.258   1.042   1.256
 6457SOL    HW220271   5.199   1.184   1.201
 6458SOL     OW20272   0.977   0.128   3.440
 6458SOL    HW120273   0.974   0.228   3.435
 6458SOL    HW220274   0.891   0.093   3.477
 6459SOL     OW20275   5.747   5.618   0.875
 6459SOL    HW120276   5.739   5.651   0.781
 6459SOL    HW220277   5.789   5.690   0.932
 6460SOL     OW20278   4.448   4.962   5.972
 6460SOL    HW120279   4.536   4.998   6.004
 6460SOL    HW220280   4.384   4.957   6.049
 6461SOL     OW20281   3.023   5.063   5.181
 6461SOL    HW120282   3.047   4.983   5.126
 6461SOL    HW220283   3.105   5.116   5.201
 6462SOL     OW20284   2.328   2.864   5.352
 6462SOL    HW120285   2.374   2.893   5.268
 6462SOL    HW220286   2.397   2.839   5.421
 6463SOL     OW20287   1.671   3.790   6.339
 6463SOL    HW120288   1.631   3.881   6.326
 6463SOL    HW220289   1.636   3.750   6.424
 6464SOL     OW20290   0.863   4.888   5.250
 6464SOL    HW120291   0.804   4.951   5.200
 6464SOL    HW220292   0.887   4.928   5.338
 6465SOL     OW20293   6.623   2.606   3.737
 6465SOL    HW120294   6.629   2.611   3.638
 6465SOL    HW220295   6.628   2.699   3.776
 6466SOL     OW20296   0.166   1.534   6.255
 6466SOL    HW120297   0.250   1.492   6.221
 6466SOL    HW220298   0.099   1.463   6.276
 6467SOL     OW20299   3.017   1.116   6.970
 6467SOL    HW120300   3.037   1.025   7.007
 6467SOL    HW220301   2.924   1.143   6.996
 6468SOL     OW20302   3.984   6.284   1.565
 6468SOL    HW120303   3.896   6.332   1.567
 6468SOL    HW220304   4.055   6.346   1.533
 6469SOL     OW20305   4.919   0.517   5.391
 6469SOL    HW120306   4.899   0.542   5.297
 6469SOL    HW220307   4.882   0.587   5.453
 6470SOL     OW20308   6.086   5.008   6.217
 6470SOL    HW120309   6.035   4.922   6.210
 6470SOL    HW220310   6.060   5.068   6.141
 6471SOL     OW20311   6.764   5.614   5.725
 6471SOL    HW120312   6.733   5.690   5.668
 6471SOL    HW220313   6.777   5.533   5.669
 6472SOL     OW20314   0.294   4.744   1.066
 6472SOL    HW120315   0.329   4.666   1.117
 6472SOL    HW220316   0.305   4.827   1.120
 6473SOL     OW20317   2.081   1.879   4.977
 6473SOL    HW120318   2.147   1.818   5.020
 6473SOL    HW220319   2.069   1.853   4.881
 6474SOL     OW20320   1.588   3.229   5.718
 6474SOL    HW120321   1.665   3.166   5.710
 6474SOL    HW220322   1.594   3.299   5.647
 6475SOL     OW20323   6.635   5.180   4.805
 6475SOL    HW120324   6.556   5.231   4.841
 6475SOL    HW220325   6.689   5.240   4.746
 6476SOL     OW20326   4.723   3.717   1.762
 6476SOL    HW120327   4.801   3.766   1.800
 6476SOL    HW220328   4.663   3.781   1.714
 6477SOL     OW20329   0.198   4.992   1.212
 6477SOL    HW120330   0.287   5.026   1.243
 6477SOL    HW220331   0.131   5.066   1.214
 6478SOL     OW20332   3.541   6.143   2.349
 6478SOL    HW120333   3.522   6.224   2.405
 6478SOL    HW220334   3.476   6.141   2.273
 6479SOL     OW20335   3.800   5.492   2.967
 6479SOL    HW120336   3.769   5.458   2.878
 6479SOL    HW220337   3.729   5.550   3.007
 6480SOL     OW20338   3.428   2.947   5.509
 6480SOL    HW120339   3.445   2.870   5.571
 6480SOL    HW220340   3.347   2.929   5.454
 6481SOL     OW20341   3.334   2.063   1.716
 6481SOL    HW120342   3.315   2.044   1.619
 6481SOL    HW220343   3.253   2.043   1.770
 6482SOL     OW20344   0.203   0.998   6.205
 6482SOL    HW120345   0.146   0.916   6.208
 6482SOL    HW220346   0.189   1.053   6.287
 6483SOL     OW20347   2.712   5.553   1.527
 6483SOL    HW120348   2.687   5.457   1.541
 6483SOL    HW220349   2.657   5.592   1.453
 6484SOL     OW20350   3.718   0.343   2.963
 6484SOL    HW120351   3.754   0.433   2.986
 6484SOL    HW220352   3.756   0.275   3.026
 6485SOL     OW20353   2.002   3.541   3.708
 6485SOL    HW120354   1.904   3.526   3.695
 6485SOL    HW220355   2.037   3.476   3.775
 6486SOL     OW20356   1.464   4.567   4.241
 6486SOL    HW120357   1.427   4.657   4.217
 6486SOL    HW220358   1.554   4.578   4.284
 6487SOL     OW20359   6.490   5.652   4.876
 6487SOL    HW120360   6.486   5.619   4.971
 6487SOL    HW220361   6.542   5.737   4.873
 6488SOL     OW20362   2.677   5.843   4.921
 6488SOL    HW120363   2.723   5.931   4.907
 6488SOL    HW220364   2.676   5.821   5.019
 6489SOL     OW20365   2.206   3.482   6.734
 6489SOL    HW120366   2.303   3.486   6.759
 6489SOL    HW220367   2.196   3.446   6.642
 6490SOL     OW20368   4.456   2.765   6.717
 6490SOL    HW120369   4.361   2.741   6.736
 6490SOL    HW220370   4.516   2.701   6.763
 6491SOL     OW20371   4.096   1.337   6.696
 6491SOL    HW120372   4.078   1.345   6.794
 6491SOL    HW220373   4.173   1.396   6.671
 6492SOL     OW20374   5.817   6.066   6.879
 6492SOL    HW120375   5.735   6.107   6.919
 6492SOL    HW220376   5.898   6.117   6.910
 6493SOL     OW20377   1.386   6.131   5.351
 6493SOL    HW120378   1.350   6.187   5.426
 6493SOL    HW220379   1.483   6.150   5.339
 6494SOL     OW20380   0.130   1.263   3.262
 6494SOL    HW120381   0.159   1.178   3.217
 6494SOL    HW220382   0.165   1.264   3.356
 6495SOL     OW20383   4.794   6.028   4.707
 6495SOL    HW120384   4.784   5.982   4.618
 6495SOL    HW220385   4.711   6.016   4.760
 6496SOL     OW20386   0.212   6.214   2.279
 6496SOL    HW120387   0.159   6.290   2.314
 6496SOL    HW220388   0.180   6.189   2.188
 6497SOL     OW20389   2.402   3.274   0.128
 6497SOL    HW120390   2.414   3.358   0.181
 6497SOL    HW220391   2.406   3.195   0.189
 6498SOL     OW20392   2.581   4.676   4.304
 6498SOL    HW120393   2.636   4.694   4.385
 6498SOL    HW220394   2.524   4.596   4.319
 6499SOL     OW20395   5.922   1.524   5.013
 6499SOL    HW120396   5.870   1.440   5.032
 6499SOL    HW220397   5.886   1.599   5.069
 6500SOL     OW20398   0.423   4.876   3.900
 6500SOL    HW120399   0.376   4.954   3.941
 6500SOL    HW220400   0.380   4.854   3.813
 6501SOL     OW20401   0.110   2.660   0.507
 6501SOL    HW120402   0.203   2.686   0.481
 6501SOL    HW220403   0.107   2.641   0.605
 6502SOL     OW20404   6.842   3.908   3.393
 6502SOL    HW120405   6.845   3.922   3.294
 6502SOL    HW220406   6.771   3.841   3.415
 6503SOL     OW20407   5.278   6.925   3.894
 6503SOL    HW120408   5.188   6.924   3.938
 6503SOL    HW220409   5.306   6.831   3.875
 6504SOL     OW20410   4.544   6.276   6.198
 6504SOL    HW120411   4.474   6.268   6.126
 6504SOL    HW220412   4.631   6.241   6.164
 6505SOL     OW20413   5.677   4.577   1.829
 6505SOL    HW120414   5.740   4.506   1.861
 6505SOL    HW220415   5.724   4.637   1.764
 6506SOL     OW20416   0.729   3.070   0.887
 6506SOL    HW120417   0.788   3.129   0.831
 6506SOL    HW220418   0.662   3.025   0.828
 6507SOL     OW20419   1.872   5.838   6.635
 6507SOL    HW120420   1.814   5.774   6.585
 6507SOL    HW220421   1.939   5.787   6.689
 6508SOL     OW20422   2.203   1.953   3.851
 6508SOL    HW120423   2.262   2.033   3.868
 6508SOL    HW220424   2.219   1.919   3.759
 6509SOL     OW20425   2.205   2.504   4.636
 6509SOL    HW120426   2.130   2.548   4.686
 6509SOL    HW220427   2.292   2.542   4.667
 6510SOL     OW20428   0.618   4.975   6.656
 6510SOL    HW120429   0.609   5.073   6.674
 6510SOL    HW220430   0.572   4.953   6.570
 6511SOL     OW20431   5.328   0.707   4.647
 6511SOL    HW120432   5.314   0.615   4.612
 6511SOL    HW220433   5.246   0.738   4.696
 6512SOL     OW20434   5.062   0.341   2.790
 6512SOL    HW120435   4.996   0.323   2.863
 6512SOL    HW220436   5.129   0.267   2.787
 6513SOL     OW20437   3.463   6.201   3.343
 6513SOL    HW120438   3.484   6.247   3.256
 6513SOL    HW220439   3.373   6.231   3.376
 6514SOL     OW20440   5.623   0.473   3.092
 6514SOL    HW120441   5.687   0.487   3.016
 6514SOL    HW220442   5.649   0.391   3.144
 6515SOL     OW20443   0.065   5.307   3.869
 6515SOL    HW120444   0.068   5.389   3.813
 6515SOL    HW220445   7.016   5.313   3.934
 6516SOL     OW20446   0.170   2.159   0.355
 6516SOL    HW120447   0.139   2.250   0.328
 6516SOL    HW220448   0.236   2.167   0.430
 6517SOL     OW20449   5.619   1.245   0.622
 6517SOL    HW120450   5.658   1.328   0.583
 6517SOL    HW220451   5.619   1.251   0.722
 6518SOL     OW20452   0.582   6.088   6.748
 6518SOL    HW120453   0.670   6.111   6.789
 6518SOL    HW220454   0.510   6.093   6.817
 6519SOL     OW20455   2.265   1.816   3.619
 6519SOL    HW120456   2.335   1.750   3.645
 6519SOL    HW220457   2.263   1.826   3.520
 6520SOL     OW20458   6.783   5.799   3.139
 6520SOL    HW120459   6.790   5.707   3.178
 6520SOL    HW220460   6.824   5.799   3.048
 6521SOL     OW20461   1.076   1.513   4.439
 6521SOL    HW120462   1.096   1.553   4.529
 6521SOL    HW220463   1.003   1.445   4.448
 6522SOL     OW20464   3.039   4.465   6.901
 6522SOL    HW120465   3.054   4.417   6.815
 6522SOL    HW220466   2.943   4.457   6.927
 6523SOL     OW20467   3.176   1.353   6.344
 6523SOL    HW120468   3.116   1.292   6.395
 6523SOL    HW220469   3.253   1.380   6.402
 6524SOL     OW20470   3.616   2.997   3.323
 6524SOL    HW120471   3.541   2.932   3.335
 6524SOL    HW220472   3.700   2.958   3.361
 6525SOL     OW20473   2.108   3.098   2.681
 6525SOL    HW120474   2.028   3.144   2.643
 6525SOL    HW220475   2.162   3.059   2.606
 6526SOL     OW20476   0.698   6.242   4.679
 6526SOL    HW120477   0.636   6.283   4.612
 6526SOL    HW220478   0.772   6.195   4.632
 6527SOL     OW20479   0.289   1.592   4.278
 6527SOL    HW120480   0.359   1.641   4.330
 6527SOL    HW220481   0.269   1.642   4.193
 6528SOL     OW20482   6.880   0.612   3.905
 6528SOL    HW120483   6.935   0.665   3.840
 6528SOL    HW220484   6.941   0.567   3.971
 6529SOL     OW20485   6.000   1.662   3.724
 6529SOL    HW120486   6.091   1.629   3.748
 6529SOL    HW220487   5.952   1.593   3.670
 6530SOL     OW20488   6.825   4.027   0.955
 6530SOL    HW120489   6.867   4.004   1.043
 6530SOL    HW220490   6.883   4.093   0.907
 6531SOL     OW20491   5.421   3.498   4.258
 6531SOL    HW120492   5.329   3.465   4.241
 6531SOL    HW220493   5.429   3.525   4.354
 6532SOL     OW20494   5.536   1.179   1.131
 6532SOL    HW120495   5.458   1.122   1.158
 6532SOL    HW220496   5.540   1.260   1.190
 6533SOL     OW20497   5.378   5.840   1.619
 6533SOL    HW120498   5.476   5.840   1.597
 6533SOL    HW220499   5.345   5.746   1.619
 6534SOL     OW20500   2.897   4.485   1.577
 6534SOL    HW120501   2.973   4.537   1.615
 6534SOL    HW220502   2.932   4.401   1.535
 6535SOL     OW20503   0.500   3.426   4.403
 6535SOL    HW120504   0.589   3.380   4.394
 6535SOL    HW220505   0.498   3.507   4.343
 6536SOL     OW20506   6.744   2.167   5.994
 6536SOL    HW120507   6.825   2.177   5.937
 6536SOL    HW220508   6.666   2.142   5.937
 6537SOL     OW20509   6.085   5.924   6.794
 6537SOL    HW120510   6.091   5.955   6.699
 6537SOL    HW220511   6.069   6.003   6.854
 6538SOL     OW20512   3.600   4.029   0.201
 6538SOL    HW120513   3.699   4.017   0.191
 6538SOL    HW220514   3.581   4.073   0.289
 6539SOL     OW20515   2.661   1.556   6.268
 6539SOL    HW120516   2.619   1.595   6.186
 6539SOL    HW220517   2.686   1.461   6.251
 6540SOL     OW20518   4.438   1.957   4.925
 6540SOL    HW120519   4.442   2.045   4.972
 6540SOL    HW220520   4.528   1.914   4.927
 6541SOL     OW20521   3.754   2.071   4.537
 6541SOL    HW120522   3.828   2.113   4.591
 6541SOL    HW220523   3.782   1.980   4.508
 6542SOL     OW20524   0.313   4.709   3.251
 6542SOL    HW120525   0.219   4.740   3.260
 6542SOL    HW220526   0.346   4.674   3.339
 6543SOL     OW20527   6.259   4.118   0.339
 6543SOL    HW120528   6.220   4.207   0.316
 6543SOL    HW220529   6.211   4.046   0.289
 6544SOL     OW20530   0.527   5.870   3.590
 6544SOL    HW120531   0.616   5.908   3.613
 6544SOL    HW220532   0.484   5.926   3.519
 6545SOL     OW20533   4.997   2.029   6.286
 6545SOL    HW120534   4.897   2.021   6.278
 6545SOL    HW220535   5.023   2.126   6.280
 6546SOL     OW20536   4.471   4.542   6.439
 6546SOL    HW120537   4.533   4.570   6.513
 6546SOL    HW220538   4.522   4.489   6.372
 6547SOL     OW20539   4.057   1.604   5.610
 6547SOL    HW120540   4.081   1.569   5.520
 6547SOL    HW220541   3.971   1.656   5.604
 6548SOL     OW20542   0.686   4.010   0.024
 6548SOL    HW120543   0.587   3.999   0.013
 6548SOL    HW220544   0.733   3.977   6.969
 6549SOL     OW20545   3.603   1.200   0.776
 6549SOL    HW120546   3.599   1.109   0.817
 6549SOL    HW220547   3.653   1.196   0.690
 6550SOL     OW20548   6.972   6.092   3.217
 6550SOL    HW120549   6.943   6.139   3.301
 6550SOL    HW220550   6.997   5.997   3.239
 6551SOL     OW20551   1.913   4.104   2.249
 6551SOL    HW120552   1.873   4.181   2.299
 6551SOL    HW220553   1.874   4.098   2.158
 6552SOL     OW20554   2.521   6.798   4.691
 6552SOL    HW120555   2.450   6.800   4.621
 6552SOL    HW220556   2.512   6.876   4.751
 6553SOL     OW20557   0.001   2.237   1.694
 6553SOL    HW120558   0.092   2.269   1.722
 6553SOL    HW220559   6.966   2.242   1.772
 6554SOL     OW20560   5.797   1.965   6.000
 6554SOL    HW120561   5.776   1.892   5.935
 6554SOL    HW220562   5.826   1.926   6.087
 6555SOL     OW20563   1.877   1.229   2.077
 6555SOL    HW120564   1.939   1.187   2.144
 6555SOL    HW220565   1.788   1.184   2.082
 6556SOL     OW20566   4.684   4.420   5.034
 6556SOL    HW120567   4.673   4.327   4.999
 6556SOL    HW220568   4.745   4.472   4.974
 6557SOL     OW20569   5.234   5.498   1.409
 6557SOL    HW120570   5.138   5.524   1.397
 6557SOL    HW220571   5.275   5.555   1.481
 6558SOL     OW20572   6.025   5.962   1.329
 6558SOL    HW120573   6.018   6.025   1.407
 6558SOL    HW220574   6.037   5.868   1.363
 6559SOL     OW20575   6.377   4.251   0.600
 6559SOL    HW120576   6.464   4.263   0.554
 6559SOL    HW220577   6.316   4.195   0.543
 6560SOL     OW20578   3.687   2.849   2.076
 6560SOL    HW120579   3.682   2.905   2.159
 6560SOL    HW220580   3.743   2.768   2.095
 6561SOL     OW20581   3.632   3.651   2.399
 6561SOL    HW120582   3.649   3.555   2.375
 6561SOL    HW220583   3.560   3.656   2.468
 6562SOL     OW20584   6.085   4.827   6.738
 6562SOL    HW120585   6.035   4.888   6.676
 6562SOL    HW220586   6.104   4.740   6.691
 6563SOL     OW20587   0.681   6.470   6.880
 6563SOL    HW120588   0.704   6.427   6.793
 6563SOL    HW220589   0.679   6.569   6.868
 6564SOL     OW20590   0.505   3.745   2.083
 6564SOL    HW120591   0.446   3.718   2.159
 6564SOL    HW220592   0.584   3.796   2.119
 6565SOL     OW20593   6.531   2.002   4.506
 6565SOL    HW120594   6.432   1.988   4.496
 6565SOL    HW220595   6.580   1.928   4.461
 6566SOL     OW20596   3.615   6.805   1.594
 6566SOL    HW120597   3.527   6.832   1.634
 6566SOL    HW220598   3.601   6.727   1.533
 6567SOL     OW20599   4.143   2.025   1.521
 6567SOL    HW120600   4.051   1.986   1.513
 6567SOL    HW220601   4.137   2.125   1.516
 6568SOL     OW20602   5.017   4.969   2.342
 6568SOL    HW120603   4.934   4.931   2.302
 6568SOL    HW220604   5.012   5.069   2.342
 6569SOL     OW20605   3.203   4.480   1.415
 6569SOL    HW120606   3.256   4.506   1.496
 6569SOL    HW220607   3.124   4.541   1.407
 6570SOL     OW20608   4.912   6.642   1.145
 6570SOL    HW120609   4.930   6.587   1.227
 6570SOL    HW220610   4.936   6.738   1.164
 6571SOL     OW20611   2.287   6.676   2.443
 6571SOL    HW120612   2.321   6.604   2.503
 6571SOL    HW220613   2.200   6.711   2.479
 6572SOL     OW20614   6.233   4.712   5.303
 6572SOL    HW120615   6.216   4.748   5.211
 6572SOL    HW220616   6.310   4.648   5.300
 6573SOL     OW20617   3.115   1.951   3.106
 6573SOL    HW120618   3.168   1.890   3.048
 6573SOL    HW220619   3.018   1.944   3.082
 6574SOL     OW20620   2.854   5.976   2.320
 6574SOL    HW120621   2.759   5.945   2.322
 6574SOL    HW220622   2.887   5.975   2.225
 6575SOL     OW20623   0.748   1.458   1.750
 6575SOL    HW120624   0.716   1.420   1.663
 6575SOL    HW220625   0.843   1.430   1.766
 6576SOL     OW20626   1.584   6.229   6.551
 6576SOL    HW120627   1.548   6.173   6.476
 6576SOL    HW220628   1.642   6.173   6.610
 6577SOL     OW20629   0.923   1.524   3.257
 6577SOL    HW120630   0.942   1.597   3.323
 6577SOL    HW220631   0.824   1.509   3.253
 6578SOL     OW20632   0.223   5.081   2.881
 6578SOL    HW120633   0.155   5.057   2.950
 6578SOL    HW220634   0.269   5.165   2.908
 6579SOL     OW20635   0.106   4.216   4.351
 6579SOL    HW120636   0.117   4.266   4.437
 6579SOL    HW220637   0.143   4.123   4.361
 6580SOL     OW20638   5.918   1.304   1.513
 6580SOL    HW120639   5.913   1.225   1.452
 6580SOL    HW220640   5.993   1.293   1.578
 6581SOL     OW20641   3.767   0.849   6.211
 6581SOL    HW120642   3.810   0.926   6.258
 6581SOL    HW220643   3.705   0.884   6.141
 6582SOL     OW20644   1.511   0.510   1.899
 6582SOL    HW120645   1.499   0.457   1.983
 6582SOL    HW220646   1.602   0.493   1.862
 6583SOL     OW20647   4.162   0.788   5.883
 6583SOL    HW120648   4.135   0.768   5.789
 6583SOL    HW220649   4.211   0.875   5.886
 6584SOL     OW20650   5.303   1.466   0.258
 6584SOL    HW120651   5.324   1.502   0.168
 6584SOL    HW220652   5.216   1.416   0.255
 6585SOL     OW20653   6.182   1.133   0.299
 6585SOL    HW120654   6.248   1.197   0.260
 6585SOL    HW220655   6.118   1.104   0.227
 6586SOL     OW20656   5.730   2.391   6.312
 6586SOL    HW120657   5.766   2.452   6.241
 6586SOL    HW220658   5.693   2.309   6.269
 6587SOL     OW20659   3.050   5.839   4.006
 6587SOL    HW120660   3.087   5.761   3.956
 6587SOL    HW220661   3.083   5.924   3.966
 6588SOL     OW20662   2.260   4.227   1.355
 6588SOL    HW120663   2.257   4.127   1.346
 6588SOL    HW220664   2.176   4.266   1.317
 6589SOL     OW20665   4.151   0.517   6.707
 6589SOL    HW120666   4.212   0.595   6.712
 6589SOL    HW220667   4.161   0.472   6.618
 6590SOL     OW20668   0.704   1.558   5.858
 6590SOL    HW120669   0.786   1.589   5.810
 6590SOL    HW220670   0.697   1.606   5.946
 6591SOL     OW20671   5.777   6.247   2.339
 6591SOL    HW120672   5.749   6.214   2.429
 6591SOL    HW220673   5.716   6.322   2.311
 6592SOL     OW20674   5.055   6.916   4.076
 6592SOL    HW120675   4.963   6.907   4.113
 6592SOL    HW220676   5.107   6.981   4.132
 6593SOL     OW20677   2.486   2.652   3.643
 6593SOL    HW120678   2.509   2.555   3.643
 6593SOL    HW220679   2.454   2.679   3.734
 6594SOL     OW20680   3.959   1.126   0.666
 6594SOL    HW120681   3.902   1.165   0.594
 6594SOL    HW220682   3.900   1.096   0.742
 6595SOL     OW20683   0.388   3.998   1.025
 6595SOL    HW120684   0.385   3.972   0.928
 6595SOL    HW220685   0.474   3.966   1.065
 6596SOL     OW20686   4.068   0.258   4.906
 6596SOL    HW120687   4.092   0.161   4.918
 6596SOL    HW220688   4.117   0.295   4.828
 6597SOL     OW20689   1.384   6.050   3.205
 6597SOL    HW120690   1.386   6.029   3.303
 6597SOL    HW220691   1.394   6.149   3.193
 6598SOL     OW20692   1.637   6.202   5.329
 6598SOL    HW120693   1.640   6.286   5.275
 6598SOL    HW220694   1.666   6.125   5.273
 6599SOL     OW20695   4.082   5.351   5.548
 6599SOL    HW120696   4.170   5.360   5.594
 6599SOL    HW220697   4.077   5.262   5.502
 6600SOL     OW20698   5.201   5.328   5.487
 6600SOL    HW120699   5.210   5.301   5.583
 6600SOL    HW220700   5.222   5.425   5.477
 6601SOL     OW20701   1.082   0.557   0.749
 6601SOL    HW120702   1.031   0.603   0.822
 6601SOL    HW220703   1.141   0.487   0.788
 6602SOL     OW20704   6.571   1.766   1.728
 6602SOL    HW120705   6.534   1.812   1.808
 6602SOL    HW220706   6.651   1.712   1.755
 6603SOL     OW20707   1.189   2.896   4.049
 6603SOL    HW120708   1.285   2.913   4.067
 6603SOL    HW220709   1.151   2.839   4.122
 6604SOL     OW20710   2.965   6.275   1.372
 6604SOL    HW120711   3.031   6.210   1.408
 6604SOL    HW220712   2.988   6.367   1.404
 6605SOL     OW20713   4.990   4.842   0.910
 6605SOL    HW120714   4.897   4.808   0.926
 6605SOL    HW220715   5.029   4.872   0.997
 6606SOL     OW20716   4.794   6.664   2.104
 6606SOL    HW120717   4.707   6.627   2.135
 6606SOL    HW220718   4.816   6.746   2.156
 6607SOL     OW20719   2.153   1.588   1.593
 6607SOL    HW120720   2.228   1.527   1.617
 6607SOL    HW220721   2.106   1.619   1.675
 6608SOL     OW20722   5.272   4.920   2.302
 6608SOL    HW120723   5.304   4.968   2.221
 6608SOL    HW220724   5.175   4.939   2.316
 6609SOL     OW20725   4.772   0.875   6.332
 6609SOL    HW120726   4.751   0.966   6.296
 6609SOL    HW220727   4.731   0.865   6.423
 6610SOL     OW20728   2.373   0.229   6.506
 6610SOL    HW120729   2.361   0.311   6.562
 6610SOL    HW220730   2.462   0.234   6.461
 6611SOL     OW20731   6.691   2.441   2.868
 6611SOL    HW120732   6.690   2.505   2.791
 6611SOL    HW220733   6.728   2.353   2.838
 6612SOL     OW20734   0.375   3.764   0.172
 6612SOL    HW120735   0.473   3.755   0.191
 6612SOL    HW220736   0.334   3.674   0.169
 6613SOL     OW20737   5.730   6.107   3.574
 6613SOL    HW120738   5.681   6.123   3.659
 6613SOL    HW220739   5.778   6.020   3.579
 6614SOL     OW20740   4.673   6.479   6.581
 6614SOL    HW120741   4.623   6.542   6.522
 6614SOL    HW220742   4.633   6.480   6.673
 6615SOL     OW20743   0.794   4.014   4.534
 6615SOL    HW120744   0.793   4.114   4.525
 6615SOL    HW220745   0.865   3.987   4.598
 6616SOL     OW20746   4.235   1.023   5.953
 6616SOL    HW120747   4.235   1.061   6.045
 6616SOL    HW220748   4.183   1.083   5.892
 6617SOL     OW20749   3.216   6.240   3.034
 6617SOL    HW120750   3.183   6.146   3.043
 6617SOL    HW220751   3.140   6.299   3.004
 6618SOL     OW20752   0.679   3.408   2.940
 6618SOL    HW120753   0.695   3.352   3.021
 6618SOL    HW220754   0.758   3.466   2.923
 6619SOL     OW20755   6.379   6.773   4.745
 6619SOL    HW120756   6.294   6.784   4.694
 6619SOL    HW220757   6.367   6.705   4.816
 6620SOL     OW20758   1.906   2.666   5.512
 6620SOL    HW120759   1.904   2.759   5.548
 6620SOL    HW220760   2.001   2.639   5.494
 6621SOL     OW20761   2.711   3.505   0.368
 6621SOL    HW120762   2.662   3.503   0.281
 6621SOL    HW220763   2.704   3.596   0.408
 6622SOL     OW20764   6.073   6.061   1.835
 6622SOL    HW120765   6.042   6.018   1.921
 6622SOL    HW220766   6.162   6.022   1.809
 6623SOL     OW20767   3.009   3.050   1.697
 6623SOL    HW120768   3.042   3.049   1.602
 6623SOL    HW220769   3.047   2.971   1.746
 6624SOL     OW20770   2.630   0.049   4.166
 6624SOL    HW120771   2.653   0.051   4.264
 6624SOL    HW220772   2.642   6.984   4.130
 6625SOL     OW20773   5.411   2.225   6.429
 6625SOL    HW120774   5.452   2.137   6.405
 6625SOL    HW220775   5.327   2.209   6.482
 6626SOL     OW20776   3.545   4.924   3.697
 6626SOL    HW120777   3.593   4.936   3.784
 6626SOL    HW220778   3.606   4.880   3.631
 6627SOL     OW20779   2.094   0.837   5.713
 6627SOL    HW120780   2.132   0.751   5.678
 6627SOL    HW220781   1.998   0.844   5.688
 6628SOL     OW20782   4.921   5.512   3.420
 6628SOL    HW120783   4.872   5.531   3.506
 6628SOL    HW220784   4.944   5.414   3.417
 6629SOL     OW20785   2.917   6.285   0.502
 6629SOL    HW120786   2.975   6.249   0.574
 6629SOL    HW220787   2.826   6.306   0.540
 6630SOL     OW20788   3.369   1.962   0.999
 6630SOL    HW120789   3.363   1.926   1.092
 6630SOL    HW220790   3.463   1.954   0.966
 6631SOL     OW20791   4.614   0.237   2.398
 6631SOL    HW120792   4.679   0.178   2.350
 6631SOL    HW220793   4.526   0.234   2.352
 6632SOL     OW20794   6.728   0.998   1.767
 6632SOL    HW120795   6.707   1.091   1.736
 6632SOL    HW220796   6.765   1.002   1.860
 6633SOL     OW20797   1.777   5.392   5.924
 6633SOL    HW120798   1.759   5.444   5.841
 6633SOL    HW220799   1.707   5.412   5.992
 6634SOL     OW20800   5.614   3.421   5.775
 6634SOL    HW120801   5.585   3.404   5.681
 6634SOL    HW220802   5.706   3.458   5.776
 6635SOL     OW20803   4.221   5.189   3.143
 6635SOL    HW120804   4.276   5.163   3.063
 6635SOL    HW220805   4.157   5.262   3.116
 6636SOL     OW20806   2.533   2.421   5.896
 6636SOL    HW120807   2.434   2.418   5.887
 6636SOL    HW220808   2.563   2.349   5.959
 6637SOL     OW20809   1.571   0.416   6.726
 6637SOL    HW120810   1.636   0.425   6.802
 6637SOL    HW220811   1.529   0.325   6.729
 6638SOL     OW20812   4.165   4.718   5.226
 6638SOL    HW120813   4.242   4.752   5.280
 6638SOL    HW220814   4.187   4.628   5.189
 6639SOL     OW20815   5.702   6.360   6.325
 6639SOL    HW120816   5.737   6.399   6.240
 6639SOL    HW220817   5.779   6.337   6.385
 6640SOL     OW20818   0.034   1.913   5.283
 6640SOL    HW120819   0.050   1.833   5.225
 6640SOL    HW220820   0.012   1.992   5.226
 6641SOL     OW20821   2.260   3.009   6.463
 6641SOL    HW120822   2.294   2.934   6.519
 6641SOL    HW220823   2.283   2.993   6.367
 6642SOL     OW20824   2.984   5.185   0.546
 6642SOL    HW120825   3.025   5.241   0.617
 6642SOL    HW220826   3.054   5.156   0.481
 6643SOL     OW20827   6.557   4.595   6.696
 6643SOL    HW120828   6.567   4.681   6.647
 6643SOL    HW220829   6.472   4.596   6.748
 6644SOL     OW20830   2.943   4.858   1.891
 6644SOL    HW120831   2.993   4.817   1.814
 6644SOL    HW220832   2.891   4.786   1.937
 6645SOL     OW20833   6.607   5.417   0.356
 6645SOL    HW120834   6.672   5.490   0.377
 6645SOL    HW220835   6.514   5.450   0.372
 6646SOL     OW20836   4.256   5.903   4.189
 6646SOL    HW120837   4.177   5.861   4.145
 6646SOL    HW220838   4.269   5.863   4.279
 6647SOL     OW20839   3.374   1.641   2.623
 6647SOL    HW120840   3.276   1.630   2.607
 6647SOL    HW220841   3.421   1.658   2.537
 6648SOL     OW20842   3.420   6.164   2.112
 6648SOL    HW120843   3.357   6.214   2.053
 6648SOL    HW220844   3.461   6.089   2.060
 6649SOL     OW20845   5.165   1.741   6.775
 6649SOL    HW120846   5.256   1.745   6.816
 6649SOL    HW220847   5.096   1.767   6.844
 6650SOL     OW20848   4.085   1.459   4.815
 6650SOL    HW120849   4.152   1.433   4.746
 6650SOL    HW220850   4.119   1.435   4.906
 6651SOL     OW20851   1.404   1.711   6.808
 6651SOL    HW120852   1.480   1.772   6.788
 6651SOL    HW220853   1.320   1.748   6.771
 6652SOL     OW20854   6.587   4.738   0.086
 6652SOL    HW120855   6.678   4.722   0.126
 6652SOL    HW220856   6.526   4.664   0.111
 6653SOL     OW20857   3.816   3.101   3.118
 6653SOL    HW120858   3.733   3.060   3.157
 6653SOL    HW220859   3.791   3.173   3.054
 6654SOL     OW20860   2.095   2.549   1.111
 6654SOL    HW120861   2.088   2.466   1.167
 6654SOL    HW220862   2.057   2.626   1.161
 6655SOL     OW20863   2.818   7.017   1.715
 6655SOL    HW120864   2.801   0.070   1.771
 6655SOL    HW220865   2.806   6.934   1.770
 6656SOL     OW20866   6.226   1.460   2.991
 6656SOL    HW120867   6.244   1.418   2.902
 6656SOL    HW220868   6.252   1.397   3.064
 6657SOL     OW20869   4.833   6.319   6.312
 6657SOL    HW120870   4.758   6.363   6.360
 6657SOL    HW220871   4.916   6.323   6.367
 6658SOL     OW20872   5.793   1.271   5.076
 6658SOL    HW120873   5.745   1.303   5.158
 6658SOL    HW220874   5.773   1.173   5.063
 6659SOL     OW20875   2.660   2.159   0.415
 6659SOL    HW120876   2.742   2.106   0.394
 6659SOL    HW220877   2.685   2.253   0.437
 6660SOL     OW20878   0.329   6.432   0.945
 6660SOL    HW120879   0.392   6.508   0.962
 6660SOL    HW220880   0.272   6.453   0.866
 6661SOL     OW20881   0.608   5.143   3.890
 6661SOL    HW120882   0.532   5.206   3.902
 6661SOL    HW220883   0.591   5.085   3.810
 6662SOL     OW20884   1.915   0.552   6.809
 6662SOL    HW120885   1.865   0.572   6.725
 6662SOL    HW220886   1.850   0.527   6.881
 6663SOL     OW20887   6.771   5.487   2.971
 6663SOL    HW120888   6.790   5.396   2.934
 6663SOL    HW220889   6.843   5.550   2.943
 6664SOL     OW20890   1.385   6.944   1.500
 6664SOL    HW120891   1.301   6.936   1.553
 6664SOL    HW220892   1.367   6.997   1.417
 6665SOL     OW20893   2.070   0.448   2.782
 6665SOL    HW120894   2.112   0.402   2.860
 6665SOL    HW220895   1.987   0.494   2.811
 6666SOL     OW20896   5.835   1.743   5.161
 6666SOL    HW120897   5.747   1.783   5.135
 6666SOL    HW220898   5.893   1.814   5.202
 6667SOL     OW20899   6.633   4.885   5.121
 6667SOL    HW120900   6.544   4.932   5.124
 6667SOL    HW220901   6.695   4.936   5.061
 6668SOL     OW20902   6.715   6.066   1.740
 6668SOL    HW120903   6.773   6.123   1.681
 6668SOL    HW220904   6.659   6.006   1.683
 6669SOL     OW20905   1.916   2.984   3.920
 6669SOL    HW120906   1.914   2.932   3.835
 6669SOL    HW220907   1.869   2.931   3.992
 6670SOL     OW20908   3.298   3.679   6.319
 6670SOL    HW120909   3.321   3.592   6.278
 6670SOL    HW220910   3.330   3.754   6.261
 6671SOL     OW20911   5.503   5.522   0.930
 6671SOL    HW120912   5.438   5.585   0.888
 6671SOL    HW220913   5.594   5.562   0.928
 6672SOL     OW20914   1.014   1.836   5.129
 6672SOL    HW120915   1.109   1.835   5.098
 6672SOL    HW220916   0.953   1.849   5.051
 6673SOL     OW20917   4.178   5.970   3.096
 6673SOL    HW120918   4.119   6.036   3.143
 6673SOL    HW220919   4.235   5.922   3.163
 6674SOL     OW20920   1.022   5.125   6.347
 6674SOL    HW120921   0.929   5.132   6.382
 6674SOL    HW220922   1.042   5.029   6.325
 6675SOL     OW20923   4.603   4.086   1.677
 6675SOL    HW120924   4.577   3.991   1.695
 6675SOL    HW220925   4.553   4.146   1.739
 6676SOL     OW20926   6.907   3.439   5.371
 6676SOL    HW120927   6.880   3.343   5.367
 6676SOL    HW220928   6.946   3.460   5.461
 6677SOL     OW20929   0.380   3.009   0.193
 6677SOL    HW120930   0.330   2.945   0.134
 6677SOL    HW220931   0.350   2.996   0.288
 6678SOL     OW20932   1.493   2.436   0.073
 6678SOL    HW120933   1.405   2.475   0.046
 6678SOL    HW220934   1.550   2.508   0.113
 6679SOL     OW20935   2.253   1.914   4.683
 6679SOL    HW120936   2.208   1.877   4.602
 6679SOL    HW220937   2.198   1.989   4.720
 6680SOL     OW20938   4.438   5.944   5.725
 6680SOL    HW120939   4.399   5.860   5.762
 6680SOL    HW220940   4.443   6.013   5.797
 6681SOL     OW20941   4.895   5.074   0.087
 6681SOL    HW120942   4.979   5.035   0.126
 6681SOL    HW220943   4.832   5.098   0.160
 6682SOL     OW20944   1.276   3.932   2.399
 6682SOL    HW120945   1.191   3.984   2.411
 6682SOL    HW220946   1.340   3.956   2.472
 6683SOL     OW20947   5.315   2.704   5.796
 6683SOL    HW120948   5.295   2.777   5.861
 6683SOL    HW220949   5.411   2.679   5.803
 6684SOL     OW20950   1.999   6.771   1.148
 6684SOL    HW120951   1.986   6.863   1.110
 6684SOL    HW220952   1.941   6.759   1.228
 6685SOL     OW20953   5.470   2.161   5.793
 6685SOL    HW120954   5.391   2.206   5.834
 6685SOL    HW220955   5.493   2.080   5.846
 6686SOL     OW20956   5.715   5.399   3.693
 6686SOL    HW120957   5.679   5.307   3.710
 6686SOL    HW220958   5.684   5.460   3.765
 6687SOL     OW20959   0.546   2.049   1.642
 6687SOL    HW120960   0.639   2.017   1.658
 6687SOL    HW220961   0.508   2.005   1.560
 6688SOL     OW20962   0.387   4.381   1.915
 6688SOL    HW120963   0.434   4.451   1.968
 6688SOL    HW220964   0.325   4.330   1.975
 6689SOL     OW20965   4.296   2.328   0.110
 6689SOL    HW120966   4.316   2.253   0.174
 6689SOL    HW220967   4.256   2.404   0.160
 6690SOL     OW20968   2.558   1.131   1.778
 6690SOL    HW120969   2.526   1.041   1.750
 6690SOL    HW220970   2.490   1.173   1.838
 6691SOL     OW20971   3.322   5.580   1.219
 6691SOL    HW120972   3.374   5.663   1.200
 6691SOL    HW220973   3.321   5.563   1.317
 6692SOL     OW20974   2.789   4.898   5.161
 6692SOL    HW120975   2.863   4.938   5.215
 6692SOL    HW220976   2.821   4.814   5.118
 6693SOL     OW20977   5.223   3.461   6.522
 6693SOL    HW120978   5.303   3.512   6.554
 6693SOL    HW220979   5.179   3.511   6.448
 6694SOL     OW20980   4.723   5.811   6.864
 6694SOL    HW120981   4.642   5.838   6.917
 6694SOL    HW220982   4.715   5.846   6.771
 6695SOL     OW20983   1.000   1.729   6.508
 6695SOL    HW120984   0.968   1.636   6.488
 6695SOL    HW220985   0.927   1.782   6.550
 6696SOL     OW20986   2.000   2.389   0.475
 6696SOL    HW120987   1.908   2.354   0.493
 6696SOL    HW220988   2.048   2.327   0.414
 6697SOL     OW20989   4.434   2.392   3.102
 6697SOL    HW120990   4.493   2.472   3.090
 6697SOL    HW220991   4.392   2.395   3.193
 6698SOL     OW20992   3.614   2.533   0.383
 6698SOL    HW120993   3.625   2.631   0.401
 6698SOL    HW220994   3.612   2.483   0.469
 6699SOL     OW20995   3.397   4.410   0.203
 6699SOL    HW120996   3.324   4.463   0.248
 6699SOL    HW220997   3.446   4.470   0.139
 6700SOL     OW20998   0.241   5.615   0.873
 6700SOL    HW120999   0.262   5.670   0.792
 6700SOL    HW221000   0.307   5.636   0.945
 6701SOL     OW21001   6.436   2.771   1.325
 6701SOL    HW121002   6.387   2.830   1.260
 6701SOL    HW221003   6.387   2.770   1.412
 6702SOL     OW21004   2.821   2.585   0.324
 6702SOL    HW121005   2.828   2.666   0.383
 6702SOL    HW221006   2.739   2.592   0.268
 6703SOL     OW21007   6.308   1.900   0.056
 6703SOL    HW121008   6.383   1.956   0.021
 6703SOL    HW221009   6.304   1.909   0.156
 6704SOL     OW21010   4.319   2.288   2.559
 6704SOL    HW121011   4.348   2.343   2.481
 6704SOL    HW221012   4.224   2.260   2.546
 6705SOL     OW21013   0.210   1.990   2.035
 6705SOL    HW121014   0.265   1.933   1.974
 6705SOL    HW221015   0.271   2.046   2.091
 6706SOL     OW21016   1.342   4.387   0.746
 6706SOL    HW121017   1.395   4.318   0.698
 6706SOL    HW221018   1.343   4.473   0.694
 6707SOL     OW21019   6.407   5.669   4.609
 6707SOL    HW121020   6.432   5.672   4.706
 6707SOL    HW221021   6.477   5.717   4.556
 6708SOL     OW21022   1.781   5.742   2.520
 6708SOL    HW121023   1.723   5.719   2.598
 6708SOL    HW221024   1.800   5.840   2.520
 6709SOL     OW21025   3.294   5.964   1.288
 6709SOL    HW121026   3.359   5.908   1.238
 6709SOL    HW221027   3.219   5.990   1.227
 6710SOL     OW21028   2.574   2.253   6.287
 6710SOL    HW121029   2.520   2.329   6.325
 6710SOL    HW221030   2.545   2.236   6.193
 6711SOL     OW21031   5.853   4.502   6.528
 6711SOL    HW121032   5.820   4.412   6.498
 6711SOL    HW221033   5.809   4.527   6.614
 6712SOL     OW21034   4.499   5.198   0.466
 6712SOL    HW121035   4.533   5.288   0.437
 6712SOL    HW221036   4.420   5.210   0.525
 6713SOL     OW21037   1.895   1.557   1.486
 6713SOL    HW121038   1.979   1.561   1.539
 6713SOL    HW221039   1.827   1.619   1.526
 6714SOL     OW21040   5.444   0.378   5.387
 6714SOL    HW121041   5.542   0.383   5.406
 6714SOL    HW221042   5.429   0.328   5.302
 6715SOL     OW21043   0.027   0.498   0.288
 6715SOL    HW121044   0.005   0.589   0.254
 6715SOL    HW221045   0.069   0.445   0.215
 6716SOL     OW21046   1.441   6.655   1.525
 6716SOL    HW121047   1.417   6.602   1.606
 6716SOL    HW221048   1.359   6.700   1.489
 6717SOL     OW21049   4.614   2.720   0.580
 6717SOL    HW121050   4.662   2.790   0.633
 6717SOL    HW221051   4.532   2.691   0.629
 6718SOL     OW21052   4.120   5.674   6.706
 6718SOL    HW121053   4.185   5.598   6.698
 6718SOL    HW221054   4.143   5.744   6.639
 6719SOL     OW21055   0.857   0.429   6.087
 6719SOL    HW121056   0.906   0.421   6.174
 6719SOL    HW221057   0.923   0.428   6.011
 6720SOL     OW21058   2.681   5.956   1.836
 6720SOL    HW121059   2.590   5.990   1.810
 6720SOL    HW221060   2.697   5.868   1.792
 6721SOL     OW21061   5.526   6.456   4.234
 6721SOL    HW121062   5.598   6.393   4.204
 6721SOL    HW221063   5.485   6.422   4.319
 6722SOL     OW21064   5.168   3.264   0.869
 6722SOL    HW121065   5.261   3.282   0.899
 6722SOL    HW221066   5.104   3.287   0.942
 6723SOL     OW21067   2.264   6.928   3.204
 6723SOL    HW121068   2.222   6.960   3.119
 6723SOL    HW221069   2.255   6.999   3.274
 6724SOL     OW21070   1.882   4.224   5.542
 6724SOL    HW121071   1.802   4.282   5.527
 6724SOL    HW221072   1.918   4.194   5.454
 6725SOL     OW21073   0.911   4.192   2.065
 6725SOL    HW121074   0.972   4.127   2.111
 6725SOL    HW221075   0.920   4.281   2.109
 6726SOL     OW21076   1.895   2.321   4.969
 6726SOL    HW121077   1.988   2.290   4.985
 6726SOL    HW221078   1.878   2.405   5.020
 6727SOL     OW21079   5.409   3.526   5.968
 6727SOL    HW121080   5.465   3.509   5.887
 6727SOL    HW221081   5.468   3.550   6.045
 6728SOL     OW21082   4.759   1.560   4.078
 6728SOL    HW121083   4.677   1.610   4.104
 6728SOL    HW221084   4.765   1.476   4.133
 6729SOL     OW21085   6.458   1.264   2.418
 6729SOL    HW121086   6.545   1.306   2.393
 6729SOL    HW221087   6.418   1.313   2.495
 6730SOL     OW21088   2.425   6.723   7.013
 6730SOL    HW121089   2.506   6.713   0.044
 6730SOL    HW221090   2.399   6.634   6.976
 6731SOL     OW21091   2.545   4.476   0.914
 6731SOL    HW121092   2.563   4.426   0.999
 6731SOL    HW221093   2.450   4.509   0.914
 6732SOL     OW21094   2.794   6.103   6.673
 6732SOL    HW121095   2.703   6.143   6.660
 6732SOL    HW221096   2.864   6.170   6.651
 6733SOL     OW21097   4.670   5.290   6.545
 6733SOL    HW121098   4.723   5.330   6.471
 6733SOL    HW221099   4.594   5.238   6.508
 6734SOL     OW21100   0.440   3.130   5.665
 6734SOL    HW121101   0.485   3.077   5.593
 6734SOL    HW221102   0.508   3.180   5.718
 6735SOL     OW21103   0.535   5.084   5.261
 6735SOL    HW121104   0.577   5.023   5.193
 6735SOL    HW221105   0.516   5.032   5.345
 6736SOL     OW21106   2.013   3.412   0.662
 6736SOL    HW121107   2.004   3.339   0.730
 6736SOL    HW221108   2.108   3.443   0.659
 6737SOL     OW21109   2.048   1.464   1.250
 6737SOL    HW121110   2.001   1.527   1.312
 6737SOL    HW221111   2.116   1.412   1.302
 6738SOL     OW21112   2.192   2.432   2.206
 6738SOL    HW121113   2.270   2.492   2.227
 6738SOL    HW221114   2.186   2.419   2.107
 6739SOL     OW21115   3.139   5.757   5.655
 6739SOL    HW121116   3.080   5.711   5.589
 6739SOL    HW221117   3.216   5.698   5.678
 6740SOL     OW21118   1.748   1.096   4.582
 6740SOL    HW121119   1.692   1.179   4.577
 6740SOL    HW221120   1.831   1.115   4.635
 6741SOL     OW21121   4.088   1.638   6.113
 6741SOL    HW121122   3.997   1.672   6.137
 6741SOL    HW221123   4.146   1.715   6.085
 6742SOL     OW21124   0.171   5.697   4.215
 6742SOL    HW121125   0.179   5.758   4.294
 6742SOL    HW221126   0.212   5.609   4.236
 6743SOL     OW21127   4.031   3.861   6.803
 6743SOL    HW121128   4.051   3.785   6.866
 6743SOL    HW221129   4.069   3.840   6.713
 6744SOL     OW21130   4.051   5.339   6.096
 6744SOL    HW121131   4.083   5.260   6.044
 6744SOL    HW221132   4.119   5.412   6.092
 6745SOL     OW21133   1.179   5.080   2.931
 6745SOL    HW121134   1.163   5.172   2.967
 6745SOL    HW221135   1.265   5.079   2.881
 6746SOL     OW21136   1.004   0.846   1.554
 6746SOL    HW121137   1.017   0.879   1.648
 6746SOL    HW221138   0.924   0.890   1.514
 6747SOL     OW21139   5.398   6.378   4.473
 6747SOL    HW121140   5.447   6.354   4.556
 6747SOL    HW221141   5.341   6.301   4.444
 6748SOL     OW21142   0.791   0.922   2.377
 6748SOL    HW121143   0.858   0.980   2.331
 6748SOL    HW221144   0.706   0.920   2.323
 6749SOL     OW21145   3.273   0.421   0.011
 6749SOL    HW121146   3.318   0.426   6.949
 6749SOL    HW221147   3.188   0.370   0.004
 6750SOL     OW21148   3.151   1.958   4.262
 6750SOL    HW121149   3.217   1.890   4.231
 6750SOL    HW221150   3.180   1.995   4.350
 6751SOL     OW21151   2.768   2.223   3.922
 6751SOL    HW121152   2.839   2.213   3.853
 6751SOL    HW221153   2.694   2.158   3.903
 6752SOL     OW21154   6.152   2.508   1.263
 6752SOL    HW121155   6.097   2.425   1.253
 6752SOL    HW221156   6.243   2.483   1.298
 6753SOL     OW21157   4.440   1.582   6.795
 6753SOL    HW121158   4.366   1.587   6.728
 6753SOL    HW221159   4.405   1.546   6.881
 6754SOL     OW21160   6.506   2.086   6.390
 6754SOL    HW121161   6.508   2.000   6.338
 6754SOL    HW221162   6.443   2.150   6.345
 6755SOL     OW21163   5.113   1.541   3.542
 6755SOL    HW121164   5.135   1.537   3.444
 6755SOL    HW221165   5.102   1.637   3.569
 6756SOL     OW21166   4.777   4.138   4.315
 6756SOL    HW121167   4.699   4.194   4.344
 6756SOL    HW221168   4.851   4.198   4.285
 6757SOL     OW21169   4.602   5.477   0.418
 6757SOL    HW121170   4.545   5.553   0.449
 6757SOL    HW221171   4.697   5.506   0.413
 6758SOL     OW21172   5.604   3.695   1.990
 6758SOL    HW121173   5.677   3.755   1.954
 6758SOL    HW221174   5.526   3.696   1.927
 6759SOL     OW21175   1.455   4.164   3.583
 6759SOL    HW121176   1.475   4.088   3.645
 6759SOL    HW221177   1.393   4.229   3.628
 6760SOL     OW21178   0.285   4.961   4.659
 6760SOL    HW121179   0.244   4.881   4.703
 6760SOL    HW221180   0.346   4.931   4.586
 6761SOL     OW21181   5.566   2.638   5.714
 6761SOL    HW121182   5.657   2.637   5.756
 6761SOL    HW221183   5.570   2.594   5.624
 6762SOL     OW21184   6.216   4.869   3.589
 6762SOL    HW121185   6.311   4.840   3.592
 6762SOL    HW221186   6.180   4.876   3.682
 6763SOL     OW21187   5.837   5.560   4.549
 6763SOL    HW121188   5.811   5.553   4.645
 6763SOL    HW221189   5.755   5.559   4.492
 6764SOL     OW21190   3.077   4.039   5.898
 6764SOL    HW121191   3.158   4.034   5.840
 6764SOL    HW221192   3.059   3.950   5.938
 6765SOL     OW21193   6.471   4.700   3.626
 6765SOL    HW121194   6.509   4.710   3.718
 6765SOL    HW221195   6.465   4.603   3.603
 6766SOL     OW21196   2.095   0.487   6.225
 6766SOL    HW121197   2.130   0.516   6.136
 6766SOL    HW221198   2.129   0.549   6.296
 6767SOL     OW21199   0.173   2.433   0.325
 6767SOL    HW121200   0.223   2.496   0.384
 6767SOL    HW221201   0.155   2.477   0.237
 6768SOL     OW21202   0.582   0.541   3.648
 6768SOL    HW121203   0.671   0.534   3.693
 6768SOL    HW221204   0.521   0.469   3.683
 6769SOL     OW21205   3.187   1.910   5.117
 6769SOL    HW121206   3.154   1.998   5.151
 6769SOL    HW221207   3.116   1.841   5.129
 6770SOL     OW21208   0.275   2.641   3.748
 6770SOL    HW121209   0.356   2.582   3.747
 6770SOL    HW221210   0.195   2.588   3.773
 6771SOL     OW21211   3.591   2.011   3.436
 6771SOL    HW121212   3.535   2.003   3.353
 6771SOL    HW221213   3.683   2.041   3.410
 6772SOL     OW21214   5.622   1.588   2.682
 6772SOL    HW121215   5.586   1.673   2.720
 6772SOL    HW221216   5.594   1.579   2.586
 6773SOL     OW21217   6.789   6.222   1.391
 6773SOL    HW121218   6.698   6.254   1.418
 6773SOL    HW221219   6.812   6.258   1.301
 6774SOL     OW21220   1.673   1.802   5.313
 6774SOL    HW121221   1.741   1.864   5.353
 6774SOL    HW221222   1.669   1.816   5.214
 6775SOL     OW21223   0.830   1.808   4.564
 6775SOL    HW121224   0.768   1.887   4.569
 6775SOL    HW221225   0.897   1.823   4.492
 6776SOL     OW21226   3.843   4.040   1.298
 6776SOL    HW121227   3.780   4.117   1.292
 6776SOL    HW221228   3.859   4.003   1.206
 6777SOL     OW21229   4.441   5.965   1.303
 6777SOL    HW121230   4.418   5.945   1.208
 6777SOL    HW221231   4.443   6.064   1.317
 6778SOL     OW21232   6.174   3.480   2.575
 6778SOL    HW121233   6.109   3.497   2.501
 6778SOL    HW221234   6.128   3.489   2.663
 6779SOL     OW21235   5.926   4.144   5.660
 6779SOL    HW121236   5.887   4.203   5.731
 6779SOL    HW221237   5.901   4.179   5.570
 6780SOL     OW21238   2.457   2.582   3.093
 6780SOL    HW121239   2.457   2.670   3.045
 6780SOL    HW221240   2.500   2.593   3.182
 6781SOL     OW21241   6.375   1.427   4.456
 6781SOL    HW121242   6.297   1.488   4.447
 6781SOL    HW221243   6.354   1.354   4.521
 6782SOL     OW21244   6.647   1.753   3.438
 6782SOL    HW121245   6.740   1.739   3.404
 6782SOL    HW221246   6.600   1.821   3.382
 6783SOL     OW21247   1.196   4.941   5.598
 6783SOL    HW121248   1.283   4.949   5.549
 6783SOL    HW221249   1.198   5.001   5.678
 6784SOL     OW21250   1.944   3.251   1.411
 6784SOL    HW121251   2.012   3.250   1.483
 6784SOL    HW221252   1.958   3.331   1.353
 6785SOL     OW21253   5.584   4.794   4.824
 6785SOL    HW121254   5.557   4.698   4.817
 6785SOL    HW221255   5.573   4.839   4.735
 6786SOL     OW21256   6.669   2.435   1.026
 6786SOL    HW121257   6.674   2.460   0.929
 6786SOL    HW221258   6.582   2.466   1.063
 6787SOL     OW21259   3.766   2.352   0.031
 6787SOL    HW121260   3.761   2.314   0.123
 6787SOL    HW221261   3.738   2.283   6.992
 6788SOL     OW21262   0.705   4.037   3.725
 6788SOL    HW121263   0.678   4.075   3.814
 6788SOL    HW221264   0.633   3.976   3.692
 6789SOL     OW21265   6.548   3.671   3.820
 6789SOL    HW121266   6.473   3.713   3.769
 6789SOL    HW221267   6.566   3.580   3.783
 6790SOL     OW21268   1.425   4.543   5.909
 6790SOL    HW121269   1.503   4.570   5.966
 6790SOL    HW221270   1.341   4.582   5.946
 6791SOL     OW21271   4.594   1.472   3.859
 6791SOL    HW121272   4.655   1.496   3.933
 6791SOL    HW221273   4.604   1.539   3.784
 6792SOL     OW21274   4.473   0.255   5.317
 6792SOL    HW121275   4.396   0.318   5.312
 6792SOL    HW221276   4.524   0.257   5.231
 6793SOL     OW21277   2.118   3.346   6.957
 6793SOL    HW121278   2.128   3.393   6.869
 6793SOL    HW221279   2.199   3.290   6.974
 6794SOL     OW21280   4.277   1.485   5.748
 6794SOL    HW121281   4.290   1.549   5.824
 6794SOL    HW221282   4.198   1.512   5.694
 6795SOL     OW21283   1.221   0.877   1.369
 6795SOL    HW121284   1.188   0.883   1.274
 6795SOL    HW221285   1.175   0.802   1.415
 6796SOL     OW21286   5.855   1.408   1.814
 6796SOL    HW121287   5.861   1.496   1.766
 6796SOL    HW221288   5.774   1.408   1.873
 6797SOL     OW21289   0.390   1.826   1.804
 6797SOL    HW121290   0.413   1.915   1.765
 6797SOL    HW221291   0.474   1.775   1.823
 6798SOL     OW21292   5.847   0.270   2.079
 6798SOL    HW121293   5.850   0.286   1.980
 6798SOL    HW221294   5.767   0.316   2.118
 6799SOL     OW21295   5.345   6.925   3.152
 6799SOL    HW121296   5.250   6.952   3.135
 6799SOL    HW221297   5.351   6.881   3.242
 6800SOL     OW21298   0.491   1.078   1.688
 6800SOL    HW121299   0.587   1.098   1.705
 6800SOL    HW221300   0.468   1.102   1.593
 6801SOL     OW21301   1.106   6.432   4.741
 6801SOL    HW121302   1.071   6.340   4.759
 6801SOL    HW221303   1.053   6.473   4.666
 6802SOL     OW21304   3.465   5.776   1.498
 6802SOL    HW121305   3.423   5.863   1.470
 6802SOL    HW221306   3.394   5.707   1.510
 6803SOL     OW21307   5.080   4.541   6.721
 6803SOL    HW121308   5.170   4.501   6.738
 6803SOL    HW221309   5.009   4.476   6.749
 6804SOL     OW21310   2.710   4.693   2.806
 6804SOL    HW121311   2.670   4.650   2.887
 6804SOL    HW221312   2.793   4.742   2.832
 6805SOL     OW21313   0.351   4.621   5.889
 6805SOL    HW121314   0.426   4.631   5.954
 6805SOL    HW221315   0.271   4.672   5.922
 6806SOL     OW21316   6.621   0.698   3.307
 6806SOL    HW121317   6.547   0.645   3.265
 6806SOL    HW221318   6.709   0.654   3.289
 6807SOL     OW21319   3.025   3.934   2.184
 6807SOL    HW121320   3.081   4.008   2.221
 6807SOL    HW221321   2.981   3.885   2.260
 6808SOL     OW21322   4.440   1.445   4.949
 6808SOL    HW121323   4.408   1.530   4.907
 6808SOL    HW221324   4.362   1.395   4.986
 6809SOL     OW21325   5.931   4.403   2.419
 6809SOL    HW121326   5.855   4.417   2.356
 6809SOL    HW221327   5.895   4.391   2.512
 6810SOL     OW21328   2.834   1.189   3.401
 6810SOL    HW121329   2.757   1.159   3.344
 6810SOL    HW221330   2.804   1.199   3.495
 6811SOL     OW21331   6.291   1.690   2.465
 6811SOL    HW121332   6.252   1.613   2.415
 6811SOL    HW221333   6.276   1.774   2.414
 6812SOL     OW21334   2.831   3.895   5.158
 6812SOL    HW121335   2.751   3.907   5.216
 6812SOL    HW221336   2.869   3.984   5.134
 6813SOL     OW21337   5.970   3.708   1.758
 6813SOL    HW121338   5.924   3.772   1.819
 6813SOL    HW221339   6.042   3.660   1.808
 6814SOL     OW21340   4.392   1.402   6.358
 6814SOL    HW121341   4.323   1.376   6.289
 6814SOL    HW221342   4.474   1.434   6.311
 6815SOL     OW21343   2.543   5.258   6.505
 6815SOL    HW121344   2.472   5.311   6.459
 6815SOL    HW221345   2.633   5.292   6.479
 6816SOL     OW21346   0.484   2.119   4.379
 6816SOL    HW121347   0.393   2.160   4.370
 6816SOL    HW221348   0.551   2.190   4.400
 6817SOL     OW21349   3.500   2.074   2.209
 6817SOL    HW121350   3.569   2.133   2.167
 6817SOL    HW221351   3.491   2.098   2.306
 6818SOL     OW21352   2.001   6.670   6.270
 6818SOL    HW121353   1.997   6.765   6.298
 6818SOL    HW221354   1.992   6.664   6.171
 6819SOL     OW21355   4.357   4.651   2.598
 6819SOL    HW121356   4.417   4.572   2.603
 6819SOL    HW221357   4.398   4.720   2.539
 6820SOL     OW21358   2.393   6.277   1.325
 6820SOL    HW121359   2.399   6.282   1.225
 6820SOL    HW221360   2.352   6.362   1.360
 6821SOL     OW21361   4.530   3.076   5.398
 6821SOL    HW121362   4.600   3.124   5.345
 6821SOL    HW221363   4.456   3.140   5.420
 6822SOL     OW21364   6.953   2.589   6.515
 6822SOL    HW121365   6.932   2.512   6.454
 6822SOL    HW221366   0.013   2.572   6.561
 6823SOL     OW21367   5.251   3.272   0.248
 6823SOL    HW121368   5.228   3.338   0.178
 6823SOL    HW221369   5.271   3.319   0.334
 6824SOL     OW21370   1.433   1.914   6.315
 6824SOL    HW121371   1.512   1.887   6.260
 6824SOL    HW221372   1.407   1.839   6.376
 6825SOL     OW21373   6.943   5.896   1.604
 6825SOL    HW121374   6.922   5.993   1.597
 6825SOL    HW221375   6.973   5.875   1.697
 6826SOL     OW21376   0.655   3.657   3.363
 6826SOL    HW121377   0.699   3.672   3.452
 6826SOL    HW221378   0.725   3.651   3.292
 6827SOL     OW21379   3.939   6.200   4.863
 6827SOL    HW121380   4.033   6.186   4.895
 6827SOL    HW221381   3.883   6.120   4.887
 6828SOL     OW21382   3.524   2.008   3.073
 6828SOL    HW121383   3.538   1.923   3.021
 6828SOL    HW221384   3.476   1.987   3.158
 6829SOL     OW21385   5.605   6.736   4.851
 6829SOL    HW121386   5.587   6.651   4.802
 6829SOL    HW221387   5.643   6.715   4.941
 6830SOL     OW21388   5.377   0.446   2.991
 6830SOL    HW121389   5.304   0.486   3.047
 6830SOL    HW221390   5.466   0.463   3.034
 6831SOL     OW21391   1.574   1.407   6.281
 6831SOL    HW121392   1.505   1.418   6.352
 6831SOL    HW221393   1.547   1.459   6.199
 6832SOL     OW21394   3.057   2.471   0.678
 6832SOL    HW121395   3.041   2.502   0.772
 6832SOL    HW221396   3.032   2.374   0.669
 6833SOL     OW21397   2.978   5.450   5.715
 6833SOL    HW121398   3.044   5.431   5.788
 6833SOL    HW221399   2.941   5.542   5.727
 6834SOL     OW21400   5.027   6.690   0.419
 6834SOL    HW121401   5.048   6.782   0.385
 6834SOL    HW221402   4.931   6.686   0.447
 6835SOL     OW21403   2.904   2.124   4.404
 6835SOL    HW121404   2.914   2.165   4.314
 6835SOL    HW221405   2.922   2.026   4.399
 6836SOL     OW21406   2.172   5.262   6.574
 6836SOL    HW121407   2.224   5.312   6.504
 6836SOL    HW221408   2.165   5.318   6.656
 6837SOL     OW21409   0.861   0.687   1.855
 6837SOL    HW121410   0.818   0.634   1.927
 6837SOL    HW221411   0.947   0.644   1.827
 6838SOL     OW21412   2.734   4.550   5.339
 6838SOL    HW121413   2.655   4.552   5.277
 6838SOL    HW221414   2.818   4.544   5.285
 6839SOL     OW21415   5.493   2.826   4.027
 6839SOL    HW121416   5.440   2.814   3.944
 6839SOL    HW221417   5.533   2.918   4.029
 6840SOL     OW21418   2.508   6.551   5.349
 6840SOL    HW121419   2.545   6.630   5.300
 6840SOL    HW221420   2.485   6.479   5.283
 6841SOL     OW21421   4.026   5.754   1.632
 6841SOL    HW121422   4.029   5.852   1.610
 6841SOL    HW221423   3.989   5.703   1.554
 6842SOL     OW21424   0.632   3.636   6.644
 6842SOL    HW121425   0.731   3.640   6.638
 6842SOL    HW221426   0.596   3.584   6.566
 6843SOL     OW21427   3.955   2.321   1.787
 6843SOL    HW121428   3.983   2.244   1.843
 6843SOL    HW221429   3.862   2.348   1.811
 6844SOL     OW21430   4.522   5.405   4.006
 6844SOL    HW121431   4.598   5.386   4.069
 6844SOL    HW221432   4.500   5.322   3.955
 6845SOL     OW21433   4.638   5.298   2.157
 6845SOL    HW121434   4.670   5.377   2.106
 6845SOL    HW221435   4.692   5.217   2.130
 6846SOL     OW21436   3.610   3.123   2.651
 6846SOL    HW121437   3.706   3.095   2.652
 6846SOL    HW221438   3.553   3.046   2.622
 6847SOL     OW21439   5.073   4.191   1.754
 6847SOL    HW121440   4.991   4.228   1.797
 6847SOL    HW221441   5.054   4.166   1.659
 6848SOL     OW21442   0.601   5.668   4.210
 6848SOL    HW121443   0.646   5.741   4.261
 6848SOL    HW221444   0.561   5.705   4.127
 6849SOL     OW21445   3.680   5.945   3.841
 6849SOL    HW121446   3.688   5.901   3.752
 6849SOL    HW221447   3.770   5.975   3.871
 6850SOL     OW21448   5.503   2.345   3.327
 6850SOL    HW121449   5.547   2.285   3.260
 6850SOL    HW221450   5.504   2.439   3.293
 6851SOL     OW21451   1.926   5.115   5.926
 6851SOL    HW121452   1.969   5.148   6.010
 6851SOL    HW221453   1.899   5.192   5.869
 6852SOL     OW21454   1.489   4.400   1.761
 6852SOL    HW121455   1.405   4.352   1.735
 6852SOL    HW221456   1.478   4.498   1.744
 6853SOL     OW21457   0.613   4.922   5.833
 6853SOL    HW121458   0.702   4.905   5.789
 6853SOL    HW221459   0.545   4.860   5.795
 6854SOL     OW21460   6.955   1.975   5.999
 6854SOL    HW121461   6.992   1.898   6.051
 6854SOL    HW221462   7.008   2.057   6.019
 6855SOL     OW21463   4.019   7.020   3.026
 6855SOL    HW121464   4.064   6.941   3.066
 6855SOL    HW221465   4.024   7.014   2.926
 6856SOL     OW21466   6.394   3.477   4.767
 6856SOL    HW121467   6.414   3.416   4.844
 6856SOL    HW221468   6.300   3.461   4.736
 6857SOL     OW21469   3.030   2.295   5.914
 6857SOL    HW121470   3.085   2.234   5.971
 6857SOL    HW221471   3.085   2.325   5.836
 6858SOL     OW21472   4.118   3.680   4.689
 6858SOL    HW121473   4.072   3.666   4.601
 6858SOL    HW221474   4.210   3.716   4.673
 6859SOL     OW21475   2.507   6.732   0.856
 6859SOL    HW121476   2.601   6.751   0.883
 6859SOL    HW221477   2.506   6.682   0.769
 6860SOL     OW21478   5.863   4.739   1.381
 6860SOL    HW121479   5.895   4.776   1.293
 6860SOL    HW221480   5.767   4.763   1.394
 6861SOL     OW21481   5.510   5.881   6.708
 6861SOL    HW121482   5.417   5.865   6.741
 6861SOL    HW221483   5.552   5.954   6.760
 6862SOL     OW21484   3.083   5.581   5.020
 6862SOL    HW121485   3.157   5.573   5.086
 6862SOL    HW221486   3.014   5.512   5.038
 6863SOL     OW21487   5.642   1.514   3.769
 6863SOL    HW121488   5.565   1.519   3.705
 6863SOL    HW221489   5.727   1.508   3.718
 6864SOL     OW21490   2.861   5.857   3.418
 6864SOL    HW121491   2.795   5.812   3.357
 6864SOL    HW221492   2.951   5.817   3.405
 6865SOL     OW21493   6.627   3.945   4.879
 6865SOL    HW121494   6.557   3.877   4.900
 6865SOL    HW221495   6.677   3.917   4.797
 6866SOL     OW21496   0.221   3.712   2.129
 6866SOL    HW121497   0.225   3.627   2.077
 6866SOL    HW221498   0.212   3.789   2.066
 6867SOL     OW21499   2.112   4.214   1.789
 6867SOL    HW121500   2.152   4.158   1.862
 6867SOL    HW221501   2.018   4.238   1.813
 6868SOL     OW21502   1.861   6.203   4.832
 6868SOL    HW121503   1.816   6.290   4.853
 6868SOL    HW221504   1.929   6.217   4.760
 6869SOL     OW21505   5.541   2.306   5.589
 6869SOL    HW121506   5.453   2.338   5.552
 6869SOL    HW221507   5.524   2.241   5.662
 6870SOL     OW21508   6.009   3.503   2.800
 6870SOL    HW121509   5.950   3.500   2.720
 6870SOL    HW221510   5.955   3.483   2.882
 6871SOL     OW21511   6.063   4.791   1.168
 6871SOL    HW121512   6.126   4.855   1.123
 6871SOL    HW221513   6.019   4.734   1.100
 6872SOL     OW21514   2.092   3.448   0.974
 6872SOL    HW121515   2.046   3.455   1.062
 6872SOL    HW221516   2.071   3.360   0.932
 6873SOL     OW21517   6.006   2.932   5.931
 6873SOL    HW121518   5.998   3.005   5.863
 6873SOL    HW221519   6.010   2.972   6.023
 6874SOL     OW21520   6.816   3.082   3.758
 6874SOL    HW121521   6.786   2.991   3.785
 6874SOL    HW221522   6.916   3.090   3.769
 6875SOL     OW21523   1.453   1.807   2.724
 6875SOL    HW121524   1.370   1.834   2.773
 6875SOL    HW221525   1.532   1.817   2.784
 6876SOL     OW21526   3.432   5.579   0.105
 6876SOL    HW121527   3.376   5.538   0.033
 6876SOL    HW221528   3.529   5.564   0.085
 6877SOL     OW21529   2.279   3.883   6.719
 6877SOL    HW121530   2.307   3.864   6.813
 6877SOL    HW221531   2.292   3.980   6.699
 6878SOL     OW21532   2.131   1.819   5.466
 6878SOL    HW121533   2.177   1.757   5.403
 6878SOL    HW221534   2.049   1.857   5.422
 6879SOL     OW21535   0.064   2.173   6.254
 6879SOL    HW121536   7.012   2.115   6.231
 6879SOL    HW221537   0.144   2.116   6.269
 6880SOL     OW21538   2.067   4.056   5.070
 6880SOL    HW121539   2.010   4.070   4.989
 6880SOL    HW221540   2.164   4.061   5.045
 6881SOL     OW21541   7.025   4.443   1.498
 6881SOL    HW121542   6.928   4.436   1.475
 6881SOL    HW221543   0.053   4.450   1.414
 6882SOL     OW21544   1.722   1.183   5.090
 6882SOL    HW121545   1.787   1.235   5.034
 6882SOL    HW221546   1.702   1.235   5.174
 6883SOL     OW21547   3.780   6.992   1.653
 6883SOL    HW121548   3.714   6.920   1.632
 6883SOL    HW221549   3.732   0.044   1.692
 6884SOL     OW21550   2.358   4.492   4.754
 6884SOL    HW121551   2.379   4.468   4.849
 6884SOL    HW221552   2.353   4.409   4.698
 6885SOL     OW21553   2.739   6.085   3.465
 6885SOL    HW121554   2.649   6.051   3.437
 6885SOL    HW221555   2.804   6.009   3.464
 6886SOL     OW21556   5.194   0.979   2.559
 6886SOL    HW121557   5.133   1.026   2.496
 6886SOL    HW221558   5.267   1.041   2.587
 6887SOL     OW21559   6.109   0.453   5.191
 6887SOL    HW121560   6.195   0.487   5.154
 6887SOL    HW221561   6.062   0.397   5.123
 6888SOL     OW21562   6.017   0.577   4.786
 6888SOL    HW121563   5.991   0.584   4.690
 6888SOL    HW221564   6.072   0.656   4.812
 6889SOL     OW21565   0.965   2.774   6.124
 6889SOL    HW121566   1.001   2.791   6.032
 6889SOL    HW221567   0.960   2.860   6.174
 6890SOL     OW21568   2.560   0.496   1.115
 6890SOL    HW121569   2.519   0.441   1.042
 6890SOL    HW221570   2.616   0.437   1.174
 6891SOL     OW21571   2.148   3.822   4.495
 6891SOL    HW121572   2.112   3.793   4.584
 6891SOL    HW221573   2.137   3.749   4.429
 6892SOL     OW21574   3.855   0.244   3.975
 6892SOL    HW121575   3.757   0.246   3.995
 6892SOL    HW221576   3.900   0.178   4.034
 6893SOL     OW21577   5.130   5.900   3.289
 6893SOL    HW121578   5.164   5.809   3.311
 6893SOL    HW221579   5.205   5.966   3.296
 6894SOL     OW21580   6.181   5.779   0.115
 6894SOL    HW121581   6.148   5.873   0.122
 6894SOL    HW221582   6.153   5.740   0.027
 6895SOL     OW21583   2.676   3.930   0.363
 6895SOL    HW121584   2.680   3.865   0.287
 6895SOL    HW221585   2.707   3.884   0.446
 6896SOL     OW21586   3.464   1.133   3.405
 6896SOL    HW121587   3.413   1.214   3.374
 6896SOL    HW221588   3.560   1.144   3.383
 6897SOL     OW21589   3.016   3.555   0.489
 6897SOL    HW121590   2.940   3.566   0.426
 6897SOL    HW221591   3.005   3.619   0.565
 6898SOL     OW21592   4.280   0.626   1.960
 6898SOL    HW121593   4.338   0.564   2.012
 6898SOL    HW221594   4.240   0.577   1.883
 6899SOL     OW21595   5.237   6.951   6.306
 6899SOL    HW121596   5.182   6.989   6.232
 6899SOL    HW221597   5.198   6.976   6.394
 6900SOL     OW21598   5.429   0.934   5.988
 6900SOL    HW121599   5.508   0.906   5.934
 6900SOL    HW221600   5.350   0.947   5.928
 6901SOL     OW21601   1.304   0.152   6.520
 6901SOL    HW121602   1.332   0.193   6.433
 6901SOL    HW221603   1.211   0.182   6.541
 6902SOL     OW21604   1.008   6.950   0.107
 6902SOL    HW121605   0.956   6.982   0.028
 6902SOL    HW221606   1.074   7.019   0.134
 6903SOL     OW21607   3.542   3.378   0.402
 6903SOL    HW121608   3.514   3.342   0.313
 6903SOL    HW221609   3.522   3.476   0.406
 6904SOL     OW21610   6.623   0.688   3.996
 6904SOL    HW121611   6.609   0.621   4.069
 6904SOL    HW221612   6.697   0.657   3.936
 6905SOL     OW21613   6.671   6.459   1.167
 6905SOL    HW121614   6.751   6.400   1.153
 6905SOL    HW221615   6.589   6.402   1.177
 6906SOL     OW21616   3.716   0.950   3.966
 6906SOL    HW121617   3.779   0.872   3.972
 6906SOL    HW221618   3.737   1.004   3.885
 6907SOL     OW21619   3.993   1.219   1.547
 6907SOL    HW121620   3.935   1.166   1.485
 6907SOL    HW221621   3.979   1.316   1.531
 6908SOL     OW21622   1.546   6.961   5.513
 6908SOL    HW121623   1.479   6.911   5.458
 6908SOL    HW221624   1.504   6.993   5.597
 6909SOL     OW21625   4.458   4.925   0.980
 6909SOL    HW121626   4.377   4.884   1.022
 6909SOL    HW221627   4.429   4.982   0.902
 6910SOL     OW21628   6.422   1.510   2.159
 6910SOL    HW121629   6.488   1.578   2.193
 6910SOL    HW221630   6.344   1.506   2.222
 6911SOL     OW21631   4.165   0.116   3.844
 6911SOL    HW121632   4.218   0.126   3.929
 6911SOL    HW221633   4.143   0.207   3.808
 6912SOL     OW21634   4.974   4.858   1.288
 6912SOL    HW121635   4.963   4.773   1.237
 6912SOL    HW221636   4.964   4.936   1.226
 6913SOL     OW21637   4.957   4.663   4.333
 6913SOL    HW121638   5.020   4.585   4.337
 6913SOL    HW221639   4.899   4.654   4.252
 6914SOL     OW21640   6.064   5.602   6.573
 6914SOL    HW121641   6.147   5.569   6.527
 6914SOL    HW221642   6.018   5.669   6.514
 6915SOL     OW21643   0.680   4.573   2.559
 6915SOL    HW121644   0.777   4.558   2.580
 6915SOL    HW221645   0.637   4.619   2.637
 6916SOL     OW21646   6.505   4.355   6.913
 6916SOL    HW121647   6.427   4.417   6.907
 6916SOL    HW221648   6.525   4.320   6.821
 6917SOL     OW21649   4.398   6.086   5.966
 6917SOL    HW121650   4.381   6.171   5.916
 6917SOL    HW221651   4.317   6.063   6.019
 6918SOL     OW21652   0.375   3.920   4.157
 6918SOL    HW121653   0.327   3.851   4.102
 6918SOL    HW221654   0.308   3.977   4.205
 6919SOL     OW21655   1.916   6.041   2.495
 6919SOL    HW121656   1.916   6.024   2.396
 6919SOL    HW221657   1.989   6.106   2.517
 6920SOL     OW21658   4.988   5.056   4.621
 6920SOL    HW121659   4.939   4.997   4.684
 6920SOL    HW221660   5.040   5.000   4.556
 6921SOL     OW21661   5.790   5.924   3.317
 6921SOL    HW121662   5.836   5.912   3.405
 6921SOL    HW221663   5.850   5.892   3.243
 6922SOL     OW21664   1.939   6.242   6.459
 6922SOL    HW121665   1.846   6.279   6.465
 6922SOL    HW221666   1.981   6.270   6.373
 6923SOL     OW21667   4.354   6.789   3.629
 6923SOL    HW121668   4.454   6.789   3.619
 6923SOL    HW221669   4.326   6.710   3.684
 6924SOL     OW21670   1.094   4.816   0.330
 6924SOL    HW121671   1.102   4.721   0.360
 6924SOL    HW221672   1.039   4.867   0.396
 6925SOL     OW21673   4.167   6.039   3.852
 6925SOL    HW121674   4.119   6.034   3.765
 6925SOL    HW221675   4.261   6.008   3.841
 6926SOL     OW21676   3.785   3.666   3.524
 6926SOL    HW121677   3.740   3.578   3.514
 6926SOL    HW221678   3.858   3.674   3.457
 6927SOL     OW21679   5.056   3.861   6.574
 6927SOL    HW121680   4.982   3.826   6.516
 6927SOL    HW221681   5.132   3.892   6.515
 6928SOL     OW21682   4.226   0.391   6.268
 6928SOL    HW121683   4.287   0.377   6.346
 6928SOL    HW221684   4.191   0.485   6.268
 6929SOL     OW21685   4.807   6.284   6.701
 6929SOL    HW121686   4.759   6.355   6.650
 6929SOL    HW221687   4.756   6.198   6.694
 6930SOL     OW21688   0.663   6.530   1.979
 6930SOL    HW121689   0.696   6.471   1.906
 6930SOL    HW221690   0.661   6.625   1.947
 6931SOL     OW21691   0.564   0.212   1.535
 6931SOL    HW121692   0.604   0.238   1.447
 6931SOL    HW221693   0.556   0.294   1.593
 6932SOL     OW21694   2.834   1.063   6.653
 6932SOL    HW121695   2.917   1.020   6.687
 6932SOL    HW221696   2.833   1.160   6.679
 6933SOL     OW21697   3.581   5.767   5.015
 6933SOL    HW121698   3.527   5.851   5.017
 6933SOL    HW221699   3.651   5.771   5.087
 6934SOL     OW21700   5.286   2.735   0.129
 6934SOL    HW121701   5.384   2.733   0.112
 6934SOL    HW221702   5.264   2.677   0.208
 6935SOL     OW21703   3.983   6.041   3.642
 6935SOL    HW121704   3.961   6.136   3.618
 6935SOL    HW221705   3.922   5.979   3.592
 6936SOL     OW21706   0.216   2.287   2.269
 6936SOL    HW121707   0.221   2.340   2.184
 6936SOL    HW221708   0.136   2.315   2.321
 6937SOL     OW21709   4.306   6.244   5.768
 6937SOL    HW121710   4.297   6.243   5.669
 6937SOL    HW221711   4.352   6.328   5.797
 6938SOL     OW21712   4.957   3.571   6.070
 6938SOL    HW121713   4.923   3.479   6.090
 6938SOL    HW221714   4.994   3.573   5.976
 6939SOL     OW21715   0.048   4.678   2.331
 6939SOL    HW121716   0.098   4.621   2.396
 6939SOL    HW221717   0.089   4.667   2.240
 6940SOL     OW21718   5.020   0.786   7.012
 6940SOL    HW121719   4.938   0.828   0.025
 6940SOL    HW221720   5.084   0.858   6.985
 6941SOL     OW21721   2.911   3.159   2.184
 6941SOL    HW121722   2.867   3.156   2.094
 6941SOL    HW221723   2.997   3.108   2.180
 6942SOL     OW21724   0.452   2.363   0.529
 6942SOL    HW121725   0.400   2.278   0.535
 6942SOL    HW221726   0.400   2.438   0.569
 6943SOL     OW21727   5.352   6.348   6.052
 6943SOL    HW121728   5.338   6.378   6.146
 6943SOL    HW221729   5.357   6.427   5.992
 6944SOL     OW21730   1.443   5.748   5.831
 6944SOL    HW121731   1.537   5.717   5.844
 6944SOL    HW221732   1.386   5.671   5.804
 6945SOL     OW21733   6.211   3.285   6.429
 6945SOL    HW121734   6.211   3.188   6.401
 6945SOL    HW221735   6.133   3.331   6.386
 6946SOL     OW21736   6.125   4.599   2.494
 6946SOL    HW121737   6.168   4.583   2.582
 6946SOL    HW221738   6.083   4.515   2.460
 6947SOL     OW21739   3.861   0.017   3.512
 6947SOL    HW121740   3.910   6.974   3.460
 6947SOL    HW221741   3.914   0.102   3.513
 6948SOL     OW21742   4.930   0.370   0.570
 6948SOL    HW121743   4.937   0.382   0.669
 6948SOL    HW221744   4.880   0.286   0.550
 6949SOL     OW21745   4.689   6.375   3.295
 6949SOL    HW121746   4.776   6.374   3.246
 6949SOL    HW221747   4.640   6.460   3.275
 6950SOL     OW21748   1.870   0.491   3.001
 6950SOL    HW121749   1.774   0.519   3.010
 6950SOL    HW221750   1.917   0.507   3.088
 6951SOL     OW21751   6.416   6.235   6.107
 6951SOL    HW121752   6.395   6.185   6.022
 6951SOL    HW221753   6.392   6.331   6.095
 6952SOL     OW21754   0.145   5.137   3.273
 6952SOL    HW121755   0.084   5.124   3.352
 6952SOL    HW221756   0.212   5.208   3.294
 6953SOL     OW21757   5.178   0.998   5.909
 6953SOL    HW121758   5.145   0.923   5.851
 6953SOL    HW221759   5.118   1.008   5.988
 6954SOL     OW21760   0.468   3.128   4.038
 6954SOL    HW121761   0.433   3.089   4.123
 6954SOL    HW221762   0.460   3.059   3.965
 6955SOL     OW21763   0.350   6.723   1.682
 6955SOL    HW121764   0.260   6.743   1.642
 6955SOL    HW221765   0.353   6.760   1.775
 6956SOL     OW21766   4.552   5.538   1.932
 6956SOL    HW121767   4.647   5.508   1.944
 6956SOL    HW221768   4.544   5.634   1.959
 6957SOL     OW21769   6.739   4.781   1.994
 6957SOL    HW121770   6.775   4.761   1.903
 6957SOL    HW221771   6.749   4.700   2.052
 6958SOL     OW21772   2.207   2.298   6.307
 6958SOL    HW121773   2.183   2.269   6.214
 6958SOL    HW221774   2.127   2.338   6.351
 6959SOL     OW21775   3.387   1.681   4.878
 6959SOL    HW121776   3.314   1.631   4.926
 6959SOL    HW221777   3.470   1.626   4.876
 6960SOL     OW21778   6.881   5.065   0.121
 6960SOL    HW121779   6.894   5.018   0.034
 6960SOL    HW221780   6.969   5.102   0.152
 6961SOL     OW21781   0.528   2.421   3.625
 6961SOL    HW121782   0.622   2.418   3.593
 6961SOL    HW221783   0.523   2.387   3.719
 6962SOL     OW21784   5.439   5.788   2.743
 6962SOL    HW121785   5.392   5.715   2.792
 6962SOL    HW221786   5.401   5.877   2.769
 6963SOL     OW21787   0.170   5.175   1.616
 6963SOL    HW121788   0.168   5.189   1.715
 6963SOL    HW221789   0.121   5.250   1.571
 6964SOL     OW21790   4.851   5.141   5.121
 6964SOL    HW121791   4.877   5.155   5.217
 6964SOL    HW221792   4.813   5.050   5.109
 6965SOL     OW21793   6.683   3.271   6.160
 6965SOL    HW121794   6.772   3.237   6.189
 6965SOL    HW221795   6.614   3.248   6.229
 6966SOL     OW21796   5.395   2.692   2.761
 6966SOL    HW121797   5.450   2.771   2.733
 6966SOL    HW221798   5.348   2.713   2.847
 6967SOL     OW21799   1.569   1.935   5.978
 6967SOL    HW121800   1.471   1.917   5.977
 6967SOL    HW221801   1.593   1.988   6.060
 6968SOL     OW21802   4.508   6.088   0.974
 6968SOL    HW121803   4.428   6.028   0.973
 6968SOL    HW221804   4.478   6.183   0.987
 6969SOL     OW21805   4.279   1.350   1.695
 6969SOL    HW121806   4.230   1.434   1.718
 6969SOL    HW221807   4.242   1.274   1.749
 6970SOL     OW21808   4.202   4.298   0.607
 6970SOL    HW121809   4.188   4.214   0.554
 6970SOL    HW221810   4.131   4.365   0.584
 6971SOL     OW21811   6.533   2.581   1.570
 6971SOL    HW121812   6.616   2.635   1.557
 6971SOL    HW221813   6.456   2.641   1.590
 6972SOL     OW21814   5.372   4.386   4.043
 6972SOL    HW121815   5.284   4.395   3.996
 6972SOL    HW221816   5.372   4.443   4.125
 6973SOL     OW21817   1.807   4.375   4.593
 6973SOL    HW121818   1.903   4.366   4.618
 6973SOL    HW221819   1.769   4.284   4.573
 6974SOL     OW21820   3.839   3.455   3.279
 6974SOL    HW121821   3.796   3.437   3.368
 6974SOL    HW221822   3.935   3.476   3.293
 6975SOL     OW21823   3.189   0.064   5.509
 6975SOL    HW121824   3.272   0.033   5.462
 6975SOL    HW221825   3.203   0.157   5.543
 6976SOL     OW21826   3.232   4.658   6.517
 6976SOL    HW121827   3.275   4.573   6.486
 6976SOL    HW221828   3.276   4.736   6.472
 6977SOL     OW21829   4.822   1.831   2.004
 6977SOL    HW121830   4.724   1.843   1.989
 6977SOL    HW221831   4.856   1.909   2.057
 6978SOL     OW21832   6.680   0.537   1.952
 6978SOL    HW121833   6.777   0.548   1.976
 6978SOL    HW221834   6.669   0.553   1.854
 6979SOL     OW21835   1.321   4.976   2.026
 6979SOL    HW121836   1.393   5.001   1.961
 6979SOL    HW221837   1.243   4.937   1.977
 6980SOL     OW21838   2.349   0.588   3.551
 6980SOL    HW121839   2.293   0.665   3.581
 6980SOL    HW221840   2.291   0.518   3.509
 6981SOL     OW21841   2.648   4.174   6.730
 6981SOL    HW121842   2.664   4.166   6.828
 6981SOL    HW221843   2.617   4.086   6.694
 6982SOL     OW21844   1.355   0.918   3.907
 6982SOL    HW121845   1.276   0.874   3.949
 6982SOL    HW221846   1.402   0.973   3.975
 6983SOL     OW21847   0.407   0.876   4.452
 6983SOL    HW121848   0.327   0.866   4.393
 6983SOL    HW221849   0.459   0.791   4.452
 6984SOL     OW21850   2.297   1.656   5.326
 6984SOL    HW121851   2.266   1.567   5.292
 6984SOL    HW221852   2.318   1.716   5.249
 6985SOL     OW21853   3.989   5.572   2.199
 6985SOL    HW121854   3.909   5.628   2.219
 6985SOL    HW221855   3.961   5.493   2.144
 6986SOL     OW21856   2.262   6.285   5.915
 6986SOL    HW121857   2.252   6.264   6.012
 6986SOL    HW221858   2.172   6.292   5.873
 6987SOL     OW21859   0.298   2.051   6.348
 6987SOL    HW121860   0.396   2.056   6.365
 6987SOL    HW221861   0.261   1.969   6.393
 6988SOL     OW21862   5.472   1.455   4.572
 6988SOL    HW121863   5.391   1.457   4.631
 6988SOL    HW221864   5.553   1.480   4.625
 6989SOL     OW21865   0.985   1.754   3.406
 6989SOL    HW121866   1.079   1.746   3.372
 6989SOL    HW221867   0.968   1.849   3.435
 6990SOL     OW21868   5.030   2.048   0.152
 6990SOL    HW121869   4.963   2.020   0.221
 6990SOL    HW221870   4.984   2.101   0.081
 6991SOL     OW21871   2.562   4.594   5.120
 6991SOL    HW121872   2.507   4.674   5.097
 6991SOL    HW221873   2.655   4.607   5.086
 6992SOL     OW21874   6.005   6.134   4.670
 6992SOL    HW121875   6.003   6.051   4.725
 6992SOL    HW221876   6.017   6.213   4.730
 6993SOL     OW21877   6.038   6.655   3.321
 6993SOL    HW121878   6.090   6.735   3.353
 6993SOL    HW221879   6.097   6.600   3.262
 6994SOL     OW21880   0.977   3.947   5.597
 6994SOL    HW121881   1.059   3.911   5.642
 6994SOL    HW221882   0.909   3.874   5.590
 6995SOL     OW21883   6.110   5.098   4.896
 6995SOL    HW121884   6.161   5.054   4.821
 6995SOL    HW221885   6.045   5.163   4.857
 6996SOL     OW21886   2.911   0.670   4.913
 6996SOL    HW121887   2.886   0.577   4.883
 6996SOL    HW221888   2.834   0.731   4.897
 6997SOL     OW21889   4.827   6.340   5.119
 6997SOL    HW121890   4.868   6.375   5.035
 6997SOL    HW221891   4.746   6.394   5.141
 6998SOL     OW21892   1.724   3.043   1.685
 6998SOL    HW121893   1.757   3.130   1.721
 6998SOL    HW221894   1.789   3.009   1.618
 6999SOL     OW21895   2.330   1.619   6.272
 6999SOL    HW121896   2.388   1.635   6.192
 6999SOL    HW221897   2.377   1.556   6.335
 7000SOL     OW21898   0.328   6.040   2.703
 7000SOL    HW121899   0.386   6.042   2.621
 7000SOL    HW221900   0.355   5.963   2.761
 7001SOL     OW21901   2.623   2.695   5.972
 7001SOL    HW121902   2.548   2.724   6.031
 7001SOL    HW221903   2.609   2.599   5.945
 7002SOL     OW21904   2.685   4.758   3.522
 7002SOL    HW121905   2.652   4.759   3.617
 7002SOL    HW221906   2.650   4.678   3.475
 7003SOL     OW21907   3.033   0.308   7.000
 7003SOL    HW121908   3.091   0.228   7.015
 7003SOL    HW221909   2.945   0.294   0.018
 7004SOL     OW21910   2.246   4.356   1.593
 7004SOL    HW121911   2.195   4.302   1.659
 7004SOL    HW221912   2.254   4.305   1.507
 7005SOL     OW21913   6.518   6.192   5.788
 7005SOL    HW121914   6.485   6.284   5.768
 7005SOL    HW221915   6.614   6.196   5.816
 7006SOL     OW21916   4.948   4.212   5.168
 7006SOL    HW121917   4.943   4.183   5.073
 7006SOL    HW221918   5.039   4.191   5.205
 7007SOL     OW21919   4.832   6.687   3.461
 7007SOL    HW121920   4.761   6.618   3.474
 7007SOL    HW221921   4.792   6.768   3.419
 7008SOL     OW21922   2.495   4.931   4.307
 7008SOL    HW121923   2.535   4.840   4.305
 7008SOL    HW221924   2.398   4.925   4.329
 7009SOL     OW21925   6.394   4.985   2.459
 7009SOL    HW121926   6.421   4.960   2.552
 7009SOL    HW221927   6.326   4.920   2.425
 7010SOL     OW21928   3.739   4.883   6.184
 7010SOL    HW121929   3.706   4.873   6.091
 7010SOL    HW221930   3.762   4.793   6.221
 7011SOL     OW21931   1.468   6.822   4.904
 7011SOL    HW121932   1.374   6.846   4.881
 7011SOL    HW221933   1.504   6.886   4.972
 7012SOL     OW21934   1.215   0.399   2.086
 7012SOL    HW121935   1.276   0.321   2.073
 7012SOL    HW221936   1.220   0.430   2.181
 7013SOL     OW21937   0.848   6.633   1.154
 7013SOL    HW121938   0.929   6.585   1.119
 7013SOL    HW221939   0.840   6.618   1.252
 7014SOL     OW21940   4.301   3.887   1.171
 7014SOL    HW121941   4.252   3.803   1.149
 7014SOL    HW221942   4.262   3.963   1.118
 7015SOL     OW21943   5.823   3.854   1.940
 7015SOL    HW121944   5.873   3.825   2.023
 7015SOL    HW221945   5.768   3.934   1.962
 7016SOL     OW21946   4.380   5.136   2.165
 7016SOL    HW121947   4.465   5.186   2.149
 7016SOL    HW221948   4.336   5.115   2.077
 7017SOL     OW21949   2.370   1.297   2.897
 7017SOL    HW121950   2.388   1.332   2.805
 7017SOL    HW221951   2.381   1.197   2.897
 7018SOL     OW21952   0.037   4.098   4.999
 7018SOL    HW121953   6.970   4.070   4.980
 7018SOL    HW221954   0.058   4.181   4.948
 7019SOL     OW21955   2.473   4.769   6.687
 7019SOL    HW121956   2.513   4.685   6.726
 7019SOL    HW221957   2.544   4.838   6.676
 7020SOL     OW21958   5.393   6.824   0.473
 7020SOL    HW121959   5.346   6.755   0.529
 7020SOL    HW221960   5.377   6.805   0.376
 7021SOL     OW21961   2.801   0.970   4.858
 7021SOL    HW121962   2.878   1.022   4.895
 7021SOL    HW221963   2.741   1.032   4.807
 7022SOL     OW21964   5.271   3.803   0.747
 7022SOL    HW121965   5.206   3.727   0.756
 7022SOL    HW221966   5.338   3.799   0.821
 7023SOL     OW21967   6.523   2.250   3.026
 7023SOL    HW121968   6.600   2.307   3.055
 7023SOL    HW221969   6.556   2.162   2.994
 7024SOL     OW21970   1.855   5.643   6.142
 7024SOL    HW121971   1.839   5.572   6.211
 7024SOL    HW221972   1.897   5.723   6.186
 7025SOL     OW21973   2.980   1.525   6.282
 7025SOL    HW121974   3.062   1.468   6.281
 7025SOL    HW221975   2.990   1.598   6.214
 7026SOL     OW21976   2.843   1.320   1.904
 7026SOL    HW121977   2.837   1.225   1.873
 7026SOL    HW221978   2.938   1.343   1.926
 7027SOL     OW21979   3.859   5.858   3.163
 7027SOL    HW121980   3.882   5.805   3.081
 7027SOL    HW221981   3.844   5.953   3.137
 7028SOL     OW21982   5.301   6.713   4.481
 7028SOL    HW121983   5.226   6.671   4.532
 7028SOL    HW221984   5.305   6.676   4.389
 7029SOL     OW21985   3.624   6.128   6.630
 7029SOL    HW121986   3.527   6.149   6.621
 7029SOL    HW221987   3.652   6.141   6.725
 7030SOL     OW21988   0.596   3.762   5.761
 7030SOL    HW121989   0.537   3.813   5.699
 7030SOL    HW221990   0.587   3.664   5.744
 7031SOL     OW21991   2.299   5.711   3.782
 7031SOL    HW121992   2.361   5.761   3.843
 7031SOL    HW221993   2.205   5.719   3.816
 7032SOL     OW21994   4.251   0.266   3.247
 7032SOL    HW121995   4.327   0.202   3.233
 7032SOL    HW221996   4.244   0.327   3.168
 7033SOL     OW21997   6.690   1.106   4.261
 7033SOL    HW121998   6.767   1.146   4.211
 7033SOL    HW221999   6.659   1.024   4.214
 7034SOL     OW22000   5.378   0.356   2.606
 7034SOL    HW122001   5.344   0.287   2.670
 7034SOL    HW222002   5.309   0.371   2.535
 7035SOL     OW22003   1.005   6.781   2.552
 7035SOL    HW122004   1.032   6.724   2.474
 7035SOL    HW222005   0.958   6.862   2.519
 7036SOL     OW22006   6.471   5.854   1.714
 7036SOL    HW122007   6.528   5.795   1.657
 7036SOL    HW222008   6.438   5.931   1.659
 7037SOL     OW22009   0.539   6.740   6.121
 7037SOL    HW122010   0.496   6.763   6.033
 7037SOL    HW222011   0.476   6.685   6.175
 7038SOL     OW22012   1.798   4.018   4.187
 7038SOL    HW122013   1.835   3.966   4.263
 7038SOL    HW222014   1.698   4.021   4.192
 7039SOL     OW22015   3.263   6.825   0.029
 7039SOL    HW122016   3.259   6.797   0.125
 7039SOL    HW222017   3.268   6.924   0.023
 7040SOL     OW22018   4.901   2.878   6.093
 7040SOL    HW122019   4.802   2.891   6.104
 7040SOL    HW222020   4.919   2.781   6.078
 7041SOL     OW22021   1.216   1.819   3.294
 7041SOL    HW122022   1.199   1.782   3.203
 7041SOL    HW222023   1.303   1.784   3.328
 7042SOL     OW22024   5.010   4.991   6.479
 7042SOL    HW122025   4.946   5.037   6.417
 7042SOL    HW222026   4.967   4.908   6.515
 7043SOL     OW22027   2.016   3.038   3.093
 7043SOL    HW122028   2.064   2.952   3.112
 7043SOL    HW222029   2.075   3.115   3.119
 7044SOL     OW22030   4.723   4.652   3.189
 7044SOL    HW122031   4.660   4.577   3.207
 7044SOL    HW222032   4.804   4.618   3.142
 7045SOL     OW22033   4.790   6.608   0.851
 7045SOL    HW122034   4.838   6.632   0.935
 7045SOL    HW222035   4.741   6.522   0.864
 7046SOL     OW22036   3.627   1.870   4.119
 7046SOL    HW122037   3.691   1.812   4.170
 7046SOL    HW222038   3.662   1.884   4.026
 7047SOL     OW22039   1.106   2.284   3.100
 7047SOL    HW122040   1.144   2.223   3.171
 7047SOL    HW222041   1.146   2.375   3.109
 7048SOL     OW22042   1.311   5.782   0.937
 7048SOL    HW122043   1.230   5.840   0.939
 7048SOL    HW222044   1.338   5.759   1.030
 7049SOL     OW22045   2.372   0.745   0.812
 7049SOL    HW122046   2.430   0.678   0.766
 7049SOL    HW222047   2.324   0.800   0.744
 7050SOL     OW22048   3.513   4.171   3.730
 7050SOL    HW122049   3.531   4.233   3.654
 7050SOL    HW222050   3.519   4.076   3.697
 7051SOL     OW22051   6.928   0.264   1.103
 7051SOL    HW122052   6.988   0.186   1.084
 7051SOL    HW222053   6.981   0.349   1.097
 7052SOL     OW22054   6.846   2.140   4.789
 7052SOL    HW122055   6.861   2.158   4.886
 7052SOL    HW222056   6.880   2.049   4.766
 7053SOL     OW22057   0.170   3.514   6.902
 7053SOL    HW122058   0.154   3.527   6.804
 7053SOL    HW222059   0.233   3.584   6.936
 7054SOL     OW22060   0.789   5.900   1.256
 7054SOL    HW122061   0.888   5.910   1.255
 7054SOL    HW222062   0.749   5.960   1.187
 7055SOL     OW22063   4.246   6.321   5.486
 7055SOL    HW122064   4.286   6.388   5.422
 7055SOL    HW222065   4.147   6.321   5.476
 7056SOL     OW22066   5.432   5.202   3.497
 7056SOL    HW122067   5.382   5.125   3.457
 7056SOL    HW222068   5.442   5.188   3.596
 7057SOL     OW22069   0.909   4.066   4.876
 7057SOL    HW122070   0.813   4.078   4.850
 7057SOL    HW222071   0.922   3.976   4.917
 7058SOL     OW22072   0.093   5.492   5.541
 7058SOL    HW122073   0.085   5.512   5.638
 7058SOL    HW222074   0.001   5.484   5.501
 7059SOL     OW22075   0.191   0.330   2.005
 7059SOL    HW122076   0.144   0.266   2.066
 7059SOL    HW222077   0.261   0.282   1.953
 7060SOL     OW22078   3.387   0.102   1.758
 7060SOL    HW122079   3.307   0.153   1.725
 7060SOL    HW222080   3.457   0.167   1.789
 7061SOL     OW22081   0.252   2.262   3.599
 7061SOL    HW122082   0.330   2.324   3.607
 7061SOL    HW222083   0.272   2.192   3.529
 7062SOL     OW22084   5.666   1.789   5.784
 7062SOL    HW122085   5.567   1.785   5.797
 7062SOL    HW222086   5.686   1.812   5.689
 7063SOL     OW22087   1.226   6.439   0.600
 7063SOL    HW122088   1.291   6.460   0.674
 7063SOL    HW222089   1.148   6.500   0.606
 7064SOL     OW22090   4.397   2.367   1.604
 7064SOL    HW122091   4.476   2.413   1.643
 7064SOL    HW222092   4.314   2.418   1.626
 7065SOL     OW22093   5.021   4.161   1.039
 7065SOL    HW122094   4.922   4.171   1.027
 7065SOL    HW222095   5.049   4.205   1.124
 7066SOL     OW22096   3.738   0.888   0.554
 7066SOL    HW122097   3.687   0.925   0.631
 7066SOL    HW222098   3.674   0.847   0.489
 7067SOL     OW22099   0.784   3.344   5.617
 7067SOL    HW122100   0.722   3.326   5.694
 7067SOL    HW222101   0.871   3.377   5.652
 7068SOL     OW22102   0.862   3.168   2.799
 7068SOL    HW122103   0.783   3.212   2.755
 7068SOL    HW222104   0.869   3.073   2.767
 7069SOL     OW22105   6.361   3.226   4.543
 7069SOL    HW122106   6.432   3.297   4.546
 7069SOL    HW222107   6.288   3.250   4.607
 7070SOL     OW22108   6.571   5.200   5.246
 7070SOL    HW122109   6.608   5.260   5.175
 7070SOL    HW222110   6.500   5.142   5.206
 7071SOL     OW22111   0.308   6.641   5.279
 7071SOL    HW122112   0.404   6.616   5.266
 7071SOL    HW222113   0.250   6.577   5.229
 7072SOL     OW22114   6.894   6.890   6.392
 7072SOL    HW122115   6.814   6.920   6.341
 7072SOL    HW222116   6.968   6.955   6.379
 7073SOL     OW22117   6.930   1.009   4.775
 7073SOL    HW122118   0.001   1.000   4.757
 7073SOL    HW222119   6.916   1.034   4.871
 7074SOL     OW22120   3.629   3.022   2.302
 7074SOL    HW122121   3.577   2.965   2.366
 7074SOL    HW222122   3.567   3.061   2.233
 7075SOL     OW22123   1.280   6.589   4.391
 7075SOL    HW122124   1.283   6.633   4.481
 7075SOL    HW222125   1.260   6.492   4.402
 7076SOL     OW22126   3.556   1.806   0.096
 7076SOL    HW122127   3.562   1.860   0.012
 7076SOL    HW222128   3.622   1.841   0.162
 7077SOL     OW22129   2.297   5.735   5.589
 7077SOL    HW122130   2.260   5.821   5.554
 7077SOL    HW222131   2.266   5.721   5.683
 7078SOL     OW22132   6.386   0.315   2.461
 7078SOL    HW122133   6.323   0.265   2.401
 7078SOL    HW222134   6.465   0.258   2.481
 7079SOL     OW22135   6.505   6.655   5.887
 7079SOL    HW122136   6.436   6.622   5.951
 7079SOL    HW222137   6.523   6.584   5.818
 7080SOL     OW22138   4.120   1.886   4.000
 7080SOL    HW122139   4.213   1.910   3.970
 7080SOL    HW222140   4.103   1.926   4.090
 7081SOL     OW22141   3.883   1.025   5.370
 7081SOL    HW122142   3.959   1.039   5.433
 7081SOL    HW222143   3.893   1.087   5.292
 7082SOL     OW22144   5.425   6.430   0.403
 7082SOL    HW122145   5.342   6.473   0.369
 7082SOL    HW222146   5.464   6.487   0.476
 7083SOL     OW22147   3.230   1.193   6.144
 7083SOL    HW122148   3.211   1.257   6.219
 7083SOL    HW222149   3.185   1.225   6.061
 7084SOL     OW22150   6.901   6.717   5.195
 7084SOL    HW122151   6.881   6.814   5.206
 7084SOL    HW222152   6.818   6.664   5.210
 7085SOL     OW22153   1.758   1.091   3.216
 7085SOL    HW122154   1.705   1.136   3.144
 7085SOL    HW222155   1.774   1.155   3.291
 7086SOL     OW22156   5.374   1.328   6.262
 7086SOL    HW122157   5.321   1.365   6.186
 7086SOL    HW222158   5.319   1.329   6.345
 7087SOL     OW22159   0.809   3.165   4.397
 7087SOL    HW122160   0.777   3.167   4.302
 7087SOL    HW222161   0.909   3.158   4.399
 7088SOL     OW22162   4.810   2.976   4.017
 7088SOL    HW122163   4.735   2.921   3.979
 7088SOL    HW222164   4.888   2.916   4.036
 7089SOL     OW22165   2.931   2.700   6.452
 7089SOL    HW122166   2.892   2.773   6.509
 7089SOL    HW222167   2.989   2.642   6.509
 7090SOL     OW22168   2.331   1.277   5.547
 7090SOL    HW122169   2.317   1.340   5.471
 7090SOL    HW222170   2.426   1.283   5.577
 7091SOL     OW22171   6.930   1.610   6.409
 7091SOL    HW122172   6.927   1.709   6.420
 7091SOL    HW222173   6.989   1.570   6.479
 7092SOL     OW22174   4.262   3.043   0.289
 7092SOL    HW122175   4.347   3.051   0.237
 7092SOL    HW222176   4.282   3.055   0.387
 7093SOL     OW22177   3.383   3.873   4.077
 7093SOL    HW122178   3.305   3.886   4.138
 7093SOL    HW222179   3.371   3.929   3.995
 7094SOL     OW22180   0.582   6.415   5.552
 7094SOL    HW122181   0.521   6.373   5.485
 7094SOL    HW222182   0.675   6.418   5.516
 7095SOL     OW22183   2.657   2.896   0.445
 7095SOL    HW122184   2.581   2.945   0.403
 7095SOL    HW222185   2.621   2.818   0.497
 7096SOL     OW22186   5.857   1.467   3.601
 7096SOL    HW122187   5.893   1.373   3.601
 7096SOL    HW222188   5.862   1.504   3.508
 7097SOL     OW22189   6.784   0.550   1.647
 7097SOL    HW122190   6.768   0.492   1.567
 7097SOL    HW222191   6.840   0.628   1.620
 7098SOL     OW22192   1.033   5.874   4.904
 7098SOL    HW122193   1.067   5.890   4.811
 7098SOL    HW222194   0.944   5.829   4.900
 7099SOL     OW22195   1.376   1.233   4.736
 7099SOL    HW122196   1.329   1.200   4.654
 7099SOL    HW222197   1.436   1.162   4.772
 7100SOL     OW22198   5.443   3.422   1.186
 7100SOL    HW122199   5.538   3.449   1.197
 7100SOL    HW222200   5.407   3.391   1.274
 7101SOL     OW22201   2.939   0.373   4.496
 7101SOL    HW122202   2.905   0.344   4.406
 7101SOL    HW222203   2.892   0.457   4.524
 7102SOL     OW22204   4.604   0.796   1.144
 7102SOL    HW122205   4.694   0.837   1.133
 7102SOL    HW222206   4.534   0.868   1.144
 7103SOL     OW22207   3.885   5.488   0.240
 7103SOL    HW122208   3.943   5.509   0.161
 7103SOL    HW222209   3.867   5.571   0.291
 7104SOL     OW22210   1.263   3.502   4.522
 7104SOL    HW122211   1.257   3.600   4.507
 7104SOL    HW222212   1.359   3.473   4.517
 7105SOL     OW22213   3.702   2.992   5.377
 7105SOL    HW122214   3.675   2.923   5.310
 7105SOL    HW222215   3.622   3.042   5.409
 7106SOL     OW22216   3.425   3.294   3.710
 7106SOL    HW122217   3.345   3.237   3.729
 7106SOL    HW222218   3.499   3.238   3.674
 7107SOL     OW22219   2.426   1.006   0.549
 7107SOL    HW122220   2.341   0.980   0.594
 7107SOL    HW222221   2.448   0.938   0.478
 7108SOL     OW22222   4.528   6.306   0.695
 7108SOL    HW122223   4.442   6.270   0.731
 7108SOL    HW222224   4.574   6.360   0.767
 7109SOL     OW22225   3.682   6.804   6.231
 7109SOL    HW122226   3.727   6.892   6.214
 7109SOL    HW222227   3.675   6.788   6.330
 7110SOL     OW22228   5.062   5.163   3.623
 7110SOL    HW122229   5.054   5.228   3.547
 7110SOL    HW222230   5.132   5.196   3.687
 7111SOL     OW22231   1.154   2.788   4.697
 7111SOL    HW122232   1.167   2.809   4.794
 7111SOL    HW222233   1.218   2.842   4.642
 7112SOL     OW22234   1.416   5.766   4.663
 7112SOL    HW122235   1.410   5.666   4.667
 7112SOL    HW222236   1.419   5.803   4.756
 7113SOL     OW22237   3.477   4.152   4.708
 7113SOL    HW122238   3.564   4.168   4.754
 7113SOL    HW222239   3.403   4.193   4.762
 7114SOL     OW22240   4.384   6.965   1.737
 7114SOL    HW122241   4.347   0.012   1.794
 7114SOL    HW222242   4.408   7.001   1.647
 7115SOL     OW22243   5.271   2.391   1.901
 7115SOL    HW122244   5.353   2.340   1.876
 7115SOL    HW222245   5.203   2.382   1.827
 7116SOL     OW22246   5.635   3.585   3.318
 7116SOL    HW122247   5.711   3.520   3.321
 7116SOL    HW222248   5.591   3.590   3.408
 7117SOL     OW22249   7.004   6.986   4.529
 7117SOL    HW122250   6.921   0.013   4.513
 7117SOL    HW222251   0.044   7.006   4.457
 7118SOL     OW22252   4.702   2.903   0.769
 7118SOL    HW122253   4.705   3.001   0.749
 7118SOL    HW222254   4.681   2.890   0.866
 7119SOL     OW22255   4.896   1.246   3.185
 7119SOL    HW122256   4.882   1.188   3.105
 7119SOL    HW222257   4.880   1.342   3.160
 7120SOL     OW22258   3.824   1.767   2.769
 7120SOL    HW122259   3.731   1.785   2.738
 7120SOL    HW222260   3.860   1.847   2.817
 7121SOL     OW22261   1.775   0.203   3.061
 7121SOL    HW122262   1.758   0.185   3.158
 7121SOL    HW222263   1.846   0.273   3.052
 7122SOL     OW22264   6.478   1.030   0.121
 7122SOL    HW122265   6.447   1.116   0.163
 7122SOL    HW222266   6.402   0.966   0.117
 7123SOL     OW22267   3.542   5.289   1.440
 7123SOL    HW122268   3.609   5.361   1.456
 7123SOL    HW222269   3.521   5.244   1.527
 7124SOL     OW22270   1.177   4.098   0.294
 7124SOL    HW122271   1.125   4.045   0.227
 7124SOL    HW222272   1.197   4.040   0.373
 7125SOL     OW22273   6.893   6.302   1.146
 7125SOL    HW122274   6.912   6.252   1.061
 7125SOL    HW222275   6.970   6.291   1.208
 7126SOL     OW22276   2.168   4.363   0.881
 7126SOL    HW122277   2.091   4.327   0.934
 7126SOL    HW222278   2.229   4.413   0.941
 7127SOL     OW22279   2.759   5.467   3.846
 7127SOL    HW122280   2.812   5.401   3.899
 7127SOL    HW222281   2.803   5.557   3.852
 7128SOL     OW22282   2.853   4.723   0.209
 7128SOL    HW122283   2.952   4.730   0.200
 7128SOL    HW222284   2.827   4.627   0.219
 7129SOL     OW22285   3.367   1.024   1.022
 7129SOL    HW122286   3.325   1.111   0.995
 7129SOL    HW222287   3.401   1.031   1.116
 7130SOL     OW22288   3.184   5.009   4.595
 7130SOL    HW122289   3.198   5.095   4.644
 7130SOL    HW222290   3.129   4.947   4.651
 7131SOL     OW22291   2.407   1.781   0.337
 7131SOL    HW122292   2.380   1.720   0.262
 7131SOL    HW222293   2.481   1.841   0.306
 7132SOL     OW22294   4.201   3.768   1.843
 7132SOL    HW122295   4.170   3.794   1.934
 7132SOL    HW222296   4.204   3.849   1.784
 7133SOL     OW22297   5.284   4.990   3.446
 7133SOL    HW122298   5.350   4.931   3.493
 7133SOL    HW222299   5.191   4.960   3.468
 7134SOL     OW22300   6.070   5.558   3.189
 7134SOL    HW122301   6.064   5.612   3.105
 7134SOL    HW222302   6.078   5.461   3.166
 7135SOL     OW22303   1.348   1.257   3.621
 7135SOL    HW122304   1.386   1.172   3.658
 7135SOL    HW222305   1.249   1.249   3.612
 7136SOL     OW22306   1.712   1.710   0.375
 7136SOL    HW122307   1.670   1.702   0.285
 7136SOL    HW222308   1.704   1.804   0.408
 7137SOL     OW22309   4.556   1.299   4.747
 7137SOL    HW122310   4.505   1.346   4.819
 7137SOL    HW222311   4.647   1.275   4.781
 7138SOL     OW22312   3.111   2.525   1.321
 7138SOL    HW122313   3.200   2.557   1.290
 7138SOL    HW222314   3.052   2.507   1.242
 7139SOL     OW22315   4.906   3.221   2.177
 7139SOL    HW122316   4.874   3.139   2.130
 7139SOL    HW222317   4.883   3.301   2.122
 7140SOL     OW22318   6.478   3.342   5.013
 7140SOL    HW122319   6.426   3.271   5.061
 7140SOL    HW222320   6.575   3.335   5.039
 7141SOL     OW22321   3.297   0.086   0.951
 7141SOL    HW122322   3.230   0.081   1.025
 7141SOL    HW222323   3.273   0.022   0.879
 7142SOL     OW22324   4.310   6.655   3.254
 7142SOL    HW122325   4.310   6.614   3.346
 7142SOL    HW222326   4.320   6.755   3.262
 7143SOL     OW22327   1.330   2.947   6.259
 7143SOL    HW122328   1.329   2.911   6.352
 7143SOL    HW222329   1.424   2.973   6.235
 7144SOL     OW22330   1.165   1.107   3.066
 7144SOL    HW122331   1.125   1.016   3.051
 7144SOL    HW222332   1.093   1.176   3.056
 7145SOL     OW22333   3.944   6.216   6.634
 7145SOL    HW122334   3.870   6.173   6.686
 7145SOL    HW222335   3.913   6.302   6.595
 7146SOL     OW22336   2.541   0.287   0.232
 7146SOL    HW122337   2.503   0.223   0.165
 7146SOL    HW222338   2.560   0.239   0.317
 7147SOL     OW22339   6.436   6.944   3.626
 7147SOL    HW122340   6.339   6.920   3.630
 7147SOL    HW222341   6.474   6.945   3.718
 7148SOL     OW22342   0.937   5.608   1.858
 7148SOL    HW122343   0.939   5.508   1.861
 7148SOL    HW222344   0.867   5.641   1.921
 7149SOL     OW22345   6.935   0.094   3.491
 7149SOL    HW122346   6.949   0.182   3.537
 7149SOL    HW222347   6.837   0.080   3.476
 7150SOL     OW22348   5.226   3.329   1.669
 7150SOL    HW122349   5.157   3.258   1.681
 7150SOL    HW222350   5.288   3.302   1.595
 7151SOL     OW22351   0.924   5.316   1.042
 7151SOL    HW122352   0.905   5.370   0.960
 7151SOL    HW222353   0.905   5.219   1.023
 7152SOL     OW22354   0.369   2.626   5.950
 7152SOL    HW122355   0.444   2.647   5.888
 7152SOL    HW222356   0.357   2.700   6.015
 7153SOL     OW22357   3.197   6.261   4.862
 7153SOL    HW122358   3.186   6.177   4.809
 7153SOL    HW222359   3.291   6.268   4.895
 7154SOL     OW22360   4.013   5.920   4.592
 7154SOL    HW122361   4.047   6.004   4.633
 7154SOL    HW222362   4.003   5.932   4.494
 7155SOL     OW22363   1.636   6.303   1.328
 7155SOL    HW122364   1.552   6.271   1.283
 7155SOL    HW222365   1.638   6.403   1.329
 7156SOL     OW22366   0.620   4.989   4.355
 7156SOL    HW122367   0.660   5.007   4.265
 7156SOL    HW222368   0.635   5.068   4.415
 7157SOL     OW22369   6.097   5.415   0.945
 7157SOL    HW122370   6.094   5.503   0.993
 7157SOL    HW222371   6.162   5.354   0.991
 7158SOL     OW22372   0.335   0.076   3.606
 7158SOL    HW122373   0.378   0.115   3.525
 7158SOL    HW222374   0.254   0.128   3.630
 7159SOL     OW22375   0.282   4.267   2.389
 7159SOL    HW122376   0.375   4.291   2.415
 7159SOL    HW222377   0.280   4.233   2.295
 7160SOL     OW22378   6.769   0.897   2.978
 7160SOL    HW122379   6.693   0.919   3.039
 7160SOL    HW222380   6.847   0.955   2.999
 7161SOL     OW22381   3.327   4.167   3.932
 7161SOL    HW122382   3.394   4.196   3.863
 7161SOL    HW222383   3.361   4.188   4.023
 7162SOL     OW22384   2.865   5.948   5.466
 7162SOL    HW122385   2.873   5.865   5.521
 7162SOL    HW222386   2.911   5.935   5.378
 7163SOL     OW22387   3.285   6.745   4.436
 7163SOL    HW122388   3.312   6.817   4.500
 7163SOL    HW222389   3.357   6.676   4.431
 7164SOL     OW22390   1.654   2.248   3.203
 7164SOL    HW122391   1.571   2.237   3.150
 7164SOL    HW222392   1.642   2.206   3.293
 7165SOL     OW22393   5.992   0.528   1.065
 7165SOL    HW122394   5.987   0.627   1.074
 7165SOL    HW222395   5.956   0.501   0.976
 7166SOL     OW22396   5.307   4.201   1.158
 7166SOL    HW122397   5.379   4.158   1.212
 7166SOL    HW222398   5.311   4.167   1.064
 7167SOL     OW22399   4.839   3.954   4.899
 7167SOL    HW122400   4.855   3.914   4.809
 7167SOL    HW222401   4.815   4.050   4.890
 7168SOL     OW22402   1.149   2.064   4.110
 7168SOL    HW122403   1.237   2.085   4.066
 7168SOL    HW222404   1.094   2.007   4.048
 7169SOL     OW22405   1.259   3.150   4.985
 7169SOL    HW122406   1.209   3.152   4.898
 7169SOL    HW222407   1.320   3.070   4.986
 7170SOL     OW22408   3.840   5.327   3.230
 7170SOL    HW122409   3.927   5.294   3.267
 7170SOL    HW222410   3.859   5.392   3.156
 7171SOL     OW22411   5.791   3.820   6.173
 7171SOL    HW122412   5.847   3.831   6.254
 7171SOL    HW222413   5.849   3.793   6.095
 7172SOL     OW22414   1.611   6.952   6.288
 7172SOL    HW122415   1.707   6.932   6.273
 7172SOL    HW222416   1.559   6.867   6.290
 7173SOL     OW22417   0.301   4.758   5.359
 7173SOL    HW122418   0.204   4.737   5.367
 7173SOL    HW222419   0.315   4.824   5.285
 7174SOL     OW22420   1.391   5.441   6.649
 7174SOL    HW122421   1.450   5.521   6.659
 7174SOL    HW222422   1.353   5.439   6.557
 7175SOL     OW22423   6.019   2.879   0.873
 7175SOL    HW122424   6.048   2.839   0.786
 7175SOL    HW222425   6.036   2.815   0.947
 7176SOL     OW22426   0.476   5.383   2.968
 7176SOL    HW122427   0.380   5.384   2.941
 7176SOL    HW222428   0.487   5.330   3.051
 7177SOL     OW22429   2.017   6.106   3.524
 7177SOL    HW122430   2.082   6.032   3.545
 7177SOL    HW222431   1.957   6.076   3.450
 7178SOL     OW22432   2.290   2.711   5.894
 7178SOL    HW122433   2.327   2.657   5.818
 7178SOL    HW222434   2.193   2.729   5.878
 7179SOL     OW22435   1.582   3.190   5.268
 7179SOL    HW122436   1.552   3.172   5.362
 7179SOL    HW222437   1.624   3.281   5.264
 7180SOL     OW22438   1.311   5.156   6.361
 7180SOL    HW122439   1.347   5.113   6.444
 7180SOL    HW222440   1.212   5.167   6.371
 7181SOL     OW22441   3.287   6.896   0.734
 7181SOL    HW122442   3.234   6.903   0.650
 7181SOL    HW222443   3.384   6.901   0.713
 7182SOL     OW22444   1.350   3.371   5.582
 7182SOL    HW122445   1.333   3.465   5.612
 7182SOL    HW222446   1.376   3.316   5.661
 7183SOL     OW22447   1.524   4.683   2.432
 7183SOL    HW122448   1.485   4.635   2.511
 7183SOL    HW222449   1.605   4.734   2.461
 7184SOL     OW22450   0.523   6.863   3.299
 7184SOL    HW122451   0.537   6.956   3.264
 7184SOL    HW222452   0.561   6.855   3.391
 7185SOL     OW22453   4.987   2.610   5.980
 7185SOL    HW122454   5.057   2.616   6.052
 7185SOL    HW222455   5.021   2.555   5.904
 7186SOL     OW22456   6.987   6.932   5.650
 7186SOL    HW122457   0.039   6.975   5.605
 7186SOL    HW222458   7.014   6.900   5.740
 7187SOL     OW22459   1.529   4.619   1.504
 7187SOL    HW122460   1.553   4.653   1.595
 7187SOL    HW222461   1.430   4.605   1.499
 7188SOL     OW22462   5.816   0.040   0.785
 7188SOL    HW122463   5.731   0.059   0.835
 7188SOL    HW222464   5.829   0.108   0.714
 7189SOL     OW22465   6.242   1.199   6.657
 7189SOL    HW122466   6.334   1.214   6.692
 7189SOL    HW222467   6.232   1.242   6.568
 7190SOL     OW22468   5.098   3.564   3.186
 7190SOL    HW122469   5.164   3.628   3.224
 7190SOL    HW222470   5.145   3.482   3.154
 7191SOL     OW22471   0.903   3.987   2.603
 7191SOL    HW122472   0.816   4.023   2.568
 7191SOL    HW222473   0.979   4.029   2.553
 7192SOL     OW22474   1.964   6.380   5.148
 7192SOL    HW122475   1.920   6.421   5.228
 7192SOL    HW222476   1.996   6.452   5.086
 7193SOL     OW22477   2.978   2.213   3.403
 7193SOL    HW122478   2.923   2.244   3.325
 7193SOL    HW222479   3.050   2.152   3.371
 7194SOL     OW22480   2.346   1.987   0.827
 7194SOL    HW122481   2.383   1.938   0.906
 7194SOL    HW222482   2.406   1.974   0.749
 7195SOL     OW22483   0.115   5.147   0.065
 7195SOL    HW122484   0.177   5.151   0.144
 7195SOL    HW222485   0.129   5.061   0.017
 7196SOL     OW22486   2.867   3.561   2.383
 7196SOL    HW122487   2.862   3.575   2.284
 7196SOL    HW222488   2.909   3.641   2.426
 7197SOL     OW22489   6.687   2.732   5.852
 7197SOL    HW122490   6.600   2.759   5.891
 7197SOL    HW222491   6.671   2.667   5.777
 7198SOL     OW22492   1.253   0.490   5.569
 7198SOL    HW122493   1.270   0.569   5.627
 7198SOL    HW222494   1.283   0.511   5.475
 7199SOL     OW22495   1.357   1.054   2.258
 7199SOL    HW122496   1.403   1.143   2.259
 7199SOL    HW222497   1.266   1.064   2.297
 7200SOL     OW22498   2.680   0.136   6.938
 7200SOL    HW122499   2.590   0.161   6.974
 7200SOL    HW222500   2.684   0.160   6.841
 7201SOL     OW22501   1.603   4.756   3.051
 7201SOL    HW122502   1.562   4.672   3.085
 7201SOL    HW222503   1.535   4.829   3.050
 7202SOL     OW22504   3.775   0.034   6.216
 7202SOL    HW122505   3.760   0.102   6.288
 7202SOL    HW222506   3.853   0.062   6.160
 7203SOL     OW22507   5.771   0.847   0.290
 7203SOL    HW122508   5.760   0.749   0.303
 7203SOL    HW222509   5.859   0.866   0.247
 7204SOL     OW22510   5.964   6.688   4.408
 7204SOL    HW122511   5.918   6.675   4.320
 7204SOL    HW222512   5.920   6.632   4.478
 7205SOL     OW22513   1.341   6.032   3.482
 7205SOL    HW122514   1.243   6.022   3.500
 7205SOL    HW222515   1.392   6.021   3.567
 7206SOL     OW22516   0.809   0.969   1.424
 7206SOL    HW122517   0.716   0.941   1.399
 7206SOL    HW222518   0.844   1.032   1.354
 7207SOL     OW22519   3.635   0.012   1.991
 7207SOL    HW122520   3.652   0.031   1.895
 7207SOL    HW222521   3.662   0.091   2.046
 7208SOL     OW22522   4.089   6.427   4.489
 7208SOL    HW122523   4.023   6.420   4.564
 7208SOL    HW222524   4.143   6.343   4.485
 7209SOL     OW22525   3.168   3.191   3.730
 7209SOL    HW122526   3.159   3.108   3.785
 7209SOL    HW222527   3.084   3.244   3.736
 7210SOL     OW22528   5.378   0.414   3.797
 7210SOL    HW122529   5.339   0.455   3.715
 7210SOL    HW222530   5.340   0.458   3.878
 7211SOL     OW22531   0.939   5.811   3.821
 7211SOL    HW122532   0.845   5.839   3.800
 7211SOL    HW222533   0.964   5.733   3.763
 7212SOL     OW22534   0.538   5.755   3.957
 7212SOL    HW122535   0.439   5.772   3.950
 7212SOL    HW222536   0.588   5.840   3.943
 7213SOL     OW22537   5.605   6.567   5.502
 7213SOL    HW122538   5.640   6.660   5.510
 7213SOL    HW222539   5.630   6.515   5.584
 7214SOL     OW22540   2.505   5.526   4.392
 7214SOL    HW122541   2.464   5.528   4.301
 7214SOL    HW222542   2.555   5.440   4.404
 7215SOL     OW22543   0.824   3.666   4.367
 7215SOL    HW122544   0.873   3.613   4.298
 7215SOL    HW222545   0.762   3.730   4.322
 7216SOL     OW22546   3.094   5.463   0.425
 7216SOL    HW122547   3.184   5.421   0.423
 7216SOL    HW222548   3.045   5.431   0.507
 7217SOL     OW22549   1.569   4.694   1.771
 7217SOL    HW122550   1.536   4.664   1.861
 7217SOL    HW222551   1.669   4.689   1.769
 7218SOL     OW22552   4.462   2.975   5.634
 7218SOL    HW122553   4.482   2.962   5.537
 7218SOL    HW222554   4.385   2.916   5.660
 7219SOL     OW22555   4.415   6.261   3.331
 7219SOL    HW122556   4.367   6.202   3.396
 7219SOL    HW222557   4.499   6.296   3.373
 7220SOL     OW22558   6.421   6.073   3.805
 7220SOL    HW122559   6.422   6.100   3.708
 7220SOL    HW222560   6.494   6.121   3.853
 7221SOL     OW22561   5.697   4.886   5.376
 7221SOL    HW122562   5.754   4.807   5.352
 7221SOL    HW222563   5.682   4.942   5.295
 7222SOL     OW22564   6.360   6.554   0.411
 7222SOL    HW122565   6.411   6.582   0.330
 7222SOL    HW222566   6.332   6.636   0.462
 7223SOL     OW22567   3.215   1.730   1.433
 7223SOL    HW122568   3.142   1.791   1.463
 7223SOL    HW222569   3.183   1.676   1.354
 7224SOL     OW22570   6.045   1.828   4.602
 7224SOL    HW122571   5.957   1.859   4.567
 7224SOL    HW222572   6.030   1.764   4.677
 7225SOL     OW22573   1.764   5.575   6.801
 7225SOL    HW122574   1.808   5.501   6.851
 7225SOL    HW222575   1.805   5.663   6.827
 7226SOL     OW22576   0.276   0.438   0.500
 7226SOL    HW122577   0.204   0.504   0.476
 7226SOL    HW222578   0.269   0.359   0.440
 7227SOL     OW22579   0.909   2.278   0.551
 7227SOL    HW122580   0.975   2.290   0.625
 7227SOL    HW222581   0.838   2.348   0.557
 7228SOL     OW22582   0.308   0.529   1.607
 7228SOL    HW122583   0.286   0.625   1.624
 7228SOL    HW222584   0.223   0.478   1.588
 7229SOL     OW22585   0.747   0.329   4.000
 7229SOL    HW122586   0.804   0.411   4.009
 7229SOL    HW222587   0.736   0.307   3.903
 7230SOL     OW22588   4.216   5.468   4.979
 7230SOL    HW122589   4.288   5.481   4.912
 7230SOL    HW222590   4.248   5.496   5.070
 7231SOL     OW22591   4.740   0.825   0.049
 7231SOL    HW122592   4.710   0.913   0.012
 7231SOL    HW222593   4.704   0.751   7.019
 7232SOL     OW22594   3.757   4.883   3.547
 7232SOL    HW122595   3.739   4.904   3.451
 7232SOL    HW222596   3.855   4.878   3.563
 7233SOL     OW22597   0.327   3.126   4.994
 7233SOL    HW122598   0.277   3.158   4.914
 7233SOL    HW222599   0.385   3.049   4.968
 7234SOL     OW22600   6.248   2.729   1.845
 7234SOL    HW122601   6.156   2.768   1.851
 7234SOL    HW222602   6.244   2.641   1.796
 7235SOL     OW22603   6.745   3.791   4.008
 7235SOL    HW122604   6.691   3.762   3.929
 7235SOL    HW222605   6.836   3.750   4.002
 7236SOL     OW22606   3.219   1.752   2.945
 7236SOL    HW122607   3.301   1.760   2.887
 7236SOL    HW222608   3.239   1.693   3.023
 7237SOL     OW22609   6.410   6.133   5.065
 7237SOL    HW122610   6.405   6.183   5.151
 7237SOL    HW222611   6.323   6.143   5.016
 7238SOL     OW22612   2.386   1.485   1.888
 7238SOL    HW122613   2.463   1.471   1.826
 7238SOL    HW222614   2.306   1.435   1.855
 7239SOL     OW22615   1.886   1.799   3.519
 7239SOL    HW122616   1.861   1.703   3.535
 7239SOL    HW222617   1.940   1.832   3.596
 7240SOL     OW22618   2.988   4.463   0.535
 7240SOL    HW122619   3.006   4.393   0.604
 7240SOL    HW222620   2.905   4.439   0.484
 7241SOL     OW22621   3.223   0.294   6.036
 7241SOL    HW122622   3.183   0.371   6.086
 7241SOL    HW222623   3.158   0.218   6.035
 7242SOL     OW22624   5.769   4.266   0.060
 7242SOL    HW122625   5.794   4.271   0.157
 7242SOL    HW222626   5.824   4.330   0.007
 7243SOL     OW22627   1.481   4.586   6.542
 7243SOL    HW122628   1.508   4.557   6.634
 7243SOL    HW222629   1.529   4.530   6.474
 7244SOL     OW22630   4.811   1.015   0.475
 7244SOL    HW122631   4.784   1.056   0.388
 7244SOL    HW222632   4.754   1.053   0.548
 7245SOL     OW22633   0.145   2.565   5.149
 7245SOL    HW122634   0.148   2.654   5.102
 7245SOL    HW222635   0.136   2.581   5.247
 7246SOL     OW22636   6.845   6.920   4.916
 7246SOL    HW122637   6.896   6.835   4.926
 7246SOL    HW222638   6.766   6.905   4.856
 7247SOL     OW22639   2.450   6.805   2.248
 7247SOL    HW122640   2.436   6.768   2.340
 7247SOL    HW222641   2.361   6.825   2.206
 7248SOL     OW22642   3.306   1.003   3.614
 7248SOL    HW122643   3.376   1.010   3.543
 7248SOL    HW222644   3.279   0.907   3.624
 7249SOL     OW22645   5.687   4.683   0.892
 7249SOL    HW122646   5.688   4.634   0.806
 7249SOL    HW222647   5.772   4.666   0.942
 7250SOL     OW22648   2.425   4.681   6.388
 7250SOL    HW122649   2.512   4.642   6.419
 7250SOL    HW222650   2.432   4.780   6.386
 7251SOL     OW22651   6.402   6.864   5.699
 7251SOL    HW122652   6.408   6.802   5.777
 7251SOL    HW222653   6.493   6.900   5.677
 7252SOL     OW22654   3.321   3.337   4.619
 7252SOL    HW122655   3.317   3.290   4.707
 7252SOL    HW222656   3.244   3.401   4.612
 7253SOL     OW22657   1.830   5.830   0.584
 7253SOL    HW122658   1.778   5.777   0.516
 7253SOL    HW222659   1.770   5.899   0.624
 7254SOL     OW22660   3.421   5.162   4.205
 7254SOL    HW122661   3.442   5.226   4.279
 7254SOL    HW222662   3.322   5.146   4.201
 7255SOL     OW22663   2.718   3.050   1.731
 7255SOL    HW122664   2.736   3.081   1.824
 7255SOL    HW222665   2.802   3.052   1.678
 7256SOL     OW22666   4.509   4.693   4.606
 7256SOL    HW122667   4.582   4.741   4.556
 7256SOL    HW222668   4.440   4.759   4.636
 7257SOL     OW22669   6.224   2.702   2.979
 7257SOL    HW122670   6.149   2.653   3.023
 7257SOL    HW222671   6.310   2.653   2.996
 7258SOL     OW22672   4.275   0.512   4.093
 7258SOL    HW122673   4.352   0.558   4.049
 7258SOL    HW222674   4.235   0.572   4.162
 7259SOL     OW22675   2.790   4.321   7.019
 7259SOL    HW122676   2.692   4.338   7.027
 7259SOL    HW222677   2.806   4.223   7.002
 7260SOL     OW22678   3.930   1.921   2.971
 7260SOL    HW122679   3.971   2.011   2.988
 7260SOL    HW222680   3.969   1.854   3.034
 7261SOL     OW22681   2.242   3.234   1.700
 7261SOL    HW122682   2.290   3.172   1.639
 7261SOL    HW222683   2.308   3.284   1.756
 7262SOL     OW22684   6.050   2.796   4.527
 7262SOL    HW122685   5.970   2.812   4.584
 7262SOL    HW222686   6.089   2.706   4.548
 7263SOL     OW22687   1.300   5.591   1.827
 7263SOL    HW122688   1.362   5.669   1.813
 7263SOL    HW222689   1.244   5.577   1.746
 7264SOL     OW22690   6.682   1.088   7.010
 7264SOL    HW122691   6.771   1.073   0.026
 7264SOL    HW222692   6.610   1.048   0.039
 7265SOL     OW22693   5.316   5.550   5.874
 7265SOL    HW122694   5.310   5.619   5.947
 7265SOL    HW222695   5.410   5.547   5.839
 7266SOL     OW22696   5.129   0.999   1.460
 7266SOL    HW122697   5.079   0.926   1.414
 7266SOL    HW222698   5.079   1.085   1.450
 7267SOL     OW22699   6.782   4.131   5.033
 7267SOL    HW122700   6.734   4.186   5.101
 7267SOL    HW222701   6.720   4.061   4.997
 7268SOL     OW22702   4.372   5.675   2.139
 7268SOL    HW122703   4.378   5.682   2.039
 7268SOL    HW222704   4.459   5.705   2.179
 7269SOL     OW22705   0.511   5.615   1.635
 7269SOL    HW122706   0.555   5.704   1.643
 7269SOL    HW222707   0.580   5.543   1.627
 7270SOL     OW22708   2.239   1.719   3.202
 7270SOL    HW122709   2.195   1.637   3.238
 7270SOL    HW222710   2.320   1.693   3.149
 7271SOL     OW22711   0.551   3.794   2.614
 7271SOL    HW122712   0.461   3.752   2.623
 7271SOL    HW222713   0.584   3.823   2.704
 7272SOL     OW22714   4.908   2.891   2.861
 7272SOL    HW122715   4.928   2.954   2.937
 7272SOL    HW222716   4.838   2.825   2.891
 7273SOL     OW22717   5.872   4.658   1.670
 7273SOL    HW122718   5.931   4.578   1.678
 7273SOL    HW222719   5.825   4.657   1.582
 7274SOL     OW22720   0.397   4.771   5.651
 7274SOL    HW122721   0.392   4.706   5.727
 7274SOL    HW222722   0.318   4.758   5.591
 7275SOL     OW22723   6.774   0.744   0.097
 7275SOL    HW122724   6.755   0.691   0.014
 7275SOL    HW222725   6.719   0.708   0.173
 7276SOL     OW22726   2.386   1.948   4.075
 7276SOL    HW122727   2.353   1.871   4.020
 7276SOL    HW222728   2.394   1.919   4.170
 7277SOL     OW22729   4.536   1.396   5.731
 7277SOL    HW122730   4.571   1.344   5.809
 7277SOL    HW222731   4.438   1.412   5.742
 7278SOL     OW22732   3.739   1.431   3.238
 7278SOL    HW122733   3.766   1.336   3.256
 7278SOL    HW222734   3.813   1.492   3.266
 7279SOL     OW22735   4.443   4.342   0.739
 7279SOL    HW122736   4.423   4.415   0.805
 7279SOL    HW222737   4.358   4.300   0.708
 7280SOL     OW22738   5.398   2.269   5.241
 7280SOL    HW122739   5.405   2.179   5.199
 7280SOL    HW222740   5.477   2.325   5.214
 7281SOL     OW22741   3.753   6.558   0.980
 7281SOL    HW122742   3.845   6.590   1.001
 7281SOL    HW222743   3.728   6.484   1.042
 7282SOL     OW22744   6.616   5.355   1.956
 7282SOL    HW122745   6.530   5.318   1.990
 7282SOL    HW222746   6.651   5.423   2.020
 7283SOL     OW22747   3.430   5.895   2.498
 7283SOL    HW122748   3.360   5.943   2.552
 7283SOL    HW222749   3.444   5.943   2.412
 7284SOL     OW22750   6.462   2.427   3.878
 7284SOL    HW122751   6.521   2.391   3.951
 7284SOL    HW222752   6.517   2.481   3.815
 7285SOL     OW22753   4.974   2.932   1.901
 7285SOL    HW122754   4.884   2.956   1.937
 7285SOL    HW222755   5.033   2.902   1.977
 7286SOL     OW22756   0.665   1.482   0.882
 7286SOL    HW122757   0.711   1.452   0.799
 7286SOL    HW222758   0.567   1.464   0.874
 7287SOL     OW22759   1.178   2.842   3.493
 7287SOL    HW122760   1.082   2.814   3.502
 7287SOL    HW222761   1.217   2.801   3.411
 7288SOL     OW22762   2.968   2.206   2.865
 7288SOL    HW122763   2.881   2.175   2.825
 7288SOL    HW222764   3.044   2.167   2.812
 7289SOL     OW22765   6.067   2.165   2.184
 7289SOL    HW122766   6.025   2.251   2.214
 7289SOL    HW222767   6.155   2.184   2.141
 7290SOL     OW22768   4.359   1.340   5.405
 7290SOL    HW122769   4.397   1.375   5.491
 7290SOL    HW222770   4.412   1.377   5.328
 7291SOL     OW22771   3.353   0.282   6.782
 7291SOL    HW122772   3.393   0.331   6.704
 7291SOL    HW222773   3.334   0.187   6.756
 7292SOL     OW22774   1.386   0.328   3.494
 7292SOL    HW122775   1.436   0.328   3.407
 7292SOL    HW222776   1.335   0.243   3.503
 7293SOL     OW22777   1.297   0.527   5.293
 7293SOL    HW122778   1.343   0.480   5.218
 7293SOL    HW222779   1.199   0.513   5.287
 7294SOL     OW22780   3.110   4.642   1.674
 7294SOL    HW122781   3.209   4.651   1.685
 7294SOL    HW222782   3.073   4.596   1.755
 7295SOL     OW22783   6.382   5.184   2.043
 7295SOL    HW122784   6.393   5.102   2.100
 7295SOL    HW222785   6.345   5.157   1.954
 7296SOL     OW22786   3.835   4.882   2.906
 7296SOL    HW122787   3.795   4.930   2.829
 7296SOL    HW222788   3.768   4.875   2.980
 7297SOL     OW22789   3.084   6.663   1.847
 7297SOL    HW122790   3.083   6.668   1.947
 7297SOL    HW222791   3.163   6.713   1.812
 7298SOL     OW22792   5.092   5.488   6.472
 7298SOL    HW122793   5.121   5.544   6.395
 7298SOL    HW222794   5.038   5.411   6.439
 7299SOL     OW22795   1.433   2.799   6.915
 7299SOL    HW122796   1.525   2.762   6.914
 7299SOL    HW222797   1.437   2.899   6.924
 7300SOL     OW22798   0.823   5.306   1.395
 7300SOL    HW122799   0.897   5.287   1.331
 7300SOL    HW222800   0.789   5.220   1.434
 7301SOL     OW22801   5.725   6.843   5.380
 7301SOL    HW122802   5.818   6.841   5.415
 7301SOL    HW222803   5.710   6.929   5.331
 7302SOL     OW22804   5.223   3.120   5.796
 7302SOL    HW122805   5.166   3.159   5.869
 7302SOL    HW222806   5.175   3.128   5.709
 7303SOL     OW22807   2.406   1.223   0.790
 7303SOL    HW122808   2.435   1.156   0.721
 7303SOL    HW222809   2.307   1.220   0.801
 7304SOL     OW22810   2.861   5.262   1.726
 7304SOL    HW122811   2.896   5.234   1.815
 7304SOL    HW222812   2.912   5.342   1.693
 7305SOL     OW22813   6.154   2.346   0.214
 7305SOL    HW122814   6.200   2.362   0.127
 7305SOL    HW222815   6.061   2.381   0.210
 7306SOL     OW22816   2.979   1.571   1.294
 7306SOL    HW122817   3.050   1.505   1.270
 7306SOL    HW222818   2.930   1.540   1.375
 7307SOL     OW22819   3.216   6.302   1.982
 7307SOL    HW122820   3.254   6.308   1.890
 7307SOL    HW222821   3.116   6.296   1.977
 7308SOL     OW22822   5.340   0.651   1.942
 7308SOL    HW122823   5.312   0.604   1.859
 7308SOL    HW222824   5.420   0.708   1.923
 7309SOL     OW22825   2.550   5.605   2.633
 7309SOL    HW122826   2.613   5.528   2.624
 7309SOL    HW222827   2.479   5.599   2.563
 7310SOL     OW22828   1.655   2.622   0.172
 7310SOL    HW122829   1.699   2.600   0.258
 7310SOL    HW222830   1.723   2.658   0.108
 7311SOL     OW22831   0.363   0.024   0.559
 7311SOL    HW122832   0.356   6.972   0.620
 7311SOL    HW222833   0.288   0.087   0.578
 7312SOL     OW22834   6.915   2.239   5.798
 7312SOL    HW122835   6.896   2.301   5.723
 7312SOL    HW222836   6.980   2.168   5.767
 7313SOL     OW22837   2.180   1.015   1.681
 7313SOL    HW122838   2.157   1.093   1.621
 7313SOL    HW222839   2.241   1.046   1.753
 7314SOL     OW22840   6.827   4.194   6.857
 7314SOL    HW122841   6.909   4.201   6.914
 7314SOL    HW222842   6.749   4.172   6.916
 7315SOL     OW22843   6.957   5.358   2.078
 7315SOL    HW122844   0.003   5.325   2.137
 7315SOL    HW222845   6.981   5.449   2.042
 7316SOL     OW22846   2.977   2.320   6.439
 7316SOL    HW122847   2.929   2.249   6.490
 7316SOL    HW222848   2.914   2.364   6.375
 7317SOL     OW22849   3.742   1.279   1.821
 7317SOL    HW122850   3.739   1.244   1.915
 7317SOL    HW222851   3.731   1.379   1.823
 7318SOL     OW22852   3.624   0.082   2.322
 7318SOL    HW122853   3.561   0.013   2.287
 7318SOL    HW222854   3.639   0.152   2.253
 7319SOL     OW22855   6.629   4.502   0.310
 7319SOL    HW122856   6.659   4.584   0.358
 7319SOL    HW222857   6.542   4.519   0.265
 7320SOL     OW22858   0.091   3.830   0.826
 7320SOL    HW122859   0.097   3.773   0.907
 7320SOL    HW222860   0.028   3.906   0.843
 7321SOL     OW22861   2.283   6.188   6.166
 7321SOL    HW122862   2.340   6.106   6.159
 7321SOL    HW222863   2.222   6.180   6.245
 7322SOL     OW22864   0.919   1.638   2.496
 7322SOL    HW122865   0.883   1.707   2.433
 7322SOL    HW222866   0.994   1.588   2.452
 7323SOL     OW22867   1.747   1.856   1.117
 7323SOL    HW122868   1.806   1.794   1.169
 7323SOL    HW222869   1.670   1.884   1.174
 7324SOL     OW22870   5.518   4.964   3.091
 7324SOL    HW122871   5.541   5.007   3.178
 7324SOL    HW222872   5.603   4.941   3.042
 7325SOL     OW22873   3.741   0.266   5.932
 7325SOL    HW122874   3.790   0.335   5.986
 7325SOL    HW222875   3.645   0.291   5.926
 7326SOL     OW22876   2.767   0.899   6.459
 7326SOL    HW122877   2.829   0.821   6.468
 7326SOL    HW222878   2.791   0.969   6.525
 7327SOL     OW22879   6.016   4.016   3.400
 7327SOL    HW122880   5.997   4.092   3.462
 7327SOL    HW222881   6.115   3.999   3.397
 7328SOL     OW22882   3.751   5.150   5.367
 7328SOL    HW122883   3.723   5.234   5.320
 7328SOL    HW222884   3.744   5.073   5.304
 7329SOL     OW22885   2.282   2.911   0.566
 7329SOL    HW122886   2.186   2.939   0.559
 7329SOL    HW222887   2.291   2.817   0.534
 7330SOL     OW22888   3.328   2.657   1.581
 7330SOL    HW122889   3.393   2.583   1.595
 7330SOL    HW222890   3.328   2.717   1.661
 7331SOL     OW22891   4.447   0.288   1.722
 7331SOL    HW122892   4.467   0.214   1.657
 7331SOL    HW222893   4.497   0.271   1.807
 7332SOL     OW22894   3.452   3.803   0.201
 7332SOL    HW122895   3.523   3.867   0.233
 7332SOL    HW222896   3.462   3.790   0.102
 7333SOL     OW22897   6.563   3.120   1.439
 7333SOL    HW122898   6.633   3.063   1.396
 7333SOL    HW222899   6.558   3.099   1.537
 7334SOL     OW22900   2.587   0.278   5.361
 7334SOL    HW122901   2.547   0.333   5.435
 7334SOL    HW222902   2.547   0.186   5.363
 7335SOL     OW22903   0.105   3.064   2.709
 7335SOL    HW122904   0.147   3.018   2.631
 7335SOL    HW222905   0.059   2.996   2.767
 7336SOL     OW22906   1.492   6.256   0.697
 7336SOL    HW122907   1.519   6.296   0.610
 7336SOL    HW222908   1.499   6.156   0.692
 7337SOL     OW22909   2.564   2.462   1.963
 7337SOL    HW122910   2.659   2.470   1.993
 7337SOL    HW222911   2.560   2.413   1.876
 7338SOL     OW22912   5.889   2.931   1.383
 7338SOL    HW122913   5.962   2.862   1.379
 7338SOL    HW222914   5.860   2.944   1.478
 7339SOL     OW22915   0.105   5.980   5.232
 7339SOL    HW122916   0.033   5.915   5.209
 7339SOL    HW222917   0.176   5.933   5.286
 7340SOL     OW22918   2.869   0.756   6.715
 7340SOL    HW122919   2.784   0.783   6.669
 7340SOL    HW222920   2.947   0.785   6.659
 7341SOL     OW22921   0.170   5.068   3.905
 7341SOL    HW122922   0.209   5.050   3.995
 7341SOL    HW222923   0.139   5.163   3.900
 7342SOL     OW22924   6.828   0.349   6.996
 7342SOL    HW122925   6.747   0.320   0.020
 7342SOL    HW222926   6.816   0.443   6.964
 7343SOL     OW22927   5.694   4.118   2.443
 7343SOL    HW122928   5.702   4.215   2.419
 7343SOL    HW222929   5.748   4.099   2.524
 7344SOL     OW22930   1.722   6.590   6.486
 7344SOL    HW122931   1.698   6.611   6.392
 7344SOL    HW222932   1.654   6.527   6.525
 7345SOL     OW22933   4.018   5.107   5.458
 7345SOL    HW122934   4.028   5.022   5.510
 7345SOL    HW222935   3.921   5.124   5.440
 7346SOL     OW22936   3.822   4.536   0.873
 7346SOL    HW122937   3.766   4.606   0.830
 7346SOL    HW222938   3.765   4.458   0.900
 7347SOL     OW22939   6.303   2.100   2.562
 7347SOL    HW122940   6.321   2.061   2.471
 7347SOL    HW222941   6.221   2.156   2.558
 7348SOL     OW22942   1.241   3.035   3.674
 7348SOL    HW122943   1.187   2.964   3.628
 7348SOL    HW222944   1.180   3.094   3.727
 7349SOL     OW22945   3.716   1.874   1.134
 7349SOL    HW122946   3.787   1.808   1.159
 7349SOL    HW222947   3.644   1.873   1.204
 7350SOL     OW22948   0.562   2.596   3.894
 7350SOL    HW122949   0.597   2.503   3.905
 7350SOL    HW222950   0.626   2.649   3.838
 7351SOL     OW22951   4.063   4.715   6.028
 7351SOL    HW122952   4.118   4.792   6.059
 7351SOL    HW222953   4.003   4.685   6.102
 7352SOL     OW22954   1.205   1.920   2.094
 7352SOL    HW122955   1.269   1.978   2.145
 7352SOL    HW222956   1.244   1.897   2.005
 7353SOL     OW22957   6.321   1.606   4.913
 7353SOL    HW122958   6.288   1.585   5.005
 7353SOL    HW222959   6.259   1.671   4.869
 7354SOL     OW22960   6.693   0.103   6.452
 7354SOL    HW122961   6.769   0.056   6.497
 7354SOL    HW222962   6.721   0.196   6.427
 7355SOL     OW22963   0.637   5.877   1.499
 7355SOL    HW122964   0.667   5.855   1.406
 7355SOL    HW222965   0.714   5.875   1.561
 7356SOL     OW22966   6.194   2.030   6.785
 7356SOL    HW122967   6.107   2.015   6.832
 7356SOL    HW222968   6.229   1.943   6.751
 7357SOL     OW22969   4.808   1.054   0.198
 7357SOL    HW122970   4.906   1.071   0.199
 7357SOL    HW222971   4.791   0.957   0.184
 7358SOL     OW22972   3.729   1.950   3.864
 7358SOL    HW122973   3.793   1.896   3.810
 7358SOL    HW222974   3.779   2.018   3.918
 7359SOL     OW22975   3.857   3.137   2.362
 7359SOL    HW122976   3.769   3.100   2.333
 7359SOL    HW222977   3.920   3.140   2.284
 7360SOL     OW22978   1.465   2.423   5.804
 7360SOL    HW122979   1.476   2.517   5.773
 7360SOL    HW222980   1.381   2.384   5.765
 7361SOL     OW22981   5.241   6.609   0.592
 7361SOL    HW122982   5.155   6.658   0.605
 7361SOL    HW222983   5.277   6.579   0.680
 7362SOL     OW22984   0.916   6.810   4.860
 7362SOL    HW122985   0.844   6.828   4.927
 7362SOL    HW222986   0.875   6.798   4.769
 7363SOL     OW22987   5.920   2.480   0.230
 7363SOL    HW122988   5.870   2.529   0.301
 7363SOL    HW222989   5.856   2.436   0.168
 7364SOL     OW22990   4.158   6.913   0.818
 7364SOL    HW122991   4.164   6.816   0.794
 7364SOL    HW222992   4.063   6.943   0.809
 7365SOL     OW22993   2.797   0.247   2.789
 7365SOL    HW122994   2.832   0.162   2.750
 7365SOL    HW222995   2.855   0.273   2.867
 7366SOL     OW22996   0.952   5.322   6.722
 7366SOL    HW122997   0.924   5.406   6.675
 7366SOL    HW222998   0.871   5.267   6.743
 7367SOL     OW22999   5.078   3.892   1.398
 7367SOL    HW123000   5.046   3.797   1.403
 7367SOL    HW223001   5.121   3.907   1.309
 7368SOL     OW23002   3.494   3.601   4.263
 7368SOL    HW123003   3.394   3.609   4.258
 7368SOL    HW223004   3.535   3.692   4.259
 7369SOL     OW23005   5.365   3.696   1.377
 7369SOL    HW123006   5.379   3.791   1.351
 7369SOL    HW223007   5.309   3.650   1.308
 7370SOL     OW23008   2.191   6.955   0.196
 7370SOL    HW123009   2.229   6.933   0.106
 7370SOL    HW223010   2.261   6.942   0.266
 7371SOL     OW23011   3.189   5.294   3.889
 7371SOL    HW123012   3.118   5.275   3.821
 7371SOL    HW223013   3.187   5.223   3.959
 7372SOL     OW23014   3.910   0.223   5.415
 7372SOL    HW123015   3.843   0.294   5.394
 7372SOL    HW223016   3.915   0.158   5.339
 7373SOL     OW23017   4.029   1.088   3.481
 7373SOL    HW123018   4.073   1.173   3.510
 7373SOL    HW223019   4.067   1.012   3.533
 7374SOL     OW23020   1.559   2.823   5.499
 7374SOL    HW123021   1.638   2.875   5.467
 7374SOL    HW223022   1.486   2.829   5.432
 7375SOL     OW23023   1.117   1.532   4.708
 7375SOL    HW123024   1.195   1.586   4.740
 7375SOL    HW223025   1.110   1.449   4.763
 7376SOL     OW23026   2.927   2.800   0.150
 7376SOL    HW123027   2.856   2.732   0.170
 7376SOL    HW223028   3.017   2.762   0.169
 7377SOL     OW23029   4.845   4.583   1.513
 7377SOL    HW123030   4.772   4.651   1.513
 7377SOL    HW223031   4.841   4.529   1.429
 7378SOL     OW23032   0.213   2.172   5.078
 7378SOL    HW123033   0.229   2.220   4.992
 7378SOL    HW223034   0.262   2.085   5.078
 7379SOL     OW23035   4.279   1.159   1.900
 7379SOL    HW123036   4.364   1.107   1.896
 7379SOL    HW223037   4.218   1.118   1.968
 7380SOL     OW23038   6.574   3.032   5.753
 7380SOL    HW123039   6.671   3.052   5.769
 7380SOL    HW223040   6.521   3.116   5.763
 7381SOL     OW23041   4.918   3.101   2.418
 7381SOL    HW123042   4.897   3.144   2.331
 7381SOL    HW223043   4.975   3.020   2.402
 7382SOL     OW23044   0.419   4.748   5.000
 7382SOL    HW123045   0.486   4.685   5.041
 7382SOL    HW223046   0.337   4.697   4.975
 7383SOL     OW23047   0.525   6.420   2.190
 7383SOL    HW123048   0.572   6.473   2.120
 7383SOL    HW223049   0.523   6.323   2.163
 7384SOL     OW23050   5.150   0.245   2.123
 7384SOL    HW123051   5.188   0.164   2.167
 7384SOL    HW223052   5.172   0.326   2.177
 7385SOL     OW23053   4.539   6.182   2.136
 7385SOL    HW123054   4.526   6.124   2.216
 7385SOL    HW223055   4.632   6.218   2.136
 7386SOL     OW23056   0.828   2.230   5.776
 7386SOL    HW123057   0.853   2.164   5.704
 7386SOL    HW223058   0.900   2.300   5.782
 7387SOL     OW23059   4.079   5.535   4.534
 7387SOL    HW123060   4.130   5.535   4.448
 7387SOL    HW223061   3.998   5.593   4.525
 7388SOL     OW23062   6.778   5.281   4.171
 7388SOL    HW123063   6.708   5.246   4.109
 7388SOL    HW223064   6.770   5.235   4.260
 7389SOL     OW23065   1.361   4.069   6.936
 7389SOL    HW123066   1.358   4.116   6.847
 7389SOL    HW223067   1.362   4.137   7.009
 7390SOL     OW23068   0.080   1.654   6.626
 7390SOL    HW123069   0.034   1.589   6.687
 7390SOL    HW223070   0.078   1.745   6.667
 7391SOL     OW23071   5.362   4.203   6.312
 7391SOL    HW123072   5.404   4.215   6.222
 7391SOL    HW223073   5.388   4.280   6.371
 7392SOL     OW23074   1.918   5.886   5.548
 7392SOL    HW123075   1.822   5.913   5.543
 7392SOL    HW223076   1.925   5.786   5.546
 7393SOL     OW23077   6.187   5.474   2.096
 7393SOL    HW123078   6.242   5.531   2.035
 7393SOL    HW223079   6.194   5.509   2.190
 7394SOL     OW23080   3.575   3.409   6.578
 7394SOL    HW123081   3.647   3.344   6.603
 7394SOL    HW223082   3.503   3.362   6.526
 7395SOL     OW23083   0.604   0.696   6.352
 7395SOL    HW123084   0.673   0.722   6.419
 7395SOL    HW223085   0.598   0.597   6.347
 7396SOL     OW23086   1.609   0.651   5.768
 7396SOL    HW123087   1.591   0.634   5.865
 7396SOL    HW223088   1.688   0.596   5.739
 7397SOL     OW23089   6.269   4.261   4.762
 7397SOL    HW123090   6.312   4.310   4.687
 7397SOL    HW223091   6.296   4.164   4.758
 7398SOL     OW23092   4.165   5.328   3.565
 7398SOL    HW123093   4.133   5.421   3.552
 7398SOL    HW223094   4.162   5.305   3.662
 7399SOL     OW23095   6.379   4.152   5.738
 7399SOL    HW123096   6.335   4.085   5.677
 7399SOL    HW223097   6.371   4.120   5.833
 7400SOL     OW23098   2.956   4.098   6.816
 7400SOL    HW123099   2.952   4.140   6.725
 7400SOL    HW223100   2.899   4.016   6.817
 7401SOL     OW23101   0.074   1.087   4.018
 7401SOL    HW123102   0.011   1.144   4.072
 7401SOL    HW223103   0.168   1.114   4.037
 7402SOL     OW23104   2.231   6.927   3.867
 7402SOL    HW123105   2.169   6.926   3.945
 7402SOL    HW223106   2.324   6.906   3.898
 7403SOL     OW23107   1.851   3.176   3.559
 7403SOL    HW123108   1.907   3.183   3.641
 7403SOL    HW223109   1.755   3.189   3.583
 7404SOL     OW23110   1.764   0.445   0.655
 7404SOL    HW123111   1.819   0.419   0.576
 7404SOL    HW223112   1.824   0.486   0.725
 7405SOL     OW23113   1.825   5.124   4.917
 7405SOL    HW123114   1.754   5.195   4.919
 7405SOL    HW223115   1.782   5.034   4.915
 7406SOL     OW23116   1.492   3.960   2.560
 7406SOL    HW123117   1.575   3.980   2.507
 7406SOL    HW223118   1.517   3.915   2.646
 7407SOL     OW23119   0.445   5.723   5.064
 7407SOL    HW123120   0.353   5.684   5.064
 7407SOL    HW223121   0.450   5.796   5.132
 7408SOL     OW23122   2.196   4.084   6.031
 7408SOL    HW123123   2.271   4.140   6.065
 7408SOL    HW223124   2.113   4.139   6.024
 7409SOL     OW23125   0.870   1.340   4.533
 7409SOL    HW123126   0.832   1.351   4.625
 7409SOL    HW223127   0.863   1.244   4.505
 7410SOL     OW23128   0.006   4.770   1.228
 7410SOL    HW123129   6.952   4.791   1.174
 7410SOL    HW223130   0.073   4.843   1.218
 7411SOL     OW23131   2.535   6.715   4.324
 7411SOL    HW123132   2.507   6.639   4.383
 7411SOL    HW223133   2.455   6.760   4.286
 7412SOL     OW23134   2.463   0.899   1.013
 7412SOL    HW123135   2.423   0.837   0.945
 7412SOL    HW223136   2.438   0.869   1.105
 7413SOL     OW23137   0.587   3.534   3.667
 7413SOL    HW123138   0.583   3.438   3.640
 7413SOL    HW223139   0.511   3.584   3.627
 7414SOL     OW23140   6.398   6.687   2.551
 7414SOL    HW123141   6.448   6.708   2.635
 7414SOL    HW223142   6.435   6.741   2.476
 7415SOL     OW23143   1.405   3.124   2.887
 7415SOL    HW123144   1.474   3.053   2.875
 7415SOL    HW223145   1.449   3.214   2.886
 7416SOL     OW23146   3.540   1.564   4.272
 7416SOL    HW123147   3.550   1.466   4.255
 7416SOL    HW223148   3.504   1.608   4.190
 7417SOL     OW23149   1.416   6.787   6.146
 7417SOL    HW123150   1.374   6.734   6.219
 7417SOL    HW223151   1.361   6.867   6.127
 7418SOL     OW23152   3.001   4.287   1.415
 7418SOL    HW123153   3.081   4.347   1.415
 7418SOL    HW223154   2.980   4.261   1.321
 7419SOL     OW23155   5.833   1.969   4.508
 7419SOL    HW123156   5.797   2.062   4.505
 7419SOL    HW223157   5.856   1.939   4.415
 7420SOL     OW23158   6.824   0.038   2.195
 7420SOL    HW123159   6.730   0.060   2.172
 7420SOL    HW223160   6.885   0.108   2.159
 7421SOL     OW23161   3.495   3.743   1.682
 7421SOL    HW123162   3.561   3.798   1.733
 7421SOL    HW223163   3.514   3.645   1.697
 7422SOL     OW23164   0.036   3.565   1.290
 7422SOL    HW123165   0.008   3.647   1.241
 7422SOL    HW223166   0.027   3.485   1.231
 7423SOL     OW23167   1.949   4.669   6.016
 7423SOL    HW123168   1.883   4.665   5.941
 7423SOL    HW223169   2.041   4.688   5.980
 7424SOL     OW23170   5.898   1.542   4.373
 7424SOL    HW123171   5.875   1.576   4.282
 7424SOL    HW223172   5.863   1.604   4.442
 7425SOL     OW23173   3.751   4.544   6.419
 7425SOL    HW123174   3.775   4.600   6.340
 7425SOL    HW223175   3.828   4.483   6.441
 7426SOL     OW23176   0.385   2.197   6.950
 7426SOL    HW123177   0.328   2.146   7.014
 7426SOL    HW223178   0.480   2.167   6.958
 7427SOL     OW23179   3.006   6.028   4.391
 7427SOL    HW123180   2.956   5.944   4.412
 7427SOL    HW223181   3.039   6.024   4.296
 7428SOL     OW23182   3.681   2.174   5.235
 7428SOL    HW123183   3.672   2.260   5.285
 7428SOL    HW223184   3.596   2.155   5.186
 7429SOL     OW23185   6.943   0.034   2.689
 7429SOL    HW123186   6.885   0.094   2.744
 7429SOL    HW223187   7.013   7.020   2.748
 7430SOL     OW23188   6.933   4.214   5.643
 7430SOL    HW123189   6.977   4.240   5.557
 7430SOL    HW223190   6.944   4.287   5.710
 7431SOL     OW23191   1.006   3.512   1.395
 7431SOL    HW123192   0.950   3.565   1.458
 7431SOL    HW223193   1.045   3.573   1.325
 7432SOL     OW23194   1.036   6.303   3.569
 7432SOL    HW123195   1.014   6.211   3.538
 7432SOL    HW223196   0.969   6.332   3.637
 7433SOL     OW23197   6.241   5.205   1.339
 7433SOL    HW123198   6.248   5.304   1.329
 7433SOL    HW223199   6.315   5.172   1.397
 7434SOL     OW23200   2.771   1.956   6.992
 7434SOL    HW123201   2.851   1.938   0.022
 7434SOL    HW223202   2.738   1.871   6.952
 7435SOL     OW23203   3.638   6.730   5.739
 7435SOL    HW123204   3.708   6.660   5.726
 7435SOL    HW223205   3.590   6.712   5.825
 7436SOL     OW23206   5.986   3.151   6.781
 7436SOL    HW123207   5.962   3.084   6.851
 7436SOL    HW223208   6.004   3.240   6.824
 7437SOL     OW23209   6.548   5.038   6.281
 7437SOL    HW123210   6.510   5.123   6.246
 7437SOL    HW223211   6.647   5.036   6.265
 7438SOL     OW23212   0.763   3.948   2.126
 7438SOL    HW123213   0.803   3.869   2.173
 7438SOL    HW223214   0.834   4.014   2.104
 7439SOL     OW23215   2.648   6.928   3.672
 7439SOL    HW123216   2.678   7.019   3.700
 7439SOL    HW223217   2.707   6.859   3.715
 7440SOL     OW23218   1.377   2.930   4.808
 7440SOL    HW123219   1.473   2.957   4.806
 7440SOL    HW223220   1.330   2.970   4.729
 7441SOL     OW23221   5.405   0.144   3.892
 7441SOL    HW123222   5.381   0.216   3.826
 7441SOL    HW223223   5.350   0.063   3.874
 7442SOL     OW23224   1.004   1.232   6.596
 7442SOL    HW123225   0.980   1.141   6.562
 7442SOL    HW223226   1.091   1.227   6.644
 7443SOL     OW23227   6.835   1.933   0.676
 7443SOL    HW123228   6.916   1.983   0.645
 7443SOL    HW223229   6.791   1.889   0.597
 7444SOL     OW23230   6.745   3.522   6.807
 7444SOL    HW123231   6.668   3.565   6.854
 7444SOL    HW223232   6.805   3.479   6.873
 7445SOL     OW23233   5.128   1.850   1.519
 7445SOL    HW123234   5.164   1.836   1.611
 7445SOL    HW223235   5.068   1.931   1.518
 7446SOL     OW23236   6.181   4.211   6.983
 7446SOL    HW123237   6.179   4.121   7.025
 7446SOL    HW223238   6.250   4.212   6.910
 7447SOL     OW23239   2.357   4.926   6.869
 7447SOL    HW123240   2.282   4.916   6.803
 7447SOL    HW223241   2.428   4.858   6.849
 7448SOL     OW23242   5.422   6.754   5.722
 7448SOL    HW123243   5.512   6.721   5.750
 7448SOL    HW223244   5.373   6.682   5.674
 7449SOL     OW23245   4.882   2.333   2.016
 7449SOL    HW123246   4.789   2.369   2.006
 7449SOL    HW223247   4.896   2.260   1.949
 7450SOL     OW23248   4.984   2.884   3.487
 7450SOL    HW123249   4.899   2.830   3.491
 7450SOL    HW223250   4.962   2.981   3.489
 7451SOL     OW23251   1.611   0.720   4.189
 7451SOL    HW123252   1.661   0.635   4.170
 7451SOL    HW223253   1.675   0.792   4.214
 7452SOL     OW23254   2.011   0.444   4.886
 7452SOL    HW123255   1.964   0.523   4.846
 7452SOL    HW223256   2.004   0.448   4.985
 7453SOL     OW23257   5.677   6.160   4.951
 7453SOL    HW123258   5.730   6.222   5.008
 7453SOL    HW223259   5.695   6.179   4.855
 7454SOL     OW23260   1.030   3.747   1.240
 7454SOL    HW123261   1.070   3.823   1.292
 7454SOL    HW223262   0.947   3.778   1.194
 7455SOL     OW23263   5.545   2.037   0.977
 7455SOL    HW123264   5.498   2.103   1.035
 7455SOL    HW223265   5.641   2.033   1.003
 7456SOL     OW23266   1.490   2.384   4.988
 7456SOL    HW123267   1.465   2.315   4.920
 7456SOL    HW223268   1.524   2.466   4.941
 7457SOL     OW23269   5.683   0.756   5.269
 7457SOL    HW123270   5.675   0.662   5.235
 7457SOL    HW223271   5.601   0.808   5.242
 7458SOL     OW23272   2.380   6.965   0.364
 7458SOL    HW123273   2.412   6.942   0.455
 7458SOL    HW223274   2.458   6.984   0.304
 7459SOL     OW23275   4.408   0.326   6.062
 7459SOL    HW123276   4.323   0.336   6.114
 7459SOL    HW223277   4.386   0.304   5.967
 7460SOL     OW23278   2.239   5.350   0.951
 7460SOL    HW123279   2.273   5.383   1.039
 7460SOL    HW223280   2.317   5.331   0.890
 7461SOL     OW23281   5.287   1.457   6.019
 7461SOL    HW123282   5.280   1.540   5.965
 7461SOL    HW223283   5.278   1.377   5.960
 7462SOL     OW23284   2.104   1.947   1.585
 7462SOL    HW123285   2.116   1.910   1.678
 7462SOL    HW223286   2.191   1.940   1.536
 7463SOL     OW23287   3.548   2.755   1.287
 7463SOL    HW123288   3.457   2.776   1.326
 7463SOL    HW223289   3.580   2.834   1.235
 7464SOL     OW23290   3.495   5.846   0.035
 7464SOL    HW123291   3.464   5.772   0.095
 7464SOL    HW223292   3.587   5.826   0.002
 7465SOL     OW23293   1.500   0.224   0.968
 7465SOL    HW123294   1.488   0.176   0.881
 7465SOL    HW223295   1.594   0.258   0.975
 7466SOL     OW23296   0.791   0.804   6.575
 7466SOL    HW123297   0.805   0.894   6.534
 7466SOL    HW223298   0.849   0.795   6.656
 7467SOL     OW23299   6.766   2.105   1.246
 7467SOL    HW123300   6.741   2.054   1.328
 7467SOL    HW223301   6.683   2.130   1.197
 7468SOL     OW23302   4.734   2.345   2.466
 7468SOL    HW123303   4.750   2.318   2.372
 7468SOL    HW223304   4.648   2.397   2.472
 7469SOL     OW23305   0.923   0.085   6.552
 7469SOL    HW123306   0.949   7.015   6.554
 7469SOL    HW223307   0.958   0.131   6.633
 7470SOL     OW23308   0.884   2.491   2.860
 7470SOL    HW123309   0.834   2.545   2.928
 7470SOL    HW223310   0.880   2.394   2.885
 7471SOL     OW23311   6.392   6.576   4.940
 7471SOL    HW123312   6.301   6.535   4.940
 7471SOL    HW223313   6.460   6.504   4.928
 7472SOL     OW23314   4.243   6.844   4.261
 7472SOL    HW123315   4.288   6.783   4.195
 7472SOL    HW223316   4.306   6.862   4.337
 7473SOL     OW23317   0.136   3.935   3.581
 7473SOL    HW123318   0.209   3.902   3.521
 7473SOL    HW223319   0.110   4.028   3.553
 7474SOL     OW23320   3.099   0.942   3.926
 7474SOL    HW123321   3.066   0.851   3.900
 7474SOL    HW223322   3.059   1.010   3.864
 7475SOL     OW23323   5.013   0.472   2.225
 7475SOL    HW123324   4.916   0.467   2.251
 7475SOL    HW223325   5.020   0.514   2.134
 7476SOL     OW23326   4.520   6.019   4.753
 7476SOL    HW123327   4.436   5.968   4.741
 7476SOL    HW223328   4.515   6.105   4.701
 7477SOL     OW23329   4.155   0.981   3.989
 7477SOL    HW123330   4.235   1.031   3.955
 7477SOL    HW223331   4.097   1.043   4.041
 7478SOL     OW23332   3.582   3.834   6.034
 7478SOL    HW123333   3.526   3.760   5.997
 7478SOL    HW223334   3.536   3.875   6.112
 7479SOL     OW23335   3.889   1.422   0.728
 7479SOL    HW123336   3.824   1.348   0.714
 7479SOL    HW223337   3.981   1.392   0.703
 7480SOL     OW23338   5.960   5.696   1.691
 7480SOL    HW123339   5.964   5.785   1.645
 7480SOL    HW223340   5.892   5.638   1.645
 7481SOL     OW23341   5.554   5.434   1.187
 7481SOL    HW123342   5.525   5.449   1.093
 7481SOL    HW223343   5.597   5.517   1.222
 7482SOL     OW23344   4.040   1.025   2.027
 7482SOL    HW123345   3.974   1.070   2.089
 7482SOL    HW223346   4.015   1.044   1.932
 7483SOL     OW23347   3.889   1.825   4.294
 7483SOL    HW123348   3.885   1.730   4.264
 7483SOL    HW223349   3.892   1.828   4.394
 7484SOL     OW23350   0.414   6.882   1.905
 7484SOL    HW123351   0.435   6.915   1.998
 7484SOL    HW223352   0.495   6.840   1.865
 7485SOL     OW23353   2.788   6.372   5.364
 7485SOL    HW123354   2.703   6.343   5.408
 7485SOL    HW223355   2.772   6.386   5.266
 7486SOL     OW23356   2.558   0.008   5.404
 7486SOL    HW123357   2.602   7.008   5.318
 7486SOL    HW223358   2.494   6.963   5.433
 7487SOL     OW23359   2.035   6.766   2.529
 7487SOL    HW123360   1.948   6.796   2.568
 7487SOL    HW223361   2.092   6.846   2.509
 7488SOL     OW23362   2.310   0.102   5.297
 7488SOL    HW123363   2.301   0.084   5.199
 7488SOL    HW223364   2.360   0.026   5.340
 7489SOL     OW23365   4.899   2.433   5.288
 7489SOL    HW123366   4.991   2.428   5.250
 7489SOL    HW223367   4.833   2.448   5.215
 7490SOL     OW23368   0.254   0.708   0.791
 7490SOL    HW123369   0.174   0.762   0.816
 7490SOL    HW223370   0.302   0.753   0.715
 7491SOL     OW23371   0.766   5.165   6.446
 7491SOL    HW123372   0.714   5.240   6.487
 7491SOL    HW223373   0.705   5.087   6.429
 7492SOL     OW23374   2.489   2.002   5.550
 7492SOL    HW123375   2.427   2.076   5.524
 7492SOL    HW223376   2.448   1.947   5.622
 7493SOL     OW23377   6.204   4.716   5.981
 7493SOL    HW123378   6.202   4.748   5.886
 7493SOL    HW223379   6.243   4.787   6.040
 7494SOL     OW23380   5.388   0.963   2.355
 7494SOL    HW123381   5.326   0.941   2.430
 7494SOL    HW223382   5.394   1.062   2.344
 7495SOL     OW23383   1.633   1.335   0.987
 7495SOL    HW123384   1.553   1.317   1.045
 7495SOL    HW223385   1.680   1.249   0.967
 7496SOL     OW23386   1.804   4.675   5.766
 7496SOL    HW123387   1.744   4.755   5.763
 7496SOL    HW223388   1.752   4.594   5.736
 7497SOL     OW23389   2.793   5.367   2.090
 7497SOL    HW123390   2.791   5.348   2.188
 7497SOL    HW223391   2.702   5.353   2.051
 7498SOL     OW23392   2.642   0.954   4.385
 7498SOL    HW123393   2.698   0.918   4.460
 7498SOL    HW223394   2.693   1.024   4.336
 7499SOL     OW23395   6.285   0.110   3.228
 7499SOL    HW123396   6.244   0.080   3.142
 7499SOL    HW223397   6.356   0.045   3.255
 7500SOL     OW23398   4.203   6.024   2.245
 7500SOL    HW123399   4.150   6.004   2.162
 7500SOL    HW223400   4.149   6.001   2.326
 7501SOL     OW23401   0.182   4.316   3.582
 7501SOL    HW123402   0.252   4.253   3.614
 7501SOL    HW223403   0.220   4.375   3.511
 7502SOL     OW23404   1.931   1.532   5.263
 7502SOL    HW123405   1.952   1.435   5.278
 7502SOL    HW223406   1.846   1.555   5.311
 7503SOL     OW23407   2.615   0.665   6.627
 7503SOL    HW123408   2.628   0.597   6.700
 7503SOL    HW223409   2.671   0.639   6.548
 7504SOL     OW23410   4.215   6.610   3.828
 7504SOL    HW123411   4.189   6.516   3.811
 7504SOL    HW223412   4.168   6.643   3.910
 7505SOL     OW23413   3.207   1.230   5.210
 7505SOL    HW123414   3.203   1.296   5.285
 7505SOL    HW223415   3.115   1.198   5.189
 7506SOL     OW23416   3.682   0.895   2.477
 7506SOL    HW123417   3.777   0.884   2.449
 7506SOL    HW223418   3.651   0.988   2.453
 7507SOL     OW23419   0.232   6.699   6.377
 7507SOL    HW123420   0.300   6.637   6.338
 7507SOL    HW223421   0.277   6.783   6.409
 7508SOL     OW23422   5.627   6.532   2.393
 7508SOL    HW123423   5.560   6.494   2.329
 7508SOL    HW223424   5.581   6.556   2.478
 7509SOL     OW23425   4.750   4.309   1.061
 7509SOL    HW123426   4.685   4.235   1.044
 7509SOL    HW223427   4.741   4.378   0.988
 7510SOL     OW23428   3.101   4.093   4.844
 7510SOL    HW123429   3.094   4.045   4.757
 7510SOL    HW223430   3.195   4.085   4.878
 7511SOL     OW23431   1.492   7.013   2.283
 7511SOL    HW123432   1.586   0.007   2.257
 7511SOL    HW223433   1.492   6.951   2.361
 7512SOL     OW23434   3.123   4.011   1.542
 7512SOL    HW123435   3.033   4.041   1.571
 7512SOL    HW223436   3.133   3.913   1.562
 7513SOL     OW23437   1.494   2.895   0.154
 7513SOL    HW123438   1.544   2.808   0.155
 7513SOL    HW223439   1.552   2.967   0.116
 7514SOL     OW23440   3.016   6.340   2.275
 7514SOL    HW123441   2.982   6.305   2.188
 7514SOL    HW223442   3.116   6.345   2.272
 7515SOL     OW23443   0.682   0.450   2.925
 7515SOL    HW123444   0.682   0.548   2.946
 7515SOL    HW223445   0.761   0.429   2.866
 7516SOL     OW23446   6.363   6.301   4.521
 7516SOL    HW123447   6.368   6.400   4.507
 7516SOL    HW223448   6.351   6.282   4.618
 7517SOL     OW23449   6.899   3.796   1.122
 7517SOL    HW123450   6.824   3.785   1.188
 7517SOL    HW223451   6.914   3.710   1.074
 7518SOL     OW23452   3.913   5.760   3.401
 7518SOL    HW123453   3.895   5.810   3.316
 7518SOL    HW223454   3.877   5.668   3.394
 7519SOL     OW23455   0.855   6.165   3.859
 7519SOL    HW123456   0.895   6.146   3.949
 7519SOL    HW223457   0.824   6.260   3.855
 7520SOL     OW23458   2.083   0.498   2.087
 7520SOL    HW123459   2.085   0.585   2.039
 7520SOL    HW223460   2.027   0.433   2.037
 7521SOL     OW23461   4.411   4.544   5.386
 7521SOL    HW123462   4.376   4.451   5.397
 7521SOL    HW223463   4.399   4.595   5.472
 7522SOL     OW23464   2.555   1.022   6.336
 7522SOL    HW123465   2.638   0.994   6.385
 7522SOL    HW223466   2.573   1.019   6.238
 7523SOL     OW23467   6.351   0.636   5.345
 7523SOL    HW123468   6.267   0.644   5.399
 7523SOL    HW223469   6.331   0.590   5.258
 7524SOL     OW23470   6.806   2.062   6.238
 7524SOL    HW123471   6.716   2.087   6.273
 7524SOL    HW223472   6.806   2.068   6.138
 7525SOL     OW23473   2.070   6.981   6.837
 7525SOL    HW123474   2.149   6.943   6.886
 7525SOL    HW223475   2.073   0.054   6.843
 7526SOL     OW23476   3.698   2.882   3.714
 7526SOL    HW123477   3.767   2.936   3.763
 7526SOL    HW223478   3.610   2.890   3.761
 7527SOL     OW23479   4.440   4.821   2.356
 7527SOL    HW123480   4.360   4.881   2.354
 7527SOL    HW223481   4.519   4.871   2.390
 7528SOL     OW23482   4.446   2.161   0.290
 7528SOL    HW123483   4.474   2.122   0.203
 7528SOL    HW223484   4.467   2.097   0.364
 7529SOL     OW23485   5.384   1.275   3.595
 7529SOL    HW123486   5.394   1.371   3.568
 7529SOL    HW223487   5.406   1.216   3.518
 7530SOL     OW23488   6.935   3.135   2.394
 7530SOL    HW123489   6.982   3.220   2.417
 7530SOL    HW223490   6.958   3.108   2.300
 7531SOL     OW23491   4.527   1.835   4.358
 7531SOL    HW123492   4.472   1.919   4.363
 7531SOL    HW223493   4.622   1.856   4.380
 7532SOL     OW23494   5.299   5.306   1.920
 7532SOL    HW123495   5.222   5.247   1.897
 7532SOL    HW223496   5.283   5.346   2.011
 7533SOL     OW23497   1.589   0.893   3.066
 7533SOL    HW123498   1.649   0.863   2.993
 7533SOL    HW223499   1.619   0.982   3.100
 7534SOL     OW23500   3.753   6.014   4.904
 7534SOL    HW123501   3.774   5.916   4.908
 7534SOL    HW223502   3.655   6.026   4.890
 7535SOL     OW23503   2.401   1.389   6.012
 7535SOL    HW123504   2.315   1.381   5.961
 7535SOL    HW223505   2.476   1.350   5.958
 7536SOL     OW23506   5.014   4.806   5.187
 7536SOL    HW123507   4.971   4.721   5.218
 7536SOL    HW223508   5.039   4.797   5.091
 7537SOL     OW23509   1.931   4.516   5.133
 7537SOL    HW123510   1.890   4.563   5.210
 7537SOL    HW223511   1.902   4.559   5.047
 7538SOL     OW23512   3.278   3.438   2.365
 7538SOL    HW123513   3.331   3.376   2.423
 7538SOL    HW223514   3.200   3.390   2.327
 7539SOL     OW23515   2.580   2.505   5.504
 7539SOL    HW123516   2.669   2.527   5.542
 7539SOL    HW223517   2.582   2.414   5.462
 7540SOL     OW23518   3.092   0.631   6.459
 7540SOL    HW123519   2.994   0.613   6.450
 7540SOL    HW223520   3.134   0.561   6.516
 7541SOL     OW23521   0.072   3.740   5.604
 7541SOL    HW123522   0.163   3.749   5.645
 7541SOL    HW223523   0.013   3.812   5.639
 7542SOL     OW23524   1.265   6.960   5.857
 7542SOL    HW123525   1.273   7.023   5.935
 7542SOL    HW223526   1.194   6.892   5.876
 7543SOL     OW23527   3.986   1.505   0.299
 7543SOL    HW123528   3.990   1.584   0.361
 7543SOL    HW223529   4.045   1.432   0.335
 7544SOL     OW23530   6.851   1.802   3.238
 7544SOL    HW123531   6.912   1.825   3.162
 7544SOL    HW223532   6.891   1.727   3.291
 7545SOL     OW23533   4.780   6.554   2.938
 7545SOL    HW123534   4.839   6.634   2.930
 7545SOL    HW223535   4.706   6.560   2.870
 7546SOL     OW23536   4.422   0.520   0.111
 7546SOL    HW123537   4.390   0.434   0.073
 7546SOL    HW223538   4.390   0.596   0.054
 7547SOL     OW23539   3.902   6.729   0.072
 7547SOL    HW123540   3.976   6.679   0.118
 7547SOL    HW223541   3.939   6.778   7.021
 7548SOL     OW23542   2.160   1.850   0.035
 7548SOL    HW123543   2.100   1.829   6.985
 7548SOL    HW223544   2.115   1.826   0.121
 7549SOL     OW23545   5.714   1.857   2.108
 7549SOL    HW123546   5.760   1.799   2.041
 7549SOL    HW223547   5.726   1.818   2.200
 7550SOL     OW23548   2.052   5.628   2.454
 7550SOL    HW123549   2.033   5.726   2.456
 7550SOL    HW223550   2.050   5.591   2.547
 7551SOL     OW23551   4.758   3.724   6.994
 7551SOL    HW123552   4.851   3.722   0.004
 7551SOL    HW223553   4.745   3.646   6.933
 7552SOL     OW23554   2.676   5.322   3.577
 7552SOL    HW123555   2.714   5.354   3.663
 7552SOL    HW223556   2.631   5.398   3.530
 7553SOL     OW23557   3.704   4.828   5.903
 7553SOL    HW123558   3.783   4.785   5.859
 7553SOL    HW223559   3.660   4.891   5.839
 7554SOL     OW23560   5.142   1.855   0.324
 7554SOL    HW123561   5.141   1.818   0.232
 7554SOL    HW223562   5.237   1.871   0.353
 7555SOL     OW23563   0.874   5.835   5.380
 7555SOL    HW123564   0.861   5.880   5.292
 7555SOL    HW223565   0.921   5.897   5.443
 7556SOL     OW23566   0.362   2.918   5.858
 7556SOL    HW123567   0.443   2.863   5.839
 7556SOL    HW223568   0.373   3.009   5.818
 7557SOL     OW23569   5.138   3.721   6.242
 7557SOL    HW123570   5.221   3.767   6.211
 7557SOL    HW223571   5.104   3.661   6.170
 7558SOL     OW23572   2.385   2.480   3.973
 7558SOL    HW123573   2.483   2.476   3.994
 7558SOL    HW223574   2.336   2.413   4.027
 7559SOL     OW23575   6.244   5.474   1.379
 7559SOL    HW123576   6.190   5.502   1.299
 7559SOL    HW223577   6.240   5.547   1.448
 7560SOL     OW23578   5.060   0.017   6.786
 7560SOL    HW123579   4.975   7.011   6.743
 7560SOL    HW223580   5.038   0.094   6.846
 7561SOL     OW23581   0.652   3.821   0.454
 7561SOL    HW123582   0.578   3.769   0.499
 7561SOL    HW223583   0.660   3.791   0.359
 7562SOL     OW23584   5.176   6.073   4.578
 7562SOL    HW123585   5.225   6.083   4.491
 7562SOL    HW223586   5.159   5.976   4.596
 7563SOL     OW23587   2.893   0.031   1.407
 7563SOL    HW123588   2.939   0.117   1.383
 7563SOL    HW223589   2.861   0.036   1.501
 7564SOL     OW23590   4.816   1.050   3.002
 7564SOL    HW123591   4.743   1.001   3.049
 7564SOL    HW223592   4.899   0.995   3.001
 7565SOL     OW23593   4.399   4.690   6.794
 7565SOL    HW123594   4.456   4.626   6.741
 7565SOL    HW223595   4.440   4.781   6.790
 7566SOL     OW23596   1.208   4.817   3.781
 7566SOL    HW123597   1.245   4.798   3.690
 7566SOL    HW223598   1.151   4.898   3.778
 7567SOL     OW23599   1.604   3.420   5.489
 7567SOL    HW123600   1.597   3.477   5.407
 7567SOL    HW223601   1.512   3.391   5.517
 7568SOL     OW23602   5.433   5.349   4.209
 7568SOL    HW123603   5.460   5.439   4.174
 7568SOL    HW223604   5.447   5.279   4.139
 7569SOL     OW23605   4.659   6.074   6.627
 7569SOL    HW123606   4.703   5.991   6.595
 7569SOL    HW223607   4.581   6.096   6.568
 7570SOL     OW23608   5.659   4.464   5.195
 7570SOL    HW123609   5.563   4.493   5.202
 7570SOL    HW223610   5.666   4.366   5.212
 7571SOL     OW23611   5.167   4.385   2.100
 7571SOL    HW123612   5.211   4.354   2.016
 7571SOL    HW223613   5.238   4.410   2.167
 7572SOL     OW23614   4.887   0.274   3.980
 7572SOL    HW123615   4.872   0.188   4.028
 7572SOL    HW223616   4.896   0.348   4.048
 7573SOL     OW23617   5.497   5.845   3.922
 7573SOL    HW123618   5.590   5.836   3.887
 7573SOL    HW223619   5.436   5.869   3.847
 7574SOL     OW23620   5.652   1.244   4.187
 7574SOL    HW123621   5.721   1.271   4.254
 7574SOL    HW223622   5.562   1.276   4.217
 7575SOL     OW23623   4.332   0.692   5.544
 7575SOL    HW123624   4.377   0.603   5.533
 7575SOL    HW223625   4.233   0.679   5.546
 7576SOL     OW23626   5.790   5.507   6.905
 7576SOL    HW123627   5.804   5.472   6.813
 7576SOL    HW223628   5.827   5.442   6.972
 7577SOL     OW23629   6.430   0.007   4.726
 7577SOL    HW123630   6.498   0.044   4.790
 7577SOL    HW223631   6.415   6.937   4.745
 7578SOL     OW23632   1.690   6.437   4.205
 7578SOL    HW123633   1.786   6.442   4.230
 7578SOL    HW223634   1.682   6.425   4.106
 7579SOL     OW23635   4.512   2.499   2.458
 7579SOL    HW123636   4.461   2.484   2.373
 7579SOL    HW223637   4.567   2.582   2.449
 7580SOL     OW23638   1.406   3.824   3.930
 7580SOL    HW123639   1.481   3.772   3.972
 7580SOL    HW223640   1.327   3.763   3.917
 7581SOL     OW23641   4.157   1.502   0.628
 7581SOL    HW123642   4.151   1.579   0.692
 7581SOL    HW223643   4.176   1.537   0.536
 7582SOL     OW23644   3.684   1.511   0.440
 7582SOL    HW123645   3.783   1.525   0.431
 7582SOL    HW223646   3.637   1.599   0.428
 7583SOL     OW23647   6.343   3.747   1.761
 7583SOL    HW123648   6.368   3.816   1.829
 7583SOL    HW223649   6.422   3.689   1.740
 7584SOL     OW23650   2.410   6.974   1.332
 7584SOL    HW123651   2.318   7.001   1.303
 7584SOL    HW223652   2.475   6.995   1.259
 7585SOL     OW23653   1.536   3.533   5.865
 7585SOL    HW123654   1.504   3.541   5.960
 7585SOL    HW223655   1.492   3.604   5.809
 7586SOL     OW23656   2.596   0.588   2.610
 7586SOL    HW123657   2.597   0.655   2.536
 7586SOL    HW223658   2.688   0.578   2.648
 7587SOL     OW23659   2.186   1.531   6.682
 7587SOL    HW123660   2.211   1.514   6.777
 7587SOL    HW223661   2.264   1.572   6.633
 7588SOL     OW23662   0.697   4.311   1.896
 7588SOL    HW123663   0.609   4.339   1.935
 7588SOL    HW223664   0.767   4.315   1.967
 7589SOL     OW23665   6.088   6.137   0.633
 7589SOL    HW123666   5.998   6.095   0.632
 7589SOL    HW223667   6.085   6.226   0.588
 7590SOL     OW23668   2.825   1.629   5.938
 7590SOL    HW123669   2.828   1.693   6.015
 7590SOL    HW223670   2.766   1.667   5.866
 7591SOL     OW23671   0.215   5.698   0.159
 7591SOL    HW123672   0.253   5.717   0.250
 7591SOL    HW223673   0.210   5.599   0.146
 7592SOL     OW23674   6.807   4.439   6.734
 7592SOL    HW123675   6.713   4.468   6.715
 7592SOL    HW223676   6.807   4.365   6.801
 7593SOL     OW23677   6.173   2.624   6.821
 7593SOL    HW123678   6.238   2.562   6.866
 7593SOL    HW223679   6.095   2.572   6.788
 7594SOL     OW23680   0.828   5.060   2.103
 7594SOL    HW123681   0.767   5.125   2.057
 7594SOL    HW223682   0.775   4.979   2.131
 7595SOL     OW23683   0.437   2.759   6.439
 7595SOL    HW123684   0.444   2.662   6.418
 7595SOL    HW223685   0.505   2.783   6.508
 7596SOL     OW23686   5.231   5.399   2.553
 7596SOL    HW123687   5.275   5.488   2.543
 7596SOL    HW223688   5.267   5.336   2.484
 7597SOL     OW23689   2.904   5.990   1.973
 7597SOL    HW123690   2.828   5.993   1.907
 7597SOL    HW223691   2.980   5.939   1.933
 7598SOL     OW23692   6.309   0.748   3.040
 7598SOL    HW123693   6.219   0.773   3.075
 7598SOL    HW223694   6.306   0.655   3.002
 7599SOL     OW23695   5.262   1.102   3.199
 7599SOL    HW123696   5.282   1.024   3.141
 7599SOL    HW223697   5.261   1.186   3.144
 7600SOL     OW23698   1.450   0.806   2.282
 7600SOL    HW123699   1.495   0.782   2.196
 7600SOL    HW223700   1.424   0.902   2.280
 7601SOL     OW23701   1.853   5.534   3.983
 7601SOL    HW123702   1.784   5.461   3.990
 7601SOL    HW223703   1.928   5.504   3.925
 7602SOL     OW23704   2.014   3.899   4.762
 7602SOL    HW123705   1.954   3.955   4.820
 7602SOL    HW223706   2.022   3.808   4.802
 7603SOL     OW23707   1.299   5.962   6.584
 7603SOL    HW123708   1.364   6.005   6.522
 7603SOL    HW223709   1.250   5.889   6.535
 7604SOL     OW23710   2.574   5.963   4.225
 7604SOL    HW123711   2.658   5.921   4.191
 7604SOL    HW223712   2.535   6.020   4.153
 7605SOL     OW23713   1.640   6.145   0.156
 7605SOL    HW123714   1.721   6.204   0.157
 7605SOL    HW223715   1.631   6.098   0.244
 7606SOL     OW23716   0.162   2.854   2.156
 7606SOL    HW123717   0.148   2.756   2.138
 7606SOL    HW223718   0.079   2.893   2.195
 7607SOL     OW23719   4.321   6.684   6.777
 7607SOL    HW123720   4.309   6.760   6.841
 7607SOL    HW223721   4.336   6.719   6.685
 7608SOL     OW23722   3.327   3.870   3.745
 7608SOL    HW123723   3.260   3.942   3.729
 7608SOL    HW223724   3.287   3.798   3.802
 7609SOL     OW23725   6.623   3.290   3.412
 7609SOL    HW123726   6.711   3.245   3.425
 7609SOL    HW223727   6.638   3.388   3.397
 7610SOL     OW23728   6.269   0.864   0.351
 7610SOL    HW123729   6.223   0.949   0.327
 7610SOL    HW223730   6.298   0.868   0.447
 7611SOL     OW23731   0.711   1.885   0.251
 7611SOL    HW123732   0.691   1.817   0.322
 7611SOL    HW223733   0.722   1.975   0.293
 7612SOL     OW23734   4.123   2.298   4.039
 7612SOL    HW123735   4.162   2.208   4.057
 7612SOL    HW223736   4.075   2.296   3.951
 7613SOL     OW23737   4.794   2.433   1.618
 7613SOL    HW123738   4.853   2.445   1.538
 7613SOL    HW223739   4.718   2.498   1.613
 7614SOL     OW23740   4.158   2.718   1.593
 7614SOL    HW123741   4.089   2.669   1.540
 7614SOL    HW223742   4.249   2.692   1.561
 7615SOL     OW23743   5.331   4.560   6.383
 7615SOL    HW123744   5.405   4.505   6.345
 7615SOL    HW223745   5.308   4.634   6.319
 7616SOL     OW23746   0.835   4.539   4.110
 7616SOL    HW123747   0.904   4.485   4.158
 7616SOL    HW223748   0.821   4.500   4.019
 7617SOL     OW23749   2.770   5.556   3.081
 7617SOL    HW123750   2.861   5.524   3.108
 7617SOL    HW223751   2.700   5.500   3.125
 7618SOL     OW23752   1.122   1.815   6.823
 7618SOL    HW123753   1.145   1.875   6.900
 7618SOL    HW223754   1.100   1.872   6.743
 7619SOL     OW23755   5.919   3.204   5.220
 7619SOL    HW123756   5.901   3.179   5.315
 7619SOL    HW223757   5.919   3.122   5.163
 7620SOL     OW23758   3.578   6.210   0.483
 7620SOL    HW123759   3.671   6.239   0.508
 7620SOL    HW223760   3.516   6.232   0.558
 7621SOL     OW23761   0.642   0.853   0.340
 7621SOL    HW123762   0.545   0.868   0.354
 7621SOL    HW223763   0.673   0.775   0.395
 7622SOL     OW23764   5.606   3.723   1.690
 7622SOL    HW123765   5.634   3.677   1.606
 7622SOL    HW223766   5.510   3.701   1.709
 7623SOL     OW23767   4.776   4.783   6.439
 7623SOL    HW123768   4.781   4.716   6.365
 7623SOL    HW223769   4.815   4.744   6.522
 7624SOL     OW23770   0.419   2.337   4.110
 7624SOL    HW123771   0.430   2.365   4.205
 7624SOL    HW223772   0.331   2.290   4.099
 7625SOL     OW23773   4.600   0.642   0.920
 7625SOL    HW123774   4.661   0.683   0.853
 7625SOL    HW223775   4.601   0.697   1.004
 7626SOL     OW23776   6.792   6.336   5.073
 7626SOL    HW123777   6.854   6.353   4.997
 7626SOL    HW223778   6.783   6.420   5.127
 7627SOL     OW23779   6.453   3.295   0.462
 7627SOL    HW123780   6.547   3.327   0.460
 7627SOL    HW223781   6.405   3.339   0.538
 7628SOL     OW23782   3.476   0.813   1.313
 7628SOL    HW123783   3.575   0.798   1.311
 7628SOL    HW223784   3.432   0.747   1.252
 7629SOL     OW23785   6.355   6.403   2.559
 7629SOL    HW123786   6.373   6.501   2.558
 7629SOL    HW223787   6.257   6.387   2.550
 7630SOL     OW23788   6.463   6.043   2.121
 7630SOL    HW123789   6.554   6.048   2.080
 7630SOL    HW223790   6.431   6.135   2.142
 7631SOL     OW23791   1.158   1.422   5.654
 7631SOL    HW123792   1.158   1.462   5.562
 7631SOL    HW223793   1.078   1.453   5.704
 7632SOL     OW23794   3.877   2.219   1.302
 7632SOL    HW123795   3.875   2.125   1.269
 7632SOL    HW223796   3.950   2.229   1.369
 7633SOL     OW23797   5.195   2.170   0.368
 7633SOL    HW123798   5.124   2.160   0.297
 7633SOL    HW223799   5.275   2.116   0.341
 7634SOL     OW23800   1.090   1.318   2.151
 7634SOL    HW123801   1.180   1.329   2.109
 7634SOL    HW223802   1.052   1.408   2.173
 7635SOL     OW23803   2.753   5.152   5.540
 7635SOL    HW123804   2.721   5.073   5.593
 7635SOL    HW223805   2.740   5.235   5.594
 7636SOL     OW23806   0.934   1.599   3.651
 7636SOL    HW123807   0.973   1.642   3.570
 7636SOL    HW223808   0.999   1.533   3.689
 7637SOL     OW23809   1.972   6.509   2.441
 7637SOL    HW123810   1.886   6.480   2.482
 7637SOL    HW223811   2.017   6.575   2.500
 7638SOL     OW23812   5.185   5.700   1.859
 7638SOL    HW123813   5.097   5.680   1.816
 7638SOL    HW223814   5.201   5.799   1.859
 7639SOL     OW23815   1.224   1.977   0.003
 7639SOL    HW123816   1.149   2.011   0.060
 7639SOL    HW223817   1.257   2.050   6.970
 7640SOL     OW23818   2.801   2.219   6.963
 7640SOL    HW123819   2.871   2.251   0.000
 7640SOL    HW223820   2.808   2.120   6.953
 7641SOL     OW23821   0.803   4.004   1.774
 7641SOL    HW123822   0.710   3.994   1.808
 7641SOL    HW223823   0.835   4.097   1.792
 7642SOL     OW23824   2.480   1.666   3.438
 7642SOL    HW123825   2.497   1.569   3.422
 7642SOL    HW223826   2.490   1.716   3.352
 7643SOL     OW23827   4.446   2.186   4.043
 7643SOL    HW123828   4.514   2.238   4.096
 7643SOL    HW223829   4.432   2.230   3.955
 7644SOL     OW23830   6.317   1.842   2.696
 7644SOL    HW123831   6.339   1.766   2.635
 7644SOL    HW223832   6.336   1.928   2.650
 7645SOL     OW23833   4.560   4.624   6.081
 7645SOL    HW123834   4.466   4.640   6.111
 7645SOL    HW223835   4.560   4.597   5.985
 7646SOL     OW23836   2.019   2.302   2.680
 7646SOL    HW123837   2.100   2.314   2.622
 7646SOL    HW223838   1.946   2.259   2.628
 7647SOL     OW23839   1.198   3.310   1.081
 7647SOL    HW123840   1.167   3.389   1.135
 7647SOL    HW223841   1.246   3.246   1.141
 7648SOL     OW23842   3.982   2.148   3.813
 7648SOL    HW123843   3.927   2.158   3.896
 7648SOL    HW223844   3.937   2.084   3.751
 7649SOL     OW23845   1.236   1.056   2.670
 7649SOL    HW123846   1.214   0.968   2.627
 7649SOL    HW223847   1.248   1.125   2.599
 7650SOL     OW23848   6.652   3.211   1.103
 7650SOL    HW123849   6.666   3.310   1.105
 7650SOL    HW223850   6.710   3.168   1.172
 7651SOL     OW23851   2.648   0.298   5.807
 7651SOL    HW123852   2.663   0.397   5.808
 7651SOL    HW223853   2.734   0.252   5.829
 7652SOL     OW23854   7.016   3.777   4.667
 7652SOL    HW123855   7.014   3.678   4.654
 7652SOL    HW223856   6.941   3.804   4.728
 7653SOL     OW23857   1.930   1.575   0.490
 7653SOL    HW123858   1.850   1.603   0.438
 7653SOL    HW223859   1.974   1.498   0.445
 7654SOL     OW23860   4.958   3.004   3.112
 7654SOL    HW123861   5.009   3.090   3.116
 7654SOL    HW223862   5.022   2.927   3.116
 7655SOL     OW23863   3.572   0.570   3.879
 7655SOL    HW123864   3.486   0.600   3.920
 7655SOL    HW223865   3.574   0.595   3.782
 7656SOL     OW23866   1.075   5.661   5.980
 7656SOL    HW123867   1.022   5.584   6.013
 7656SOL    HW223868   1.029   5.702   5.901
 7657SOL     OW23869   2.686   2.433   2.930
 7657SOL    HW123870   2.645   2.474   3.012
 7657SOL    HW223871   2.776   2.396   2.952
 7658SOL     OW23872   4.461   6.635   5.541
 7658SOL    HW123873   4.366   6.612   5.563
 7658SOL    HW223874   4.474   6.734   5.546
 7659SOL     OW23875   5.526   6.553   6.427
 7659SOL    HW123876   5.441   6.563   6.377
 7659SOL    HW223877   5.577   6.474   6.393
 7660SOL     OW23878   5.987   5.873   4.228
 7660SOL    HW123879   6.030   5.849   4.315
 7660SOL    HW223880   6.056   5.915   4.168
 7661SOL     OW23881   6.195   1.828   4.263
 7661SOL    HW123882   6.149   1.756   4.315
 7661SOL    HW223883   6.191   1.807   4.166
 7662SOL     OW23884   1.228   2.299   2.269
 7662SOL    HW123885   1.139   2.254   2.272
 7662SOL    HW223886   1.241   2.343   2.180
 7663SOL     OW23887   6.316   6.487   6.070
 7663SOL    HW123888   6.278   6.551   6.137
 7663SOL    HW223889   6.244   6.458   6.007
 7664SOL     OW23890   3.221   0.042   2.478
 7664SOL    HW123891   3.288   0.034   2.405
 7664SOL    HW223892   3.165   0.124   2.463
 7665SOL     OW23893   3.818   0.413   3.743
 7665SOL    HW123894   3.820   0.371   3.833
 7665SOL    HW223895   3.774   0.503   3.749
 7666SOL     OW23896   6.549   6.951   1.585
 7666SOL    HW123897   6.629   6.994   1.544
 7666SOL    HW223898   6.482   7.022   1.610
 7667SOL     OW23899   5.295   5.734   0.925
 7667SOL    HW123900   5.264   5.721   0.831
 7667SOL    HW223901   5.323   5.830   0.937
 7668SOL     OW23902   2.677   4.355   1.144
 7668SOL    HW123903   2.721   4.268   1.122
 7668SOL    HW223904   2.648   4.354   1.240
 7669SOL     OW23905   5.333   1.807   4.992
 7669SOL    HW123906   5.317   1.791   4.895
 7669SOL    HW223907   5.427   1.782   5.015
 7670SOL     OW23908   1.723   5.649   6.494
 7670SOL    HW123909   1.788   5.574   6.506
 7670SOL    HW223910   1.650   5.641   6.562
 7671SOL     OW23911   4.104   1.241   4.457
 7671SOL    HW123912   4.101   1.275   4.362
 7671SOL    HW223913   4.136   1.314   4.516
 7672SOL     OW23914   5.537   6.232   3.835
 7672SOL    HW123915   5.627   6.273   3.816
 7672SOL    HW223916   5.501   6.270   3.920
 7673SOL     OW23917   2.078   4.828   0.429
 7673SOL    HW123918   2.063   4.831   0.330
 7673SOL    HW223919   2.162   4.877   0.452
 7674SOL     OW23920   6.535   2.274   4.506
 7674SOL    HW123921   6.439   2.296   4.490
 7674SOL    HW223922   6.548   2.175   4.498
 7675SOL     OW23923   5.058   0.604   2.871
 7675SOL    HW123924   5.056   0.644   2.779
 7675SOL    HW223925   5.057   0.504   2.863
 7676SOL     OW23926   0.892   1.696   0.486
 7676SOL    HW123927   0.894   1.745   0.574
 7676SOL    HW223928   0.798   1.673   0.462
 7677SOL     OW23929   1.422   3.813   1.777
 7677SOL    HW123930   1.351   3.833   1.710
 7677SOL    HW223931   1.383   3.762   1.853
 7678SOL     OW23932   1.306   1.084   6.265
 7678SOL    HW123933   1.361   1.001   6.277
 7678SOL    HW223934   1.220   1.061   6.220
 7679SOL     OW23935   1.198   6.601   4.940
 7679SOL    HW123936   1.224   6.692   4.907
 7679SOL    HW223937   1.156   6.549   4.866
 7680SOL     OW23938   2.108   2.968   0.194
 7680SOL    HW123939   2.155   3.028   0.129
 7680SOL    HW223940   2.140   2.874   0.182
 7681SOL     OW23941   3.084   0.302   0.397
 7681SOL    HW123942   3.005   0.242   0.409
 7681SOL    HW223943   3.128   0.316   0.486
 7682SOL     OW23944   2.548   0.432   1.954
 7682SOL    HW123945   2.578   0.442   1.859
 7682SOL    HW223946   2.451   0.410   1.956
 7683SOL     OW23947   6.734   2.074   3.972
 7683SOL    HW123948   6.801   2.001   3.986
 7683SOL    HW223949   6.740   2.108   3.879
 7684SOL     OW23950   5.915   2.132   0.124
 7684SOL    HW123951   5.833   2.187   0.110
 7684SOL    HW223952   5.937   2.130   0.222
 7685SOL     OW23953   3.654   2.987   0.014
 7685SOL    HW123954   3.584   2.926   0.050
 7685SOL    HW223955   3.622   3.029   6.956
 7686SOL     OW23956   4.651   0.565   3.462
 7686SOL    HW123957   4.619   0.494   3.399
 7686SOL    HW223958   4.590   0.570   3.541
 7687SOL     OW23959   6.216   5.599   5.252
 7687SOL    HW123960   6.151   5.575   5.180
 7687SOL    HW223961   6.172   5.588   5.341
 7688SOL     OW23962   0.386   0.707   6.925
 7688SOL    HW123963   0.434   0.749   6.847
 7688SOL    HW223964   0.307   0.656   6.891
 7689SOL     OW23965   5.123   5.702   3.579
 7689SOL    HW123966   5.169   5.687   3.491
 7689SOL    HW223967   5.025   5.686   3.568
 7690SOL     OW23968   5.956   5.353   1.798
 7690SOL    HW123969   6.015   5.375   1.721
 7690SOL    HW223970   5.996   5.277   1.850
 7691SOL     OW23971   4.739   2.950   4.273
 7691SOL    HW123972   4.726   2.960   4.174
 7691SOL    HW223973   4.831   2.979   4.298
 7692SOL     OW23974   0.580   0.084   1.102
 7692SOL    HW123975   0.618   0.146   1.034
 7692SOL    HW223976   0.640   0.005   1.112
 7693SOL     OW23977   4.275   0.047   0.646
 7693SOL    HW123978   4.224   7.005   0.699
 7693SOL    HW223979   4.237   0.138   0.665
 7694SOL     OW23980   0.581   4.422   4.185
 7694SOL    HW123981   0.613   4.453   4.095
 7694SOL    HW223982   0.605   4.491   4.253
 7695SOL     OW23983   3.836   6.920   1.150
 7695SOL    HW123984   3.738   6.906   1.146
 7695SOL    HW223985   3.874   6.869   1.227
 7696SOL     OW23986   6.934   2.039   4.313
 7696SOL    HW123987   0.006   2.031   4.307
 7696SOL    HW223988   6.893   1.948   4.319
 7697SOL     OW23989   2.418   0.993   2.659
 7697SOL    HW123990   2.321   0.976   2.639
 7697SOL    HW223991   2.441   0.949   2.746
 7698SOL     OW23992   0.461   3.198   4.662
 7698SOL    HW123993   0.456   3.241   4.572
 7698SOL    HW223994   0.378   3.220   4.715
 7699SOL     OW23995   3.483   5.496   6.786
 7699SOL    HW123996   3.451   5.443   6.707
 7699SOL    HW223997   3.496   5.434   6.864
 7700SOL     OW23998   5.166   6.939   5.286
 7700SOL    HW123999   5.264   6.957   5.286
 7700SOL    HW224000   5.131   6.944   5.379
 7701SOL     OW24001   5.904   1.546   6.591
 7701SOL    HW124002   5.866   1.464   6.550
 7701SOL    HW224003   5.831   1.599   6.635
 7702SOL     OW24004   3.447   6.008   5.777
 7702SOL    HW124005   3.393   6.088   5.803
 7702SOL    HW224006   3.467   6.011   5.680
 7703SOL     OW24007   6.869   1.298   4.557
 7703SOL    HW124008   6.947   1.317   4.616
 7703SOL    HW224009   6.819   1.383   4.539
 7704SOL     OW24010   4.395   4.871   5.349
 7704SOL    HW124011   4.466   4.808   5.380
 7704SOL    HW224012   4.380   4.941   5.419
 7705SOL     OW24013   3.492   4.551   5.805
 7705SOL    HW124014   3.398   4.530   5.776
 7705SOL    HW224015   3.547   4.575   5.725
 7706SOL     OW24016   4.920   1.259   5.854
 7706SOL    HW124017   4.993   1.202   5.890
 7706SOL    HW224018   4.949   1.302   5.769
 7707SOL     OW24019   0.430   5.524   6.440
 7707SOL    HW124020   0.523   5.552   6.420
 7707SOL    HW224021   0.372   5.540   6.359
 7708SOL     OW24022   4.719   6.086   5.034
 7708SOL    HW124023   4.794   6.146   5.061
 7708SOL    HW224024   4.647   6.140   4.991
 7709SOL     OW24025   5.754   3.486   1.785
 7709SOL    HW124026   5.662   3.524   1.793
 7709SOL    HW224027   5.817   3.557   1.756
 7710SOL     OW24028   1.906   0.537   0.880
 7710SOL    HW124029   2.005   0.526   0.879
 7710SOL    HW224030   1.883   0.633   0.895
 7711SOL     OW24031   6.304   6.127   4.749
 7711SOL    HW124032   6.226   6.189   4.750
 7711SOL    HW224033   6.273   6.036   4.721
 7712SOL     OW24034   6.712   4.879   1.224
 7712SOL    HW124035   6.640   4.897   1.156
 7712SOL    HW224036   6.742   4.965   1.265
 7713SOL     OW24037   1.909   4.519   0.731
 7713SOL    HW124038   1.949   4.611   0.722
 7713SOL    HW224039   1.982   4.452   0.738
 7714SOL     OW24040   6.799   5.204   5.395
 7714SOL    HW124041   6.748   5.197   5.481
 7714SOL    HW224042   6.737   5.197   5.318
 7715SOL     OW24043   5.311   1.440   1.198
 7715SOL    HW124044   5.352   1.421   1.109
 7715SOL    HW224045   5.211   1.447   1.189
 7716SOL     OW24046   5.336   2.934   3.262
 7716SOL    HW124047   5.251   2.970   3.299
 7716SOL    HW224048   5.406   2.933   3.333
 7717SOL     OW24049   2.767   1.130   4.618
 7717SOL    HW124050   2.717   1.191   4.557
 7717SOL    HW224051   2.848   1.177   4.652
 7718SOL     OW24052   1.742   2.502   3.313
 7718SOL    HW124053   1.718   2.582   3.258
 7718SOL    HW224054   1.732   2.420   3.258
 7719SOL     OW24055   0.030   3.495   3.798
 7719SOL    HW124056   7.012   3.453   3.719
 7719SOL    HW224057   0.114   3.540   3.767
 7720SOL     OW24058   0.133   6.847   0.320
 7720SOL    HW124059   0.051   6.889   0.358
 7720SOL    HW224060   0.209   6.912   0.326
 7721SOL     OW24061   1.601   3.899   3.102
 7721SOL    HW124062   1.701   3.912   3.105
 7721SOL    HW224063   1.562   3.920   3.191
 7722SOL     OW24064   0.439   5.340   2.615
 7722SOL    HW124065   0.435   5.240   2.618
 7722SOL    HW224066   0.352   5.378   2.648
 7723SOL     OW24067   6.689   4.294   0.802
 7723SOL    HW124068   6.689   4.218   0.867
 7723SOL    HW224069   6.708   4.259   0.710
 7724SOL     OW24070   2.432   4.488   2.174
 7724SOL    HW124071   2.492   4.546   2.229
 7724SOL    HW224072   2.339   4.493   2.211
 7725SOL     OW24073   4.887   2.656   3.210
 7725SOL    HW124074   4.965   2.707   3.173
 7725SOL    HW224075   4.915   2.603   3.290
 7726SOL     OW24076   6.358   5.085   3.953
 7726SOL    HW124077   6.385   5.169   4.000
 7726SOL    HW224078   6.322   5.108   3.862
 7727SOL     OW24079   5.899   1.844   3.488
 7727SOL    HW124080   5.986   1.825   3.442
 7727SOL    HW224081   5.915   1.909   3.562
 7728SOL     OW24082   0.941   3.842   3.775
 7728SOL    HW124083   1.012   3.825   3.707
 7728SOL    HW224084   0.944   3.938   3.804
 7729SOL     OW24085   6.196   2.475   1.690
 7729SOL    HW124086   6.100   2.502   1.685
 7729SOL    HW224087   6.207   2.383   1.654
 7730SOL     OW24088   5.655   5.836   2.579
 7730SOL    HW124089   5.587   5.803   2.643
 7730SOL    HW224090   5.694   5.759   2.528
 7731SOL     OW24091   5.764   1.039   1.113
 7731SOL    HW124092   5.789   1.058   1.018
 7731SOL    HW224093   5.688   1.098   1.140
 7732SOL     OW24094   4.616   5.893   0.397
 7732SOL    HW124095   4.666   5.974   0.366
 7732SOL    HW224096   4.648   5.867   0.488
 7733SOL     OW24097   4.373   6.384   1.772
 7733SOL    HW124098   4.446   6.452   1.777
 7733SOL    HW224099   4.346   6.357   1.865
 7734SOL     OW24100   1.549   3.741   3.513
 7734SOL    HW124101   1.566   3.658   3.460
 7734SOL    HW224102   1.455   3.772   3.498
 7735SOL     OW24103   3.690   4.828   6.559
 7735SOL    HW124104   3.727   4.736   6.543
 7735SOL    HW224105   3.659   4.836   6.654
 7736SOL     OW24106   5.374   4.314   0.248
 7736SOL    HW124107   5.407   4.273   0.333
 7736SOL    HW224108   5.290   4.365   0.267
 7737SOL     OW24109   4.703   1.193   0.945
 7737SOL    HW124110   4.642   1.269   0.920
 7737SOL    HW224111   4.798   1.221   0.934
 7738SOL     OW24112   2.442   5.767   0.054
 7738SOL    HW124113   2.475   5.707   0.127
 7738SOL    HW224114   2.470   5.861   0.072
 7739SOL     OW24115   0.191   1.424   1.422
 7739SOL    HW124116   0.099   1.418   1.383
 7739SOL    HW224117   0.184   1.421   1.522
 7740SOL     OW24118   0.448   0.577   2.777
 7740SOL    HW124119   0.526   0.522   2.805
 7740SOL    HW224120   0.375   0.517   2.743
 7741SOL     OW24121   1.161   5.990   4.652
 7741SOL    HW124122   1.220   6.050   4.706
 7741SOL    HW224123   1.216   5.915   4.614
 7742SOL     OW24124   6.364   2.046   3.522
 7742SOL    HW124125   6.391   2.141   3.531
 7742SOL    HW224126   6.351   2.006   3.612
 7743SOL     OW24127   4.562   2.881   6.368
 7743SOL    HW124128   4.489   2.813   6.364
 7743SOL    HW224129   4.599   2.885   6.461
 7744SOL     OW24130   0.312   6.253   3.819
 7744SOL    HW124131   0.295   6.158   3.793
 7744SOL    HW224132   0.318   6.260   3.918
 7745SOL     OW24133   3.566   2.323   5.663
 7745SOL    HW124134   3.596   2.252   5.727
 7745SOL    HW224135   3.535   2.403   5.714
 7746SOL     OW24136   2.648   6.767   6.798
 7746SOL    HW124137   2.632   6.804   6.706
 7746SOL    HW224138   2.560   6.747   6.841
 7747SOL     OW24139   4.662   6.378   0.929
 7747SOL    HW124140   4.737   6.327   0.971
 7747SOL    HW224141   4.624   6.443   0.995
 7748SOL     OW24142   3.180   3.899   5.487
 7748SOL    HW124143   3.082   3.893   5.506
 7748SOL    HW224144   3.198   3.868   5.393
 7749SOL     OW24145   4.336   3.914   6.123
 7749SOL    HW124146   4.387   3.851   6.181
 7749SOL    HW224147   4.254   3.867   6.088
 7750SOL     OW24148   0.681   5.998   1.033
 7750SOL    HW124149   0.685   6.020   0.936
 7750SOL    HW224150   0.586   5.980   1.058
 7751SOL     OW24151   1.422   1.659   2.000
 7751SOL    HW124152   1.495   1.595   1.980
 7751SOL    HW224153   1.398   1.709   1.916
 7752SOL     OW24154   5.146   0.486   4.829
 7752SOL    HW124155   5.216   0.450   4.766
 7752SOL    HW224156   5.191   0.523   4.911
 7753SOL     OW24157   1.827   1.414   4.814
 7753SOL    HW124158   1.732   1.385   4.797
 7753SOL    HW224159   1.889   1.341   4.785
 7754SOL     OW24160   3.743   6.148   1.312
 7754SOL    HW124161   3.724   6.069   1.253
 7754SOL    HW224162   3.842   6.164   1.315
 7755SOL     OW24163   1.257   3.353   6.023
 7755SOL    HW124164   1.210   3.432   6.062
 7755SOL    HW224165   1.320   3.316   6.092
 7756SOL     OW24166   2.511   6.735   1.600
 7756SOL    HW124167   2.440   6.751   1.531
 7756SOL    HW224168   2.599   6.765   1.565
 7757SOL     OW24169   6.651   4.619   1.226
 7757SOL    HW124170   6.660   4.611   1.126
 7757SOL    HW224171   6.663   4.715   1.252
 7758SOL     OW24172   1.605   0.376   6.258
 7758SOL    HW124173   1.653   0.310   6.316
 7758SOL    HW224174   1.663   0.398   6.178
 7759SOL     OW24175   2.819   2.388   5.767
 7759SOL    HW124176   2.877   2.341   5.834
 7759SOL    HW224177   2.731   2.412   5.810
 7760SOL     OW24178   4.930   1.783   2.302
 7760SOL    HW124179   5.017   1.822   2.334
 7760SOL    HW224180   4.883   1.850   2.245
 7761SOL     OW24181   5.320   5.539   4.718
 7761SOL    HW124182   5.263   5.468   4.676
 7761SOL    HW224183   5.369   5.502   4.796
 7762SOL     OW24184   0.884   0.618   4.349
 7762SOL    HW124185   0.952   0.691   4.349
 7762SOL    HW224186   0.902   0.557   4.271
 7763SOL     OW24187   2.250   0.391   5.249
 7763SOL    HW124188   2.284   0.302   5.279
 7763SOL    HW224189   2.152   0.386   5.235
 7764SOL     OW24190   3.473   3.976   5.491
 7764SOL    HW124191   3.412   3.938   5.421
 7764SOL    HW224192   3.433   4.060   5.527
 7765SOL     OW24193   6.553   3.750   4.379
 7765SOL    HW124194   6.614   3.829   4.368
 7765SOL    HW224195   6.531   3.713   4.289
 7766SOL     OW24196   0.607   4.509   0.486
 7766SOL    HW124197   0.524   4.561   0.469
 7766SOL    HW224198   0.629   4.510   0.583
 7767SOL     OW24199   3.924   6.808   2.196
 7767SOL    HW124200   3.968   6.832   2.283
 7767SOL    HW224201   3.944   6.878   2.128
 7768SOL     OW24202   4.447   4.472   2.999
 7768SOL    HW124203   4.509   4.452   3.075
 7768SOL    HW224204   4.431   4.571   2.994
 7769SOL     OW24205   3.925   2.397   5.299
 7769SOL    HW124206   3.992   2.354   5.239
 7769SOL    HW224207   3.946   2.495   5.307
 7770SOL     OW24208   0.819   3.575   4.854
 7770SOL    HW124209   0.843   3.637   4.929
 7770SOL    HW224210   0.869   3.602   4.772
 7771SOL     OW24211   3.034   2.523   6.042
 7771SOL    HW124212   2.948   2.523   6.094
 7771SOL    HW224213   3.045   2.436   5.996
 7772SOL     OW24214   5.331   0.870   1.005
 7772SOL    HW124215   5.309   0.955   1.054
 7772SOL    HW224216   5.415   0.883   0.953
 7773SOL     OW24217   3.075   5.992   0.225
 7773SOL    HW124218   3.175   5.987   0.215
 7773SOL    HW224219   3.046   5.936   0.302
 7774SOL     OW24220   4.951   2.241   3.805
 7774SOL    HW124221   4.944   2.246   3.905
 7774SOL    HW224222   4.966   2.332   3.768
 7775SOL     OW24223   3.777   0.492   6.690
 7775SOL    HW124224   3.827   0.565   6.737
 7775SOL    HW224225   3.815   0.403   6.716
 7776SOL     OW24226   0.540   6.665   5.652
 7776SOL    HW124227   0.470   6.690   5.719
 7776SOL    HW224228   0.529   6.569   5.626
 7777SOL     OW24229   5.782   5.053   4.162
 7777SOL    HW124230   5.837   4.974   4.134
 7777SOL    HW224231   5.820   5.136   4.121
 7778SOL     OW24232   6.308   3.773   2.700
 7778SOL    HW124233   6.291   3.725   2.786
 7778SOL    HW224234   6.343   3.708   2.632
 7779SOL     OW24235   3.464   6.615   2.613
 7779SOL    HW124236   3.502   6.700   2.575
 7779SOL    HW224237   3.494   6.605   2.707
 7780SOL     OW24238   0.003   5.629   6.063
 7780SOL    HW124239   0.095   5.611   6.098
 7780SOL    HW224240   6.990   5.706   6.111
 7781SOL     OW24241   1.818   3.551   0.463
 7781SOL    HW124242   1.887   3.593   0.404
 7781SOL    HW224243   1.864   3.488   0.527
 7782SOL     OW24244   6.326   5.029   3.318
 7782SOL    HW124245   6.280   4.941   3.313
 7782SOL    HW224246   6.271   5.093   3.371
 7783SOL     OW24247   0.916   7.003   5.747
 7783SOL    HW124248   0.827   0.005   5.711
 7783SOL    HW224249   0.904   6.918   5.799
 7784SOL     OW24250   2.379   2.197   2.045
 7784SOL    HW124251   2.387   2.294   2.026
 7784SOL    HW224252   2.282   2.173   2.054
 7785SOL     OW24253   1.355   6.333   2.936
 7785SOL    HW124254   1.308   6.381   2.861
 7785SOL    HW224255   1.309   6.354   3.022
 7786SOL     OW24256   4.466   0.701   6.608
 7786SOL    HW124257   4.462   0.769   6.681
 7786SOL    HW224258   4.407   0.730   6.532
 7787SOL     OW24259   2.680   3.464   0.815
 7787SOL    HW124260   2.771   3.424   0.802
 7787SOL    HW224261   2.616   3.421   0.750
 7788SOL     OW24262   1.674   5.436   1.621
 7788SOL    HW124263   1.703   5.413   1.714
 7788SOL    HW224264   1.615   5.517   1.624
 7789SOL     OW24265   3.399   6.834   6.158
 7789SOL    HW124266   3.497   6.848   6.165
 7789SOL    HW224267   3.361   6.898   6.090
 7790SOL     OW24268   6.463   4.980   2.723
 7790SOL    HW124269   6.458   4.884   2.751
 7790SOL    HW224270   6.415   5.036   2.790
 7791SOL     OW24271   2.139   6.269   1.517
 7791SOL    HW124272   2.199   6.213   1.574
 7791SOL    HW224273   2.140   6.234   1.423
 7792SOL     OW24274   0.684   1.349   2.750
 7792SOL    HW124275   0.671   1.329   2.653
 7792SOL    HW224276   0.773   1.315   2.780
 7793SOL     OW24277   4.265   1.815   6.859
 7793SOL    HW124278   4.350   1.763   6.850
 7793SOL    HW224279   4.204   1.769   6.923
 7794SOL     OW24280   0.666   5.304   2.764
 7794SOL    HW124281   0.612   5.270   2.687
 7794SOL    HW224282   0.610   5.365   2.820
 7795SOL     OW24283   3.310   5.551   5.801
 7795SOL    HW124284   3.335   5.455   5.797
 7795SOL    HW224285   3.252   5.568   5.880
 7796SOL     OW24286   3.658   3.323   5.568
 7796SOL    HW124287   3.714   3.303   5.649
 7796SOL    HW224288   3.574   3.271   5.572
 7797SOL     OW24289   0.795   5.318   2.403
 7797SOL    HW124290   0.775   5.323   2.501
 7797SOL    HW224291   0.862   5.246   2.385
 7798SOL     OW24292   0.475   1.410   1.825
 7798SOL    HW124293   0.430   1.328   1.859
 7798SOL    HW224294   0.561   1.386   1.780
 7799SOL     OW24295   2.971   6.196   2.788
 7799SOL    HW124296   2.957   6.185   2.690
 7799SOL    HW224297   2.991   6.291   2.809
 7800SOL     OW24298   1.048   5.864   0.942
 7800SOL    HW124299   0.977   5.831   0.881
 7800SOL    HW224300   1.025   5.839   1.036
 7801SOL     OW24301   1.660   2.224   2.841
 7801SOL    HW124302   1.611   2.197   2.924
 7801SOL    HW224303   1.749   2.262   2.866
 7802SOL     OW24304   0.107   4.472   6.077
 7802SOL    HW124305   0.158   4.388   6.061
 7802SOL    HW224306   0.170   4.543   6.108
 7803SOL     OW24307   5.583   2.647   6.333
 7803SOL    HW124308   5.593   2.746   6.346
 7803SOL    HW224309   5.673   2.604   6.329
 7804SOL     OW24310   2.481   2.023   4.349
 7804SOL    HW124311   2.413   2.094   4.363
 7804SOL    HW224312   2.505   1.982   4.438
 7805SOL     OW24313   5.450   2.919   1.786
 7805SOL    HW124314   5.514   2.914   1.710
 7805SOL    HW224315   5.395   2.835   1.789
 7806SOL     OW24316   6.464   2.854   5.548
 7806SOL    HW124317   6.474   2.770   5.602
 7806SOL    HW224318   6.488   2.933   5.605
 7807SOL     OW24319   2.283   5.046   6.198
 7807SOL    HW124320   2.283   5.103   6.115
 7807SOL    HW224321   2.235   5.094   6.271
 7808SOL     OW24322   5.063   4.402   2.836
 7808SOL    HW124323   5.151   4.450   2.832
 7808SOL    HW224324   5.043   4.361   2.747
 7809SOL     OW24325   5.125   4.893   4.104
 7809SOL    HW124326   5.166   4.809   4.068
 7809SOL    HW224327   5.033   4.905   4.066
 7810SOL     OW24328   4.190   6.394   4.958
 7810SOL    HW124329   4.255   6.442   4.899
 7810SOL    HW224330   4.219   6.299   4.970
 7811SOL     OW24331   0.926   5.706   2.506
 7811SOL    HW124332   0.988   5.776   2.540
 7811SOL    HW224333   0.841   5.707   2.558
 7812SOL     OW24334   2.494   2.873   5.604
 7812SOL    HW124335   2.454   2.957   5.642
 7812SOL    HW224336   2.594   2.879   5.609
 7813SOL     OW24337   4.779   2.804   1.317
 7813SOL    HW124338   4.766   2.891   1.269
 7813SOL    HW224339   4.867   2.765   1.291
 7814SOL     OW24340   6.534   3.303   1.898
 7814SOL    HW124341   6.484   3.388   1.878
 7814SOL    HW224342   6.498   3.262   1.981
 7815SOL     OW24343   6.234   2.518   5.156
 7815SOL    HW124344   6.322   2.487   5.120
 7815SOL    HW224345   6.194   2.585   5.093
 7816SOL     OW24346   0.220   1.804   5.435
 7816SOL    HW124347   0.177   1.717   5.410
 7816SOL    HW224348   0.183   1.877   5.376
 7817SOL     OW24349   3.330   3.718   5.941
 7817SOL    HW124350   3.286   3.674   5.863
 7817SOL    HW224351   3.260   3.761   5.999
 7818SOL     OW24352   5.126   1.532   1.883
 7818SOL    HW124353   5.096   1.516   1.789
 7818SOL    HW224354   5.046   1.537   1.943
 7819SOL     OW24355   0.839   3.549   4.022
 7819SOL    HW124356   0.769   3.478   4.025
 7819SOL    HW224357   0.795   3.639   4.032
 7820SOL     OW24358   1.662   0.742   5.372
 7820SOL    HW124359   1.660   0.666   5.306
 7820SOL    HW224360   1.757   0.765   5.393
 7821SOL     OW24361   6.392   5.843   6.884
 7821SOL    HW124362   6.292   5.834   6.883
 7821SOL    HW224363   6.433   5.756   6.913
 7822SOL     OW24364   1.320   1.233   5.389
 7822SOL    HW124365   1.297   1.148   5.436
 7822SOL    HW224366   1.274   1.235   5.300
 7823SOL     OW24367   1.693   4.156   6.553
 7823SOL    HW124368   1.645   4.078   6.596
 7823SOL    HW224369   1.791   4.145   6.567
 7824SOL     OW24370   5.365   1.813   3.669
 7824SOL    HW124371   5.430   1.804   3.594
 7824SOL    HW224372   5.314   1.898   3.660
 7825SOL     OW24373   1.907   2.940   1.493
 7825SOL    HW124374   1.981   2.888   1.535
 7825SOL    HW224375   1.944   3.016   1.442
 7826SOL     OW24376   5.377   0.602   0.094
 7826SOL    HW124377   5.279   0.614   0.110
 7826SOL    HW224378   5.406   0.513   0.131
 7827SOL     OW24379   4.568   4.705   1.851
 7827SOL    HW124380   4.647   4.737   1.904
 7827SOL    HW224381   4.507   4.652   1.910
 7828SOL     OW24382   0.881   5.836   0.445
 7828SOL    HW124383   0.881   5.935   0.431
 7828SOL    HW224384   0.964   5.809   0.493
 7829SOL     OW24385   2.510   3.141   1.562
 7829SOL    HW124386   2.549   3.199   1.490
 7829SOL    HW224387   2.581   3.118   1.628
 7830SOL     OW24388   5.498   3.223   6.580
 7830SOL    HW124389   5.451   3.275   6.651
 7830SOL    HW224390   5.455   3.133   6.570
 7831SOL     OW24391   1.702   4.010   0.247
 7831SOL    HW124392   1.702   3.947   0.169
 7831SOL    HW224393   1.676   3.961   0.330
 7832SOL     OW24394   3.028   1.654   5.170
 7832SOL    HW124395   2.985   1.586   5.110
 7832SOL    HW224396   2.963   1.681   5.241
 7833SOL     OW24397   0.549   0.294   0.600
 7833SOL    HW124398   0.495   0.256   0.675
 7833SOL    HW224399   0.494   0.361   0.550
 7834SOL     OW24400   0.547   0.918   2.256
 7834SOL    HW124401   0.570   1.010   2.224
 7834SOL    HW224402   0.531   0.859   2.177
 7835SOL     OW24403   2.339   2.834   4.801
 7835SOL    HW124404   2.383   2.745   4.816
 7835SOL    HW224405   2.324   2.879   4.889
 7836SOL     OW24406   3.382   6.812   6.443
 7836SOL    HW124407   3.352   6.906   6.457
 7836SOL    HW224408   3.386   6.792   6.345
 7837SOL     OW24409   6.047   6.703   2.626
 7837SOL    HW124410   6.139   6.705   2.587
 7837SOL    HW224411   5.989   6.768   2.578
 7838SOL     OW24412   4.611   6.633   4.501
 7838SOL    HW124413   4.659   6.633   4.413
 7838SOL    HW224414   4.517   6.665   4.486
 7839SOL     OW24415   6.056   3.889   4.649
 7839SOL    HW124416   5.991   3.961   4.671
 7839SOL    HW224417   6.024   3.802   4.688
 7840SOL     OW24418   5.094   2.768   4.445
 7840SOL    HW124419   5.129   2.755   4.538
 7840SOL    HW224420   5.048   2.684   4.415
 7841SOL     OW24421   5.947   2.315   6.900
 7841SOL    HW124422   5.976   2.265   6.981
 7841SOL    HW224423   5.912   2.251   6.832
 7842SOL     OW24424   1.427   1.669   3.471
 7842SOL    HW124425   1.494   1.735   3.504
 7842SOL    HW224426   1.471   1.579   3.462
 7843SOL     OW24427   5.750   3.947   1.097
 7843SOL    HW124428   5.826   4.009   1.079
 7843SOL    HW224429   5.745   3.927   1.195
 7844SOL     OW24430   4.274   1.180   3.350
 7844SOL    HW124431   4.200   1.114   3.365
 7844SOL    HW224432   4.362   1.133   3.359
 7845SOL     OW24433   0.677   0.796   4.107
 7845SOL    HW124434   0.669   0.844   4.194
 7845SOL    HW224435   0.725   0.854   4.041
 7846SOL     OW24436   2.097   1.252   1.528
 7846SOL    HW124437   2.162   1.293   1.464
 7846SOL    HW224438   2.004   1.265   1.494
 7847SOL     OW24439   0.382   1.026   0.899
 7847SOL    HW124440   0.462   1.041   0.957
 7847SOL    HW224441   0.392   1.079   0.815
 7848SOL     OW24442   4.043   3.922   1.450
 7848SOL    HW124443   4.078   3.846   1.395
 7848SOL    HW224444   3.980   3.977   1.395
 7849SOL     OW24445   4.901   3.488   3.980
 7849SOL    HW124446   4.903   3.433   3.896
 7849SOL    HW224447   4.883   3.428   4.058
 7850SOL     OW24448   0.033   1.102   4.454
 7850SOL    HW124449   0.112   1.108   4.515
 7850SOL    HW224450   6.988   1.163   4.487
 7851SOL     OW24451   6.245   6.635   0.061
 7851SOL    HW124452   6.327   6.607   0.110
 7851SOL    HW224453   6.268   6.653   6.992
 7852SOL     OW24454   2.700   6.420   0.185
 7852SOL    HW124455   2.671   6.325   0.181
 7852SOL    HW224456   2.800   6.424   0.185
 7853SOL     OW24457   2.869   1.416   0.297
 7853SOL    HW124458   2.806   1.382   0.366
 7853SOL    HW224459   2.828   1.407   0.207
 7854SOL     OW24460   3.698   3.372   1.847
 7854SOL    HW124461   3.680   3.364   1.945
 7854SOL    HW224462   3.726   3.466   1.826
 7855SOL     OW24463   4.332   5.443   6.356
 7855SOL    HW124464   4.353   5.532   6.316
 7855SOL    HW224465   4.384   5.372   6.309
 7856SOL     OW24466   6.294   3.973   4.722
 7856SOL    HW124467   6.351   3.892   4.710
 7856SOL    HW224468   6.205   3.958   4.679
 7857SOL     OW24469   6.041   2.444   6.073
 7857SOL    HW124470   6.098   2.470   5.996
 7857SOL    HW224471   5.955   2.496   6.070
 7858SOL     OW24472   5.881   4.169   3.856
 7858SOL    HW124473   5.817   4.101   3.893
 7858SOL    HW224474   5.852   4.195   3.764
 7859SOL     OW24475   1.176   4.128   6.459
 7859SOL    HW124476   1.267   4.088   6.443
 7859SOL    HW224477   1.187   4.219   6.497
 7860SOL     OW24478   4.037   6.428   2.140
 7860SOL    HW124479   4.101   6.412   2.065
 7860SOL    HW224480   3.947   6.392   2.116
 7861SOL     OW24481   4.567   5.364   1.550
 7861SOL    HW124482   4.498   5.413   1.497
 7861SOL    HW224483   4.586   5.276   1.506
 7862SOL     OW24484   3.052   4.278   1.760
 7862SOL    HW124485   3.023   4.364   1.802
 7862SOL    HW224486   2.996   4.259   1.679
 7863SOL     OW24487   6.405   6.193   3.556
 7863SOL    HW124488   6.346   6.274   3.551
 7863SOL    HW224489   6.372   6.124   3.492
 7864SOL     OW24490   0.251   6.147   5.412
 7864SOL    HW124491   0.177   6.114   5.352
 7864SOL    HW224492   0.253   6.092   5.495
 7865SOL     OW24493   3.914   6.542   3.698
 7865SOL    HW124494   3.936   6.565   3.793
 7865SOL    HW224495   3.836   6.480   3.696
 7866SOL     OW24496   2.678   1.384   2.855
 7866SOL    HW124497   2.623   1.463   2.830
 7866SOL    HW224498   2.704   1.333   2.773
 7867SOL     OW24499   6.011   5.910   3.090
 7867SOL    HW124500   5.943   5.959   3.036
 7867SOL    HW224501   6.043   5.830   3.039
 7868SOL     OW24502   5.259   6.241   1.658
 7868SOL    HW124503   5.187   6.310   1.646
 7868SOL    HW224504   5.345   6.278   1.624
 7869SOL     OW24505   6.568   3.636   0.963
 7869SOL    HW124506   6.616   3.567   1.016
 7869SOL    HW224507   6.470   3.632   0.984
 7870SOL     OW24508   6.221   5.236   3.455
 7870SOL    HW124509   6.188   5.274   3.541
 7870SOL    HW224510   6.271   5.307   3.405
 7871SOL     OW24511   5.579   2.991   3.379
 7871SOL    HW124512   5.571   3.090   3.365
 7871SOL    HW224513   5.596   2.946   3.291
 7872SOL     OW24514   1.124   4.005   2.827
 7872SOL    HW124515   1.056   3.988   2.756
 7872SOL    HW224516   1.200   4.058   2.789
 7873SOL     OW24517   6.813   0.377   6.390
 7873SOL    HW124518   6.794   0.430   6.472
 7873SOL    HW224519   6.772   0.423   6.311
 7874SOL     OW24520   6.662   1.451   0.306
 7874SOL    HW124521   6.653   1.493   0.396
 7874SOL    HW224522   6.728   1.503   0.252
 7875SOL     OW24523   5.109   4.410   0.289
 7875SOL    HW124524   5.035   4.367   0.340
 7875SOL    HW224525   5.131   4.498   0.330
 7876SOL     OW24526   6.684   0.384   4.731
 7876SOL    HW124527   6.745   0.394   4.810
 7876SOL    HW224528   6.737   0.382   4.647
 7877SOL     OW24529   0.019   2.157   3.320
 7877SOL    HW124530   6.973   2.095   3.350
 7877SOL    HW224531   0.107   2.119   3.348
 7878SOL     OW24532   4.536   4.739   3.028
 7878SOL    HW124533   4.566   4.819   2.977
 7878SOL    HW224534   4.603   4.717   3.099
 7879SOL     OW24535   4.854   5.982   3.327
 7879SOL    HW124536   4.794   5.954   3.252
 7879SOL    HW224537   4.927   5.915   3.338
 7880SOL     OW24538   0.424   6.434   6.935
 7880SOL    HW124539   0.405   6.341   6.967
 7880SOL    HW224540   0.522   6.443   6.917
 7881SOL     OW24541   6.892   4.253   4.217
 7881SOL    HW124542   6.975   4.212   4.255
 7881SOL    HW224543   6.840   4.182   4.169
 7882SOL     OW24544   0.976   2.617   2.390
 7882SOL    HW124545   0.908   2.547   2.368
 7882SOL    HW224546   1.012   2.601   2.481
 7883SOL     OW24547   2.561   1.147   2.482
 7883SOL    HW124548   2.559   1.095   2.397
 7883SOL    HW224549   2.511   1.096   2.553
 7884SOL     OW24550   1.563   4.452   3.959
 7884SOL    HW124551   1.492   4.473   4.026
 7884SOL    HW224552   1.641   4.513   3.972
 7885SOL     OW24553   6.132   5.456   2.485
 7885SOL    HW124554   6.205   5.502   2.535
 7885SOL    HW224555   6.163   5.366   2.455
 7886SOL     OW24556   5.273   3.605   1.619
 7886SOL    HW124557   5.329   3.630   1.539
 7886SOL    HW224558   5.265   3.506   1.624
 7887SOL     OW24559   3.358   3.167   6.106
 7887SOL    HW124560   3.447   3.150   6.150
 7887SOL    HW224561   3.351   3.112   6.023
 7888SOL     OW24562   6.410   1.512   4.125
 7888SOL    HW124563   6.314   1.519   4.153
 7888SOL    HW224564   6.459   1.451   4.188
 7889SOL     OW24565   6.607   5.638   0.578
 7889SOL    HW124566   6.525   5.585   0.601
 7889SOL    HW224567   6.688   5.592   0.614
 7890SOL     OW24568   1.527   2.674   4.332
 7890SOL    HW124569   1.456   2.634   4.389
 7890SOL    HW224570   1.556   2.761   4.371
 7891SOL     OW24571   0.880   2.647   4.118
 7891SOL    HW124572   0.849   2.700   4.039
 7891SOL    HW224573   0.958   2.692   4.161
 7892SOL     OW24574   1.795   2.388   4.730
 7892SOL    HW124575   1.817   2.351   4.821
 7892SOL    HW224576   1.855   2.466   4.710
 7893SOL     OW24577   6.483   6.924   1.971
 7893SOL    HW124578   6.408   6.902   1.908
 7893SOL    HW224579   6.570   6.923   1.921
 7894SOL     OW24580   2.629   1.805   6.433
 7894SOL    HW124581   2.642   1.759   6.345
 7894SOL    HW224582   2.661   1.899   6.426
 7895SOL     OW24583   3.904   6.041   3.950
 7895SOL    HW124584   3.912   5.970   4.021
 7895SOL    HW224585   3.994   6.059   3.911
 7896SOL     OW24586   4.279   3.143   1.521
 7896SOL    HW124587   4.211   3.168   1.590
 7896SOL    HW224588   4.329   3.062   1.552
 7897SOL     OW24589   3.482   4.507   6.555
 7897SOL    HW124590   3.464   4.501   6.653
 7897SOL    HW224591   3.552   4.576   6.538
 7898SOL     OW24592   5.265   0.251   4.106
 7898SOL    HW124593   5.276   0.341   4.148
 7898SOL    HW224594   5.324   0.244   4.026
 7899SOL     OW24595   5.328   5.571   1.667
 7899SOL    HW124596   5.403   5.510   1.694
 7899SOL    HW224597   5.268   5.586   1.745
 7900SOL     OW24598   0.420   4.270   0.670
 7900SOL    HW124599   0.430   4.360   0.628
 7900SOL    HW224600   0.501   4.214   0.650
 7901SOL     OW24601   5.003   0.986   6.143
 7901SOL    HW124602   4.921   1.021   6.186
 7901SOL    HW224603   5.075   0.976   6.212
 7902SOL     OW24604   0.158   6.407   2.868
 7902SOL    HW124605   0.160   6.368   2.960
 7902SOL    HW224606   0.079   6.468   2.859
 7903SOL     OW24607   3.229   1.734   3.946
 7903SOL    HW124608   3.129   1.745   3.942
 7903SOL    HW224609   3.273   1.810   3.899
 7904SOL     OW24610   6.103   0.992   2.531
 7904SOL    HW124611   6.162   0.913   2.547
 7904SOL    HW224612   6.030   0.995   2.599
 7905SOL     OW24613   5.519   1.222   0.250
 7905SOL    HW124614   5.546   1.150   0.315
 7905SOL    HW224615   5.499   1.306   0.300
 7906SOL     OW24616   1.700   5.148   1.720
 7906SOL    HW124617   1.635   5.073   1.737
 7906SOL    HW224618   1.731   5.142   1.625
 7907SOL     OW24619   5.595   0.874   2.731
 7907SOL    HW124620   5.624   0.920   2.647
 7907SOL    HW224621   5.663   0.806   2.757
 7908SOL     OW24622   0.417   1.747   6.862
 7908SOL    HW124623   0.334   1.707   6.901
 7908SOL    HW224624   0.445   1.825   6.918
 7909SOL     OW24625   5.022   4.830   2.910
 7909SOL    HW124626   5.122   4.835   2.912
 7909SOL    HW224627   4.991   4.816   2.816
 7910SOL     OW24628   1.640   3.319   0.601
 7910SOL    HW124629   1.727   3.302   0.555
 7910SOL    HW224630   1.613   3.239   0.655
 7911SOL     OW24631   1.159   3.968   1.376
 7911SOL    HW124632   1.251   3.989   1.411
 7911SOL    HW224633   1.102   3.934   1.451
 7912SOL     OW24634   5.669   5.553   0.268
 7912SOL    HW124635   5.717   5.467   0.283
 7912SOL    HW224636   5.734   5.621   0.233
 7913SOL     OW24637   1.268   4.051   0.722
 7913SOL    HW124638   1.255   3.973   0.660
 7913SOL    HW224639   1.347   4.105   0.691
 7914SOL     OW24640   6.827   5.048   6.210
 7914SOL    HW124641   6.838   5.141   6.243
 7914SOL    HW224642   6.916   5.012   6.183
 7915SOL     OW24643   4.035   0.868   2.881
 7915SOL    HW124644   4.019   0.830   2.972
 7915SOL    HW224645   4.004   0.802   2.812
 7916SOL     OW24646   0.684   0.063   4.579
 7916SOL    HW124647   0.605   0.125   4.574
 7916SOL    HW224648   0.758   0.107   4.631
 7917SOL     OW24649   4.075   2.587   6.492
 7917SOL    HW124650   3.994   2.577   6.549
 7917SOL    HW224651   4.084   2.507   6.432
 7918SOL     OW24652   1.450   1.429   5.110
 7918SOL    HW124653   1.371   1.368   5.122
 7918SOL    HW224654   1.510   1.423   5.190
 7919SOL     OW24655   1.304   4.809   3.495
 7919SOL    HW124656   1.390   4.763   3.469
 7919SOL    HW224657   1.227   4.754   3.464
 7920SOL     OW24658   4.954   0.524   1.646
 7920SOL    HW124659   4.934   0.504   1.550
 7920SOL    HW224660   4.918   0.452   1.704
 7921SOL     OW24661   5.025   2.116   1.509
 7921SOL    HW124662   5.089   2.178   1.555
 7921SOL    HW224663   4.998   2.156   1.421
 7922SOL     OW24664   0.900   6.395   6.600
 7922SOL    HW124665   0.903   6.476   6.541
 7922SOL    HW224666   0.805   6.367   6.614
 7923SOL     OW24667   3.218   2.107   6.046
 7923SOL    HW124668   3.315   2.107   6.019
 7923SOL    HW224669   3.212   2.111   6.145
 7924SOL     OW24670   5.815   6.834   1.193
 7924SOL    HW124671   5.815   6.766   1.266
 7924SOL    HW224672   5.798   6.789   1.105
 7925SOL     OW24673   2.532   6.528   0.580
 7925SOL    HW124674   2.472   6.514   0.502
 7925SOL    HW224675   2.580   6.442   0.601
 7926SOL     OW24676   5.450   1.069   6.438
 7926SOL    HW124677   5.481   1.117   6.356
 7926SOL    HW224678   5.435   1.134   6.512
 7927SOL     OW24679   5.378   6.781   2.305
 7927SOL    HW124680   5.448   6.848   2.281
 7927SOL    HW224681   5.356   6.789   2.402
 7928SOL     OW24682   0.411   0.931   3.208
 7928SOL    HW124683   0.443   0.895   3.120
 7928SOL    HW224684   0.428   0.864   3.280
 7929SOL     OW24685   4.672   4.032   6.788
 7929SOL    HW124686   4.609   3.954   6.780
 7929SOL    HW224687   4.759   4.000   6.825
 7930SOL     OW24688   3.520   5.464   6.340
 7930SOL    HW124689   3.587   5.528   6.376
 7930SOL    HW224690   3.567   5.395   6.284
 7931SOL     OW24691   3.061   2.444   0.383
 7931SOL    HW124692   2.965   2.471   0.371
 7931SOL    HW224693   3.098   2.489   0.464
 7932SOL     OW24694   6.639   5.548   0.862
 7932SOL    HW124695   6.549   5.592   0.870
 7932SOL    HW224696   6.655   5.493   0.944
 7933SOL     OW24697   6.358   0.646   5.724
 7933SOL    HW124698   6.362   0.684   5.631
 7933SOL    HW224699   6.294   0.701   5.779
 7934SOL     OW24700   1.711   4.839   0.890
 7934SOL    HW124701   1.714   4.741   0.875
 7934SOL    HW224702   1.791   4.882   0.847
 7935SOL     OW24703   5.652   4.036   2.031
 7935SOL    HW124704   5.568   4.066   2.076
 7935SOL    HW224705   5.722   4.108   2.038
 7936SOL     OW24706   2.786   6.158   3.819
 7936SOL    HW124707   2.751   6.064   3.818
 7936SOL    HW224708   2.811   6.183   3.913
 7937SOL     OW24709   1.360   6.109   4.798
 7937SOL    HW124710   1.376   6.133   4.894
 7937SOL    HW224711   1.420   6.164   4.740
 7938SOL     OW24712   5.301   0.505   5.050
 7938SOL    HW124713   5.264   0.456   5.128
 7938SOL    HW224714   5.399   0.486   5.042
 7939SOL     OW24715   0.533   1.939   5.334
 7939SOL    HW124716   0.558   2.034   5.313
 7939SOL    HW224717   0.490   1.936   5.424
 7940SOL     OW24718   4.276   1.927   2.449
 7940SOL    HW124719   4.348   1.947   2.516
 7940SOL    HW224720   4.187   1.946   2.489
 7941SOL     OW24721   4.258   6.393   3.157
 7941SOL    HW124722   4.241   6.489   3.180
 7941SOL    HW224723   4.303   6.348   3.234
 7942SOL     OW24724   1.223   2.854   1.999
 7942SOL    HW124725   1.164   2.787   2.043
 7942SOL    HW224726   1.318   2.823   2.002
 7943SOL     OW24727   2.059   4.638   5.658
 7943SOL    HW124728   1.984   4.663   5.719
 7943SOL    HW224729   2.112   4.563   5.698
 7944SOL     OW24730   0.767   2.311   1.697
 7944SOL    HW124731   0.792   2.406   1.678
 7944SOL    HW224732   0.667   2.304   1.705
 7945SOL     OW24733   6.279   5.140   2.854
 7945SOL    HW124734   6.193   5.122   2.805
 7945SOL    HW224735   6.318   5.226   2.823
 7946SOL     OW24736   3.820   0.129   5.672
 7946SOL    HW124737   3.810   0.194   5.748
 7946SOL    HW224738   3.863   0.175   5.595
 7947SOL     OW24739   2.032   2.348   5.363
 7947SOL    HW124740   2.117   2.296   5.371
 7947SOL    HW224741   2.051   2.446   5.375
 7948SOL     OW24742   1.492   4.661   2.022
 7948SOL    HW124743   1.433   4.708   2.088
 7948SOL    HW224744   1.571   4.622   2.070
 7949SOL     OW24745   4.443   4.650   5.638
 7949SOL    HW124746   4.522   4.705   5.663
 7949SOL    HW224747   4.361   4.685   5.685
 7950SOL     OW24748   5.794   5.748   5.395
 7950SOL    HW124749   5.774   5.719   5.301
 7950SOL    HW224750   5.869   5.814   5.394
 7951SOL     OW24751   2.647   5.367   2.581
 7951SOL    HW124752   2.625   5.353   2.485
 7951SOL    HW224753   2.743   5.344   2.597
 7952SOL     OW24754   6.082   3.642   0.020
 7952SOL    HW124755   6.130   3.560   7.018
 7952SOL    HW224756   6.053   3.695   6.967
 7953SOL     OW24757   4.145   1.402   0.942
 7953SOL    HW124758   4.162   1.492   0.902
 7953SOL    HW224759   4.119   1.414   1.038
 7954SOL     OW24760   3.664   3.916   6.303
 7954SOL    HW124761   3.705   4.006   6.288
 7954SOL    HW224762   3.704   3.875   6.385
 7955SOL     OW24763   2.217   1.726   5.949
 7955SOL    HW124764   2.180   1.801   5.893
 7955SOL    HW224765   2.143   1.683   6.000
 7956SOL     OW24766   5.843   1.715   1.907
 7956SOL    HW124767   5.941   1.700   1.900
 7956SOL    HW224768   5.798   1.680   1.825
 7957SOL     OW24769   4.142   0.310   5.733
 7957SOL    HW124770   4.078   0.337   5.805
 7957SOL    HW224771   4.114   0.352   5.646
 7958SOL     OW24772   5.529   3.798   6.582
 7958SOL    HW124773   5.500   3.706   6.610
 7958SOL    HW224774   5.568   3.795   6.490
 7959SOL     OW24775   4.901   0.501   6.421
 7959SOL    HW124776   4.918   0.599   6.422
 7959SOL    HW224777   4.987   0.451   6.419
 7960SOL     OW24778   0.040   0.853   6.592
 7960SOL    HW124779   0.003   0.921   6.528
 7960SOL    HW224780   0.111   0.896   6.648
 7961SOL     OW24781   6.666   6.643   0.508
 7961SOL    HW124782   6.752   6.640   0.557
 7961SOL    HW224783   6.650   6.736   0.474
 7962SOL     OW24784   6.789   0.840   6.526
 7962SOL    HW124785   6.871   0.805   6.572
 7962SOL    HW224786   6.743   0.905   6.586
 7963SOL     OW24787   6.315   4.309   4.110
 7963SOL    HW124788   6.351   4.401   4.124
 7963SOL    HW224789   6.251   4.309   4.033
 7964SOL     OW24790   0.010   2.948   1.544
 7964SOL    HW124791   6.990   3.035   1.525
 7964SOL    HW224792   0.021   2.937   1.643
 7965SOL     OW24793   4.949   2.485   0.213
 7965SOL    HW124794   4.885   2.409   0.226
 7965SOL    HW224795   5.034   2.451   0.174
 7966SOL     OW24796   4.068   3.874   6.050
 7966SOL    HW124797   4.035   3.865   5.956
 7966SOL    HW224798   4.084   3.970   6.071
 7967SOL     OW24799   1.536   5.254   2.539
 7967SOL    HW124800   1.623   5.222   2.578
 7967SOL    HW224801   1.554   5.321   2.467
 7968SOL     OW24802   6.612   1.630   4.943
 7968SOL    HW124803   6.644   1.639   4.849
 7968SOL    HW224804   6.514   1.613   4.944
 7969SOL     OW24805   4.967   5.641   0.192
 7969SOL    HW124806   4.949   5.624   0.289
 7969SOL    HW224807   5.064   5.664   0.180
 7970SOL     OW24808   5.964   2.694   2.599
 7970SOL    HW124809   5.928   2.713   2.508
 7970SOL    HW224810   5.972   2.595   2.611
 7971SOL     OW24811   3.319   1.999   1.453
 7971SOL    HW124812   3.329   2.067   1.380
 7971SOL    HW224813   3.264   1.922   1.420
 7972SOL     OW24814   3.621   3.102   1.777
 7972SOL    HW124815   3.615   3.077   1.680
 7972SOL    HW224816   3.658   3.195   1.785
 7973SOL     OW24817   5.980   3.899   3.800
 7973SOL    HW124818   6.040   3.848   3.862
 7973SOL    HW224819   5.971   3.993   3.832
 7974SOL     OW24820   6.341   1.190   4.621
 7974SOL    HW124821   6.427   1.144   4.601
 7974SOL    HW224822   6.267   1.146   4.569
 7975SOL     OW24823   4.271   0.782   0.423
 7975SOL    HW124824   4.367   0.800   0.402
 7975SOL    HW224825   4.257   0.684   0.433
 7976SOL     OW24826   1.015   0.173   5.904
 7976SOL    HW124827   0.988   0.099   5.841
 7976SOL    HW224828   1.040   0.133   5.992
 7977SOL     OW24829   5.900   6.248   2.672
 7977SOL    HW124830   5.806   6.276   2.656
 7977SOL    HW224831   5.911   6.151   2.647
 7978SOL     OW24832   0.415   3.964   0.730
 7978SOL    HW124833   0.484   4.008   0.672
 7978SOL    HW224834   0.388   3.877   0.689
 7979SOL     OW24835   1.735   3.907   5.193
 7979SOL    HW124836   1.738   4.005   5.171
 7979SOL    HW224837   1.778   3.892   5.282
 7980SOL     OW24838   3.319   4.794   5.896
 7980SOL    HW124839   3.392   4.728   5.916
 7980SOL    HW224840   3.345   4.883   5.932
 7981SOL     OW24841   1.442   5.074   2.731
 7981SOL    HW124842   1.456   5.144   2.661
 7981SOL    HW224843   1.530   5.035   2.757
 7982SOL     OW24844   1.074   1.066   6.127
 7982SOL    HW124845   1.031   1.029   6.045
 7982SOL    HW224846   1.048   1.162   6.138
 7983SOL     OW24847   5.573   1.369   1.377
 7983SOL    HW124848   5.481   1.408   1.380
 7983SOL    HW224849   5.596   1.332   1.467
 7984SOL     OW24850   0.469   1.920   1.106
 7984SOL    HW124851   0.411   1.998   1.085
 7984SOL    HW224852   0.412   1.838   1.113
 7985SOL     OW24853   2.511   2.197   5.150
 7985SOL    HW124854   2.556   2.144   5.078
 7985SOL    HW224855   2.529   2.294   5.136
 7986SOL     OW24856   4.137   1.738   5.043
 7986SOL    HW124857   4.038   1.744   5.048
 7986SOL    HW224858   4.178   1.790   5.118
 7987SOL     OW24859   1.690   4.129   0.789
 7987SOL    HW124860   1.737   4.041   0.797
 7987SOL    HW224861   1.754   4.203   0.808
 7988SOL     OW24862   0.338   0.849   1.741
 7988SOL    HW124863   0.387   0.929   1.708
 7988SOL    HW224864   0.362   0.832   1.837
 7989SOL     OW24865   1.737   4.214   0.042
 7989SOL    HW124866   1.666   4.161   0.087
 7989SOL    HW224867   1.787   4.156   7.005
 7990SOL     OW24868   2.606   6.308   4.236
 7990SOL    HW124869   2.633   6.367   4.313
 7990SOL    HW224870   2.509   6.285   4.244
 7991SOL     OW24871   5.362   2.012   4.590
 7991SOL    HW124872   5.292   1.941   4.592
 7991SOL    HW224873   5.372   2.047   4.496
 7992SOL     OW24874   2.476   0.567   0.629
 7992SOL    HW124875   2.412   0.596   0.559
 7992SOL    HW224876   2.561   0.535   0.586
 7993SOL     OW24877   0.266   7.010   2.248
 7993SOL    HW124878   0.241   6.924   2.291
 7993SOL    HW224879   0.354   6.999   2.201
 7994SOL     OW24880   5.174   0.554   3.139
 7994SOL    HW124881   5.176   0.644   3.095
 7994SOL    HW224882   5.082   0.517   3.134
 7995SOL     OW24883   5.763   4.754   2.658
 7995SOL    HW124884   5.664   4.750   2.651
 7995SOL    HW224885   5.797   4.671   2.702
 7996SOL     OW24886   4.343   0.244   4.109
 7996SOL    HW124887   4.301   0.336   4.108
 7996SOL    HW224888   4.287   0.183   4.165
 7997SOL     OW24889   0.510   1.905   0.060
 7997SOL    HW124890   0.580   1.901   0.130
 7997SOL    HW224891   0.426   1.944   0.098
 7998SOL     OW24892   3.197   0.078   0.061
 7998SOL    HW124893   3.123   0.014   0.083
 7998SOL    HW224894   3.256   0.089   0.141
 7999SOL     OW24895   1.123   1.518   6.248
 7999SOL    HW124896   1.122   1.495   6.151
 7999SOL    HW224897   1.139   1.616   6.258
 8000SOL     OW24898   6.340   6.951   6.274
 8000SOL    HW124899   6.291   6.893   6.339
 8000SOL    HW224900   6.290   0.010   6.263
 8001SOL     OW24901   4.495   6.856   1.044
 8001SOL    HW124902   4.431   6.930   1.021
 8001SOL    HW224903   4.588   6.886   1.024
 8002SOL     OW24904   0.581   1.296   5.307
 8002SOL    HW124905   0.599   1.352   5.225
 8002SOL    HW224906   0.498   1.329   5.352
 8003SOL     OW24907   1.865   6.654   2.121
 8003SOL    HW124908   1.852   6.721   2.194
 8003SOL    HW224909   1.957   6.616   2.127
 8004SOL     OW24910   2.256   3.012   3.718
 8004SOL    HW124911   2.319   2.970   3.783
 8004SOL    HW224912   2.253   2.956   3.634
 8005SOL     OW24913   3.038   0.145   3.881
 8005SOL    HW124914   2.972   0.200   3.933
 8005SOL    HW224915   3.129   0.186   3.889
 8006SOL     OW24916   3.397   5.979   5.027
 8006SOL    HW124917   3.369   5.986   5.122
 8006SOL    HW224918   3.317   5.959   4.970
 8007SOL     OW24919   5.521   1.979   6.358
 8007SOL    HW124920   5.488   1.914   6.290
 8007SOL    HW224921   5.562   1.930   6.434
 8008SOL     OW24922   3.262   6.689   0.260
 8008SOL    HW124923   3.254   6.632   0.342
 8008SOL    HW224924   3.321   6.642   0.194
 8009SOL     OW24925   5.073   1.139   0.849
 8009SOL    HW124926   5.121   1.115   0.934
 8009SOL    HW224927   5.025   1.226   0.862
 8010SOL     OW24928   2.962   2.728   5.402
 8010SOL    HW124929   2.959   2.666   5.480
 8010SOL    HW224930   3.022   2.805   5.422
 8011SOL     OW24931   3.747   2.007   1.838
 8011SOL    HW124932   3.752   2.073   1.912
 8011SOL    HW224933   3.726   2.054   1.752
 8012SOL     OW24934   0.741   2.597   5.970
 8012SOL    HW124935   0.790   2.542   5.901
 8012SOL    HW224936   0.806   2.657   6.016
 8013SOL     OW24937   0.946   2.700   3.534
 8013SOL    HW124938   0.921   2.680   3.628
 8013SOL    HW224939   0.999   2.623   3.497
 8014SOL     OW24940   1.768   6.902   3.653
 8014SOL    HW124941   1.729   6.884   3.562
 8014SOL    HW224942   1.702   6.952   3.709
 8015SOL     OW24943   1.982   0.318   5.748
 8015SOL    HW124944   2.081   0.326   5.745
 8015SOL    HW224945   1.956   0.235   5.797
 8016SOL     OW24946   4.035   1.726   4.731
 8016SOL    HW124947   4.065   1.633   4.753
 8016SOL    HW224948   4.083   1.792   4.790
 8017SOL     OW24949   6.684   0.031   0.016
 8017SOL    HW124950   6.720   6.971   0.050
 8017SOL    HW224951   6.672   0.094   0.092
 8018SOL     OW24952   3.941   2.357   6.737
 8018SOL    HW124953   3.926   2.455   6.729
 8018SOL    HW224954   3.980   2.336   6.827
 8019SOL     OW24955   2.585   4.060   0.773
 8019SOL    HW124956   2.679   4.032   0.795
 8019SOL    HW224957   2.524   4.033   0.847
 8020SOL     OW24958   6.054   6.991   6.090
 8020SOL    HW124959   6.144   6.982   6.047
 8020SOL    HW224960   6.025   0.060   6.088
 8021SOL     OW24961   2.360   2.617   1.399
 8021SOL    HW124962   2.360   2.715   1.414
 8021SOL    HW224963   2.272   2.578   1.429
 8022SOL     OW24964   6.133   0.372   1.418
 8022SOL    HW124965   6.172   0.286   1.386
 8022SOL    HW224966   6.051   0.354   1.472
 8023SOL     OW24967   5.770   5.607   2.762
 8023SOL    HW124968   5.854   5.554   2.758
 8023SOL    HW224969   5.696   5.556   2.719
 8024SOL     OW24970   1.599   5.852   6.284
 8024SOL    HW124971   1.647   5.842   6.197
 8024SOL    HW224972   1.641   5.792   6.352
 8025SOL     OW24973   1.711   4.822   1.428
 8025SOL    HW124974   1.671   4.912   1.411
 8025SOL    HW224975   1.637   4.755   1.440
 8026SOL     OW24976   0.103   4.630   0.876
 8026SOL    HW124977   0.054   4.562   0.931
 8026SOL    HW224978   0.177   4.670   0.930
 8027SOL     OW24979   3.527   6.627   5.001
 8027SOL    HW124980   3.436   6.633   5.041
 8027SOL    HW224981   3.528   6.556   4.931
 8028SOL     OW24982   2.087   6.113   4.276
 8028SOL    HW124983   2.101   6.088   4.372
 8028SOL    HW224984   2.173   6.146   4.238
 8029SOL     OW24985   4.796   2.197   1.745
 8029SOL    HW124986   4.850   2.147   1.678
 8029SOL    HW224987   4.793   2.294   1.721
 8030SOL     OW24988   6.357   5.477   0.630
 8030SOL    HW124989   6.361   5.451   0.727
 8030SOL    HW224990   6.320   5.402   0.576
 8031SOL     OW24991   5.976   6.976   3.078
 8031SOL    HW124992   6.054   6.922   3.109
 8031SOL    HW224993   6.003   0.045   3.073
 8032SOL     OW24994   5.135   3.878   1.667
 8032SOL    HW124995   5.107   3.908   1.576
 8032SOL    HW224996   5.171   3.785   1.662
 8033SOL     OW24997   4.446   3.616   0.445
 8033SOL    HW124998   4.511   3.681   0.407
 8033SOL    HW224999   4.495   3.547   0.499
 8034SOL     OW25000   5.710   0.383   5.344
 8034SOL    HW125001   5.760   0.325   5.279
 8034SOL    HW225002   5.774   0.448   5.386
 8035SOL     OW25003   4.564   1.012   2.375
 8035SOL    HW125004   4.566   0.978   2.469
 8035SOL    HW225005   4.470   1.009   2.341
 8036SOL     OW25006   6.750   2.918   3.521
 8036SOL    HW125007   6.710   2.991   3.577
 8036SOL    HW225008   6.678   2.855   3.491
 8037SOL     OW25009   1.280   3.075   0.180
 8037SOL    HW125010   1.204   3.025   0.220
 8037SOL    HW225011   1.355   3.012   0.160
 8038SOL     OW25012   5.782   6.270   1.902
 8038SOL    HW125013   5.735   6.355   1.877
 8038SOL    HW225014   5.825   6.281   1.992
 8039SOL     OW25015   0.391   2.460   5.063
 8039SOL    HW125016   0.300   2.494   5.087
 8039SOL    HW225017   0.449   2.459   5.144
 8040SOL     OW25018   1.945   6.079   6.149
 8040SOL    HW125019   1.852   6.047   6.131
 8040SOL    HW225020   1.949   6.178   6.140
 8041SOL     OW25021   3.442   1.479   2.832
 8041SOL    HW125022   3.356   1.456   2.877
 8041SOL    HW225023   3.424   1.538   2.753
 8042SOL     OW25024   4.139   4.373   5.722
 8042SOL    HW125025   4.200   4.410   5.792
 8042SOL    HW225026   4.067   4.320   5.765
 8043SOL     OW25027   4.106   5.401   0.947
 8043SOL    HW125028   4.083   5.379   1.041
 8043SOL    HW225029   4.133   5.317   0.899
 8044SOL     OW25030   4.346   3.526   1.213
 8044SOL    HW125031   4.314   3.514   1.119
 8044SOL    HW225032   4.305   3.456   1.271
 8045SOL     OW25033   6.964   1.634   2.841
 8045SOL    HW125034   6.991   1.643   2.745
 8045SOL    HW225035   6.947   1.538   2.862
 8046SOL     OW25036   0.225   5.045   1.883
 8046SOL    HW125037   0.137   5.086   1.904
 8046SOL    HW225038   0.215   4.945   1.878
 8047SOL     OW25039   3.709   6.665   6.464
 8047SOL    HW125040   3.638   6.624   6.521
 8047SOL    HW225041   3.782   6.598   6.447
 8048SOL     OW25042   3.946   3.063   6.929
 8048SOL    HW125043   3.860   3.032   6.968
 8048SOL    HW225044   3.950   3.163   6.930
 8049SOL     OW25045   1.586   6.522   0.264
 8049SOL    HW125046   1.508   6.581   0.284
 8049SOL    HW225047   1.620   6.542   0.172
 8050SOL     OW25048   1.971   4.081   4.516
 8050SOL    HW125049   1.877   4.053   4.536
 8050SOL    HW225050   2.034   4.031   4.576
 8051SOL     OW25051   4.754   5.729   4.171
 8051SOL    HW125052   4.660   5.756   4.150
 8051SOL    HW225053   4.812   5.745   4.092
 8052SOL     OW25054   2.387   1.759   2.115
 8052SOL    HW125055   2.425   1.678   2.070
 8052SOL    HW225056   2.298   1.736   2.154
 8053SOL     OW25057   2.932   3.045   5.530
 8053SOL    HW125058   2.953   3.063   5.626
 8053SOL    HW225059   2.836   3.017   5.521
 8054SOL     OW25060   6.016   4.137   5.292
 8054SOL    HW125061   6.002   4.168   5.198
 8054SOL    HW225062   5.951   4.184   5.352
 8055SOL     OW25063   6.748   0.690   5.642
 8055SOL    HW125064   6.707   0.626   5.706
 8055SOL    HW225065   6.734   0.784   5.675
 8056SOL     OW25066   2.834   6.533   3.642
 8056SOL    HW125067   2.862   6.449   3.594
 8056SOL    HW225068   2.742   6.558   3.614
 8057SOL     OW25069   2.562   1.835   1.918
 8057SOL    HW125070   2.618   1.756   1.895
 8057SOL    HW225071   2.531   1.827   2.013
 8058SOL     OW25072   2.727   6.689   3.047
 8058SOL    HW125073   2.786   6.705   3.126
 8058SOL    HW225074   2.639   6.735   3.061
 8059SOL     OW25075   3.348   1.071   5.066
 8059SOL    HW125076   3.285   1.141   5.100
 8059SOL    HW225077   3.373   1.093   4.971
 8060SOL     OW25078   6.763   0.973   5.988
 8060SOL    HW125079   6.825   1.010   5.919
 8060SOL    HW225080   6.807   0.975   6.078
 8061SOL     OW25081   0.418   0.971   2.740
 8061SOL    HW125082   0.503   0.956   2.689
 8061SOL    HW225083   0.363   1.040   2.693
 8062SOL     OW25084   4.027   5.275   4.867
 8062SOL    HW125085   4.002   5.229   4.952
 8062SOL    HW225086   4.102   5.339   4.885
 8063SOL     OW25087   3.330   0.993   3.005
 8063SOL    HW125088   3.406   1.049   2.973
 8063SOL    HW225089   3.243   1.040   2.988
 8064SOL     OW25090   6.645   3.222   0.187
 8064SOL    HW125091   6.635   3.312   0.146
 8064SOL    HW225092   6.661   3.232   0.285
 8065SOL     OW25093   3.699   0.074   4.676
 8065SOL    HW125094   3.734   0.138   4.744
 8065SOL    HW225095   3.660   7.021   4.722
 8066SOL     OW25096   6.633   0.683   4.449
 8066SOL    HW125097   6.543   0.697   4.492
 8066SOL    HW225098   6.704   0.685   4.519
 8067SOL     OW25099   5.405   3.032   3.804
 8067SOL    HW125100   5.337   3.093   3.847
 8067SOL    HW225101   5.497   3.071   3.817
 8068SOL     OW25102   0.664   4.893   0.916
 8068SOL    HW125103   0.740   4.832   0.894
 8068SOL    HW225104   0.580   4.856   0.878
 8069SOL     OW25105   2.971   5.153   1.956
 8069SOL    HW125106   2.897   5.157   2.023
 8069SOL    HW225107   2.964   5.068   1.903
 8070SOL     OW25108   4.070   3.877   0.732
 8070SOL    HW125109   3.986   3.926   0.756
 8070SOL    HW225110   4.049   3.808   0.663
 8071SOL     OW25111   4.032   7.006   5.133
 8071SOL    HW125112   3.952   0.010   5.082
 8071SOL    HW225113   4.111   7.002   5.073
 8072SOL     OW25114   3.460   2.597   0.734
 8072SOL    HW125115   3.416   2.564   0.818
 8072SOL    HW225116   3.398   2.582   0.657
 8073SOL     OW25117   2.967   6.978   5.623
 8073SOL    HW125118   3.044   7.025   5.579
 8073SOL    HW225119   2.932   6.907   5.562
 8074SOL     OW25120   1.969   1.039   1.051
 8074SOL    HW125121   1.973   0.970   1.123
 8074SOL    HW225122   1.926   1.122   1.087
 8075SOL     OW25123   0.632   6.810   0.914
 8075SOL    HW125124   0.603   6.902   0.888
 8075SOL    HW225125   0.710   6.783   0.858
 8076SOL     OW25126   0.669   6.875   6.313
 8076SOL    HW125127   0.624   6.829   6.237
 8076SOL    HW225128   0.651   6.825   6.398
 8077SOL     OW25129   4.055   6.040   1.993
 8077SOL    HW125130   3.981   6.102   1.968
 8077SOL    HW225131   4.111   6.021   1.913
 8078SOL     OW25132   0.911   1.714   0.958
 8078SOL    HW125133   0.819   1.691   0.925
 8078SOL    HW225134   0.941   1.800   0.917
 8079SOL     OW25135   6.810   1.776   4.040
 8079SOL    HW125136   6.840   1.714   3.966
 8079SOL    HW225137   6.714   1.798   4.028
 8080SOL     OW25138   1.513   2.763   2.017
 8080SOL    HW125139   1.534   2.675   1.976
 8080SOL    HW225140   1.541   2.762   2.113
 8081SOL     OW25141   6.181   4.787   5.736
 8081SOL    HW125142   6.235   4.870   5.720
 8081SOL    HW225143   6.097   4.792   5.682
 8082SOL     OW25144   3.368   0.637   2.216
 8082SOL    HW125145   3.406   0.561   2.269
 8082SOL    HW225146   3.273   0.651   2.242
 8083SOL     OW25147   5.486   2.912   4.329
 8083SOL    HW125148   5.488   2.814   4.345
 8083SOL    HW225149   5.572   2.941   4.286
 8084SOL     OW25150   2.897   0.929   5.498
 8084SOL    HW125151   2.810   0.975   5.514
 8084SOL    HW225152   2.889   0.868   5.419
 8085SOL     OW25153   6.589   6.439   2.808
 8085SOL    HW125154   6.579   6.355   2.754
 8085SOL    HW225155   6.684   6.467   2.809
 8086SOL     OW25156   6.872   0.942   1.332
 8086SOL    HW125157   6.832   1.033   1.318
 8086SOL    HW225158   6.970   0.946   1.315
 8087SOL     OW25159   1.826   0.583   6.242
 8087SOL    HW125160   1.921   0.556   6.251
 8087SOL    HW225161   1.788   0.607   6.332
 8088SOL     OW25162   5.978   0.097   6.505
 8088SOL    HW125163   6.035   0.179   6.504
 8088SOL    HW225164   6.029   0.020   6.466
 8089SOL     OW25165   5.922   2.640   6.613
 8089SOL    HW125166   5.884   2.681   6.530
 8089SOL    HW225167   5.980   2.563   6.587
 8090SOL     OW25168   3.955   1.439   5.980
 8090SOL    HW125169   3.999   1.520   6.020
 8090SOL    HW225170   3.906   1.466   5.897
 8091SOL     OW25171   1.272   4.366   4.249
 8091SOL    HW125172   1.299   4.270   4.251
 8091SOL    HW225173   1.354   4.423   4.251
 8092SOL     OW25174   4.728   2.216   5.350
 8092SOL    HW125175   4.779   2.130   5.360
 8092SOL    HW225176   4.791   2.289   5.325
 8093SOL     OW25177   3.450   5.737   3.448
 8093SOL    HW125178   3.483   5.792   3.524
 8093SOL    HW225179   3.482   5.643   3.459
 8094SOL     OW25180   0.560   3.514   5.666
 8094SOL    HW125181   0.624   3.442   5.638
 8094SOL    HW225182   0.469   3.492   5.631
 8095SOL     OW25183   0.553   5.372   4.783
 8095SOL    HW125184   0.493   5.384   4.704
 8095SOL    HW225185   0.643   5.411   4.762
 8096SOL     OW25186   1.593   0.474   2.789
 8096SOL    HW125187   1.667   0.407   2.793
 8096SOL    HW225188   1.556   0.488   2.881
 8097SOL     OW25189   4.052   0.240   4.564
 8097SOL    HW125190   3.991   0.274   4.492
 8097SOL    HW225191   4.133   0.298   4.569
 8098SOL     OW25192   1.911   6.625   3.520
 8098SOL    HW125193   1.819   6.660   3.538
 8098SOL    HW225194   1.904   6.534   3.481
 8099SOL     OW25195   4.255   6.176   4.457
 8099SOL    HW125196   4.355   6.173   4.452
 8099SOL    HW225197   4.220   6.083   4.468
 8100SOL     OW25198   6.521   1.601   6.896
 8100SOL    HW125199   6.423   1.621   6.888
 8100SOL    HW225200   6.534   1.504   6.915
 8101SOL     OW25201   1.621   5.186   0.667
 8101SOL    HW125202   1.623   5.147   0.759
 8101SOL    HW225203   1.688   5.138   0.609
 8102SOL     OW25204   0.720   3.788   3.940
 8102SOL    HW125205   0.801   3.783   3.882
 8102SOL    HW225206   0.676   3.877   3.929
 8103SOL     OW25207   3.498   0.479   2.410
 8103SOL    HW125208   3.478   0.424   2.491
 8103SOL    HW225209   3.597   0.492   2.403
 8104SOL     OW25210   1.777   0.107   5.170
 8104SOL    HW125211   1.838   0.103   5.249
 8104SOL    HW225212   1.831   0.130   5.088
 8105SOL     OW25213   0.093   2.506   2.679
 8105SOL    HW125214   0.001   2.545   2.685
 8105SOL    HW225215   0.105   2.437   2.751
 8106SOL     OW25216   2.476   6.545   3.257
 8106SOL    HW125217   2.498   6.628   3.206
 8106SOL    HW225218   2.435   6.477   3.196
 8107SOL     OW25219   1.219   6.322   4.418
 8107SOL    HW125220   1.299   6.263   4.433
 8107SOL    HW225221   1.142   6.266   4.388
 8108SOL     OW25222   6.561   1.793   0.105
 8108SOL    HW125223   6.461   1.801   0.111
 8108SOL    HW225224   6.585   1.734   0.028
 8109SOL     OW25225   0.430   3.958   6.990
 8109SOL    HW125226   0.394   3.900   0.036
 8109SOL    HW225227   0.375   3.945   6.908
 8110SOL     OW25228   4.228   4.751   1.830
 8110SOL    HW125229   4.284   4.688   1.885
 8110SOL    HW225230   4.134   4.751   1.866
 8111SOL     OW25231   4.954   1.106   4.134
 8111SOL    HW125232   4.956   1.179   4.065
 8111SOL    HW225233   5.044   1.062   4.138
 8112SOL     OW25234   1.484   2.939   4.002
 8112SOL    HW125235   1.527   2.981   4.082
 8112SOL    HW225236   1.474   3.007   3.930
 8113SOL     OW25237   6.425   3.704   0.632
 8113SOL    HW125238   6.325   3.710   0.626
 8113SOL    HW225239   6.458   3.774   0.696
 8114SOL     OW25240   1.465   3.388   2.073
 8114SOL    HW125241   1.545   3.448   2.074
 8114SOL    HW225242   1.465   3.333   1.990
 8115SOL     OW25243   2.894   6.472   5.804
 8115SOL    HW125244   2.842   6.547   5.847
 8115SOL    HW225245   2.909   6.494   5.708
 8116SOL     OW25246   4.421   4.796   0.307
 8116SOL    HW125247   4.507   4.749   0.325
 8116SOL    HW225248   4.345   4.743   0.345
 8117SOL     OW25249   2.247   0.108   3.392
 8117SOL    HW125250   2.318   0.080   3.457
 8117SOL    HW225251   2.259   0.205   3.369
 8118SOL     OW25252   5.594   4.055   6.392
 8118SOL    HW125253   5.587   3.964   6.352
 8118SOL    HW225254   5.505   4.100   6.388
 8119SOL     OW25255   5.083   6.326   5.904
 8119SOL    HW125256   5.060   6.364   5.993
 8119SOL    HW225257   5.000   6.316   5.848
 8120SOL     OW25258   2.742   4.716   0.529
 8120SOL    HW125259   2.747   4.799   0.474
 8120SOL    HW225260   2.834   4.694   0.564
 8121SOL     OW25261   0.723   4.603   1.809
 8121SOL    HW125262   0.798   4.612   1.875
 8121SOL    HW225263   0.749   4.538   1.737
 8122SOL     OW25264   0.537   4.469   2.961
 8122SOL    HW125265   0.569   4.392   2.906
 8122SOL    HW225266   0.441   4.456   2.985
 8123SOL     OW25267   6.874   1.396   0.042
 8123SOL    HW125268   6.847   1.327   7.002
 8123SOL    HW225269   6.959   1.368   0.087
 8124SOL     OW25270   5.197   6.341   3.472
 8124SOL    HW125271   5.138   6.281   3.418
 8124SOL    HW225272   5.279   6.292   3.500
 8125SOL     OW25273   1.216   1.278   2.514
 8125SOL    HW125274   1.296   1.324   2.476
 8125SOL    HW225275   1.182   1.328   2.594
 8126SOL     OW25276   5.151   4.684   3.263
 8126SOL    HW125277   5.133   4.771   3.308
 8126SOL    HW225278   5.066   4.630   3.258
 8127SOL     OW25279   3.117   2.957   6.463
 8127SOL    HW125280   3.198   2.977   6.519
 8127SOL    HW225281   3.097   2.859   6.467
 8128SOL     OW25282   2.960   2.170   2.232
 8128SOL    HW125283   3.034   2.111   2.199
 8128SOL    HW225284   2.943   2.243   2.166
 8129SOL     OW25285   3.286   1.718   6.611
 8129SOL    HW125286   3.381   1.688   6.613
 8129SOL    HW225287   3.263   1.749   6.519
 8130SOL     OW25288   1.071   6.196   6.517
 8130SOL    HW125289   1.168   6.222   6.524
 8130SOL    HW225290   1.015   6.263   6.566
 8131SOL     OW25291   2.754   1.660   1.844
 8131SOL    HW125292   2.714   1.636   1.756
 8131SOL    HW225293   2.849   1.687   1.830
 8132SOL     OW25294   5.502   6.256   4.698
 8132SOL    HW125295   5.601   6.250   4.712
 8132SOL    HW225296   5.461   6.165   4.711
 8133SOL     OW25297   3.598   5.664   2.014
 8133SOL    HW125298   3.582   5.763   2.023
 8133SOL    HW225299   3.562   5.617   2.094
 8134SOL     OW25300   6.955   1.358   6.290
 8134SOL    HW125301   6.949   1.448   6.333
 8134SOL    HW225302   6.949   1.369   6.190
 8135SOL     OW25303   1.687   0.916   1.909
 8135SOL    HW125304   1.644   0.899   1.820
 8135SOL    HW225305   1.776   0.959   1.896
 8136SOL     OW25306   5.544   5.483   2.149
 8136SOL    HW125307   5.497   5.548   2.089
 8136SOL    HW225308   5.627   5.450   2.103
 8137SOL     OW25309   2.922   1.195   5.722
 8137SOL    HW125310   2.838   1.203   5.668
 8137SOL    HW225311   2.998   1.169   5.663
 8138SOL     OW25312   5.368   0.879   1.546
 8138SOL    HW125313   5.274   0.903   1.522
 8138SOL    HW225314   5.391   0.790   1.506
 8139SOL     OW25315   0.160   1.201   2.087
 8139SOL    HW125316   0.112   1.276   2.132
 8139SOL    HW225317   0.201   1.234   2.002
 8140SOL     OW25318   5.003   1.131   4.910
 8140SOL    HW125319   5.088   1.090   4.944
 8140SOL    HW225320   4.994   1.112   4.813
 8141SOL     OW25321   4.670   5.267   5.829
 8141SOL    HW125322   4.650   5.277   5.731
 8141SOL    HW225323   4.715   5.179   5.845
 8142SOL     OW25324   6.447   5.264   6.786
 8142SOL    HW125325   6.352   5.290   6.796
 8142SOL    HW225326   6.502   5.308   6.858
 8143SOL     OW25327   6.379   5.164   0.271
 8143SOL    HW125328   6.440   5.195   0.198
 8143SOL    HW225329   6.289   5.143   0.232
 8144SOL     OW25330   5.995   6.852   6.829
 8144SOL    HW125331   6.031   6.876   6.739
 8144SOL    HW225332   5.917   6.791   6.819
 8145SOL     OW25333   5.696   5.602   2.386
 8145SOL    HW125334   5.796   5.602   2.395
 8145SOL    HW225335   5.672   5.583   2.290
 8146SOL     OW25336   3.589   1.467   4.799
 8146SOL    HW125337   3.602   1.370   4.817
 8146SOL    HW225338   3.593   1.484   4.701
 8147SOL     OW25339   5.748   2.347   3.107
 8147SOL    HW125340   5.734   2.446   3.113
 8147SOL    HW225341   5.837   2.324   3.146
 8148SOL     OW25342   5.767   3.898   2.267
 8148SOL    HW125343   5.739   3.957   2.342
 8148SOL    HW225344   5.731   3.933   2.181
 8149SOL     OW25345   2.765   5.626   2.390
 8149SOL    HW125346   2.677   5.630   2.342
 8149SOL    HW225347   2.811   5.541   2.368
 8150SOL     OW25348   0.064   5.177   0.390
 8150SOL    HW125349   0.111   5.093   0.418
 8150SOL    HW225350   6.995   5.171   0.415
 8151SOL     OW25351   0.255   2.504   3.113
 8151SOL    HW125352   0.279   2.592   3.071
 8151SOL    HW225353   0.334   2.467   3.161
 8152SOL     OW25354   1.198   1.907   2.845
 8152SOL    HW125355   1.234   2.000   2.856
 8152SOL    HW225356   1.139   1.903   2.764
 8153SOL     OW25357   3.513   0.020   3.359
 8153SOL    HW125358   3.530   0.031   3.457
 8153SOL    HW225359   3.552   0.097   3.309
 8154SOL     OW25360   2.003   6.080   4.003
 8154SOL    HW125361   2.014   6.074   4.102
 8154SOL    HW225362   2.092   6.071   3.959
 8155SOL     OW25363   2.855   3.439   1.831
 8155SOL    HW125364   2.759   3.436   1.805
 8155SOL    HW225365   2.893   3.529   1.811
 8156SOL     OW25366   5.839   0.382   5.849
 8156SOL    HW125367   5.820   0.290   5.816
 8156SOL    HW225368   5.762   0.414   5.905
 8157SOL     OW25369   5.788   5.932   5.901
 8157SOL    HW125370   5.857   6.001   5.925
 8157SOL    HW225371   5.756   5.949   5.808
 8158SOL     OW25372   0.917   5.699   0.195
 8158SOL    HW125373   1.014   5.692   0.214
 8158SOL    HW225374   0.869   5.736   0.275
 8159SOL     OW25375   2.180   5.544   2.000
 8159SOL    HW125376   2.106   5.572   2.062
 8159SOL    HW225377   2.268   5.564   2.043
 8160SOL     OW25378   4.424   1.473   1.230
 8160SOL    HW125379   4.416   1.409   1.306
 8160SOL    HW225380   4.440   1.565   1.265
 8161SOL     OW25381   5.188   0.641   1.132
 8161SOL    HW125382   5.242   0.677   1.057
 8161SOL    HW225383   5.165   0.545   1.114
 8162SOL     OW25384   6.370   6.375   6.630
 8162SOL    HW125385   6.367   6.340   6.724
 8162SOL    HW225386   6.462   6.407   6.609
 8163SOL     OW25387   2.608   4.433   5.712
 8163SOL    HW125388   2.564   4.503   5.767
 8163SOL    HW225389   2.548   4.405   5.637
 8164SOL     OW25390   5.981   3.148   0.926
 8164SOL    HW125391   6.020   3.061   0.894
 8164SOL    HW225392   5.927   3.131   1.009
 8165SOL     OW25393   1.715   4.544   0.900
 8165SOL    HW125394   1.786   4.515   0.836
 8165SOL    HW225395   1.739   4.516   0.993
 8166SOL     OW25396   2.315   1.136   1.897
 8166SOL    HW125397   2.266   1.220   1.873
 8166SOL    HW225398   2.353   1.145   1.989
 8167SOL     OW25399   5.352   1.916   4.311
 8167SOL    HW125400   5.410   1.852   4.361
 8167SOL    HW225401   5.371   1.908   4.213
 8168SOL     OW25402   3.437   2.110   2.502
 8168SOL    HW125403   3.348   2.132   2.462
 8168SOL    HW225404   3.431   2.112   2.602
 8169SOL     OW25405   4.500   3.097   0.961
 8169SOL    HW125406   4.517   3.155   1.041
 8169SOL    HW225407   4.456   3.150   0.889
 8170SOL     OW25408   1.639   5.725   3.459
 8170SOL    HW125409   1.617   5.695   3.367
 8170SOL    HW225410   1.565   5.700   3.522
 8171SOL     OW25411   0.562   2.016   6.492
 8171SOL    HW125412   0.523   1.924   6.494
 8171SOL    HW225413   0.501   2.078   6.542
 8172SOL     OW25414   0.026   0.849   0.824
 8172SOL    HW125415   6.992   0.777   0.857
 8172SOL    HW225416   7.006   0.903   0.754
 8173SOL     OW25417   3.263   2.294   6.900
 8173SOL    HW125418   3.257   2.346   6.815
 8173SOL    HW225419   3.172   2.285   6.940
 8174SOL     OW25420   5.316   2.005   1.316
 8174SOL    HW125421   5.357   1.916   1.296
 8174SOL    HW225422   5.228   2.013   1.269
 8175SOL     OW25423   6.893   2.412   6.912
 8175SOL    HW125424   6.960   2.483   6.936
 8175SOL    HW225425   6.803   2.454   6.902
 8176SOL     OW25426   3.264   5.836   1.939
 8176SOL    HW125427   3.233   5.743   1.919
 8176SOL    HW225428   3.255   5.854   2.037
 8177SOL     OW25429   1.252   6.401   3.417
 8177SOL    HW125430   1.169   6.353   3.444
 8177SOL    HW225431   1.332   6.352   3.451
 8178SOL     OW25432   1.615   0.125   6.076
 8178SOL    HW125433   1.702   0.078   6.066
 8178SOL    HW225434   1.566   0.088   6.155
 8179SOL     OW25435   3.573   3.321   0.146
 8179SOL    HW125436   3.633   3.241   0.152
 8179SOL    HW225437   3.581   3.361   0.055
 8180SOL     OW25438   6.852   6.896   3.979
 8180SOL    HW125439   6.795   6.855   4.050
 8180SOL    HW225440   6.836   6.848   3.892
 8181SOL     OW25441   2.454   2.014   3.075
 8181SOL    HW125442   2.365   2.049   3.106
 8181SOL    HW225443   2.504   2.087   3.029
 8182SOL     OW25444   3.065   1.927   5.911
 8182SOL    HW125445   3.109   2.010   5.945
 8182SOL    HW225446   3.057   1.931   5.812
 8183SOL     OW25447   0.767   3.122   5.396
 8183SOL    HW125448   0.789   3.209   5.440
 8183SOL    HW225449   0.771   3.133   5.296
 8184SOL     OW25450   6.230   1.182   5.814
 8184SOL    HW125451   6.178   1.097   5.825
 8184SOL    HW225452   6.297   1.191   5.888
 8185SOL     OW25453   2.739   0.534   0.581
 8185SOL    HW125454   2.751   0.599   0.656
 8185SOL    HW225455   2.757   0.441   0.614
 8186SOL     OW25456   3.230   5.999   5.542
 8186SOL    HW125457   3.186   5.930   5.601
 8186SOL    HW225458   3.171   6.079   5.534
 8187SOL     OW25459   1.081   1.632   5.484
 8187SOL    HW125460   1.046   1.604   5.395
 8187SOL    HW225461   1.040   1.719   5.510
 8188SOL     OW25462   5.068   1.978   2.426
 8188SOL    HW125463   5.001   2.052   2.422
 8188SOL    HW225464   5.153   2.012   2.467
 8189SOL     OW25465   5.006   4.582   2.452
 8189SOL    HW125466   4.944   4.658   2.470
 8189SOL    HW225467   4.973   4.531   2.372
 8190SOL     OW25468   5.598   4.369   4.229
 8190SOL    HW125469   5.692   4.339   4.212
 8190SOL    HW225470   5.548   4.370   4.142
 8191SOL     OW25471   1.440   5.624   3.647
 8191SOL    HW125472   1.352   5.667   3.627
 8191SOL    HW225473   1.424   5.532   3.684
 8192SOL     OW25474   2.870   5.497   1.213
 8192SOL    HW125475   2.936   5.534   1.279
 8192SOL    HW225476   2.811   5.431   1.258
 8193SOL     OW25477   5.934   5.865   4.797
 8193SOL    HW125478   5.856   5.850   4.857
 8193SOL    HW225479   6.018   5.865   4.851
 8194SOL     OW25480   6.349   2.127   0.276
 8194SOL    HW125481   6.280   2.194   0.250
 8194SOL    HW225482   6.440   2.161   0.252
 8195SOL     OW25483   0.204   0.441   0.834
 8195SOL    HW125484   0.234   0.453   0.928
 8195SOL    HW225485   0.207   0.528   0.786
 8196SOL     OW25486   3.810   6.494   5.737
 8196SOL    HW125487   3.788   6.480   5.641
 8196SOL    HW225488   3.762   6.427   5.793
 8197SOL     OW25489   6.521   1.197   6.326
 8197SOL    HW125490   6.619   1.214   6.316
 8197SOL    HW225491   6.507   1.118   6.385
 8198SOL     OW25492   2.615   6.753   2.601
 8198SOL    HW125493   2.516   6.763   2.595
 8198SOL    HW225494   2.659   6.836   2.568
 8199SOL     OW25495   0.465   3.644   0.534
 8199SOL    HW125496   0.384   3.682   0.580
 8199SOL    HW225497   0.443   3.554   0.498
 8200SOL     OW25498   4.453   4.427   1.431
 8200SOL    HW125499   4.499   4.444   1.519
 8200SOL    HW225500   4.521   4.411   1.360
 8201SOL     OW25501   5.084   0.829   4.752
 8201SOL    HW125502   5.045   0.839   4.660
 8201SOL    HW225503   5.012   0.808   4.818
 8202SOL     OW25504   1.890   5.267   3.866
 8202SOL    HW125505   1.804   5.273   3.916
 8202SOL    HW225506   1.948   5.197   3.907
 8203SOL     OW25507   4.791   3.312   1.306
 8203SOL    HW125508   4.727   3.386   1.326
 8203SOL    HW225509   4.864   3.346   1.247
 8204SOL     OW25510   3.415   6.507   2.059
 8204SOL    HW125511   3.353   6.442   2.016
 8204SOL    HW225512   3.372   6.547   2.140
 8205SOL     OW25513   5.497   5.365   1.709
 8205SOL    HW125514   5.427   5.335   1.773
 8205SOL    HW225515   5.572   5.299   1.708
 8206SOL     OW25516   3.457   2.372   6.099
 8206SOL    HW125517   3.536   2.366   6.160
 8206SOL    HW225518   3.374   2.384   6.153
 8207SOL     OW25519   3.018   4.789   5.500
 8207SOL    HW125520   3.093   4.794   5.565
 8207SOL    HW225521   3.055   4.779   5.407
 8208SOL     OW25522   2.248   5.911   1.875
 8208SOL    HW125523   2.232   5.997   1.825
 8208SOL    HW225524   2.307   5.852   1.820
 8209SOL     OW25525   1.753   1.105   5.527
 8209SOL    HW125526   1.735   1.133   5.621
 8209SOL    HW225527   1.788   1.011   5.527
 8210SOL     OW25528   2.073   0.809   0.412
 8210SOL    HW125529   2.129   0.892   0.404
 8210SOL    HW225530   1.978   0.831   0.386
 8211SOL     OW25531   3.636   3.847   4.210
 8211SOL    HW125532   3.692   3.926   4.188
 8211SOL    HW225533   3.552   3.850   4.155
 8212SOL     OW25534   2.207   0.102   0.827
 8212SOL    HW125535   2.129   0.148   0.869
 8212SOL    HW225536   2.231   0.021   0.881
 8213SOL     OW25537   4.053   4.928   2.726
 8213SOL    HW125538   3.985   4.909   2.797
 8213SOL    HW225539   4.143   4.897   2.758
 8214SOL     OW25540   2.685   5.916   3.840
 8214SOL    HW125541   2.750   5.841   3.828
 8214SOL    HW225542   2.622   5.919   3.762
 8215SOL     OW25543   4.046   6.625   6.804
 8215SOL    HW125544   4.130   6.669   6.772
 8215SOL    HW225545   3.995   6.690   6.861
 8216SOL     OW25546   4.958   6.376   3.088
 8216SOL    HW125547   5.031   6.381   3.020
 8216SOL    HW225548   4.875   6.417   3.051
 8217SOL     OW25549   2.384   4.280   3.214
 8217SOL    HW125550   2.449   4.356   3.220
 8217SOL    HW225551   2.365   4.260   3.118
 8218SOL     OW25552   1.850   0.427   4.603
 8218SOL    HW125553   1.897   0.342   4.579
 8218SOL    HW225554   1.886   0.502   4.548
 8219SOL     OW25555   3.372   3.833   2.027
 8219SOL    HW125556   3.305   3.855   1.956
 8219SOL    HW225557   3.340   3.754   2.079
 8220SOL     OW25558   3.267   4.096   5.285
 8220SOL    HW125559   3.177   4.121   5.251
 8220SOL    HW225560   3.320   4.178   5.305
 8221SOL     OW25561   6.375   3.522   3.214
 8221SOL    HW125562   6.374   3.572   3.127
 8221SOL    HW225563   6.468   3.494   3.236
 8222SOL     OW25564   6.736   2.789   1.309
 8222SOL    HW125565   6.779   2.760   1.394
 8222SOL    HW225566   6.636   2.786   1.319
 8223SOL     OW25567   0.292   5.819   5.364
 8223SOL    HW125568   0.313   5.812   5.461
 8223SOL    HW225569   0.288   5.727   5.324
 8224SOL     OW25570   4.348   1.934   0.901
 8224SOL    HW125571   4.402   1.898   0.826
 8224SOL    HW225572   4.405   1.942   0.983
 8225SOL     OW25573   4.149   0.721   7.025
 8225SOL    HW125574   4.087   0.642   7.018
 8225SOL    HW225575   4.123   0.777   0.077
 8226SOL     OW25576   3.565   0.807   6.730
 8226SOL    HW125577   3.605   0.818   6.639
 8226SOL    HW225578   3.637   0.783   6.795
 8227SOL     OW25579   5.245   1.693   3.094
 8227SOL    HW125580   5.238   1.595   3.115
 8227SOL    HW225581   5.340   1.715   3.072
 8228SOL     OW25582   0.759   1.244   5.520
 8228SOL    HW125583   0.722   1.194   5.598
 8228SOL    HW225584   0.690   1.250   5.449
 8229SOL     OW25585   4.013   4.960   1.291
 8229SOL    HW125586   4.077   5.028   1.256
 8229SOL    HW225587   4.064   4.887   1.338
 8230SOL     OW25588   4.382   0.228   5.812
 8230SOL    HW125589   4.451   0.232   5.739
 8230SOL    HW225590   4.292   0.245   5.773
 8231SOL     OW25591   3.241   0.980   1.674
 8231SOL    HW125592   3.240   0.958   1.772
 8231SOL    HW225593   3.252   1.078   1.662
 8232SOL     OW25594   4.456   0.725   2.291
 8232SOL    HW125595   4.456   0.778   2.206
 8232SOL    HW225596   4.526   0.760   2.353
 8233SOL     OW25597   0.369   0.948   5.289
 8233SOL    HW125598   0.345   1.036   5.330
 8233SOL    HW225599   0.369   0.877   5.360
 8234SOL     OW25600   2.449   3.506   0.252
 8234SOL    HW125601   2.428   3.460   0.338
 8234SOL    HW225602   2.405   3.596   0.251
 8235SOL     OW25603   6.939   4.953   6.872
 8235SOL    HW125604   6.893   5.030   6.827
 8235SOL    HW225605   0.009   4.954   6.847
 8236SOL     OW25606   0.549   6.360   6.110
 8236SOL    HW125607   0.532   6.268   6.075
 8236SOL    HW225608   0.572   6.421   6.035
 8237SOL     OW25609   4.776   5.417   6.329
 8237SOL    HW125610   4.704   5.418   6.259
 8237SOL    HW225611   4.865   5.406   6.284
 8238SOL     OW25612   2.789   4.998   0.584
 8238SOL    HW125613   2.888   5.012   0.583
 8238SOL    HW225614   2.751   5.024   0.495
 8239SOL     OW25615   0.848   1.362   5.141
 8239SOL    HW125616   0.873   1.454   5.169
 8239SOL    HW225617   0.888   1.296   5.205
 8240SOL     OW25618   4.042   3.188   4.411
 8240SOL    HW125619   4.074   3.246   4.486
 8240SOL    HW225620   3.991   3.111   4.449
 8241SOL     OW25621   0.810   3.864   6.762
 8241SOL    HW125622   0.901   3.839   6.729
 8241SOL    HW225623   0.784   3.952   6.722
 8242SOL     OW25624   1.216   3.590   4.796
 8242SOL    HW125625   1.216   3.557   4.702
 8242SOL    HW225626   1.194   3.515   4.858
 8243SOL     OW25627   0.705   4.557   5.466
 8243SOL    HW125628   0.743   4.507   5.545
 8243SOL    HW225629   0.607   4.538   5.460
 8244SOL     OW25630   0.841   0.405   3.686
 8244SOL    HW125631   0.811   0.312   3.706
 8244SOL    HW225632   0.920   0.402   3.624
 8245SOL     OW25633   4.984   1.327   3.983
 8245SOL    HW125634   5.081   1.352   3.982
 8245SOL    HW225635   4.938   1.372   3.906
 8246SOL     OW25636   1.026   3.804   6.448
 8246SOL    HW125637   1.052   3.821   6.353
 8246SOL    HW225638   1.057   3.880   6.505
 8247SOL     OW25639   3.105   5.088   3.181
 8247SOL    HW125640   3.123   5.013   3.244
 8247SOL    HW225641   3.018   5.132   3.205
 8248SOL     OW25642   0.409   5.793   2.783
 8248SOL    HW125643   0.461   5.721   2.830
 8248SOL    HW225644   0.350   5.752   2.713
 8249SOL     OW25645   1.972   1.959   6.226
 8249SOL    HW125646   1.902   1.895   6.193
 8249SOL    HW225647   1.942   2.053   6.210
 8250SOL     OW25648   2.329   2.078   6.456
 8250SOL    HW125649   2.288   2.149   6.399
 8250SOL    HW225650   2.300   1.988   6.424
 8251SOL     OW25651   0.043   2.850   5.061
 8251SOL    HW125652   0.036   2.931   5.119
 8251SOL    HW225653   0.072   2.877   4.969
 8252SOL     OW25654   2.408   2.488   6.287
 8252SOL    HW125655   2.400   2.568   6.228
 8252SOL    HW225656   2.328   2.429   6.274
 8253SOL     OW25657   3.688   5.568   0.026
 8253SOL    HW125658   3.742   5.600   6.975
 8253SOL    HW225659   3.744   5.505   0.081
 8254SOL     OW25660   5.693   5.157   0.762
 8254SOL    HW125661   5.752   5.217   0.815
 8254SOL    HW225662   5.667   5.202   0.676
 8255SOL     OW25663   0.262   7.009   5.641
 8255SOL    HW125664   0.242   6.955   5.560
 8255SOL    HW225665   0.264   0.080   5.617
 8256SOL     OW25666   1.301   6.305   2.651
 8256SOL    HW125667   1.313   6.240   2.576
 8256SOL    HW225668   1.207   6.303   2.682
 8257SOL     OW25669   4.999   4.267   4.155
 8257SOL    HW125670   4.944   4.218   4.087
 8257SOL    HW225671   5.091   4.226   4.159
 8258SOL     OW25672   6.201   3.155   1.630
 8258SOL    HW125673   6.262   3.229   1.603
 8258SOL    HW225674   6.117   3.160   1.575
 8259SOL     OW25675   4.698   2.657   4.289
 8259SOL    HW125676   4.694   2.756   4.298
 8259SOL    HW225677   4.657   2.615   4.371
 8260SOL     OW25678   2.436   6.961   0.647
 8260SOL    HW125679   2.357   7.006   0.689
 8260SOL    HW225680   2.472   6.893   0.710
 8261SOL     OW25681   5.083   6.899   3.452
 8261SOL    HW125682   5.092   6.799   3.458
 8261SOL    HW225683   5.139   6.941   3.524
 8262SOL     OW25684   0.350   4.245   1.128
 8262SOL    HW125685   0.345   4.225   1.226
 8262SOL    HW225686   0.356   4.160   1.077
 8263SOL     OW25687   6.853   2.267   0.262
 8263SOL    HW125688   6.873   2.189   0.321
 8263SOL    HW225689   6.763   2.254   0.219
 8264SOL     OW25690   1.732   6.586   2.619
 8264SOL    HW125691   1.801   6.656   2.597
 8264SOL    HW225692   1.659   6.589   2.551
 8265SOL     OW25693   4.954   0.444   0.880
 8265SOL    HW125694   4.881   0.462   0.946
 8265SOL    HW225695   5.000   0.530   0.857
 8266SOL     OW25696   2.392   6.711   3.706
 8266SOL    HW125697   2.460   6.674   3.643
 8266SOL    HW225698   2.396   6.661   3.793
 8267SOL     OW25699   1.292   4.129   2.674
 8267SOL    HW125700   1.290   4.225   2.702
 8267SOL    HW225701   1.380   4.109   2.630
 8268SOL     OW25702   3.315   3.844   6.832
 8268SOL    HW125703   3.370   3.820   6.752
 8268SOL    HW225704   3.288   3.940   6.826
 8269SOL     OW25705   4.283   2.269   2.846
 8269SOL    HW125706   4.318   2.344   2.902
 8269SOL    HW225707   4.286   2.295   2.750
 8270SOL     OW25708   3.812   6.904   5.589
 8270SOL    HW125709   3.822   7.001   5.612
 8270SOL    HW225710   3.756   6.859   5.659
 8271SOL     OW25711   4.950   6.410   4.556
 8271SOL    HW125712   4.855   6.432   4.578
 8271SOL    HW225713   4.972   6.319   4.592
 8272SOL     OW25714   0.513   0.216   2.120
 8272SOL    HW125715   0.476   0.220   2.027
 8272SOL    HW225716   0.555   0.305   2.142
 8273SOL     OW25717   2.785   6.541   6.884
 8273SOL    HW125718   2.768   6.514   6.979
 8273SOL    HW225719   2.756   6.636   6.870
 8274SOL     OW25720   5.064   5.417   6.886
 8274SOL    HW125721   5.087   5.357   6.809
 8274SOL    HW225722   5.146   5.468   6.914
 8275SOL     OW25723   6.620   0.506   4.208
 8275SOL    HW125724   6.577   0.434   4.153
 8275SOL    HW225725   6.568   0.519   4.292
 8276SOL     OW25726   6.856   2.978   6.525
 8276SOL    HW125727   6.941   2.936   6.494
 8276SOL    HW225728   6.798   2.908   6.567
 8277SOL     OW25729   0.944   6.100   5.981
 8277SOL    HW125730   0.915   6.195   5.990
 8277SOL    HW225731   0.980   6.068   6.069
 8278SOL     OW25732   3.551   2.094   6.491
 8278SOL    HW125733   3.626   2.155   6.519
 8278SOL    HW225734   3.466   2.123   6.535
 8279SOL     OW25735   4.467   6.133   6.423
 8279SOL    HW125736   4.378   6.115   6.383
 8279SOL    HW225737   4.517   6.199   6.366
 8280SOL     OW25738   5.180   2.517   0.765
 8280SOL    HW125739   5.098   2.512   0.708
 8280SOL    HW225740   5.222   2.607   0.754
 8281SOL     OW25741   1.830   5.067   0.523
 8281SOL    HW125742   1.778   4.983   0.508
 8281SOL    HW225743   1.917   5.062   0.474
 8282SOL     OW25744   2.896   2.836   1.147
 8282SOL    HW125745   2.861   2.927   1.169
 8282SOL    HW225746   2.917   2.830   1.050
 8283SOL     OW25747   0.314   5.153   3.650
 8283SOL    HW125748   0.269   5.070   3.682
 8283SOL    HW225749   0.322   5.218   3.725
 8284SOL     OW25750   2.276   2.014   2.288
 8284SOL    HW125751   2.346   1.988   2.221
 8284SOL    HW225752   2.278   1.950   2.364
 8285SOL     OW25753   3.245   4.445   5.734
 8285SOL    HW125754   3.214   4.412   5.823
 8285SOL    HW225755   3.166   4.461   5.675
 8286SOL     OW25756   5.195   1.105   4.359
 8286SOL    HW125757   5.220   1.053   4.278
 8286SOL    HW225758   5.257   1.183   4.369
 8287SOL     OW25759   1.337   0.673   3.467
 8287SOL    HW125760   1.315   0.610   3.393
 8287SOL    HW225761   1.412   0.636   3.521
 8288SOL     OW25762   1.605   1.633   2.541
 8288SOL    HW125763   1.531   1.694   2.569
 8288SOL    HW225764   1.620   1.564   2.612
 8289SOL     OW25765   6.516   2.148   5.859
 8289SOL    HW125766   6.478   2.111   5.944
 8289SOL    HW225767   6.503   2.082   5.785
 8290SOL     OW25768   3.550   2.533   1.725
 8290SOL    HW125769   3.600   2.457   1.765
 8290SOL    HW225770   3.605   2.616   1.732
 8291SOL     OW25771   5.785   6.872   6.122
 8291SOL    HW125772   5.869   6.915   6.087
 8291SOL    HW225773   5.722   6.943   6.154
 8292SOL     OW25774   0.943   4.391   5.096
 8292SOL    HW125775   0.845   4.412   5.099
 8292SOL    HW225776   0.957   4.294   5.113
 8293SOL     OW25777   2.580   5.288   2.311
 8293SOL    HW125778   2.680   5.281   2.319
 8293SOL    HW225779   2.556   5.329   2.223
 8294SOL     OW25780   6.501   3.511   6.416
 8294SOL    HW125781   6.584   3.460   6.436
 8294SOL    HW225782   6.432   3.490   6.484
 8295SOL     OW25783   5.149   4.017   2.719
 8295SOL    HW125784   5.064   4.000   2.670
 8295SOL    HW225785   5.155   3.955   2.797
 8296SOL     OW25786   3.402   5.935   0.931
 8296SOL    HW125787   3.419   5.907   0.837
 8296SOL    HW225788   3.322   5.996   0.934
 8297SOL     OW25789   6.610   4.457   2.934
 8297SOL    HW125790   6.583   4.412   2.849
 8297SOL    HW225791   6.534   4.512   2.969
 8298SOL     OW25792   0.050   0.779   6.952
 8298SOL    HW125793   0.078   0.853   6.890
 8298SOL    HW225794   0.067   0.807   0.019
 8299SOL     OW25795   0.537   4.056   1.837
 8299SOL    HW125796   0.487   4.119   1.777
 8299SOL    HW225797   0.573   4.106   1.916
 8300SOL     OW25798   6.032   5.026   3.456
 8300SOL    HW125799   6.079   5.114   3.465
 8300SOL    HW225800   6.086   4.955   3.501
 8301SOL     OW25801   3.904   6.586   0.622
 8301SOL    HW125802   3.976   6.580   0.691
 8301SOL    HW225803   3.891   6.497   0.579
 8302SOL     OW25804   3.660   6.305   4.503
 8302SOL    HW125805   3.672   6.286   4.405
 8302SOL    HW225806   3.563   6.318   4.523
 8303SOL     OW25807   6.420   7.010   2.441
 8303SOL    HW125808   6.327   0.015   2.453
 8303SOL    HW225809   6.475   0.008   2.521
 8304SOL     OW25810   6.232   3.605   3.659
 8304SOL    HW125811   6.265   3.684   3.711
 8304SOL    HW225812   6.134   3.615   3.644
 8305SOL     OW25813   4.670   5.368   4.297
 8305SOL    HW125814   4.657   5.313   4.380
 8305SOL    HW225815   4.737   5.440   4.315
 8306SOL     OW25816   5.953   1.124   2.210
 8306SOL    HW125817   5.985   1.033   2.238
 8306SOL    HW225818   5.931   1.122   2.112
 8307SOL     OW25819   1.650   4.579   2.224
 8307SOL    HW125820   1.703   4.663   2.214
 8307SOL    HW225821   1.586   4.589   2.300
 8308SOL     OW25822   0.605   5.095   0.059
 8308SOL    HW125823   0.552   5.017   0.027
 8308SOL    HW225824   0.549   5.150   0.122
 8309SOL     OW25825   6.868   4.295   4.587
 8309SOL    HW125826   6.808   4.279   4.509
 8309SOL    HW225827   6.815   4.291   4.671
 8310SOL     OW25828   0.661   6.933   0.543
 8310SOL    HW125829   0.618   6.984   0.617
 8310SOL    HW225830   0.695   6.846   0.579
 8311SOL     OW25831   5.783   6.700   4.178
 8311SOL    HW125832   5.755   6.793   4.155
 8311SOL    HW225833   5.706   6.638   4.166
 8312SOL     OW25834   4.970   0.776   6.734
 8312SOL    HW125835   4.982   0.788   6.832
 8312SOL    HW225836   4.873   0.769   6.712
 8313SOL     OW25837   4.609   0.950   4.504
 8313SOL    HW125838   4.549   1.030   4.516
 8313SOL    HW225839   4.562   0.868   4.537
 8314SOL     OW25840   5.241   6.111   5.582
 8314SOL    HW125841   5.244   6.197   5.632
 8314SOL    HW225842   5.177   6.048   5.627
 8315SOL     OW25843   3.455   2.889   4.563
 8315SOL    HW125844   3.378   2.902   4.501
 8315SOL    HW225845   3.460   2.965   4.628
 8316SOL     OW25846   1.046   2.641   0.385
 8316SOL    HW125847   0.976   2.592   0.335
 8316SOL    HW225848   1.130   2.586   0.390
 8317SOL     OW25849   1.730   1.852   4.413
 8317SOL    HW125850   1.666   1.910   4.362
 8317SOL    HW225851   1.824   1.879   4.392
 8318SOL     OW25852   3.713   0.223   6.422
 8318SOL    HW125853   3.651   0.164   6.476
 8318SOL    HW225854   3.695   0.318   6.445
 8319SOL     OW25855   2.095   0.080   6.051
 8319SOL    HW125856   2.062   0.134   6.129
 8319SOL    HW225857   2.019   0.060   5.990
 8320SOL     OW25858   3.505   3.629   4.590
 8320SOL    HW125859   3.443   3.579   4.649
 8320SOL    HW225860   3.539   3.711   4.638
 8321SOL     OW25861   6.941   0.084   0.263
 8321SOL    HW125862   6.960   0.092   0.165
 8321SOL    HW225863   6.913   7.017   0.284
 8322SOL     OW25864   6.895   1.028   0.163
 8322SOL    HW125865   6.887   0.940   0.116
 8322SOL    HW225866   6.852   1.022   0.253
 8323SOL     OW25867   4.685   4.538   0.915
 8323SOL    HW125868   4.594   4.551   0.953
 8323SOL    HW225869   4.711   4.619   0.862
 8324SOL     OW25870   6.615   6.530   6.670
 8324SOL    HW125871   6.711   6.499   6.669
 8324SOL    HW225872   6.606   6.605   6.735
 8325SOL     OW25873   1.346   5.557   5.380
 8325SOL    HW125874   1.333   5.460   5.364
 8325SOL    HW225875   1.258   5.604   5.376
 8326SOL     OW25876   2.200   3.714   0.917
 8326SOL    HW125877   2.163   3.754   0.833
 8326SOL    HW225878   2.179   3.616   0.919
 8327SOL     OW25879   0.732   0.431   5.256
 8327SOL    HW125880   0.832   0.442   5.252
 8327SOL    HW225881   0.700   0.391   5.171
 8328SOL     OW25882   1.062   6.820   6.003
 8328SOL    HW125883   0.992   6.775   5.948
 8328SOL    HW225884   1.034   6.819   6.099
 8329SOL     OW25885   0.813   3.101   5.118
 8329SOL    HW125886   0.798   3.193   5.082
 8329SOL    HW225887   0.908   3.092   5.149
 8330SOL     OW25888   3.865   0.727   6.811
 8330SOL    HW125889   3.818   0.800   6.860
 8330SOL    HW225890   3.913   0.765   6.732
 8331SOL     OW25891   1.971   2.126   0.206
 8331SOL    HW125892   1.894   2.064   0.200
 8331SOL    HW225893   1.938   2.221   0.203
 8332SOL     OW25894   5.473   4.638   2.047
 8332SOL    HW125895   5.505   4.620   1.954
 8332SOL    HW225896   5.375   4.660   2.045
 8333SOL     OW25897   2.682   4.804   1.149
 8333SOL    HW125898   2.668   4.789   1.051
 8333SOL    HW225899   2.608   4.760   1.200
 8334SOL     OW25900   3.197   2.425   6.270
 8334SOL    HW125901   3.156   2.483   6.198
 8334SOL    HW225902   3.124   2.380   6.321
 8335SOL     OW25903   5.369   3.103   6.194
 8335SOL    HW125904   5.272   3.116   6.170
 8335SOL    HW225905   5.426   3.145   6.124
 8336SOL     OW25906   0.863   3.636   3.166
 8336SOL    HW125907   0.881   3.547   3.207
 8336SOL    HW225908   0.846   3.625   3.068
 8337SOL     OW25909   0.961   1.036   4.420
 8337SOL    HW125910   0.986   0.991   4.505
 8337SOL    HW225911   0.865   1.017   4.399
 8338SOL     OW25912   3.724   4.833   2.249
 8338SOL    HW125913   3.704   4.791   2.160
 8338SOL    HW225914   3.641   4.876   2.284
 8339SOL     OW25915   6.579   0.648   0.600
 8339SOL    HW125916   6.597   0.652   0.502
 8339SOL    HW225917   6.657   0.607   0.647
 8340SOL     OW25918   5.183   2.350   1.007
 8340SOL    HW125919   5.100   2.314   0.966
 8340SOL    HW225920   5.209   2.435   0.960
 8341SOL     OW25921   3.640   0.276   0.080
 8341SOL    HW125922   3.577   0.273   0.002
 8341SOL    HW225923   3.684   0.366   0.083
 8342SOL     OW25924   4.142   6.419   6.962
 8342SOL    HW125925   4.088   6.481   6.906
 8342SOL    HW225926   4.081   6.358   7.012
 8343SOL     OW25927   6.964   4.133   3.809
 8343SOL    HW125928   6.944   4.065   3.738
 8343SOL    HW225929   0.003   4.096   3.873
 8344SOL     OW25930   0.824   5.473   4.770
 8344SOL    HW125931   0.917   5.504   4.791
 8344SOL    HW225932   0.803   5.494   4.674
 8345SOL     OW25933   4.697   0.743   2.441
 8345SOL    HW125934   4.776   0.772   2.387
 8345SOL    HW225935   4.727   0.716   2.532
 8346SOL     OW25936   4.264   3.421   5.838
 8346SOL    HW125937   4.193   3.379   5.895
 8346SOL    HW225938   4.224   3.494   5.783
 8347SOL     OW25939   2.444   0.291   5.988
 8347SOL    HW125940   2.523   0.275   5.930
 8347SOL    HW225941   2.439   0.221   6.059
 8348SOL     OW25942   3.689   6.418   1.590
 8348SOL    HW125943   3.600   6.379   1.569
 8348SOL    HW225944   3.717   6.391   1.682
 8349SOL     OW25945   0.994   6.553   2.099
 8349SOL    HW125946   0.995   6.459   2.064
 8349SOL    HW225947   1.038   6.556   2.188
 8350SOL     OW25948   2.610   0.174   6.376
 8350SOL    HW125949   2.567   0.144   6.290
 8350SOL    HW225950   2.703   0.205   6.357
 8351SOL     OW25951   6.970   4.573   4.160
 8351SOL    HW125952   6.968   4.481   4.199
 8351SOL    HW225953   6.955   4.568   4.061
 8352SOL     OW25954   2.726   5.788   2.064
 8352SOL    HW125955   2.729   5.808   2.162
 8352SOL    HW225956   2.747   5.871   2.013
 8353SOL     OW25957   0.930   3.587   2.060
 8353SOL    HW125958   0.919   3.605   1.963
 8353SOL    HW225959   0.897   3.666   2.112
 8354SOL     OW25960   3.542   6.970   4.269
 8354SOL    HW125961   3.497   0.031   4.288
 8354SOL    HW225962   3.524   6.943   4.175
 8355SOL     OW25963   1.519   6.652   5.597
 8355SOL    HW125964   1.457   6.641   5.674
 8355SOL    HW225965   1.592   6.716   5.622
 8356SOL     OW25966   1.979   5.595   1.629
 8356SOL    HW125967   1.971   5.519   1.565
 8356SOL    HW225968   2.072   5.600   1.664
 8357SOL     OW25969   3.797   5.450   5.577
 8357SOL    HW125970   3.892   5.420   5.567
 8357SOL    HW225971   3.796   5.550   5.589
 8358SOL     OW25972   1.134   2.318   5.333
 8358SOL    HW125973   1.114   2.413   5.356
 8358SOL    HW225974   1.091   2.257   5.399
 8359SOL     OW25975   3.281   1.434   5.016
 8359SOL    HW125976   3.266   1.415   5.113
 8359SOL    HW225977   3.359   1.380   4.983
 8360SOL     OW25978   5.148   5.996   0.301
 8360SOL    HW125979   5.142   5.992   0.202
 8360SOL    HW225980   5.158   6.091   0.330
 8361SOL     OW25981   2.602   6.969   0.207
 8361SOL    HW125982   2.652   0.020   0.171
 8361SOL    HW225983   2.622   6.888   0.153
 8362SOL     OW25984   6.771   3.221   0.777
 8362SOL    HW125985   6.688   3.169   0.800
 8362SOL    HW225986   6.755   3.273   0.693
 8363SOL     OW25987   3.578   2.025   0.418
 8363SOL    HW125988   3.585   2.090   0.342
 8363SOL    HW225989   3.620   2.065   0.500
 8364SOL     OW25990   0.487   2.869   3.922
 8364SOL    HW125991   0.449   2.778   3.940
 8364SOL    HW225992   0.586   2.867   3.936
 8365SOL     OW25993   2.430   2.599   2.251
 8365SOL    HW125994   2.482   2.545   2.185
 8365SOL    HW225995   2.490   2.668   2.293
 8366SOL     OW25996   4.699   5.624   1.032
 8366SOL    HW125997   4.731   5.529   1.038
 8366SOL    HW225998   4.633   5.632   0.958
 8367SOL     OW25999   4.293   4.958   5.010
 8367SOL    HW126000   4.270   5.018   4.933
 8367SOL    HW226001   4.307   5.013   5.093
 8368SOL     OW26002   1.177   6.090   6.999
 8368SOL    HW126003   1.246   6.133   0.030
 8368SOL    HW226004   1.183   5.991   7.008
 8369SOL     OW26005   1.064   1.520   0.606
 8369SOL    HW126006   0.975   1.541   0.565
 8369SOL    HW226007   1.137   1.544   0.541
 8370SOL     OW26008   2.921   2.018   0.334
 8370SOL    HW126009   2.928   1.948   0.405
 8370SOL    HW226010   2.968   1.986   0.252
 8371SOL     OW26011   1.330   3.213   5.795
 8371SOL    HW126012   1.429   3.202   5.788
 8371SOL    HW226013   1.307   3.257   5.882
 8372SOL     OW26014   2.121   6.572   2.186
 8372SOL    HW126015   2.089   6.556   2.280
 8372SOL    HW226016   2.158   6.665   2.180
 8373SOL     OW26017   0.674   1.018   4.282
 8373SOL    HW126018   0.575   1.033   4.291
 8373SOL    HW226019   0.717   1.102   4.248
 8374SOL     OW26020   1.238   1.169   4.495
 8374SOL    HW126021   1.144   1.163   4.461
 8374SOL    HW226022   1.301   1.156   4.419
 8375SOL     OW26023   4.083   1.055   5.548
 8375SOL    HW126024   4.167   1.061   5.494
 8375SOL    HW226025   4.088   1.117   5.625
 8376SOL     OW26026   1.987   0.614   3.266
 8376SOL    HW126027   2.033   0.546   3.324
 8376SOL    HW226028   2.019   0.705   3.292
 8377SOL     OW26029   5.614   5.496   6.503
 8377SOL    HW126030   5.583   5.440   6.580
 8377SOL    HW226031   5.710   5.521   6.517
 8378SOL     OW26032   5.238   5.659   3.328
 8378SOL    HW126033   5.239   5.564   3.359
 8378SOL    HW226034   5.317   5.675   3.269
 8379SOL     OW26035   5.558   1.897   1.863
 8379SOL    HW126036   5.596   1.911   1.955
 8379SOL    HW226037   5.495   1.820   1.865
 8380SOL     OW26038   6.983   5.528   6.579
 8380SOL    HW126039   0.021   5.581   6.526
 8380SOL    HW226040   6.921   5.589   6.628
 8381SOL     OW26041   0.250   2.062   2.554
 8381SOL    HW126042   0.176   2.061   2.486
 8381SOL    HW226043   0.338   2.076   2.507
 8382SOL     OW26044   2.807   6.937   6.960
 8382SOL    HW126045   2.737   6.873   6.926
 8382SOL    HW226046   2.773   0.004   6.950
 8383SOL     OW26047   2.750   6.921   4.464
 8383SOL    HW126048   2.730   6.826   4.439
 8383SOL    HW226049   2.767   6.928   4.562
 8384SOL     OW26050   0.103   2.012   1.078
 8384SOL    HW126051   0.035   1.948   1.039
 8384SOL    HW226052   0.104   2.003   1.177
 8385SOL     OW26053   4.732   3.310   0.858
 8385SOL    HW126054   4.767   3.253   0.785
 8385SOL    HW226055   4.642   3.276   0.887
 8386SOL     OW26056   2.045   6.563   1.602
 8386SOL    HW126057   2.110   6.612   1.660
 8386SOL    HW226058   1.985   6.507   1.659
 8387SOL     OW26059   2.218   1.551   0.781
 8387SOL    HW126060   2.231   1.507   0.693
 8387SOL    HW226061   2.169   1.638   0.768
 8388SOL     OW26062   2.769   6.674   0.567
 8388SOL    HW126063   2.687   6.623   0.591
 8388SOL    HW226064   2.850   6.620   0.590
 8389SOL     OW26065   1.249   3.155   4.297
 8389SOL    HW126066   1.335   3.195   4.266
 8389SOL    HW226067   1.195   3.225   4.344
 8390SOL     OW26068   2.629   0.818   5.953
 8390SOL    HW126069   2.709   0.877   5.966
 8390SOL    HW226070   2.546   0.873   5.950
 8391SOL     OW26071   5.195   5.452   2.116
 8391SOL    HW126072   5.127   5.498   2.172
 8391SOL    HW226073   5.256   5.519   2.075
 8392SOL     OW26074   6.170   5.729   4.913
 8392SOL    HW126075   6.237   5.690   4.849
 8392SOL    HW226076   6.121   5.655   4.959
 8393SOL     OW26077   6.638   6.299   3.447
 8393SOL    HW126078   6.586   6.237   3.507
 8393SOL    HW226079   6.574   6.356   3.396
 8394SOL     OW26080   0.946   1.589   2.882
 8394SOL    HW126081   0.960   1.677   2.928
 8394SOL    HW226082   0.849   1.568   2.879
 8395SOL     OW26083   0.423   6.026   4.470
 8395SOL    HW126084   0.430   6.125   4.481
 8395SOL    HW226085   0.464   5.981   4.549
 8396SOL     OW26086   4.801   3.925   2.532
 8396SOL    HW126087   4.738   3.997   2.502
 8396SOL    HW226088   4.862   3.900   2.457
 8397SOL     OW26089   1.703   6.306   2.674
 8397SOL    HW126090   1.647   6.273   2.750
 8397SOL    HW226091   1.711   6.406   2.680
 8398SOL     OW26092   4.044   1.421   6.944
 8398SOL    HW126093   4.006   1.381   0.000
 8398SOL    HW226094   4.070   1.516   6.962
 8399SOL     OW26095   5.746   5.849   0.979
 8399SOL    HW126096   5.837   5.867   1.015
 8399SOL    HW226097   5.697   5.936   0.969
 8400SOL     OW26098   0.220   0.639   2.966
 8400SOL    HW126099   0.182   0.731   2.960
 8400SOL    HW226100   0.305   0.635   2.914
 8401SOL     OW26101   4.456   3.483   6.072
 8401SOL    HW126102   4.401   3.453   5.993
 8401SOL    HW226103   4.397   3.487   6.153
 8402SOL     OW26104   3.814   1.915   6.320
 8402SOL    HW126105   3.821   1.837   6.257
 8402SOL    HW226106   3.722   1.917   6.361
 8403SOL     OW26107   1.245   1.671   3.680
 8403SOL    HW126108   1.307   1.656   3.602
 8403SOL    HW226109   1.235   1.769   3.696
 8404SOL     OW26110   4.892   6.275   5.380
 8404SOL    HW126111   4.830   6.331   5.434
 8404SOL    HW226112   4.870   6.284   5.283
 8405SOL     OW26113   1.288   2.050   6.525
 8405SOL    HW126114   1.290   2.100   6.439
 8405SOL    HW226115   1.326   1.958   6.511
 8406SOL     OW26116   4.145   1.656   0.847
 8406SOL    HW126117   4.052   1.689   0.859
 8406SOL    HW226118   4.208   1.734   0.841
 8407SOL     OW26119   5.864   4.346   4.122
 8407SOL    HW126120   5.860   4.345   4.022
 8407SOL    HW226121   5.943   4.399   4.151
 8408SOL     OW26122   5.027   0.168   3.752
 8408SOL    HW126123   5.036   0.236   3.679
 8408SOL    HW226124   4.995   0.212   3.835
 8409SOL     OW26125   0.777   2.051   4.111
 8409SOL    HW126126   0.781   1.951   4.116
 8409SOL    HW226127   0.829   2.090   4.188
 8410SOL     OW26128   5.546   0.170   1.913
 8410SOL    HW126129   5.551   0.074   1.883
 8410SOL    HW226130   5.489   0.221   1.848
 8411SOL     OW26131   1.538   5.494   4.299
 8411SOL    HW126132   1.542   5.556   4.221
 8411SOL    HW226133   1.529   5.546   4.383
 8412SOL     OW26134   4.365   2.290   1.347
 8412SOL    HW126135   4.346   2.322   1.440
 8412SOL    HW226136   4.461   2.304   1.326
 8413SOL     OW26137   4.122   5.110   0.893
 8413SOL    HW126138   4.189   5.065   0.834
 8413SOL    HW226139   4.032   5.107   0.849
 8414SOL     OW26140   3.598   6.833   2.588
 8414SOL    HW126141   3.627   6.929   2.589
 8414SOL    HW226142   3.675   6.775   2.613
 8415SOL     OW26143   6.864   4.809   3.675
 8415SOL    HW126144   6.828   4.853   3.592
 8415SOL    HW226145   6.883   4.713   3.656
 8416SOL     OW26146   5.279   4.381   2.559
 8416SOL    HW126147   5.301   4.290   2.594
 8416SOL    HW226148   5.263   4.376   2.461
 8417SOL     OW26149   2.661   6.366   5.662
 8417SOL    HW126150   2.601   6.445   5.657
 8417SOL    HW226151   2.748   6.393   5.705
 8418SOL     OW26152   5.877   5.998   2.568
 8418SOL    HW126153   5.950   5.976   2.503
 8418SOL    HW226154   5.798   5.941   2.550
 8419SOL     OW26155   5.201   0.257   1.854
 8419SOL    HW126156   5.265   0.323   1.815
 8419SOL    HW226157   5.200   0.265   1.954
 8420SOL     OW26158   4.368   0.292   0.322
 8420SOL    HW126159   4.416   0.329   0.243
 8420SOL    HW226160   4.366   0.192   0.315
 8421SOL     OW26161   2.089   0.164   1.621
 8421SOL    HW126162   2.070   0.249   1.572
 8421SOL    HW226163   2.177   0.172   1.669
 8422SOL     OW26164   5.288   6.220   0.453
 8422SOL    HW126165   5.338   6.290   0.403
 8422SOL    HW226166   5.326   6.212   0.546
 8423SOL     OW26167   3.784   5.052   0.233
 8423SOL    HW126168   3.761   5.013   0.144
 8423SOL    HW226169   3.702   5.092   0.275
 8424SOL     OW26170   3.671   1.917   2.564
 8424SOL    HW126171   3.751   1.942   2.510
 8424SOL    HW226172   3.601   1.988   2.556
 8425SOL     OW26173   6.777   5.365   1.313
 8425SOL    HW126174   6.815   5.412   1.233
 8425SOL    HW226175   6.800   5.417   1.395
 8426SOL     OW26176   3.842   3.114   3.779
 8426SOL    HW126177   3.815   3.191   3.837
 8426SOL    HW226178   3.917   3.143   3.719
 8427SOL     OW26179   1.860   4.458   6.188
 8427SOL    HW126180   1.890   4.480   6.281
 8427SOL    HW226181   1.895   4.527   6.124
 8428SOL     OW26182   6.875   4.389   1.923
 8428SOL    HW126183   6.901   4.479   1.889
 8428SOL    HW226184   6.920   4.318   1.869
 8429SOL     OW26185   2.880   4.817   4.282
 8429SOL    HW126186   2.880   4.770   4.194
 8429SOL    HW226187   2.825   4.766   4.348
 8430SOL     OW26188   4.849   5.396   2.480
 8430SOL    HW126189   4.818   5.488   2.505
 8430SOL    HW226190   4.894   5.353   2.559
 8431SOL     OW26191   3.077   4.884   1.541
 8431SOL    HW126192   3.007   4.882   1.470
 8431SOL    HW226193   3.094   4.792   1.575
 8432SOL     OW26194   4.590   5.400   6.067
 8432SOL    HW126195   4.538   5.481   6.090
 8432SOL    HW226196   4.621   5.405   5.972
 8433SOL     OW26197   0.961   2.715   6.841
 8433SOL    HW126198   0.868   2.744   6.862
 8433SOL    HW226199   0.997   2.662   6.918
 8434SOL     OW26200   3.779   6.711   5.377
 8434SOL    HW126201   3.773   6.753   5.286
 8434SOL    HW226202   3.830   6.772   5.438
 8435SOL     OW26203   4.468   2.083   1.559
 8435SOL    HW126204   4.406   2.022   1.509
 8435SOL    HW226205   4.432   2.176   1.557
 8436SOL     OW26206   3.661   5.126   2.965
 8436SOL    HW126207   3.587   5.071   2.926
 8436SOL    HW226208   3.712   5.171   2.892
 8437SOL     OW26209   0.337   0.823   1.459
 8437SOL    HW126210   0.283   0.833   1.543
 8437SOL    HW226211   0.356   0.726   1.444
 8438SOL     OW26212   2.889   4.767   2.536
 8438SOL    HW126213   2.849   4.764   2.445
 8438SOL    HW226214   2.843   4.699   2.594
 8439SOL     OW26215   6.383   5.599   1.952
 8439SOL    HW126216   6.450   5.568   1.885
 8439SOL    HW226217   6.423   5.672   2.007
 8440SOL     OW26218   0.201   0.915   2.147
 8440SOL    HW126219   0.198   0.860   2.064
 8440SOL    HW226220   0.197   1.012   2.123
 8441SOL     OW26221   5.757   6.223   6.590
 8441SOL    HW126222   5.799   6.177   6.668
 8441SOL    HW226223   5.665   6.186   6.575
 8442SOL     OW26224   3.323   3.531   6.852
 8442SOL    HW126225   3.358   3.501   6.941
 8442SOL    HW226226   3.321   3.631   6.850
 8443SOL     OW26227   0.909   0.458   3.177
 8443SOL    HW126228   0.883   0.552   3.155
 8443SOL    HW226229   0.868   0.395   3.111
 8444SOL     OW26230   3.722   6.366   3.712
 8444SOL    HW126231   3.730   6.354   3.613
 8444SOL    HW226232   3.631   6.338   3.743
 8445SOL     OW26233   3.406   4.968   2.625
 8445SOL    HW126234   3.330   4.903   2.638
 8445SOL    HW226235   3.391   5.048   2.683
 8446SOL     OW26236   5.203   6.140   2.811
 8446SOL    HW126237   5.303   6.143   2.808
 8446SOL    HW226238   5.174   6.101   2.899
 8447SOL     OW26239   5.231   2.263   2.151
 8447SOL    HW126240   5.241   2.307   2.061
 8447SOL    HW226241   5.249   2.330   2.223
 8448SOL     OW26242   0.108   3.618   6.155
 8448SOL    HW126243   0.079   3.673   6.234
 8448SOL    HW226244   0.062   3.652   6.073
 8449SOL     OW26245   0.485   3.574   4.813
 8449SOL    HW126246   0.571   3.601   4.770
 8449SOL    HW226247   0.500   3.495   4.872
 8450SOL     OW26248   1.619   6.328   2.957
 8450SOL    HW126249   1.670   6.414   2.952
 8450SOL    HW226250   1.521   6.347   2.949
 8451SOL     OW26251   3.904   2.731   0.520
 8451SOL    HW126252   3.961   2.786   0.580
 8451SOL    HW226253   3.873   2.787   0.443
 8452SOL     OW26254   6.904   7.015   1.554
 8452SOL    HW126255   6.847   0.055   1.601
 8452SOL    HW226256   6.875   7.007   1.459
 8453SOL     OW26257   0.293   4.619   6.185
 8453SOL    HW126258   0.385   4.648   6.156
 8453SOL    HW226259   0.254   4.688   6.245
 8454SOL     OW26260   1.551   6.601   2.413
 8454SOL    HW126261   1.511   6.670   2.353
 8454SOL    HW226262   1.498   6.516   2.407
 8455SOL     OW26263   5.045   1.526   1.111
 8455SOL    HW126264   5.076   1.619   1.092
 8455SOL    HW226265   4.959   1.529   1.162
 8456SOL     OW26266   5.809   5.875   3.942
 8456SOL    HW126267   5.763   5.900   4.027
 8456SOL    HW226268   5.901   5.914   3.941
 8457SOL     OW26269   6.642   6.978   5.619
 8457SOL    HW126270   6.676   0.036   5.660
 8457SOL    HW226271   6.652   6.983   5.519
 8458SOL     OW26272   1.773   1.140   7.002
 8458SOL    HW126273   1.860   1.147   6.953
 8458SOL    HW226274   1.767   1.213   0.043
 8459SOL     OW26275   3.705   6.556   2.209
 8459SOL    HW126276   3.657   6.640   2.184
 8459SOL    HW226277   3.803   6.575   2.221
 8460SOL     OW26278   4.318   2.983   6.972
 8460SOL    HW126279   4.227   3.011   7.002
 8460SOL    HW226280   4.329   2.885   6.988
 8461SOL     OW26281   0.808   3.643   1.521
 8461SOL    HW126282   0.769   3.708   1.457
 8461SOL    HW226283   0.745   3.566   1.534
 8462SOL     OW26284   4.200   3.312   0.587
 8462SOL    HW126285   4.100   3.302   0.585
 8462SOL    HW226286   4.235   3.304   0.494
 8463SOL     OW26287   6.397   2.549   0.648
 8463SOL    HW126288   6.372   2.487   0.574
 8463SOL    HW226289   6.337   2.629   0.647
 8464SOL     OW26290   6.932   3.745   6.003
 8464SOL    HW126291   6.841   3.771   6.037
 8464SOL    HW226292   6.922   3.682   5.926
 8465SOL     OW26293   2.894   2.573   1.130
 8465SOL    HW126294   2.897   2.672   1.134
 8465SOL    HW226295   2.810   2.540   1.174
 8466SOL     OW26296   5.926   0.533   5.390
 8466SOL    HW126297   5.991   0.525   5.466
 8466SOL    HW226298   5.975   0.527   5.303
 8467SOL     OW26299   3.875   0.509   0.639
 8467SOL    HW126300   3.925   0.582   0.594
 8467SOL    HW226301   3.897   0.508   0.736
 8468SOL     OW26302   6.129   3.633   6.436
 8468SOL    HW126303   6.088   3.578   6.364
 8468SOL    HW226304   6.111   3.591   6.525
 8469SOL     OW26305   3.632   2.687   6.479
 8469SOL    HW126306   3.556   2.625   6.460
 8469SOL    HW226307   3.709   2.665   6.420
 8470SOL     OW26308   1.122   4.895   0.677
 8470SOL    HW126309   1.041   4.882   0.620
 8470SOL    HW226310   1.176   4.810   0.677
 8471SOL     OW26311   3.824   0.417   5.208
 8471SOL    HW126312   3.729   0.387   5.197
 8471SOL    HW226313   3.830   0.479   5.286
 8472SOL     OW26314   6.014   1.771   5.464
 8472SOL    HW126315   6.019   1.677   5.497
 8472SOL    HW226316   6.057   1.832   5.531
 8473SOL     OW26317   4.060   4.515   0.155
 8473SOL    HW126318   4.003   4.434   0.166
 8473SOL    HW226319   4.152   4.488   0.126
 8474SOL     OW26320   2.972   3.808   2.889
 8474SOL    HW126321   2.893   3.866   2.872
 8474SOL    HW226322   2.942   3.718   2.921
 8475SOL     OW26323   0.414   3.433   1.386
 8475SOL    HW126324   0.346   3.497   1.422
 8475SOL    HW226325   0.378   3.340   1.390
 8476SOL     OW26326   6.614   0.842   1.075
 8476SOL    HW126327   6.640   0.879   1.164
 8476SOL    HW226328   6.582   0.917   1.017
 8477SOL     OW26329   5.327   5.945   1.863
 8477SOL    HW126330   5.408   5.993   1.898
 8477SOL    HW226331   5.349   5.904   1.774
 8478SOL     OW26332   1.008   0.986   5.858
 8478SOL    HW126333   0.913   0.972   5.831
 8478SOL    HW226334   1.051   1.049   5.794
 8479SOL     OW26335   1.663   2.599   1.347
 8479SOL    HW126336   1.571   2.600   1.385
 8479SOL    HW226337   1.701   2.506   1.354
 8480SOL     OW26338   5.093   2.777   6.512
 8480SOL    HW126339   5.113   2.703   6.577
 8480SOL    HW226340   5.002   2.814   6.532
 8481SOL     OW26341   3.959   2.143   4.703
 8481SOL    HW126342   4.008   2.075   4.758
 8481SOL    HW226343   4.000   2.233   4.716
 8482SOL     OW26344   4.547   0.848   0.375
 8482SOL    HW126345   4.554   0.936   0.423
 8482SOL    HW226346   4.609   0.848   0.297
 8483SOL     OW26347   3.224   6.289   3.649
 8483SOL    HW126348   3.132   6.249   3.646
 8483SOL    HW226349   3.218   6.387   3.628
 8484SOL     OW26350   6.543   5.968   4.863
 8484SOL    HW126351   6.527   6.012   4.951
 8484SOL    HW226352   6.474   6.000   4.797
 8485SOL     OW26353   4.378   2.344   6.852
 8485SOL    HW126354   4.346   2.434   6.823
 8485SOL    HW226355   4.372   2.337   6.951
 8486SOL     OW26356   1.951   1.259   2.738
 8486SOL    HW126357   2.006   1.245   2.656
 8486SOL    HW226358   1.857   1.232   2.720
 8487SOL     OW26359   5.052   1.568   6.161
 8487SOL    HW126360   5.114   1.507   6.111
 8487SOL    HW226361   5.039   1.652   6.108
 8488SOL     OW26362   5.569   5.414   3.217
 8488SOL    HW126363   5.477   5.380   3.196
 8488SOL    HW226364   5.563   5.508   3.250
 8489SOL     OW26365   6.222   0.335   1.734
 8489SOL    HW126366   6.140   0.317   1.679
 8489SOL    HW226367   6.233   0.434   1.747
 8490SOL     OW26368   3.513   6.801   5.480
 8490SOL    HW126369   3.536   6.763   5.570
 8490SOL    HW226370   3.588   6.782   5.417
 8491SOL     OW26371   2.163   5.782   2.840
 8491SOL    HW126372   2.083   5.842   2.845
 8491SOL    HW226373   2.229   5.820   2.774
 8492SOL     OW26374   5.954   4.628   3.656
 8492SOL    HW126375   5.918   4.719   3.636
 8492SOL    HW226376   5.987   4.586   3.572
 8493SOL     OW26377   2.583   1.290   0.156
 8493SOL    HW126378   2.536   1.347   0.222
 8493SOL    HW226379   2.582   1.195   0.186
 8494SOL     OW26380   5.197   4.694   2.021
 8494SOL    HW126381   5.120   4.756   2.010
 8494SOL    HW226382   5.164   4.600   2.028
 8495SOL     OW26383   0.070   5.641   0.483
 8495SOL    HW126384   0.165   5.662   0.506
 8495SOL    HW226385   0.019   5.726   0.470
 8496SOL     OW26386   5.247   1.246   2.325
 8496SOL    HW126387   5.282   1.323   2.272
 8496SOL    HW226388   5.176   1.199   2.273
 8497SOL     OW26389   0.738   0.173   3.761
 8497SOL    HW126390   0.657   0.136   3.807
 8497SOL    HW226391   0.788   0.098   3.717
 8498SOL     OW26392   5.841   0.282   3.292
 8498SOL    HW126393   5.919   0.240   3.338
 8498SOL    HW226394   5.799   0.216   3.229
 8499SOL     OW26395   0.673   5.374   0.464
 8499SOL    HW126396   0.590   5.351   0.414
 8499SOL    HW226397   0.753   5.339   0.415
 8500SOL     OW26398   1.821   6.900   6.068
 8500SOL    HW126399   1.782   6.809   6.052
 8500SOL    HW226400   1.904   6.891   6.123
 8501SOL     OW26401   0.672   2.207   0.130
 8501SOL    HW126402   0.735   2.195   0.053
 8501SOL    HW226403   0.614   2.286   0.114
 8502SOL     OW26404   0.695   2.448   0.524
 8502SOL    HW126405   0.602   2.420   0.502
 8502SOL    HW226406   0.707   2.544   0.500
 8503SOL     OW26407   6.609   5.364   5.032
 8503SOL    HW126408   6.545   5.345   4.957
 8503SOL    HW226409   6.568   5.430   5.095
 8504SOL     OW26410   1.817   5.430   2.469
 8504SOL    HW126411   1.843   5.428   2.372
 8504SOL    HW226412   1.830   5.523   2.504
 8505SOL     OW26413   5.371   3.736   2.247
 8505SOL    HW126414   5.385   3.660   2.311
 8505SOL    HW226415   5.446   3.802   2.257
 8506SOL     OW26416   1.662   1.369   6.863
 8506SOL    HW126417   1.719   1.395   6.941
 8506SOL    HW226418   1.708   1.298   6.809
 8507SOL     OW26419   4.669   0.563   4.372
 8507SOL    HW126420   4.635   0.490   4.312
 8507SOL    HW226421   4.620   0.559   4.459
 8508SOL     OW26422   4.129   1.833   5.842
 8508SOL    HW126423   4.043   1.818   5.891
 8508SOL    HW226424   4.150   1.753   5.786
 8509SOL     OW26425   5.271   6.674   3.834
 8509SOL    HW126426   5.341   6.687   3.764
 8509SOL    HW226427   5.292   6.592   3.887
 8510SOL     OW26428   5.234   2.816   3.538
 8510SOL    HW126429   5.269   2.907   3.561
 8510SOL    HW226430   5.136   2.822   3.518
 8511SOL     OW26431   6.255   3.467   2.181
 8511SOL    HW126432   6.334   3.528   2.176
 8511SOL    HW226433   6.188   3.503   2.245
 8512SOL     OW26434   2.111   0.084   2.798
 8512SOL    HW126435   2.090   0.006   2.857
 8512SOL    HW226436   2.177   0.144   2.845
 8513SOL     OW26437   6.621   6.363   0.057
 8513SOL    HW126438   6.717   6.383   0.078
 8513SOL    HW226439   6.600   6.269   0.081
 8514SOL     OW26440   3.467   6.334   3.056
 8514SOL    HW126441   3.471   6.424   3.013
 8514SOL    HW226442   3.373   6.299   3.051
 8515SOL     OW26443   5.229   2.729   1.119
 8515SOL    HW126444   5.327   2.706   1.115
 8515SOL    HW226445   5.212   2.781   1.203
 8516SOL     OW26446   6.499   1.609   2.806
 8516SOL    HW126447   6.586   1.650   2.831
 8516SOL    HW226448   6.426   1.650   2.860
 8517SOL     OW26449   0.686   2.207   6.739
 8517SOL    HW126450   0.699   2.135   6.806
 8517SOL    HW226451   0.678   2.167   6.647
 8518SOL     OW26452   4.323   4.993   0.736
 8518SOL    HW126453   4.369   4.904   0.739
 8518SOL    HW226454   4.288   5.010   0.644
 8519SOL     OW26455   1.993   5.643   2.145
 8519SOL    HW126456   1.965   5.678   2.235
 8519SOL    HW226457   1.980   5.715   2.076
 8520SOL     OW26458   3.813   1.014   0.870
 8520SOL    HW126459   3.742   0.950   0.897
 8520SOL    HW226460   3.875   1.030   0.947
 8521SOL     OW26461   0.803   6.106   6.438
 8521SOL    HW126462   0.810   6.190   6.385
 8521SOL    HW226463   0.890   6.090   6.486
 8522SOL     OW26464   1.393   6.573   2.691
 8522SOL    HW126465   1.349   6.596   2.778
 8522SOL    HW226466   1.398   6.474   2.681
 8523SOL     OW26467   2.403   0.063   5.654
 8523SOL    HW126468   2.357   7.007   5.622
 8523SOL    HW226469   2.480   0.084   5.594
 8524SOL     OW26470   1.520   3.376   4.514
 8524SOL    HW126471   1.556   3.450   4.571
 8524SOL    HW226472   1.592   3.309   4.497
 8525SOL     OW26473   6.016   3.176   2.900
 8525SOL    HW126474   6.026   3.105   2.970
 8525SOL    HW226475   6.101   3.183   2.848
 8526SOL     OW26476   2.645   2.794   1.647
 8526SOL    HW126477   2.661   2.880   1.697
 8526SOL    HW226478   2.653   2.811   1.549
 8527SOL     OW26479   4.466   0.808   4.283
 8527SOL    HW126480   4.375   0.789   4.247
 8527SOL    HW226481   4.534   0.792   4.212
 8528SOL     OW26482   4.880   3.614   6.400
 8528SOL    HW126483   4.911   3.522   6.427
 8528SOL    HW226484   4.910   3.633   6.307
 8529SOL     OW26485   1.855   5.838   7.024
 8529SOL    HW126486   1.789   5.911   7.012
 8529SOL    HW226487   1.947   5.873   7.007
 8530SOL     OW26488   1.757   4.945   5.228
 8530SOL    HW126489   1.690   4.873   5.210
 8530SOL    HW226490   1.808   4.923   5.311
 8531SOL     OW26491   5.457   3.884   2.948
 8531SOL    HW126492   5.363   3.851   2.949
 8531SOL    HW226493   5.512   3.826   2.888
 8532SOL     OW26494   4.018   4.920   5.101
 8532SOL    HW126495   4.017   4.932   5.002
 8532SOL    HW226496   4.086   4.851   5.126
 8533SOL     OW26497   2.237   0.976   4.820
 8533SOL    HW126498   2.323   1.022   4.844
 8533SOL    HW226499   2.235   0.886   4.863
 8534SOL     OW26500   0.917   3.701   2.638
 8534SOL    HW126501   1.011   3.672   2.622
 8534SOL    HW226502   0.903   3.793   2.602
 8535SOL     OW26503   0.910   2.363   4.568
 8535SOL    HW126504   0.825   2.345   4.517
 8535SOL    HW226505   0.937   2.458   4.555
 8536SOL     OW26506   6.586   2.560   5.234
 8536SOL    HW126507   6.542   2.516   5.156
 8536SOL    HW226508   6.583   2.499   5.313
 8537SOL     OW26509   5.976   0.664   0.644
 8537SOL    HW126510   6.065   0.682   0.686
 8537SOL    HW226511   5.981   0.681   0.546
 8538SOL     OW26512   6.995   0.390   4.913
 8538SOL    HW126513   6.987   0.303   4.864
 8538SOL    HW226514   0.061   0.398   4.949
 8539SOL     OW26515   6.771   2.206   2.130
 8539SOL    HW126516   6.855   2.152   2.132
 8539SOL    HW226517   6.793   2.303   2.119
 8540SOL     OW26518   2.672   1.096   0.518
 8540SOL    HW126519   2.576   1.073   0.529
 8540SOL    HW226520   2.725   1.057   0.594
 8541SOL     OW26521   2.960   1.437   5.006
 8541SOL    HW126522   2.940   1.352   5.054
 8541SOL    HW226523   3.042   1.426   4.950
 8542SOL     OW26524   2.684   4.441   6.664
 8542SOL    HW126525   2.669   4.344   6.682
 8542SOL    HW226526   2.622   4.495   6.721
 8543SOL     OW26527   2.977   2.038   5.562
 8543SOL    HW126528   2.948   2.120   5.512
 8543SOL    HW226529   3.064   2.057   5.609
 8544SOL     OW26530   4.765   3.907   5.281
 8544SOL    HW126531   4.684   3.864   5.321
 8544SOL    HW226532   4.776   3.999   5.319
 8545SOL     OW26533   3.606   6.850   4.803
 8545SOL    HW126534   3.669   6.778   4.773
 8545SOL    HW226535   3.546   6.813   4.875
 8546SOL     OW26536   5.954   0.283   1.612
 8546SOL    HW126537   5.891   0.282   1.690
 8546SOL    HW226538   5.964   0.190   1.577
 8547SOL     OW26539   0.029   6.889   5.913
 8547SOL    HW126540   7.005   6.965   5.953
 8547SOL    HW226541   0.083   6.843   5.985
 8548SOL     OW26542   0.386   2.766   6.175
 8548SOL    HW126543   0.452   2.832   6.141
 8548SOL    HW226544   0.391   2.762   6.275
 8549SOL     OW26545   1.453   1.011   3.670
 8549SOL    HW126546   1.401   1.000   3.754
 8549SOL    HW226547   1.551   1.003   3.689
 8550SOL     OW26548   0.720   4.457   6.783
 8550SOL    HW126549   0.698   4.548   6.817
 8550SOL    HW226550   0.637   4.414   6.746
 8551SOL     OW26551   1.840   2.337   6.594
 8551SOL    HW126552   1.755   2.298   6.560
 8551SOL    HW226553   1.891   2.267   6.644
 8552SOL     OW26554   3.058   1.016   2.297
 8552SOL    HW126555   3.039   1.113   2.313
 8552SOL    HW226556   3.085   0.973   2.383
 8553SOL     OW26557   4.408   2.715   0.756
 8553SOL    HW126558   4.397   2.774   0.835
 8553SOL    HW226559   4.318   2.689   0.721
 8554SOL     OW26560   0.978   6.883   1.022
 8554SOL    HW126561   0.930   6.806   1.063
 8554SOL    HW226562   1.063   6.852   0.980
 8555SOL     OW26563   4.352   1.566   3.920
 8555SOL    HW126564   4.353   1.625   4.001
 8555SOL    HW226565   4.445   1.534   3.901
 8556SOL     OW26566   2.028   6.369   6.240
 8556SOL    HW126567   2.083   6.447   6.272
 8556SOL    HW226568   2.019   6.373   6.141
 8557SOL     OW26569   6.661   0.965   0.335
 8557SOL    HW126570   6.639   1.021   0.414
 8557SOL    HW226571   6.595   0.982   0.262
 8558SOL     OW26572   2.611   5.330   3.112
 8558SOL    HW126573   2.554   5.323   3.031
 8558SOL    HW226574   2.555   5.355   3.191
 8559SOL     OW26575   0.905   5.331   1.860
 8559SOL    HW126576   0.986   5.321   1.918
 8559SOL    HW226577   0.824   5.299   1.910
 8560SOL     OW26578   2.283   4.992   1.472
 8560SOL    HW126579   2.203   4.964   1.524
 8560SOL    HW226580   2.359   5.008   1.535
 8561SOL     OW26581   3.328   0.533   2.880
 8561SOL    HW126582   3.253   0.503   2.821
 8561SOL    HW226583   3.377   0.453   2.916
 8562SOL     OW26584   3.643   1.086   0.284
 8562SOL    HW126585   3.589   1.170   0.292
 8562SOL    HW226586   3.589   1.016   0.238
 8563SOL     OW26587   1.608   5.499   2.727
 8563SOL    HW126588   1.661   5.488   2.642
 8563SOL    HW226589   1.513   5.473   2.710
 8564SOL     OW26590   3.435   6.498   0.126
 8564SOL    HW126591   3.529   6.515   0.097
 8564SOL    HW226592   3.421   6.400   0.140
 8565SOL     OW26593   3.871   5.612   1.387
 8565SOL    HW126594   3.918   5.532   1.348
 8565SOL    HW226595   3.790   5.581   1.438
 8566SOL     OW26596   2.911   1.117   2.761
 8566SOL    HW126597   2.854   1.176   2.705
 8566SOL    HW226598   2.906   1.023   2.728
 8567SOL     OW26599   1.244   2.035   1.410
 8567SOL    HW126600   1.234   2.132   1.386
 8567SOL    HW226601   1.335   2.020   1.448
 8568SOL     OW26602   0.154   1.272   0.590
 8568SOL    HW126603   0.147   1.277   0.689
 8568SOL    HW226604   0.069   1.302   0.548
 8569SOL     OW26605   5.479   2.686   6.069
 8569SOL    HW126606   5.412   2.746   6.025
 8569SOL    HW226607   5.471   2.695   6.168
 8570SOL     OW26608   1.342   2.134   5.255
 8570SOL    HW126609   1.287   2.217   5.259
 8570SOL    HW226610   1.438   2.156   5.274
 8571SOL     OW26611   1.455   1.025   4.406
 8571SOL    HW126612   1.475   1.002   4.311
 8571SOL    HW226613   1.526   1.085   4.441
 8572SOL     OW26614   3.296   3.979   5.747
 8572SOL    HW126615   3.326   3.893   5.788
 8572SOL    HW226616   3.261   3.962   5.655
 8573SOL     OW26617   2.993   5.872   0.793
 8573SOL    HW126618   3.047   5.909   0.869
 8573SOL    HW226619   3.044   5.797   0.750
 8574SOL     OW26620   0.177   6.701   6.071
 8574SOL    HW126621   0.204   6.729   6.164
 8574SOL    HW226622   0.150   6.605   6.072
 8575SOL     OW26623   3.687   0.281   2.707
 8575SOL    HW126624   3.706   0.313   2.800
 8575SOL    HW226625   3.601   0.321   2.675
 8576SOL     OW26626   0.977   3.949   4.192
 8576SOL    HW126627   1.054   3.902   4.237
 8576SOL    HW226628   0.891   3.908   4.223
 8577SOL     OW26629   1.898   0.958   6.012
 8577SOL    HW126630   1.915   0.869   5.970
 8577SOL    HW226631   1.947   0.964   6.099
 8578SOL     OW26632   6.114   6.194   5.142
 8578SOL    HW126633   6.101   6.095   5.144
 8578SOL    HW226634   6.183   6.220   5.209
 8579SOL     OW26635   2.600   6.293   2.475
 8579SOL    HW126636   2.662   6.354   2.524
 8579SOL    HW226637   2.610   6.308   2.377
 8580SOL     OW26638   1.322   6.245   1.566
 8580SOL    HW126639   1.369   6.333   1.561
 8580SOL    HW226640   1.389   6.171   1.554
 8581SOL     OW26641   3.710   4.929   1.336
 8581SOL    HW126642   3.805   4.904   1.318
 8581SOL    HW226643   3.706   5.024   1.367
 8582SOL     OW26644   4.089   4.579   5.532
 8582SOL    HW126645   4.101   4.671   5.568
 8582SOL    HW226646   4.119   4.512   5.601
 8583SOL     OW26647   4.036   0.981   3.175
 8583SOL    HW126648   4.103   0.908   3.187
 8583SOL    HW226649   3.945   0.941   3.166
 8584SOL     OW26650   6.177   1.428   4.749
 8584SOL    HW126651   6.218   1.338   4.737
 8584SOL    HW226652   6.223   1.477   4.822
 8585SOL     OW26653   5.858   2.053   1.280
 8585SOL    HW126654   5.790   2.099   1.337
 8585SOL    HW226655   5.810   1.999   1.210
 8586SOL     OW26656   5.794   6.213   1.198
 8586SOL    HW126657   5.764   6.150   1.127
 8586SOL    HW226658   5.749   6.190   1.285
 8587SOL     OW26659   0.915   1.609   5.237
 8587SOL    HW126660   0.830   1.645   5.275
 8587SOL    HW226661   0.969   1.685   5.200
 8588SOL     OW26662   3.784   1.617   0.010
 8588SOL    HW126663   3.745   1.698   6.993
 8588SOL    HW226664   3.752   1.611   0.104
 8589SOL     OW26665   6.996   3.098   5.202
 8589SOL    HW126666   0.042   3.103   5.270
 8589SOL    HW226667   7.013   3.164   5.130
 8590SOL     OW26668   6.605   1.101   2.890
 8590SOL    HW126669   6.628   1.192   2.923
 8590SOL    HW226670   6.684   1.040   2.902
 8591SOL     OW26671   6.464   4.923   0.343
 8591SOL    HW126672   6.428   5.013   0.319
 8591SOL    HW226673   6.529   4.932   0.418
 8592SOL     OW26674   0.783   2.401   6.897
 8592SOL    HW126675   0.878   2.379   6.871
 8592SOL    HW226676   0.721   2.334   6.856
 8593SOL     OW26677   3.082   0.939   6.700
 8593SOL    HW126678   3.045   0.922   6.791
 8593SOL    HW226679   3.182   0.933   6.703
 8594SOL     OW26680   6.164   2.685   6.301
 8594SOL    HW126681   6.236   2.661   6.366
 8594SOL    HW226682   6.086   2.624   6.313
 8595SOL     OW26683   5.507   0.213   2.903
 8595SOL    HW126684   5.509   0.170   2.993
 8595SOL    HW226685   5.471   0.305   2.911
 8596SOL     OW26686   1.042   3.287   3.445
 8596SOL    HW126687   0.963   3.252   3.494
 8596SOL    HW226688   1.125   3.268   3.498
 8597SOL     OW26689   6.679   2.944   0.983
 8597SOL    HW126690   6.664   3.010   1.056
 8597SOL    HW226691   6.713   2.858   1.023
 8598SOL     OW26692   5.660   0.794   4.907
 8598SOL    HW126693   5.720   0.727   4.949
 8598SOL    HW226694   5.658   0.877   4.963
 8599SOL     OW26695   1.416   3.368   3.343
 8599SOL    HW126696   1.386   3.273   3.352
 8599SOL    HW226697   1.342   3.424   3.306
 8600SOL     OW26698   4.716   3.861   1.099
 8600SOL    HW126699   4.670   3.772   1.088
 8600SOL    HW226700   4.761   3.864   1.188
 8601SOL     OW26701   0.709   1.519   3.901
 8601SOL    HW126702   0.681   1.424   3.915
 8601SOL    HW226703   0.632   1.571   3.864
 8602SOL     OW26704   2.675   6.815   3.429
 8602SOL    HW126705   2.668   6.878   3.507
 8602SOL    HW226706   2.585   6.775   3.411
 8603SOL     OW26707   6.011   0.995   0.100
 8603SOL    HW126708   6.039   0.941   0.021
 8603SOL    HW226709   5.948   1.068   0.070
 8604SOL     OW26710   0.400   3.453   6.532
 8604SOL    HW126711   0.355   3.518   6.593
 8604SOL    HW226712   0.352   3.451   6.444
 8605SOL     OW26713   0.330   4.605   4.340
 8605SOL    HW126714   0.296   4.517   4.307
 8605SOL    HW226715   0.427   4.596   4.364
 8606SOL     OW26716   2.679   2.078   6.448
 8606SOL    HW126717   2.635   2.065   6.537
 8606SOL    HW226718   2.639   2.158   6.402
 8607SOL     OW26719   2.080   4.877   1.053
 8607SOL    HW126720   2.149   4.852   0.985
 8607SOL    HW226721   2.109   4.960   1.101
 8608SOL     OW26722   2.539   4.555   2.647
 8608SOL    HW126723   2.573   4.568   2.555
 8608SOL    HW226724   2.587   4.616   2.710
 8609SOL     OW26725   4.844   1.187   3.631
 8609SOL    HW126726   4.834   1.275   3.677
 8609SOL    HW226727   4.908   1.197   3.554
 8610SOL     OW26728   6.879   6.937   3.014
 8610SOL    HW126729   6.920   6.889   3.091
 8610SOL    HW226730   6.779   6.941   3.026
 8611SOL     OW26731   3.177   1.289   3.613
 8611SOL    HW126732   3.208   1.369   3.665
 8611SOL    HW226733   3.254   1.226   3.600
 8612SOL     OW26734   2.937   3.272   2.745
 8612SOL    HW126735   2.880   3.278   2.662
 8612SOL    HW226736   3.033   3.260   2.719
 8613SOL     OW26737   3.019   2.733   1.484
 8613SOL    HW126738   3.046   2.715   1.579
 8613SOL    HW226739   3.042   2.655   1.427
 8614SOL     OW26740   1.323   2.527   1.842
 8614SOL    HW126741   1.383   2.600   1.810
 8614SOL    HW226742   1.252   2.510   1.773
 8615SOL     OW26743   5.058   2.180   4.564
 8615SOL    HW126744   5.082   2.094   4.607
 8615SOL    HW226745   5.048   2.166   4.465
 8616SOL     OW26746   3.421   5.210   2.470
 8616SOL    HW126747   3.322   5.199   2.469
 8616SOL    HW226748   3.465   5.120   2.471
 8617SOL     OW26749   5.876   6.967   3.955
 8617SOL    HW126750   5.810   7.020   3.902
 8617SOL    HW226751   5.839   6.948   4.046
 8618SOL     OW26752   6.576   3.952   0.949
 8618SOL    HW126753   6.571   3.857   0.981
 8618SOL    HW226754   6.671   3.975   0.928
 8619SOL     OW26755   4.983   4.895   2.009
 8619SOL    HW126756   4.954   4.914   2.103
 8619SOL    HW226757   4.904   4.901   1.948
 8620SOL     OW26758   2.270   0.396   4.568
 8620SOL    HW126759   2.326   0.465   4.614
 8620SOL    HW226760   2.233   0.434   4.483
 8621SOL     OW26761   4.847   2.859   2.248
 8621SOL    HW126762   4.803   2.872   2.337
 8621SOL    HW226763   4.798   2.912   2.179
 8622SOL     OW26764   6.290   5.274   2.377
 8622SOL    HW126765   6.317   5.179   2.394
 8622SOL    HW226766   6.369   5.334   2.390
 8623SOL     OW26767   6.880   3.268   4.647
 8623SOL    HW126768   6.819   3.298   4.720
 8623SOL    HW226769   6.912   3.349   4.596
 8624SOL     OW26770   3.154   3.566   5.812
 8624SOL    HW126771   3.185   3.499   5.879
 8624SOL    HW226772   3.211   3.561   5.730
 8625SOL     OW26773   3.852   1.242   5.180
 8625SOL    HW126774   3.764   1.281   5.209
 8625SOL    HW226775   3.844   1.213   5.084
 8626SOL     OW26776   4.392   2.589   0.443
 8626SOL    HW126777   4.458   2.619   0.375
 8626SOL    HW226778   4.395   2.489   0.451
 8627SOL     OW26779   1.861   1.613   2.418
 8627SOL    HW126780   1.943   1.644   2.464
 8627SOL    HW226781   1.780   1.648   2.465
 8628SOL     OW26782   6.818   6.834   0.032
 8628SOL    HW126783   6.906   6.879   0.052
 8628SOL    HW226784   6.835   6.744   7.019
 8629SOL     OW26785   0.878   0.227   4.689
 8629SOL    HW126786   0.873   0.316   4.735
 8629SOL    HW226787   0.967   0.186   4.707
 8630SOL     OW26788   4.964   3.476   3.500
 8630SOL    HW126789   4.922   3.510   3.416
 8630SOL    HW226790   5.057   3.444   3.481
 8631SOL     OW26791   2.479   5.640   0.293
 8631SOL    HW126792   2.392   5.593   0.276
 8631SOL    HW226793   2.535   5.585   0.356
 8632SOL     OW26794   4.055   4.412   5.308
 8632SOL    HW126795   4.070   4.494   5.362
 8632SOL    HW226796   4.124   4.408   5.235
 8633SOL     OW26797   5.516   4.044   5.700
 8633SOL    HW126798   5.549   3.949   5.693
 8633SOL    HW226799   5.482   4.060   5.792
 8634SOL     OW26800   5.325   4.953   0.424
 8634SOL    HW126801   5.359   4.860   0.437
 8634SOL    HW226802   5.295   4.991   0.512
 8635SOL     OW26803   5.955   2.978   6.989
 8635SOL    HW126804   6.052   2.962   7.007
 8635SOL    HW226805   5.915   2.898   6.945
 8636SOL     OW26806   4.125   6.146   0.475
 8636SOL    HW126807   4.195   6.102   0.419
 8636SOL    HW226808   4.167   6.217   0.531
 8637SOL     OW26809   1.791   1.364   6.491
 8637SOL    HW126810   1.834   1.336   6.577
 8637SOL    HW226811   1.748   1.285   6.448
 8638SOL     OW26812   4.203   2.924   5.408
 8638SOL    HW126813   4.110   2.953   5.385
 8638SOL    HW226814   4.261   3.004   5.425
 8639SOL     OW26815   5.226   3.492   0.044
 8639SOL    HW126816   5.196   3.527   0.133
 8639SOL    HW226817   5.164   3.527   7.000
 8640SOL     OW26818   3.618   2.994   1.166
 8640SOL    HW126819   3.686   3.064   1.188
 8640SOL    HW226820   3.533   3.039   1.137
 8641SOL     OW26821   4.296   5.815   3.302
 8641SOL    HW126822   4.248   5.865   3.373
 8641SOL    HW226823   4.328   5.727   3.339
 8642SOL     OW26824   1.051   6.606   3.503
 8642SOL    HW126825   0.995   6.595   3.421
 8642SOL    HW226826   1.114   6.529   3.510
 8643SOL     OW26827   2.734   6.947   0.619
 8643SOL    HW126828   2.639   6.974   0.632
 8643SOL    HW226829   2.738   6.857   0.575
 8644SOL     OW26830   5.955   2.022   6.314
 8644SOL    HW126831   5.863   1.995   6.283
 8644SOL    HW226832   5.981   1.965   6.392
 8645SOL     OW26833   5.601   4.749   1.489
 8645SOL    HW126834   5.509   4.709   1.490
 8645SOL    HW226835   5.596   4.846   1.513
 8646SOL     OW26836   7.018   2.401   6.002
 8646SOL    HW126837   6.948   2.465   6.034
 8646SOL    HW226838   6.983   2.350   5.924
 8647SOL     OW26839   3.243   5.303   1.108
 8647SOL    HW126840   3.243   5.245   1.189
 8647SOL    HW226841   3.246   5.399   1.135
 8648SOL     OW26842   5.477   6.826   0.996
 8648SOL    HW126843   5.513   6.885   0.924
 8648SOL    HW226844   5.407   6.875   1.049
 8649SOL     OW26845   4.502   6.468   6.801
 8649SOL    HW126846   4.464   6.399   6.740
 8649SOL    HW226847   4.429   6.528   6.833
 8650SOL     OW26848   1.902   0.125   4.136
 8650SOL    HW126849   1.936   0.184   4.209
 8650SOL    HW226850   1.849   0.179   4.071
 8651SOL     OW26851   2.733   1.553   0.941
 8651SOL    HW126852   2.731   1.455   0.957
 8651SOL    HW226853   2.642   1.585   0.917
 8652SOL     OW26854   0.709   5.049   4.112
 8652SOL    HW126855   0.680   5.086   4.024
 8652SOL    HW226856   0.763   4.966   4.098
 8653SOL     OW26857   6.548   1.613   5.852
 8653SOL    HW126858   6.602   1.694   5.830
 8653SOL    HW226859   6.520   1.617   5.948
 8654SOL     OW26860   0.994   4.634   1.898
 8654SOL    HW126861   1.049   4.631   1.982
 8654SOL    HW226862   1.001   4.725   1.857
 8655SOL     OW26863   6.464   1.227   5.292
 8655SOL    HW126864   6.482   1.320   5.325
 8655SOL    HW226865   6.470   1.163   5.369
 8656SOL     OW26866   5.688   6.623   2.037
 8656SOL    HW126867   5.683   6.552   1.966
 8656SOL    HW226868   5.603   6.676   2.037
 8657SOL     OW26869   5.583   6.560   0.626
 8657SOL    HW126870   5.585   6.659   0.641
 8657SOL    HW226871   5.673   6.521   0.643
 8658SOL     OW26872   6.136   5.620   1.158
 8658SOL    HW126873   6.203   5.694   1.163
 8658SOL    HW226874   6.055   5.645   1.211
 8659SOL     OW26875   4.630   2.728   2.823
 8659SOL    HW126876   4.606   2.639   2.786
 8659SOL    HW226877   4.616   2.799   2.754
 8660SOL     OW26878   0.396   2.811   1.665
 8660SOL    HW126879   0.471   2.875   1.683
 8660SOL    HW226880   0.396   2.739   1.734
 8661SOL     OW26881   6.288   3.101   3.496
 8661SOL    HW126882   6.205   3.090   3.551
 8661SOL    HW226883   6.285   3.190   3.449
 8662SOL     OW26884   3.690   5.937   2.231
 8662SOL    HW126885   3.610   5.902   2.182
 8662SOL    HW226886   3.667   6.024   2.274
 8663SOL     OW26887   3.011   5.424   3.182
 8663SOL    HW126888   3.094   5.404   3.130
 8663SOL    HW226889   3.036   5.464   3.270
 8664SOL     OW26890   1.844   5.442   2.864
 8664SOL    HW126891   1.874   5.531   2.898
 8664SOL    HW226892   1.755   5.452   2.819
 8665SOL     OW26893   6.302   5.054   5.848
 8665SOL    HW126894   6.309   5.065   5.749
 8665SOL    HW226895   6.213   5.087   5.879
 8666SOL     OW26896   5.591   0.148   4.192
 8666SOL    HW126897   5.566   0.221   4.129
 8666SOL    HW226898   5.558   0.060   4.156
 8667SOL     OW26899   5.201   1.469   4.702
 8667SOL    HW126900   5.149   1.439   4.782
 8667SOL    HW226901   5.151   1.445   4.619
 8668SOL     OW26902   5.169   2.960   4.729
 8668SOL    HW126903   5.207   2.867   4.721
 8668SOL    HW226904   5.070   2.957   4.715
 8669SOL     OW26905   6.907   6.272   6.295
 8669SOL    HW126906   6.818   6.315   6.283
 8669SOL    HW226907   6.916   6.239   6.389
 8670SOL     OW26908   5.388   4.641   5.922
 8670SOL    HW126909   5.377   4.716   5.857
 8670SOL    HW226910   5.480   4.603   5.915
 8671SOL     OW26911   0.383   1.832   2.338
 8671SOL    HW126912   0.365   1.921   2.297
 8671SOL    HW226913   0.412   1.768   2.267
 8672SOL     OW26914   0.202   0.546   3.866
 8672SOL    HW126915   0.193   0.640   3.898
 8672SOL    HW226916   0.127   0.525   3.803
 8673SOL     OW26917   6.954   1.673   0.217
 8673SOL    HW126918   6.907   1.625   0.142
 8673SOL    HW226919   6.997   1.607   0.277
 8674SOL     OW26920   0.301   4.453   3.372
 8674SOL    HW126921   0.232   4.437   3.302
 8674SOL    HW226922   0.392   4.456   3.330
 8675SOL     OW26923   3.741   1.500   5.758
 8675SOL    HW126924   3.738   1.495   5.658
 8675SOL    HW226925   3.736   1.595   5.787
 8676SOL     OW26926   5.811   0.968   1.573
 8676SOL    HW126927   5.844   1.005   1.487
 8676SOL    HW226928   5.734   1.023   1.606
 8677SOL     OW26929   1.648   6.205   5.608
 8677SOL    HW126930   1.609   6.125   5.652
 8677SOL    HW226931   1.621   6.207   5.512
 8678SOL     OW26932   1.335   6.733   0.560
 8678SOL    HW126933   1.328   6.680   0.645
 8678SOL    HW226934   1.365   6.673   0.486
 8679SOL     OW26935   2.071   1.064   4.063
 8679SOL    HW126936   1.981   1.035   4.029
 8679SOL    HW226937   2.105   0.996   4.128
 8680SOL     OW26938   6.454   2.498   6.345
 8680SOL    HW126939   6.394   2.536   6.416
 8680SOL    HW226940   6.533   2.558   6.333
 8681SOL     OW26941   4.668   5.906   1.477
 8681SOL    HW126942   4.617   5.935   1.396
 8681SOL    HW226943   4.692   5.810   1.469
 8682SOL     OW26944   6.665   0.296   1.201
 8682SOL    HW126945   6.756   0.286   1.161
 8682SOL    HW226946   6.596   0.263   1.137
 8683SOL     OW26947   1.683   3.366   4.924
 8683SOL    HW126948   1.665   3.269   4.940
 8683SOL    HW226949   1.647   3.419   5.001
 8684SOL     OW26950   0.504   3.616   4.215
 8684SOL    HW126951   0.556   3.700   4.196
 8684SOL    HW226952   0.438   3.600   4.142
 8685SOL     OW26953   5.420   2.398   6.230
 8685SOL    HW126954   5.480   2.477   6.244
 8685SOL    HW226955   5.406   2.351   6.317
 8686SOL     OW26956   6.464   6.671   2.885
 8686SOL    HW126957   6.515   6.587   2.866
 8686SOL    HW226958   6.375   6.666   2.839
 8687SOL     OW26959   6.539   3.861   3.187
 8687SOL    HW126960   6.507   3.892   3.276
 8687SOL    HW226961   6.631   3.898   3.170
 8688SOL     OW26962   1.598   3.716   6.580
 8688SOL    HW126963   1.674   3.699   6.642
 8688SOL    HW226964   1.528   3.645   6.592
 8689SOL     OW26965   4.750   3.154   0.635
 8689SOL    HW126966   4.835   3.121   0.594
 8689SOL    HW226967   4.680   3.159   0.565
 8690SOL     OW26968   0.964   2.157   2.850
 8690SOL    HW126969   0.992   2.199   2.763
 8690SOL    HW226970   1.024   2.188   2.923
 8691SOL     OW26971   3.364   1.863   4.681
 8691SOL    HW126972   3.378   1.791   4.749
 8691SOL    HW226973   3.367   1.952   4.725
 8692SOL     OW26974   4.218   2.050   5.692
 8692SOL    HW126975   4.195   1.960   5.728
 8692SOL    HW226976   4.145   2.082   5.632
 8693SOL     OW26977   6.744   1.323   6.617
 8693SOL    HW126978   6.781   1.293   6.705
 8693SOL    HW226979   6.794   1.279   6.542
 8694SOL     OW26980   6.421   2.855   4.397
 8694SOL    HW126981   6.385   2.886   4.485
 8694SOL    HW226982   6.519   2.835   4.406
 8695SOL     OW26983   3.999   3.550   6.640
 8695SOL    HW126984   3.924   3.519   6.580
 8695SOL    HW226985   4.042   3.630   6.599
 8696SOL     OW26986   2.454   5.807   5.373
 8696SOL    HW126987   2.378   5.794   5.437
 8696SOL    HW226988   2.498   5.895   5.393
 8697SOL     OW26989   2.002   4.102   5.787
 8697SOL    HW126990   1.924   4.136   5.735
 8697SOL    HW226991   1.986   4.116   5.885
 8698SOL     OW26992   5.070   5.895   6.186
 8698SOL    HW126993   5.108   5.959   6.119
 8698SOL    HW226994   5.014   5.945   6.253
 8699SOL     OW26995   2.565   3.166   6.138
 8699SOL    HW126996   2.518   3.101   6.078
 8699SOL    HW226997   2.535   3.151   6.232
 8700SOL     OW26998   1.036   0.444   5.285
 8700SOL    HW126999   1.053   0.361   5.231
 8700SOL    HW227000   1.050   0.424   5.382
 8701SOL     OW27001   1.530   1.658   0.121
 8701SOL    HW127002   1.461   1.589   0.098
 8701SOL    HW227003   1.484   1.743   0.147
 8702SOL     OW27004   5.148   5.044   1.508
 8702SOL    HW127005   5.127   4.982   1.432
 8702SOL    HW227006   5.189   5.128   1.471
 8703SOL     OW27007   2.518   4.564   6.862
 8703SOL    HW127008   2.559   4.612   6.941
 8703SOL    HW227009   2.466   4.485   6.895
 8704SOL     OW27010   0.203   2.499   4.250
 8704SOL    HW127011   0.188   2.446   4.167
 8704SOL    HW227012   0.202   2.438   4.329
 8705SOL     OW27013   4.805   2.528   6.705
 8705SOL    HW127014   4.883   2.589   6.689
 8705SOL    HW227015   4.739   2.538   6.631
 8706SOL     OW27016   5.530   2.835   0.083
 8706SOL    HW127017   5.450   2.896   0.083
 8706SOL    HW227018   5.612   2.888   0.103
 8707SOL     OW27019   1.393   1.880   4.301
 8707SOL    HW127020   1.401   1.842   4.209
 8707SOL    HW227021   1.442   1.967   4.305
 8708SOL     OW27022   4.915   2.281   4.064
 8708SOL    HW127023   4.910   2.276   4.163
 8708SOL    HW227024   4.836   2.331   4.029
 8709SOL     OW27025   6.885   0.052   6.849
 8709SOL    HW127026   6.976   0.072   6.887
 8709SOL    HW227027   6.820   0.038   6.924
 8710SOL     OW27028   1.818   1.743   3.857
 8710SOL    HW127029   1.870   1.820   3.819
 8710SOL    HW227030   1.793   1.763   3.952
 8711SOL     OW27031   0.715   1.384   2.080
 8711SOL    HW127032   0.749   1.461   2.133
 8711SOL    HW227033   0.658   1.417   2.005
 8712SOL     OW27034   2.643   2.200   5.376
 8712SOL    HW127035   2.596   2.131   5.431
 8712SOL    HW227036   2.593   2.216   5.291
 8713SOL     OW27037   1.090   3.984   2.167
 8713SOL    HW127038   1.050   3.937   2.089
 8713SOL    HW227039   1.083   3.926   2.248
 8714SOL     OW27040   0.074   6.319   0.258
 8714SOL    HW127041   0.171   6.315   0.281
 8714SOL    HW227042   0.052   6.249   0.190
 8715SOL     OW27043   2.366   1.636   0.118
 8715SOL    HW127044   2.419   1.560   0.080
 8715SOL    HW227045   2.326   1.689   0.043
 8716SOL     OW27046   6.906   6.225   1.628
 8716SOL    HW127047   6.876   6.218   1.533
 8716SOL    HW227048   6.889   6.318   1.662
 8717SOL     OW27049   2.377   3.832   6.223
 8717SOL    HW127050   2.303   3.849   6.158
 8717SOL    HW227051   2.338   3.799   6.309
 8718SOL     OW27052   1.432   3.294   6.235
 8718SOL    HW127053   1.521   3.249   6.224
 8718SOL    HW227054   1.380   3.248   6.308
 8719SOL     OW27055   3.810   1.114   6.994
 8719SOL    HW127056   3.822   1.016   7.007
 8719SOL    HW227057   3.728   1.145   0.016
 8720SOL     OW27058   6.480   4.573   5.243
 8720SOL    HW127059   6.548   4.646   5.236
 8720SOL    HW227060   6.477   4.521   5.158
 8721SOL     OW27061   6.799   6.065   6.489
 8721SOL    HW127062   6.870   6.027   6.430
 8721SOL    HW227063   6.840   6.130   6.553
 8722SOL     OW27064   3.211   0.360   0.658
 8722SOL    HW127065   3.180   0.449   0.692
 8722SOL    HW227066   3.310   0.356   0.662
 8723SOL     OW27067   5.558   6.993   2.267
 8723SOL    HW127068   5.627   6.922   2.250
 8723SOL    HW227069   5.596   0.055   2.244
 8724SOL     OW27070   4.575   0.403   4.163
 8724SOL    HW127071   4.559   0.485   4.108
 8724SOL    HW227072   4.491   0.349   4.168
 8725SOL     OW27073   0.326   6.402   4.961
 8725SOL    HW127074   0.260   6.437   5.027
 8725SOL    HW227075   0.416   6.442   4.979
 8726SOL     OW27076   0.112   1.522   0.325
 8726SOL    HW127077   0.205   1.557   0.316
 8726SOL    HW227078   0.105   1.433   0.280
 8727SOL     OW27079   6.296   6.532   6.422
 8727SOL    HW127080   6.330   6.442   6.450
 8727SOL    HW227081   6.368   6.601   6.436
 8728SOL     OW27082   5.185   1.118   2.872
 8728SOL    HW127083   5.261   1.126   2.807
 8728SOL    HW227084   5.182   1.025   2.909
 8729SOL     OW27085   3.321   5.199   5.439
 8729SOL    HW127086   3.343   5.133   5.367
 8729SOL    HW227087   3.221   5.208   5.446
 8730SOL     OW27088   5.433   4.198   3.427
 8730SOL    HW127089   5.361   4.189   3.358
 8730SOL    HW227090   5.433   4.291   3.463
 8731SOL     OW27091   0.084   2.311   2.889
 8731SOL    HW127092   0.120   2.227   2.848
 8731SOL    HW227093   0.136   2.332   2.971
 8732SOL     OW27094   5.405   4.935   1.269
 8732SOL    HW127095   5.480   4.895   1.218
 8732SOL    HW227096   5.404   5.034   1.256
 8733SOL     OW27097   0.803   5.432   0.795
 8733SOL    HW127098   0.870   5.371   0.753
 8733SOL    HW227099   0.837   5.526   0.789
 8734SOL     OW27100   0.045   3.377   2.369
 8734SOL    HW127101   0.102   3.421   2.438
 8734SOL    HW227102   0.103   3.336   2.298
 8735SOL     OW27103   1.518   3.475   5.226
 8735SOL    HW127104   1.433   3.434   5.194
 8735SOL    HW227105   1.534   3.561   5.177
 8736SOL     OW27106   0.731   5.690   2.012
 8736SOL    HW127107   0.739   5.713   2.109
 8736SOL    HW227108   0.649   5.733   1.974
 8737SOL     OW27109   2.145   5.583   6.558
 8737SOL    HW127110   2.104   5.620   6.474
 8737SOL    HW227111   2.239   5.617   6.566
 8738SOL     OW27112   1.144   3.740   3.619
 8738SOL    HW127113   1.213   3.762   3.550
 8738SOL    HW227114   1.190   3.718   3.705
 8739SOL     OW27115   5.395   3.901   5.192
 8739SOL    HW127116   5.419   3.998   5.196
 8739SOL    HW227117   5.435   3.860   5.110
 8740SOL     OW27118   3.801   2.050   3.250
 8740SOL    HW127119   3.890   2.089   3.226
 8740SOL    HW227120   3.738   2.059   3.173
 8741SOL     OW27121   2.187   7.001   2.499
 8741SOL    HW127122   2.224   0.021   2.419
 8741SOL    HW227123   2.165   0.041   2.570
 8742SOL     OW27124   3.737   0.643   2.559
 8742SOL    HW127125   3.701   0.618   2.649
 8742SOL    HW227126   3.695   0.729   2.529
 8743SOL     OW27127   1.308   0.962   1.919
 8743SOL    HW127128   1.339   0.967   2.014
 8743SOL    HW227129   1.328   0.871   1.883
 8744SOL     OW27130   4.526   3.211   6.809
 8744SOL    HW127131   4.585   3.277   6.762
 8744SOL    HW227132   4.454   3.260   6.858
 8745SOL     OW27133   6.673   2.398   6.567
 8745SOL    HW127134   6.699   2.487   6.606
 8745SOL    HW227135   6.737   2.374   6.494
 8746SOL     OW27136   4.864   4.922   4.020
 8746SOL    HW127137   4.776   4.916   4.068
 8746SOL    HW227138   4.857   4.990   3.947
 8747SOL     OW27139   6.620   1.108   2.173
 8747SOL    HW127140   6.533   1.159   2.173
 8747SOL    HW227141   6.607   1.021   2.125
 8748SOL     OW27142   0.768   1.749   4.110
 8748SOL    HW127143   0.762   1.737   4.011
 8748SOL    HW227144   0.860   1.727   4.142
 8749SOL     OW27145   2.181   1.038   5.308
 8749SOL    HW127146   2.232   1.071   5.228
 8749SOL    HW227147   2.245   1.001   5.375
 8750SOL     OW27148   4.338   2.753   5.774
 8750SOL    HW127149   4.288   2.817   5.833
 8750SOL    HW227150   4.400   2.699   5.830
 8751SOL     OW27151   6.797   6.963   0.747
 8751SOL    HW127152   6.878   6.907   0.761
 8751SOL    HW227153   6.727   6.938   0.815
 8752SOL     OW27154   5.216   2.702   0.409
 8752SOL    HW127155   5.170   2.621   0.445
 8752SOL    HW227156   5.201   2.779   0.471
 8753SOL     OW27157   1.541   3.447   0.038
 8753SOL    HW127158   1.592   3.421   0.120
 8753SOL    HW227159   1.451   3.404   0.040
 8754SOL     OW27160   2.881   5.077   6.371
 8754SOL    HW127161   2.845   4.990   6.405
 8754SOL    HW227162   2.945   5.061   6.296
 8755SOL     OW27163   0.657   1.356   1.536
 8755SOL    HW127164   0.692   1.385   1.447
 8755SOL    HW227165   0.562   1.324   1.526
 8756SOL     OW27166   2.312   2.894   4.080
 8756SOL    HW127167   2.275   2.985   4.063
 8756SOL    HW227168   2.328   2.848   3.993
 8757SOL     OW27169   5.026   5.899   5.271
 8757SOL    HW127170   5.060   5.914   5.178
 8757SOL    HW227171   5.071   5.963   5.334
 8758SOL     OW27172   3.738   0.196   3.245
 8758SOL    HW127173   3.687   0.271   3.288
 8758SOL    HW227174   3.836   0.205   3.267
 8759SOL     OW27175   6.483   1.290   6.746
 8759SOL    HW127176   6.483   1.307   6.844
 8759SOL    HW227177   6.574   1.310   6.709
 8760SOL     OW27178   1.878   1.780   4.149
 8760SOL    HW127179   1.960   1.752   4.099
 8760SOL    HW227180   1.904   1.842   4.223
 8761SOL     OW27181   5.383   1.385   1.857
 8761SOL    HW127182   5.387   1.313   1.789
 8761SOL    HW227183   5.290   1.424   1.859
 8762SOL     OW27184   1.824   6.029   3.797
 8762SOL    HW127185   1.752   5.967   3.829
 8762SOL    HW227186   1.887   6.049   3.873
 8763SOL     OW27187   6.840   0.648   5.383
 8763SOL    HW127188   6.823   0.731   5.329
 8763SOL    HW227189   6.818   0.665   5.479
 8764SOL     OW27190   4.258   5.521   6.009
 8764SOL    HW127191   4.314   5.561   6.082
 8764SOL    HW227192   4.264   5.577   5.927
 8765SOL     OW27193   5.710   0.789   5.574
 8765SOL    HW127194   5.799   0.822   5.605
 8765SOL    HW227195   5.720   0.746   5.484
 8766SOL     OW27196   4.666   4.224   5.774
 8766SOL    HW127197   4.614   4.159   5.829
 8766SOL    HW227198   4.760   4.229   5.807
 8767SOL     OW27199   3.224   0.445   3.610
 8767SOL    HW127200   3.218   0.370   3.676
 8767SOL    HW227201   3.152   0.436   3.542
 8768SOL     OW27202   0.392   2.175   6.647
 8768SOL    HW127203   0.297   2.156   6.620
 8768SOL    HW227204   0.396   2.187   6.746
 8769SOL     OW27205   6.321   0.991   1.666
 8769SOL    HW127206   6.373   0.909   1.690
 8769SOL    HW227207   6.230   0.985   1.707
 8770SOL     OW27208   5.346   3.996   1.802
 8770SOL    HW127209   5.260   3.960   1.767
 8770SOL    HW227210   5.382   3.935   1.873
 8771SOL     OW27211   0.436   3.677   6.852
 8771SOL    HW127212   0.502   3.671   6.777
 8771SOL    HW227213   0.464   3.749   6.916
 8772SOL     OW27214   5.626   0.541   4.692
 8772SOL    HW127215   5.623   0.608   4.765
 8772SOL    HW227216   5.636   0.587   4.604
 8773SOL     OW27217   6.539   2.519   4.293
 8773SOL    HW127218   6.523   2.426   4.325
 8773SOL    HW227219   6.455   2.556   4.255
 8774SOL     OW27220   1.076   6.683   0.163
 8774SOL    HW127221   1.111   6.633   0.084
 8774SOL    HW227222   1.033   6.768   0.132
 8775SOL     OW27223   5.674   1.860   4.739
 8775SOL    HW127224   5.647   1.907   4.824
 8775SOL    HW227225   5.698   1.928   4.670
 8776SOL     OW27226   4.336   2.870   0.973
 8776SOL    HW127227   4.396   2.950   0.980
 8776SOL    HW227228   4.243   2.901   0.953
 8777SOL     OW27229   1.152   3.244   2.774
 8777SOL    HW127230   1.063   3.248   2.819
 8777SOL    HW227231   1.215   3.190   2.829
 8778SOL     OW27232   4.073   4.144   6.077
 8778SOL    HW127233   4.168   4.165   6.097
 8778SOL    HW227234   4.014   4.214   6.116
 8779SOL     OW27235   3.144   5.221   2.593
 8779SOL    HW127236   3.194   5.185   2.672
 8779SOL    HW227237   3.065   5.164   2.575
 8780SOL     OW27238   0.264   5.682   2.093
 8780SOL    HW127239   0.180   5.737   2.093
 8780SOL    HW227240   0.281   5.649   2.186
 8781SOL     OW27241   4.281   0.180   2.547
 8781SOL    HW127242   4.343   0.218   2.479
 8781SOL    HW227243   4.255   0.087   2.521
 8782SOL     OW27244   5.481   0.896   1.796
 8782SOL    HW127245   5.414   0.886   1.723
 8782SOL    HW227246   5.529   0.983   1.786
 8783SOL     OW27247   5.314   3.393   4.680
 8783SOL    HW127248   5.230   3.346   4.705
 8783SOL    HW227249   5.366   3.336   4.616
 8784SOL     OW27250   6.161   6.379   0.499
 8784SOL    HW127251   6.213   6.447   0.447
 8784SOL    HW227252   6.214   6.350   0.579
 8785SOL     OW27253   0.633   5.474   6.174
 8785SOL    HW127254   0.690   5.551   6.203
 8785SOL    HW227255   0.683   5.419   6.107
 8786SOL     OW27256   4.373   2.369   2.257
 8786SOL    HW127257   4.360   2.425   2.176
 8786SOL    HW227258   4.345   2.275   2.238
 8787SOL     OW27259   3.477   0.881   1.615
 8787SOL    HW127260   3.404   0.944   1.644
 8787SOL    HW227261   3.468   0.864   1.516
 8788SOL     OW27262   0.319   0.220   5.481
 8788SOL    HW127263   0.401   0.272   5.459
 8788SOL    HW227264   0.246   0.282   5.510
 8789SOL     OW27265   0.323   3.912   5.509
 8789SOL    HW127266   0.319   3.872   5.601
 8789SOL    HW227267   0.332   4.011   5.516
 8790SOL     OW27268   6.255   2.386   0.465
 8790SOL    HW127269   6.233   2.386   0.367
 8790SOL    HW227270   6.238   2.295   0.503
 8791SOL     OW27271   4.467   6.149   5.185
 8791SOL    HW127272   4.555   6.110   5.158
 8791SOL    HW227273   4.458   6.241   5.147
 8792SOL     OW27274   4.298   5.031   1.488
 8792SOL    HW127275   4.332   5.035   1.582
 8792SOL    HW227276   4.368   5.064   1.426
 8793SOL     OW27277   1.207   5.484   4.373
 8793SOL    HW127278   1.271   5.429   4.427
 8793SOL    HW227279   1.233   5.580   4.378
 8794SOL     OW27280   5.968   1.045   3.088
 8794SOL    HW127281   6.065   1.056   3.112
 8794SOL    HW227282   5.930   1.133   3.059
 8795SOL     OW27283   1.345   5.124   5.223
 8795SOL    HW127284   1.435   5.165   5.212
 8795SOL    HW227285   1.275   5.196   5.222
 8796SOL     OW27286   6.253   3.331   3.366
 8796SOL    HW127287   6.301   3.401   3.313
 8796SOL    HW227288   6.237   3.364   3.459
 8797SOL     OW27289   6.977   6.437   3.635
 8797SOL    HW127290   6.930   6.525   3.649
 8797SOL    HW227291   0.049   6.451   3.643
 8798SOL     OW27292   4.639   6.671   5.051
 8798SOL    HW127293   4.731   6.708   5.042
 8798SOL    HW227294   4.572   6.740   5.025
 8799SOL     OW27295   2.407   4.985   1.978
 8799SOL    HW127296   2.366   4.898   1.951
 8799SOL    HW227297   2.338   5.057   1.974
 8800SOL     OW27298   6.710   6.460   5.687
 8800SOL    HW127299   6.710   6.387   5.756
 8800SOL    HW227300   6.783   6.525   5.708
 8801SOL     OW27301   6.347   2.162   5.209
 8801SOL    HW127302   6.374   2.066   5.202
 8801SOL    HW227303   6.252   2.172   5.176
 8802SOL     OW27304   1.435   5.637   6.183
 8802SOL    HW127305   1.463   5.705   6.252
 8802SOL    HW227306   1.342   5.658   6.153
 8803SOL     OW27307   6.416   0.791   6.942
 8803SOL    HW127308   6.317   0.805   6.942
 8803SOL    HW227309   6.437   0.700   6.904
 8804SOL     OW27310   1.746   6.032   0.960
 8804SOL    HW127311   1.777   6.077   1.044
 8804SOL    HW227312   1.649   6.010   0.968
 8805SOL     OW27313   4.527   5.903   3.446
 8805SOL    HW127314   4.515   5.852   3.361
 8805SOL    HW227315   4.438   5.913   3.492
 8806SOL     OW27316   2.637   6.287   0.596
 8806SOL    HW127317   2.645   6.210   0.658
 8806SOL    HW227318   2.574   6.265   0.522
 8807SOL     OW27319   4.512   1.923   0.458
 8807SOL    HW127320   4.599   1.908   0.411
 8807SOL    HW227321   4.513   1.877   0.547
 8808SOL     OW27322   1.902   2.825   0.863
 8808SOL    HW127323   1.948   2.739   0.886
 8808SOL    HW227324   1.953   2.871   0.790
 8809SOL     OW27325   1.866   3.834   3.402
 8809SOL    HW127326   1.843   3.876   3.314
 8809SOL    HW227327   1.833   3.740   3.404
 8810SOL     OW27328   6.299   1.560   5.401
 8810SOL    HW127329   6.307   1.614   5.485
 8810SOL    HW227330   6.214   1.506   5.404
 8811SOL     OW27331   4.732   0.037   2.733
 8811SOL    HW127332   4.724   0.136   2.723
 8811SOL    HW227333   4.824   0.008   2.708
 8812SOL     OW27334   3.622   0.830   6.458
 8812SOL    HW127335   3.527   0.809   6.438
 8812SOL    HW227336   3.676   0.827   6.374
 8813SOL     OW27337   2.306   4.194   2.682
 8813SOL    HW127338   2.246   4.126   2.642
 8813SOL    HW227339   2.359   4.239   2.610
 8814SOL     OW27340   5.637   6.870   0.049
 8814SOL    HW127341   5.680   6.861   0.139
 8814SOL    HW227342   5.648   6.785   7.025
 8815SOL     OW27343   5.544   0.665   0.675
 8815SOL    HW127344   5.539   0.565   0.685
 8815SOL    HW227345   5.452   0.704   0.685
 8816SOL     OW27346   0.180   6.383   6.005
 8816SOL    HW127347   0.096   6.419   5.964
 8816SOL    HW227348   0.163   6.290   6.039
 8817SOL     OW27349   1.146   3.234   4.755
 8817SOL    HW127350   1.047   3.241   4.746
 8817SOL    HW227351   1.189   3.253   4.666
 8818SOL     OW27352   2.019   6.638   3.927
 8818SOL    HW127353   2.023   6.733   3.956
 8818SOL    HW227354   2.080   6.625   3.848
 8819SOL     OW27355   5.597   4.420   5.813
 8819SOL    HW127356   5.559   4.391   5.725
 8819SOL    HW227357   5.678   4.366   5.833
 8820SOL     OW27358   3.924   1.005   4.983
 8820SOL    HW127359   3.957   0.951   5.061
 8820SOL    HW227360   3.990   0.998   4.908
 8821SOL     OW27361   0.847   5.091   0.925
 8821SOL    HW127362   0.765   5.033   0.919
 8821SOL    HW227363   0.875   5.118   0.833
 8822SOL     OW27364   6.565   6.910   4.167
 8822SOL    HW127365   6.561   6.872   4.075
 8822SOL    HW227366   6.502   6.987   4.174
 8823SOL     OW27367   2.751   1.289   2.627
 8823SOL    HW127368   2.812   1.341   2.567
 8823SOL    HW227369   2.691   1.232   2.571
 8824SOL     OW27370   1.519   0.577   0.961
 8824SOL    HW127371   1.591   0.645   0.972
 8824SOL    HW227372   1.505   0.559   0.864
 8825SOL     OW27373   0.267   0.486   1.095
 8825SOL    HW127374   0.288   0.417   1.164
 8825SOL    HW227375   0.336   0.558   1.098
 8826SOL     OW27376   1.086   3.672   0.790
 8826SOL    HW127377   1.051   3.755   0.833
 8826SOL    HW227378   1.183   3.682   0.771
 8827SOL     OW27379   4.047   0.374   2.513
 8827SOL    HW127380   3.987   0.382   2.593
 8827SOL    HW227381   4.112   0.299   2.526
 8828SOL     OW27382   4.402   4.057   6.353
 8828SOL    HW127383   4.362   4.049   6.261
 8828SOL    HW227384   4.494   4.018   6.352
 8829SOL     OW27385   0.337   1.398   2.305
 8829SOL    HW127386   0.306   1.303   2.305
 8829SOL    HW227387   0.419   1.406   2.362
 8830SOL     OW27388   2.384   1.423   2.653
 8830SOL    HW127389   2.445   1.396   2.579
 8830SOL    HW227390   2.411   1.512   2.689
 8831SOL     OW27391   0.321   2.439   2.538
 8831SOL    HW127392   0.350   2.363   2.597
 8831SOL    HW227393   0.233   2.474   2.569
 8832SOL     OW27394   6.541   6.859   3.919
 8832SOL    HW127395   6.477   6.788   3.948
 8832SOL    HW227396   6.616   6.818   3.868
 8833SOL     OW27397   4.207   2.260   0.883
 8833SOL    HW127398   4.237   2.226   0.972
 8833SOL    HW227399   4.110   2.284   0.888
 8834SOL     OW27400   5.908   3.643   5.431
 8834SOL    HW127401   5.923   3.583   5.352
 8834SOL    HW227402   5.946   3.734   5.411
 8835SOL     OW27403   5.722   0.743   6.158
 8835SOL    HW127404   5.762   0.821   6.207
 8835SOL    HW227405   5.624   0.739   6.177
 8836SOL     OW27406   5.422   2.467   0.235
 8836SOL    HW127407   5.508   2.518   0.233
 8836SOL    HW227408   5.433   2.385   0.292
 8837SOL     OW27409   0.179   6.496   2.052
 8837SOL    HW127410   0.239   6.488   2.131
 8837SOL    HW227411   0.083   6.495   2.081
 8838SOL     OW27412   0.643   4.251   2.835
 8838SOL    HW127413   0.647   4.205   2.923
 8838SOL    HW227414   0.731   4.244   2.789
 8839SOL     OW27415   5.375   5.662   2.513
 8839SOL    HW127416   5.446   5.694   2.450
 8839SOL    HW227417   5.391   5.699   2.604
 8840SOL     OW27418   0.054   0.411   1.558
 8840SOL    HW127419   0.037   0.371   1.648
 8840SOL    HW227420   0.024   0.348   1.487
 8841SOL     OW27421   4.232   0.843   2.108
 8841SOL    HW127422   4.243   0.759   2.054
 8841SOL    HW227423   4.163   0.901   2.065
 8842SOL     OW27424   3.647   4.130   3.983
 8842SOL    HW127425   3.624   4.132   3.886
 8842SOL    HW227426   3.735   4.085   3.996
 8843SOL     OW27427   1.842   3.210   5.563
 8843SOL    HW127428   1.862   3.237   5.469
 8843SOL    HW227429   1.816   3.291   5.616
 8844SOL     OW27430   6.166   1.613   5.140
 8844SOL    HW127431   6.071   1.590   5.123
 8844SOL    HW227432   6.212   1.534   5.183
 8845SOL     OW27433   2.012   5.559   1.275
 8845SOL    HW127434   2.060   5.495   1.337
 8845SOL    HW227435   1.946   5.508   1.220
 8846SOL     OW27436   5.160   4.456   3.874
 8846SOL    HW127437   5.161   4.536   3.813
 8846SOL    HW227438   5.065   4.431   3.893
 8847SOL     OW27439   1.613   2.069   2.583
 8847SOL    HW127440   1.641   2.122   2.663
 8847SOL    HW227441   1.612   1.971   2.606
 8848SOL     OW27442   3.274   2.149   1.204
 8848SOL    HW127443   3.253   2.074   1.141
 8848SOL    HW227444   3.191   2.202   1.222
 8849SOL     OW27445   2.784   5.874   4.097
 8849SOL    HW127446   2.875   5.835   4.081
 8849SOL    HW227447   2.735   5.880   4.010
 8850SOL     OW27448   2.634   1.921   0.228
 8850SOL    HW127449   2.662   1.835   0.270
 8850SOL    HW227450   2.712   1.984   0.227
 8851SOL     OW27451   0.952   4.279   3.047
 8851SOL    HW127452   0.995   4.260   2.959
 8851SOL    HW227453   0.912   4.371   3.045
 8852SOL     OW27454   5.285   2.896   5.967
 8852SOL    HW127455   5.236   2.908   6.054
 8852SOL    HW227456   5.286   2.982   5.917
 8853SOL     OW27457   3.574   1.261   5.157
 8853SOL    HW127458   3.507   1.230   5.225
 8853SOL    HW227459   3.548   1.225   5.067
 8854SOL     OW27460   1.865   0.572   5.733
 8854SOL    HW127461   1.916   0.487   5.744
 8854SOL    HW227462   1.890   0.636   5.806
 8855SOL     OW27463   6.051   6.018   6.531
 8855SOL    HW127464   6.036   6.053   6.439
 8855SOL    HW227465   5.973   5.962   6.560
 8856SOL     OW27466   6.818   0.393   4.504
 8856SOL    HW127467   6.738   0.395   4.444
 8856SOL    HW227468   6.880   0.467   4.480
 8857SOL     OW27469   6.512   1.801   3.152
 8857SOL    HW127470   6.568   1.873   3.111
 8857SOL    HW227471   6.453   1.760   3.082
 8858SOL     OW27472   1.080   4.270   5.773
 8858SOL    HW127473   1.127   4.353   5.742
 8858SOL    HW227474   1.146   4.210   5.818
 8859SOL     OW27475   0.601   6.967   5.148
 8859SOL    HW127476   0.559   6.942   5.236
 8859SOL    HW227477   0.529   6.994   5.084
 8860SOL     OW27478   1.331   2.604   2.385
 8860SOL    HW127479   1.426   2.595   2.354
 8860SOL    HW227480   1.271   2.559   2.319
 8861SOL     OW27481   3.354   3.170   0.107
 8861SOL    HW127482   3.377   3.129   0.019
 8861SOL    HW227483   3.432   3.222   0.141
 8862SOL     OW27484   5.973   1.594   4.740
 8862SOL    HW127485   5.948   1.577   4.835
 8862SOL    HW227486   6.057   1.544   4.718
 8863SOL     OW27487   2.045   5.428   4.665
 8863SOL    HW127488   2.124   5.486   4.643
 8863SOL    HW227489   2.046   5.347   4.606
 8864SOL     OW27490   2.307   3.350   6.464
 8864SOL    HW127491   2.248   3.355   6.384
 8864SOL    HW227492   2.367   3.430   6.466
 8865SOL     OW27493   3.001   1.441   4.491
 8865SOL    HW127494   3.031   1.537   4.494
 8865SOL    HW227495   2.951   1.424   4.407
 8866SOL     OW27496   4.276   6.504   3.466
 8866SOL    HW127497   4.306   6.439   3.536
 8866SOL    HW227498   4.195   6.554   3.498
 8867SOL     OW27499   6.025   2.136   2.551
 8867SOL    HW127500   6.047   2.048   2.592
 8867SOL    HW227501   5.939   2.129   2.500
 8868SOL     OW27502   5.361   3.444   0.480
 8868SOL    HW127503   5.426   3.375   0.511
 8868SOL    HW227504   5.409   3.516   0.430
 8869SOL     OW27505   4.817   4.050   3.037
 8869SOL    HW127506   4.805   4.129   2.976
 8869SOL    HW227507   4.821   4.081   3.132
 8870SOL     OW27508   3.755   0.828   1.210
 8870SOL    HW127509   3.778   0.781   1.125
 8870SOL    HW227510   3.717   0.918   1.190
 8871SOL     OW27511   2.032   1.377   4.028
 8871SOL    HW127512   1.946   1.419   3.999
 8871SOL    HW227513   2.108   1.421   3.979
 8872SOL     OW27514   1.838   4.568   4.055
 8872SOL    HW127515   1.894   4.487   4.038
 8872SOL    HW227516   1.814   4.571   4.152
 8873SOL     OW27517   0.012   5.702   2.921
 8873SOL    HW127518   7.010   5.657   2.837
 8873SOL    HW227519   0.037   5.797   2.901
 8874SOL     OW27520   1.892   6.992   0.959
 8874SOL    HW127521   1.880   0.062   0.981
 8874SOL    HW227522   1.821   6.964   0.895
 8875SOL     OW27523   1.237   2.493   5.014
 8875SOL    HW127524   1.319   2.438   5.000
 8875SOL    HW227525   1.250   2.584   4.975
 8876SOL     OW27526   0.000   0.564   4.475
 8876SOL    HW127527   6.992   0.658   4.468
 8876SOL    HW227528   0.067   0.559   4.549
 8877SOL     OW27529   2.939   0.962   4.159
 8877SOL    HW127530   2.985   0.969   4.071
 8877SOL    HW227531   2.965   0.876   4.204
 8878SOL     OW27532   0.007   4.937   0.912
 8878SOL    HW127533   0.092   4.924   0.962
 8878SOL    HW227534   6.987   4.850   0.902
 8879SOL     OW27535   5.137   5.456   0.388
 8879SOL    HW127536   5.215   5.460   0.451
 8879SOL    HW227537   5.158   5.391   0.314
 8880SOL     OW27538   6.996   5.537   4.690
 8880SOL    HW127539   0.017   5.609   4.641
 8880SOL    HW227540   0.034   5.486   4.746
 8881SOL     OW27541   6.260   1.030   3.080
 8881SOL    HW127542   6.277   1.039   2.982
 8881SOL    HW227543   6.321   0.961   3.119
 8882SOL     OW27544   5.385   0.830   6.775
 8882SOL    HW127545   5.442   0.837   6.693
 8882SOL    HW227546   5.444   0.814   6.855
 8883SOL     OW27547   0.500   1.285   5.860
 8883SOL    HW127548   0.529   1.240   5.944
 8883SOL    HW227549   0.490   1.383   5.876
 8884SOL     OW27550   5.989   6.476   6.457
 8884SOL    HW127551   5.937   6.536   6.396
 8884SOL    HW227552   6.084   6.472   6.427
 8885SOL     OW27553   6.695   3.731   1.293
 8885SOL    HW127554   6.749   3.716   1.376
 8885SOL    HW227555   6.600   3.748   1.319
 8886SOL     OW27556   2.607   6.047   5.434
 8886SOL    HW127557   2.696   6.001   5.424
 8886SOL    HW227558   2.591   6.070   5.530
 8887SOL     OW27559   2.794   1.035   0.731
 8887SOL    HW127560   2.880   1.084   0.746
 8887SOL    HW227561   2.812   0.937   0.722
 8888SOL     OW27562   1.019   2.000   1.223
 8888SOL    HW127563   0.992   2.042   1.136
 8888SOL    HW227564   1.119   2.006   1.232
 8889SOL     OW27565   5.652   6.715   5.123
 8889SOL    HW127566   5.668   6.623   5.159
 8889SOL    HW227567   5.711   6.780   5.170
 8890SOL     OW27568   6.229   5.882   4.638
 8890SOL    HW127569   6.310   5.828   4.614
 8890SOL    HW227570   6.153   5.857   4.579
 8891SOL     OW27571   6.165   2.992   6.679
 8891SOL    HW127572   6.093   3.062   6.676
 8891SOL    HW227573   6.179   2.964   6.774
 8892SOL     OW27574   3.062   6.692   3.095
 8892SOL    HW127575   3.023   6.736   3.175
 8892SOL    HW227576   3.007   6.612   3.070
 8893SOL     OW27577   0.273   1.192   1.839
 8893SOL    HW127578   0.340   1.153   1.776
 8893SOL    HW227579   0.201   1.125   1.858
 8894SOL     OW27580   4.269   3.327   6.284
 8894SOL    HW127581   4.360   3.289   6.301
 8894SOL    HW227582   4.209   3.255   6.248
 8895SOL     OW27583   0.394   0.194   1.873
 8895SOL    HW127584   0.433   0.275   1.830
 8895SOL    HW227585   0.413   0.114   1.816
 8896SOL     OW27586   1.051   3.573   5.395
 8896SOL    HW127587   0.969   3.607   5.440
 8896SOL    HW227588   1.116   3.648   5.381
 8897SOL     OW27589   1.564   1.244   2.162
 8897SOL    HW127590   1.533   1.337   2.178
 8897SOL    HW227591   1.562   1.224   2.064
 8898SOL     OW27592   6.430   3.158   4.253
 8898SOL    HW127593   6.363   3.084   4.256
 8898SOL    HW227594   6.445   3.194   4.345
 8899SOL     OW27595   2.205   4.160   6.666
 8899SOL    HW127596   2.239   4.250   6.638
 8899SOL    HW227597   2.214   4.096   6.590
 8900SOL     OW27598   5.251   3.236   3.364
 8900SOL    HW127599   5.236   3.178   3.444
 8900SOL    HW227600   5.350   3.245   3.348
 8901SOL     OW27601   1.862   0.818   2.975
 8901SOL    HW127602   1.912   0.886   3.027
 8901SOL    HW227603   1.878   0.727   3.014
 8902SOL     OW27604   3.138   5.603   6.419
 8902SOL    HW127605   3.128   5.635   6.513
 8902SOL    HW227606   3.073   5.650   6.360
 8903SOL     OW27607   2.270   1.537   4.146
 8903SOL    HW127608   2.227   1.505   4.231
 8903SOL    HW227609   2.288   1.459   4.086
 8904SOL     OW27610   6.818   5.231   3.669
 8904SOL    HW127611   6.722   5.204   3.656
 8904SOL    HW227612   6.824   5.301   3.740
 8905SOL     OW27613   2.217   3.479   5.311
 8905SOL    HW127614   2.278   3.541   5.360
 8905SOL    HW227615   2.126   3.518   5.306
 8906SOL     OW27616   6.861   6.832   6.729
 8906SOL    HW127617   6.932   6.798   6.667
 8906SOL    HW227618   6.884   6.923   6.761
 8907SOL     OW27619   3.318   2.743   5.203
 8907SOL    HW127620   3.238   2.700   5.162
 8907SOL    HW227621   3.322   2.719   5.300
 8908SOL     OW27622   1.706   2.720   0.477
 8908SOL    HW127623   1.800   2.708   0.447
 8908SOL    HW227624   1.675   2.812   0.453
 8909SOL     OW27625   2.492   0.388   5.584
 8909SOL    HW127626   2.396   0.379   5.613
 8909SOL    HW227627   2.552   0.350   5.654
 8910SOL     OW27628   2.716   3.380   6.046
 8910SOL    HW127629   2.649   3.405   5.976
 8910SOL    HW227630   2.697   3.287   6.079
 8911SOL     OW27631   3.323   2.088   4.442
 8911SOL    HW127632   3.367   2.171   4.408
 8911SOL    HW227633   3.378   2.050   4.517
 8912SOL     OW27634   3.812   1.605   6.316
 8912SOL    HW127635   3.829   1.535   6.386
 8912SOL    HW227636   3.714   1.613   6.301
 8913SOL     OW27637   5.411   4.367   1.367
 8913SOL    HW127638   5.390   4.314   1.286
 8913SOL    HW227639   5.483   4.433   1.346
 8914SOL     OW27640   4.678   1.328   5.343
 8914SOL    HW127641   4.624   1.380   5.277
 8914SOL    HW227642   4.723   1.391   5.407
 8915SOL     OW27643   1.655   2.855   3.693
 8915SOL    HW127644   1.753   2.838   3.708
 8915SOL    HW227645   1.610   2.870   3.781
 8916SOL     OW27646   0.235   3.938   1.956
 8916SOL    HW127647   0.182   3.897   1.882
 8916SOL    HW227648   0.314   3.986   1.918
 8917SOL     OW27649   6.085   5.137   6.758
 8917SOL    HW127650   6.167   5.091   6.792
 8917SOL    HW227651   6.101   5.236   6.756
 8918SOL     OW27652   6.334   6.296   6.959
 8918SOL    HW127653   6.419   6.342   6.987
 8918SOL    HW227654   6.286   6.262   0.013
 8919SOL     OW27655   3.716   3.666   0.800
 8919SOL    HW127656   3.744   3.742   0.742
 8919SOL    HW227657   3.661   3.602   0.746
 8920SOL     OW27658   6.590   5.738   6.138
 8920SOL    HW127659   6.666   5.737   6.073
 8920SOL    HW227660   6.538   5.823   6.127
 8921SOL     OW27661   1.355   1.503   2.970
 8921SOL    HW127662   1.313   1.419   3.005
 8921SOL    HW227663   1.448   1.483   2.939
 8922SOL     OW27664   2.506   5.150   1.106
 8922SOL    HW127665   2.526   5.153   1.008
 8922SOL    HW227666   2.525   5.059   1.142
 8923SOL     OW27667   1.779   3.659   6.776
 8923SOL    HW127668   1.748   3.572   6.812
 8923SOL    HW227669   1.879   3.662   6.776
 8924SOL     OW27670   2.657   5.382   5.671
 8924SOL    HW127671   2.678   5.344   5.762
 8924SOL    HW227672   2.720   5.457   5.651
 8925SOL     OW27673   0.696   0.512   2.043
 8925SOL    HW127674   0.640   0.503   2.125
 8925SOL    HW227675   0.783   0.465   2.057
 8926SOL     OW27676   5.935   2.529   1.651
 8926SOL    HW127677   5.862   2.542   1.718
 8926SOL    HW227678   5.905   2.466   1.580
 8927SOL     OW27679   2.681   2.426   5.020
 8927SOL    HW127680   2.702   2.470   5.107
 8927SOL    HW227681   2.742   2.348   5.005
 8928SOL     OW27682   0.161   0.946   5.606
 8928SOL    HW127683   0.248   0.916   5.644
 8928SOL    HW227684   0.144   0.898   5.520
 8929SOL     OW27685   0.273   3.599   3.709
 8929SOL    HW127686   0.329   3.517   3.721
 8929SOL    HW227687   0.309   3.654   3.634
 8930SOL     OW27688   1.626   5.181   5.205
 8930SOL    HW127689   1.639   5.221   5.115
 8930SOL    HW227690   1.680   5.097   5.212
 8931SOL     OW27691   4.638   2.403   1.090
 8931SOL    HW127692   4.627   2.391   0.992
 8931SOL    HW227693   4.632   2.500   1.113
 8932SOL     OW27694   5.326   6.860   6.538
 8932SOL    HW127695   5.342   6.888   6.443
 8932SOL    HW227696   5.258   6.920   6.580
 8933SOL     OW27697   0.999   0.858   5.304
 8933SOL    HW127698   0.914   0.815   5.334
 8933SOL    HW227699   0.981   0.952   5.275
 8934SOL     OW27700   3.375   5.101   2.859
 8934SOL    HW127701   3.407   5.182   2.908
 8934SOL    HW227702   3.290   5.069   2.902
 8935SOL     OW27703   4.972   3.449   2.433
 8935SOL    HW127704   4.928   3.393   2.362
 8935SOL    HW227705   5.003   3.535   2.393
 8936SOL     OW27706   0.631   3.846   0.997
 8936SOL    HW127707   0.697   3.912   0.962
 8936SOL    HW227708   0.610   3.779   0.925
 8937SOL     OW27709   0.536   0.564   4.062
 8937SOL    HW127710   0.583   0.645   4.098
 8937SOL    HW227711   0.587   0.482   4.085
 8938SOL     OW27712   5.759   0.580   0.362
 8938SOL    HW127713   5.688   0.528   0.410
 8938SOL    HW227714   5.849   0.558   0.401
 8939SOL     OW27715   6.634   2.995   4.781
 8939SOL    HW127716   6.687   2.998   4.696
 8939SOL    HW227717   6.664   2.916   4.836
 8940SOL     OW27718   6.561   2.936   0.504
 8940SOL    HW127719   6.619   2.883   0.566
 8940SOL    HW227720   6.496   2.989   0.559
 8941SOL     OW27721   5.079   2.029   2.098
 8941SOL    HW127722   5.114   2.122   2.099
 8941SOL    HW227723   5.049   2.004   2.191
 8942SOL     OW27724   6.943   4.975   3.935
 8942SOL    HW127725   0.002   5.024   3.919
 8942SOL    HW227726   6.918   4.924   3.852
 8943SOL     OW27727   4.556   3.855   0.131
 8943SOL    HW127728   4.606   3.866   0.045
 8943SOL    HW227729   4.617   3.819   0.201
 8944SOL     OW27730   4.595   5.048   4.247
 8944SOL    HW127731   4.693   5.066   4.237
 8944SOL    HW227732   4.554   5.119   4.306
 8945SOL     OW27733   6.182   3.515   5.466
 8945SOL    HW127734   6.110   3.510   5.397
 8945SOL    HW227735   6.141   3.517   5.557
 8946SOL     OW27736   4.743   0.809   4.112
 8946SOL    HW127737   4.820   0.819   4.175
 8946SOL    HW227738   4.724   0.897   4.068
 8947SOL     OW27739   1.201   4.385   6.561
 8947SOL    HW127740   1.121   4.409   6.615
 8947SOL    HW227741   1.219   4.458   6.494
 8948SOL     OW27742   6.403   6.638   4.006
 8948SOL    HW127743   6.379   6.619   4.101
 8948SOL    HW227744   6.401   6.553   3.953
 8949SOL     OW27745   3.690   6.166   0.123
 8949SOL    HW127746   3.595   6.162   0.092
 8949SOL    HW227747   3.710   6.086   0.180
 8950SOL     OW27748   4.752   3.943   1.364
 8950SOL    HW127749   4.752   4.041   1.383
 8950SOL    HW227750   4.661   3.906   1.383
 8951SOL     OW27751   2.295   1.172   4.177
 8951SOL    HW127752   2.370   1.203   4.118
 8951SOL    HW227753   2.224   1.130   4.122
 8952SOL     OW27754   2.410   4.890   3.404
 8952SOL    HW127755   2.409   4.942   3.319
 8952SOL    HW227756   2.458   4.942   3.474
 8953SOL     OW27757   2.563   5.231   1.994
 8953SOL    HW127758   2.542   5.137   1.964
 8953SOL    HW227759   2.532   5.295   1.925
 8954SOL     OW27760   0.961   5.738   4.594
 8954SOL    HW127761   0.973   5.691   4.506
 8954SOL    HW227762   0.863   5.751   4.611
 8955SOL     OW27763   6.256   3.070   2.787
 8955SOL    HW127764   6.319   3.078   2.710
 8955SOL    HW227765   6.307   3.047   2.870
 8956SOL     OW27766   0.671   6.747   6.541
 8956SOL    HW127767   0.603   6.681   6.510
 8956SOL    HW227768   0.666   6.756   6.641
 8957SOL     OW27769   1.690   5.204   2.248
 8957SOL    HW127770   1.719   5.108   2.249
 8957SOL    HW227771   1.768   5.262   2.224
 8958SOL     OW27772   1.341   3.629   5.658
 8958SOL    HW127773   1.375   3.677   5.577
 8958SOL    HW227774   1.265   3.680   5.698
 8959SOL     OW27775   0.886   3.141   2.239
 8959SOL    HW127776   0.846   3.232   2.249
 8959SOL    HW227777   0.985   3.150   2.223
 8960SOL     OW27778   6.520   3.619   4.153
 8960SOL    HW127779   6.573   3.666   4.083
 8960SOL    HW227780   6.517   3.521   4.132
 8961SOL     OW27781   2.802   6.626   4.271
 8961SOL    HW127782   2.709   6.663   4.279
 8961SOL    HW227783   2.810   6.577   4.184
 8962SOL     OW27784   1.434   5.806   1.193
 8962SOL    HW127785   1.514   5.835   1.246
 8962SOL    HW227786   1.394   5.725   1.235
 8963SOL     OW27787   3.602   5.826   4.355
 8963SOL    HW127788   3.507   5.857   4.355
 8963SOL    HW227789   3.608   5.734   4.317
 8964SOL     OW27790   6.018   3.999   3.123
 8964SOL    HW127791   5.985   4.035   3.210
 8964SOL    HW227792   6.002   3.900   3.119
 8965SOL     OW27793   4.440   4.728   0.725
 8965SOL    HW127794   4.451   4.695   0.631
 8965SOL    HW227795   4.371   4.673   0.772
 8966SOL     OW27796   5.556   5.238   5.941
 8966SOL    HW127797   5.489   5.220   5.868
 8966SOL    HW227798   5.510   5.235   6.030
 8967SOL     OW27799   3.445   0.794   2.606
 8967SOL    HW127800   3.448   0.863   2.678
 8967SOL    HW227801   3.494   0.827   2.526
 8968SOL     OW27802   2.712   5.028   1.610
 8968SOL    HW127803   2.769   5.108   1.629
 8968SOL    HW227804   2.746   4.981   1.528
 8969SOL     OW27805   0.060   0.052   3.234
 8969SOL    HW127806   0.045   0.062   3.332
 8969SOL    HW227807   0.008   7.000   3.200
 8970SOL     OW27808   1.286   1.350   5.911
 8970SOL    HW127809   1.349   1.413   5.957
 8970SOL    HW227810   1.258   1.390   5.824
 8971SOL     OW27811   4.368   6.342   1.058
 8971SOL    HW127812   4.324   6.326   1.146
 8971SOL    HW227813   4.376   6.440   1.042
 8972SOL     OW27814   5.804   5.240   0.299
 8972SOL    HW127815   5.860   5.217   0.379
 8972SOL    HW227816   5.708   5.225   0.320
 8973SOL     OW27817   0.830   2.612   2.067
 8973SOL    HW127818   0.739   2.652   2.052
 8973SOL    HW227819   0.824   2.513   2.065
 8974SOL     OW27820   2.333   4.271   4.567
 8974SOL    HW127821   2.287   4.221   4.641
 8974SOL    HW227822   2.311   4.229   4.479
 8975SOL     OW27823   0.623   0.204   6.753
 8975SOL    HW127824   0.594   0.283   6.807
 8975SOL    HW227825   0.603   0.221   6.656
 8976SOL     OW27826   6.121   6.655   1.444
 8976SOL    HW127827   6.141   6.564   1.409
 8976SOL    HW227828   6.204   6.696   1.481
 8977SOL     OW27829   0.510   4.996   6.408
 8977SOL    HW127830   0.509   4.913   6.353
 8977SOL    HW227831   0.461   5.069   6.360
 8978SOL     OW27832   6.005   5.925   5.363
 8978SOL    HW127833   6.060   5.997   5.406
 8978SOL    HW227834   6.054   5.890   5.283
 8979SOL     OW27835   0.994   5.421   6.352
 8979SOL    HW127836   0.946   5.437   6.438
 8979SOL    HW227837   0.986   5.325   6.326
 8980SOL     OW27838   4.288   1.721   5.330
 8980SOL    HW127839   4.247   1.808   5.304
 8980SOL    HW227840   4.380   1.736   5.365
 8981SOL     OW27841   4.327   1.903   6.020
 8981SOL    HW127842   4.240   1.911   5.972
 8981SOL    HW227843   4.326   1.960   6.102
 8982SOL     OW27844   6.440   0.847   1.904
 8982SOL    HW127845   6.374   0.852   1.979
 8982SOL    HW227846   6.531   0.869   1.939
 8983SOL     OW27847   1.089   4.725   2.164
 8983SOL    HW127848   1.177   4.749   2.205
 8983SOL    HW227849   1.048   4.806   2.124
 8984SOL     OW27850   6.293   0.544   4.589
 8984SOL    HW127851   6.196   0.526   4.601
 8984SOL    HW227852   6.338   0.544   4.678
 8985SOL     OW27853   4.473   1.790   0.715
 8985SOL    HW127854   4.565   1.809   0.749
 8985SOL    HW227855   4.465   1.692   0.695
 8986SOL     OW27856   6.214   4.471   1.854
 8986SOL    HW127857   6.300   4.507   1.889
 8986SOL    HW227858   6.229   4.378   1.818
 8987SOL     OW27859   2.669   0.270   1.285
 8987SOL    HW127860   2.628   0.312   1.367
 8987SOL    HW227861   2.768   0.279   1.289
 8988SOL     OW27862   2.366   5.510   1.145
 8988SOL    HW127863   2.308   5.589   1.125
 8988SOL    HW227864   2.443   5.509   1.081
 8989SOL     OW27865   5.250   2.694   2.522
 8989SOL    HW127866   5.251   2.794   2.525
 8989SOL    HW227867   5.289   2.658   2.607
 8990SOL     OW27868   3.413   6.249   0.726
 8990SOL    HW127869   3.399   6.316   0.799
 8990SOL    HW227870   3.443   6.163   0.765
 8991SOL     OW27871   1.952   2.513   0.881
 8991SOL    HW127872   1.998   2.546   0.964
 8991SOL    HW227873   2.002   2.435   0.844
 8992SOL     OW27874   0.596   2.840   0.140
 8992SOL    HW127875   0.676   2.877   0.187
 8992SOL    HW227876   0.526   2.910   0.134
 8993SOL     OW27877   5.119   2.022   3.752
 8993SOL    HW127878   5.062   2.103   3.766
 8993SOL    HW227879   5.181   2.039   3.675
 8994SOL     OW27880   1.637   5.724   4.113
 8994SOL    HW127881   1.707   5.683   4.054
 8994SOL    HW227882   1.593   5.800   4.065
 8995SOL     OW27883   1.414   3.000   5.160
 8995SOL    HW127884   1.317   2.988   5.182
 8995SOL    HW227885   1.445   3.089   5.194
 8996SOL     OW27886   0.506   3.875   1.623
 8996SOL    HW127887   0.507   3.942   1.697
 8996SOL    HW227888   0.557   3.911   1.545
 8997SOL     OW27889   4.471   1.219   6.115
 8997SOL    HW127890   4.531   1.245   6.040
 8997SOL    HW227891   4.393   1.280   6.118
 8998SOL     OW27892   1.171   2.907   5.251
 8998SOL    HW127893   1.105   2.981   5.252
 8998SOL    HW227894   1.146   2.839   5.320
 8999SOL     OW27895   4.738   1.782   6.294
 8999SOL    HW127896   4.730   1.703   6.355
 8999SOL    HW227897   4.686   1.765   6.211
 9000SOL     OW27898   2.924   3.490   7.005
 9000SOL    HW127899   2.975   3.542   0.047
 9000SOL    HW227900   2.986   3.427   6.959
 9001SOL     OW27901   1.948   4.629   3.369
 9001SOL    HW127902   1.998   4.686   3.434
 9001SOL    HW227903   1.890   4.686   3.312
 9002SOL     OW27904   6.044   5.110   5.960
 9002SOL    HW127905   5.995   5.196   5.960
 9002SOL    HW227906   5.979   5.034   5.949
 9003SOL     OW27907   6.139   2.676   0.427
 9003SOL    HW127908   6.159   2.587   0.466
 9003SOL    HW227909   6.168   2.677   0.331
 9004SOL     OW27910   5.151   6.680   1.019
 9004SOL    HW127911   5.063   6.657   1.060
 9004SOL    HW227912   5.204   6.596   1.005
 9005SOL     OW27913   4.719   2.111   3.746
 9005SOL    HW127914   4.806   2.154   3.770
 9005SOL    HW227915   4.719   2.016   3.778
 9006SOL     OW27916   1.478   4.849   1.085
 9006SOL    HW127917   1.574   4.851   1.059
 9006SOL    HW227918   1.461   4.772   1.146
 9007SOL     OW27919   3.092   5.552   3.900
 9007SOL    HW127920   3.112   5.457   3.876
 9007SOL    HW227921   3.083   5.606   3.817
 9008SOL     OW27922   0.312   4.176   2.118
 9008SOL    HW127923   0.279   4.094   2.069
 9008SOL    HW227924   0.411   4.183   2.108
 9009SOL     OW27925   2.310   6.925   0.994
 9009SOL    HW127926   2.410   6.933   1.003
 9009SOL    HW227927   2.287   6.832   0.967
 9010SOL     OW27928   0.788   6.735   4.620
 9010SOL    HW127929   0.690   6.749   4.604
 9010SOL    HW227930   0.806   6.637   4.632
 9011SOL     OW27931   3.634   1.986   0.883
 9011SOL    HW127932   3.647   1.921   0.807
 9011SOL    HW227933   3.660   1.941   0.969
 9012SOL     OW27934   0.930   4.921   1.326
 9012SOL    HW127935   0.989   4.857   1.373
 9012SOL    HW227936   0.984   4.999   1.294
 9013SOL     OW27937   6.131   6.140   4.417
 9013SOL    HW127938   6.081   6.119   4.501
 9013SOL    HW227939   6.227   6.156   4.438
 9014SOL     OW27940   1.112   0.777   0.430
 9014SOL    HW127941   1.098   0.732   0.518
 9014SOL    HW227942   1.085   0.715   0.356
 9015SOL     OW27943   0.193   1.226   6.041
 9015SOL    HW127944   0.179   1.138   6.086
 9015SOL    HW227945   0.193   1.214   5.942
 9016SOL     OW27946   6.789   6.226   5.843
 9016SOL    HW127947   6.805   6.178   5.929
 9016SOL    HW227948   6.876   6.246   5.799
 9017SOL     OW27949   5.851   2.179   4.130
 9017SOL    HW127950   5.921   2.233   4.083
 9017SOL    HW227951   5.768   2.177   4.074
 9018SOL     OW27952   3.642   1.012   4.932
 9018SOL    HW127953   3.647   0.993   5.030
 9018SOL    HW227954   3.726   0.981   4.888
 9019SOL     OW27955   2.897   6.209   0.243
 9019SOL    HW127956   2.884   6.236   0.338
 9019SOL    HW227957   2.966   6.136   0.238
 9020SOL     OW27958   2.080   4.427   2.847
 9020SOL    HW127959   2.159   4.474   2.807
 9020SOL    HW227960   2.018   4.493   2.888
 9021SOL     OW27961   0.053   6.047   4.189
 9021SOL    HW127962   0.003   6.117   4.241
 9021SOL    HW227963   7.017   5.975   4.162
 9022SOL     OW27964   2.749   0.485   0.218
 9022SOL    HW127965   2.716   0.398   0.256
 9022SOL    HW227966   2.729   0.559   0.282
 9023SOL     OW27967   3.477   3.590   3.713
 9023SOL    HW127968   3.468   3.491   3.704
 9023SOL    HW227969   3.478   3.632   3.623
 9024SOL     OW27970   1.703   6.006   6.063
 9024SOL    HW127971   1.728   5.922   6.014
 9024SOL    HW227972   1.604   6.020   6.055
 9025SOL     OW27973   6.317   5.116   1.800
 9025SOL    HW127974   6.371   5.189   1.759
 9025SOL    HW227975   6.270   5.065   1.728
 9026SOL     OW27976   3.723   3.022   4.505
 9026SOL    HW127977   3.663   2.957   4.552
 9026SOL    HW227978   3.782   3.067   4.572
 9027SOL     OW27979   2.583   1.857   3.219
 9027SOL    HW127980   2.525   1.902   3.152
 9027SOL    HW227981   2.599   1.919   3.296
 9028SOL     OW27982   2.401   4.456   5.973
 9028SOL    HW127983   2.483   4.498   6.009
 9028SOL    HW227984   2.364   4.391   6.040
 9029SOL     OW27985   4.235   5.448   3.895
 9029SOL    HW127986   4.196   5.359   3.871
 9029SOL    HW227987   4.313   5.435   3.956
 9030SOL     OW27988   2.160   0.952   2.604
 9030SOL    HW127989   2.124   0.966   2.697
 9030SOL    HW227990   2.091   0.904   2.549
 9031SOL     OW27991   2.809   6.029   5.870
 9031SOL    HW127992   2.826   6.127   5.867
 9031SOL    HW227993   2.724   6.012   5.921
 9032SOL     OW27994   2.492   2.190   1.705
 9032SOL    HW127995   2.502   2.271   1.647
 9032SOL    HW227996   2.569   2.186   1.769
 9033SOL     OW27997   1.956   3.484   4.155
 9033SOL    HW127998   1.896   3.459   4.231
 9033SOL    HW227999   2.015   3.560   4.183
 9034SOL     OW28000   2.381   6.357   5.168
 9034SOL    HW128001   2.455   6.291   5.155
 9034SOL    HW228002   2.308   6.338   5.103
 9035SOL     OW28003   6.630   0.146   4.886
 9035SOL    HW128004   6.727   0.124   4.893
 9035SOL    HW228005   6.619   0.238   4.850
 9036SOL     OW28006   1.734   2.469   5.577
 9036SOL    HW128007   1.799   2.536   5.543
 9036SOL    HW228008   1.664   2.452   5.508
 9037SOL     OW28009   2.171   3.826   6.036
 9037SOL    HW128010   2.186   3.924   6.024
 9037SOL    HW228011   2.233   3.775   5.977
 9038SOL     OW28012   5.194   0.846   5.462
 9038SOL    HW128013   5.286   0.832   5.499
 9038SOL    HW228014   5.161   0.761   5.422
 9039SOL     OW28015   2.008   4.639   5.392
 9039SOL    HW128016   1.909   4.649   5.396
 9039SOL    HW228017   2.044   4.618   5.483
 9040SOL     OW28018   2.935   1.439   2.509
 9040SOL    HW128019   2.941   1.539   2.511
 9040SOL    HW228020   3.023   1.400   2.537
 9041SOL     OW28021   0.742   2.601   1.757
 9041SOL    HW128022   0.643   2.595   1.773
 9041SOL    HW228023   0.785   2.649   1.834
 9042SOL     OW28024   2.614   5.691   2.876
 9042SOL    HW128025   2.681   5.643   2.932
 9042SOL    HW228026   2.616   5.654   2.783
 9043SOL     OW28027   1.149   2.328   6.321
 9043SOL    HW128028   1.064   2.337   6.373
 9043SOL    HW228029   1.157   2.234   6.286
 9044SOL     OW28030   5.955   0.239   0.630
 9044SOL    HW128031   5.911   0.216   0.544
 9044SOL    HW228032   6.044   0.282   0.613
 9045SOL     OW28033   3.620   0.641   3.351
 9045SOL    HW128034   3.557   0.586   3.296
 9045SOL    HW228035   3.680   0.693   3.291
 9046SOL     OW28036   3.415   4.310   5.358
 9046SOL    HW128037   3.423   4.289   5.455
 9046SOL    HW228038   3.398   4.408   5.347
 9047SOL     OW28039   1.668   4.103   4.534
 9047SOL    HW128040   1.579   4.130   4.497
 9047SOL    HW228041   1.657   4.079   4.630
 9048SOL     OW28042   1.674   3.914   5.697
 9048SOL    HW128043   1.722   3.865   5.769
 9048SOL    HW228044   1.741   3.954   5.633
 9049SOL     OW28045   5.446   5.896   5.945
 9049SOL    HW128046   5.477   5.981   5.988
 9049SOL    HW228047   5.438   5.825   6.015
 9050SOL     OW28048   0.563   5.321   6.898
 9050SOL    HW128049   0.600   5.409   6.929
 9050SOL    HW228050   0.575   5.253   6.970
 9051SOL     OW28051   4.825   6.337   0.344
 9051SOL    HW128052   4.744   6.362   0.396
 9051SOL    HW228053   4.907   6.370   0.390
 9052SOL     OW28054   2.726   4.778   4.528
 9052SOL    HW128055   2.772   4.866   4.539
 9052SOL    HW228056   2.710   4.737   4.618
 9053SOL     OW28057   1.908   2.780   3.735
 9053SOL    HW128058   1.942   2.818   3.649
 9053SOL    HW228059   1.981   2.729   3.780
 9054SOL     OW28060   1.680   0.628   1.546
 9054SOL    HW128061   1.708   0.582   1.631
 9054SOL    HW228062   1.749   0.610   1.475
 9055SOL     OW28063   1.021   2.842   3.833
 9055SOL    HW128064   1.094   2.869   3.895
 9055SOL    HW228065   1.054   2.769   3.773
 9056SOL     OW28066   5.476   0.411   1.728
 9056SOL    HW128067   5.393   0.468   1.727
 9056SOL    HW228068   5.557   0.470   1.734
 9057SOL     OW28069   6.190   5.385   6.796
 9057SOL    HW128070   6.180   5.399   6.895
 9057SOL    HW228071   6.183   5.472   6.749
 9058SOL     OW28072   1.957   2.607   4.778
 9058SOL    HW128073   1.978   2.702   4.754
 9058SOL    HW228074   1.988   2.588   4.871
 9059SOL     OW28075   6.464   1.241   3.479
 9059SOL    HW128076   6.508   1.309   3.420
 9059SOL    HW228077   6.514   1.236   3.565
 9060SOL     OW28078   6.649   3.643   2.148
 9060SOL    HW128079   6.712   3.565   2.151
 9060SOL    HW228080   6.619   3.665   2.241
 9061SOL     OW28081   4.495   6.089   3.133
 9061SOL    HW128082   4.456   6.145   3.206
 9061SOL    HW228083   4.560   6.024   3.173
 9062SOL     OW28084   1.325   4.789   2.267
 9062SOL    HW128085   1.338   4.886   2.248
 9062SOL    HW228086   1.398   4.756   2.327
 9063SOL     OW28087   3.027   1.713   2.552
 9063SOL    HW128088   3.104   1.751   2.502
 9063SOL    HW228089   3.026   1.750   2.645
 9064SOL     OW28090   6.926   4.544   3.622
 9064SOL    HW128091   6.912   4.445   3.612
 9064SOL    HW228092   7.017   4.568   3.587
 9065SOL     OW28093   2.766   6.104   4.896
 9065SOL    HW128094   2.791   6.090   4.800
 9065SOL    HW228095   2.722   6.193   4.906
 9066SOL     OW28096   6.645   6.313   6.228
 9066SOL    HW128097   6.562   6.268   6.194
 9066SOL    HW228098   6.649   6.406   6.193
 9067SOL     OW28099   6.649   6.447   4.440
 9067SOL    HW128100   6.683   6.399   4.522
 9067SOL    HW228101   6.718   6.512   4.409
 9068SOL     OW28102   4.872   0.526   5.124
 9068SOL    HW128103   4.785   0.529   5.172
 9068SOL    HW228104   4.893   0.432   5.098
 9069SOL     OW28105   4.709   2.704   2.495
 9069SOL    HW128106   4.717   2.793   2.541
 9069SOL    HW228107   4.796   2.656   2.498
 9070SOL     OW28108   1.725   1.900   6.417
 9070SOL    HW128109   1.819   1.918   6.447
 9070SOL    HW228110   1.715   1.803   6.397
 9071SOL     OW28111   4.131   1.249   5.786
 9071SOL    HW128112   4.207   1.309   5.760
 9071SOL    HW228113   4.065   1.302   5.841
 9072SOL     OW28114   5.425   6.718   2.041
 9072SOL    HW128115   5.364   6.647   2.006
 9072SOL    HW228116   5.404   6.736   2.137
 9073SOL     OW28117   4.399   0.006   0.333
 9073SOL    HW128118   4.482   6.978   0.341
 9073SOL    HW228119   4.335   7.006   0.405
 9074SOL     OW28120   1.401   0.283   1.224
 9074SOL    HW128121   1.416   0.249   1.131
 9074SOL    HW228122   1.417   0.382   1.227
 9075SOL     OW28123   6.783   1.003   2.428
 9075SOL    HW128124   6.812   0.943   2.354
 9075SOL    HW228125   6.703   1.056   2.399
 9076SOL     OW28126   4.867   1.532   3.250
 9076SOL    HW128127   4.780   1.508   3.207
 9076SOL    HW228128   4.867   1.628   3.275
 9077SOL     OW28129   4.837   1.422   6.176
 9077SOL    HW128130   4.928   1.463   6.186
 9077SOL    HW228131   4.836   1.331   6.216
 9078SOL     OW28132   5.250   4.899   6.404
 9078SOL    HW128133   5.170   4.955   6.426
 9078SOL    HW228134   5.231   4.845   6.322
 9079SOL     OW28135   1.514   0.635   5.041
 9079SOL    HW128136   1.467   0.645   4.954
 9079SOL    HW228137   1.454   0.668   5.115
 9080SOL     OW28138   6.087   3.399   0.176
 9080SOL    HW128139   6.024   3.413   0.251
 9080SOL    HW228140   6.147   3.322   0.196
 9081SOL     OW28141   4.030   1.425   1.192
 9081SOL    HW128142   4.077   1.411   1.280
 9081SOL    HW228143   3.940   1.380   1.196
 9082SOL     OW28144   2.370   6.847   5.381
 9082SOL    HW128145   2.277   6.817   5.402
 9082SOL    HW228146   2.404   6.797   5.302
 9083SOL     OW28147   4.801   4.594   6.250
 9083SOL    HW128148   4.855   4.521   6.291
 9083SOL    HW228149   4.712   4.557   6.221
 9084SOL     OW28150   0.461   2.581   5.501
 9084SOL    HW128151   0.540   2.567   5.561
 9084SOL    HW228152   0.478   2.536   5.413
 9085SOL     OW28153   3.047   5.398   0.680
 9085SOL    HW128154   2.971   5.442   0.728
 9085SOL    HW228155   3.130   5.405   0.736
 9086SOL     OW28156   6.044   4.434   0.987
 9086SOL    HW128157   6.119   4.387   1.033
 9086SOL    HW228158   6.041   4.407   0.891
 9087SOL     OW28159   5.805   3.084   2.723
 9087SOL    HW128160   5.889   3.102   2.774
 9087SOL    HW228161   5.826   3.073   2.626
 9088SOL     OW28162   6.170   7.020   2.084
 9088SOL    HW128163   6.164   0.042   1.997
 9088SOL    HW228164   6.194   6.925   2.066
 9089SOL     OW28165   4.200   5.521   4.276
 9089SOL    HW128166   4.292   5.556   4.258
 9089SOL    HW228167   4.146   5.526   4.192
 9090SOL     OW28168   4.928   6.452   4.878
 9090SOL    HW128169   4.851   6.472   4.818
 9090SOL    HW228170   4.970   6.365   4.851
 9091SOL     OW28171   3.254   2.585   0.552
 9091SOL    HW128172   3.189   2.536   0.611
 9091SOL    HW228173   3.216   2.674   0.528
 9092SOL     OW28174   1.504   0.529   6.036
 9092SOL    HW128175   1.515   0.514   6.134
 9092SOL    HW228176   1.406   0.529   6.014
 9093SOL     OW28177   1.440   6.422   6.931
 9093SOL    HW128178   1.417   6.519   6.936
 9093SOL    HW228179   1.501   6.406   6.853
 9094SOL     OW28180   0.528   6.039   2.014
 9094SOL    HW128181   0.498   5.949   1.983
 9094SOL    HW228182   0.449   6.099   2.024
 9095SOL     OW28183   5.539   3.808   6.302
 9095SOL    HW128184   5.455   3.801   6.249
 9095SOL    HW228185   5.618   3.787   6.244
 9096SOL     OW28186   5.533   3.534   2.543
 9096SOL    HW128187   5.473   3.495   2.473
 9096SOL    HW228188   5.605   3.588   2.499
 9097SOL     OW28189   0.658   3.782   0.183
 9097SOL    HW128190   0.668   3.879   0.163
 9097SOL    HW228191   0.711   3.728   0.117
 9098SOL     OW28192   4.241   3.268   1.075
 9098SOL    HW128193   4.170   3.333   1.104
 9098SOL    HW228194   4.231   3.249   0.977
 9099SOL     OW28195   3.545   3.452   0.715
 9099SOL    HW128196   3.523   3.442   0.618
 9099SOL    HW228197   3.467   3.490   0.763
 9100SOL     OW28198   1.091   2.672   2.167
 9100SOL    HW128199   1.067   2.668   2.264
 9100SOL    HW228200   1.008   2.659   2.113
 9101SOL     OW28201   2.219   2.976   2.453
 9101SOL    HW128202   2.212   2.931   2.364
 9101SOL    HW228203   2.272   2.920   2.515
 9102SOL     OW28204   3.635   6.511   1.906
 9102SOL    HW128205   3.685   6.575   1.963
 9102SOL    HW228206   3.553   6.479   1.954
 9103SOL     OW28207   7.009   3.622   0.463
 9103SOL    HW128208   7.012   3.533   0.419
 9103SOL    HW228209   7.022   3.694   0.394
 9104SOL     OW28210   4.297   6.281   2.062
 9104SOL    HW128211   4.389   6.243   2.074
 9104SOL    HW228212   4.231   6.220   2.105
 9105SOL     OW28213   1.428   0.598   6.966
 9105SOL    HW128214   1.444   0.622   0.035
 9105SOL    HW228215   1.368   0.666   6.924
 9106SOL     OW28216   5.718   3.534   0.154
 9106SOL    HW128217   5.692   3.441   0.179
 9106SOL    HW228218   5.720   3.591   0.236
 9107SOL     OW28219   4.124   6.969   6.484
 9107SOL    HW128220   4.205   6.911   6.493
 9107SOL    HW228221   4.130   7.021   6.399
 9108SOL     OW28222   4.875   4.691   5.503
 9108SOL    HW128223   4.889   4.789   5.519
 9108SOL    HW228224   4.959   4.641   5.522
 9109SOL     OW28225   1.403   2.400   2.892
 9109SOL    HW128226   1.410   2.476   2.956
 9109SOL    HW228227   1.398   2.436   2.798
 9110SOL     OW28228   2.050   4.387   4.000
 9110SOL    HW128229   2.125   4.425   3.946
 9110SOL    HW228230   2.038   4.291   3.977
 9111SOL     OW28231   4.450   3.316   0.766
 9111SOL    HW128232   4.515   3.340   0.695
 9111SOL    HW228233   4.357   3.324   0.730
 9112SOL     OW28234   0.301   4.361   4.535
 9112SOL    HW128235   0.300   4.354   4.635
 9112SOL    HW228236   0.224   4.417   4.505
 9113SOL     OW28237   4.553   7.000   0.686
 9113SOL    HW128238   4.589   6.961   0.601
 9113SOL    HW228239   4.459   0.004   0.671
 9114SOL     OW28240   1.438   5.041   2.363
 9114SOL    HW128241   1.495   5.114   2.401
 9114SOL    HW228242   1.449   4.958   2.417
 9115SOL     OW28243   0.611   5.806   5.546
 9115SOL    HW128244   0.576   5.900   5.540
 9115SOL    HW228245   0.705   5.803   5.510
 9116SOL     OW28246   6.617   2.061   0.393
 9116SOL    HW128247   6.521   2.033   0.398
 9116SOL    HW228248   6.634   2.135   0.457
 9117SOL     OW28249   5.761   2.518   6.957
 9117SOL    HW128250   5.824   2.440   6.952
 9117SOL    HW228251   5.811   2.602   6.936
 9118SOL     OW28252   5.854   6.055   0.548
 9118SOL    HW128253   5.810   5.978   0.593
 9118SOL    HW228254   5.907   6.022   0.470
 9119SOL     OW28255   5.453   1.386   2.753
 9119SOL    HW128256   5.380   1.412   2.690
 9119SOL    HW228257   5.531   1.448   2.741
 9120SOL     OW28258   5.356   3.088   5.417
 9120SOL    HW128259   5.280   3.047   5.466
 9120SOL    HW228260   5.341   3.077   5.318
 9121SOL     OW28261   1.004   2.942   6.559
 9121SOL    HW128262   0.946   3.017   6.526
 9121SOL    HW228263   0.947   2.863   6.582
 9122SOL     OW28264   1.769   2.784   1.845
 9122SOL    HW128265   1.809   2.709   1.898
 9122SOL    HW228266   1.802   2.781   1.751
 9123SOL     OW28267   3.976   0.559   4.501
 9123SOL    HW128268   3.901   0.611   4.460
 9123SOL    HW228269   3.983   0.470   4.457
 9124SOL     OW28270   5.982   6.665   5.398
 9124SOL    HW128271   6.035   6.584   5.422
 9124SOL    HW228272   5.956   6.661   5.302
 9125SOL     OW28273   4.878   3.730   2.718
 9125SOL    HW128274   4.880   3.770   2.809
 9125SOL    HW228275   4.821   3.785   2.658
 9126SOL     OW28276   5.534   2.255   1.816
 9126SOL    HW128277   5.590   2.173   1.827
 9126SOL    HW228278   5.591   2.330   1.781
 9127SOL     OW28279   6.124   0.978   6.602
 9127SOL    HW128280   6.139   1.063   6.652
 9127SOL    HW228281   6.187   0.908   6.636
 9128SOL     OW28282   3.722   2.148   4.872
 9128SOL    HW128283   3.779   2.145   4.790
 9128SOL    HW228284   3.774   2.191   4.946
 9129SOL     OW28285   1.622   2.850   1.183
 9129SOL    HW128286   1.664   2.880   1.097
 9129SOL    HW228287   1.675   2.774   1.221
 9130SOL     OW28288   6.988   3.408   0.269
 9130SOL    HW128289   0.018   3.325   0.274
 9130SOL    HW228290   6.978   3.435   0.174
 9131SOL     OW28291   0.310   3.801   5.740
 9131SOL    HW128292   0.283   3.876   5.801
 9131SOL    HW228293   0.349   3.727   5.795
 9132SOL     OW28294   0.376   4.879   4.431
 9132SOL    HW128295   0.472   4.896   4.409
 9132SOL    HW228296   0.353   4.785   4.407
 9133SOL     OW28297   3.327   5.536   1.513
 9133SOL    HW128298   3.399   5.467   1.511
 9133SOL    HW228299   3.240   5.493   1.537
 9134SOL     OW28300   3.143   6.249   0.655
 9134SOL    HW128301   3.231   6.253   0.703
 9134SOL    HW228302   3.132   6.330   0.599
 9135SOL     OW28303   6.468   6.212   2.381
 9135SOL    HW128304   6.564   6.210   2.352
 9135SOL    HW228305   6.450   6.297   2.429
 9136SOL     OW28306   4.925   5.246   5.379
 9136SOL    HW128307   5.024   5.262   5.387
 9136SOL    HW228308   4.877   5.334   5.379
 9137SOL     OW28309   4.902   1.960   1.241
 9137SOL    HW128310   4.840   2.034   1.218
 9137SOL    HW228311   4.904   1.947   1.340
 9138SOL     OW28312   6.179   5.302   5.599
 9138SOL    HW128313   6.179   5.343   5.690
 9138SOL    HW228314   6.225   5.213   5.602
 9139SOL     OW28315   2.185   1.293   4.812
 9139SOL    HW128316   2.272   1.247   4.829
 9139SOL    HW228317   2.114   1.253   4.869
 9140SOL     OW28318   6.118   3.201   2.563
 9140SOL    HW128319   6.164   3.160   2.641
 9140SOL    HW228320   6.122   3.301   2.571
 9141SOL     OW28321   5.881   0.457   6.556
 9141SOL    HW128322   5.972   0.426   6.531
 9141SOL    HW228323   5.851   0.410   6.639
 9142SOL     OW28324   0.753   2.129   0.380
 9142SOL    HW128325   0.824   2.186   0.421
 9142SOL    HW228326   0.716   2.176   0.299
 9143SOL     OW28327   5.180   3.631   1.178
 9143SOL    HW128328   5.227   3.710   1.139
 9143SOL    HW228329   5.084   3.632   1.149
 9144SOL     OW28330   2.330   5.504   5.388
 9144SOL    HW128331   2.342   5.415   5.433
 9144SOL    HW228332   2.324   5.575   5.458
 9145SOL     OW28333   6.583   5.384   6.968
 9145SOL    HW128334   6.676   5.402   6.935
 9145SOL    HW228335   6.588   5.341   0.032
 9146SOL     OW28336   5.404   2.375   2.548
 9146SOL    HW128337   5.482   2.376   2.611
 9146SOL    HW228338   5.320   2.387   2.601
 9147SOL     OW28339   5.672   0.372   4.042
 9147SOL    HW128340   5.642   0.424   3.962
 9147SOL    HW228341   5.768   0.394   4.061
 9148SOL     OW28342   4.735   6.713   0.565
 9148SOL    HW128343   4.783   6.675   0.644
 9148SOL    HW228344   4.669   6.646   0.531
 9149SOL     OW28345   5.216   3.103   3.584
 9149SOL    HW128346   5.145   3.121   3.653
 9149SOL    HW228347   5.305   3.125   3.623
 9150SOL     OW28348   3.288   5.271   3.117
 9150SOL    HW128349   3.213   5.205   3.110
 9150SOL    HW228350   3.355   5.237   3.184
 9151SOL     OW28351   1.680   4.198   3.872
 9151SOL    HW128352   1.655   4.292   3.895
 9151SOL    HW228353   1.633   4.170   3.788
 9152SOL     OW28354   2.527   4.920   4.860
 9152SOL    HW128355   2.471   4.932   4.942
 9152SOL    HW228356   2.574   5.006   4.839
 9153SOL     OW28357   1.161   3.050   0.926
 9153SOL    HW128358   1.186   3.129   0.982
 9153SOL    HW228359   1.147   3.079   0.831
 9154SOL     OW28360   4.473   5.155   6.411
 9154SOL    HW128361   4.378   5.175   6.433
 9154SOL    HW228362   4.490   5.057   6.423
 9155SOL     OW28363   0.782   3.360   1.361
 9155SOL    HW128364   0.779   3.282   1.298
 9155SOL    HW228365   0.867   3.411   1.347
 9156SOL     OW28366   1.891   2.374   0.201
 9156SOL    HW128367   1.884   2.465   0.242
 9156SOL    HW228368   1.906   2.382   0.103
 9157SOL     OW28369   6.127   4.590   6.602
 9157SOL    HW128370   6.041   4.553   6.566
 9157SOL    HW228371   6.185   4.618   6.526
 9158SOL     OW28372   5.917   3.557   4.541
 9158SOL    HW128373   5.950   3.651   4.546
 9158SOL    HW228374   5.818   3.556   4.534
 9159SOL     OW28375   1.527   6.981   2.819
 9159SOL    HW128376   1.495   0.003   2.900
 9159SOL    HW228377   1.581   0.016   2.762
 9160SOL     OW28378   6.266   0.220   4.695
 9160SOL    HW128379   6.253   0.236   4.597
 9160SOL    HW228380   6.339   0.152   4.708
 9161SOL     OW28381   4.735   4.191   4.862
 9161SOL    HW128382   4.660   4.155   4.807
 9161SOL    HW228383   4.788   4.256   4.808
 9162SOL     OW28384   4.730   1.044   4.018
 9162SOL    HW128385   4.816   1.069   4.062
 9162SOL    HW228386   4.734   1.067   3.921
 9163SOL     OW28387   2.152   3.260   4.687
 9163SOL    HW128388   2.181   3.230   4.596
 9163SOL    HW228389   2.211   3.218   4.756
 9164SOL     OW28390   2.532   0.767   7.022
 9164SOL    HW128391   2.609   0.827   7.001
 9164SOL    HW228392   2.558   0.672   7.007
 9165SOL     OW28393   5.945   1.976   5.310
 9165SOL    HW128394   5.977   1.895   5.361
 9165SOL    HW228395   5.982   2.058   5.354
 9166SOL     OW28396   4.290   6.268   0.818
 9166SOL    HW128397   4.322   6.298   0.907
 9166SOL    HW228398   4.232   6.188   0.828
 9167SOL     OW28399   2.260   2.743   6.563
 9167SOL    HW128400   2.352   2.736   6.525
 9167SOL    HW228401   2.234   2.655   6.605
 9168SOL     OW28402   0.814   0.437   6.761
 9168SOL    HW128403   0.747   0.366   6.739
 9168SOL    HW228404   0.797   0.472   6.853
 9169SOL     OW28405   6.069   1.097   5.394
 9169SOL    HW128406   6.101   1.044   5.315
 9169SOL    HW228407   6.029   1.183   5.362
 9170SOL     OW28408   1.351   5.163   0.072
 9170SOL    HW128409   1.348   5.253   0.116
 9170SOL    HW228410   1.367   5.093   0.142
 9171SOL     OW28411   3.952   5.037   0.664
 9171SOL    HW128412   3.857   5.053   0.637
 9171SOL    HW228413   4.010   5.109   0.628
 9172SOL     OW28414   3.631   0.462   4.197
 9172SOL    HW128415   3.618   0.454   4.296
 9172SOL    HW228416   3.568   0.530   4.160
 9173SOL     OW28417   6.488   3.720   4.945
 9173SOL    HW128418   6.397   3.717   4.904
 9173SOL    HW228419   6.551   3.664   4.891
 9174SOL     OW28420   6.095   4.007   1.553
 9174SOL    HW128421   6.040   4.039   1.630
 9174SOL    HW228422   6.188   4.044   1.560
 9175SOL     OW28423   0.268   6.717   4.048
 9175SOL    HW128424   0.242   6.781   3.976
 9175SOL    HW228425   0.305   6.767   4.126
 9176SOL     OW28426   2.924   1.190   5.148
 9176SOL    HW128427   2.863   1.241   5.209
 9176SOL    HW228428   2.874   1.112   5.109
 9177SOL     OW28429   0.533   5.078   4.805
 9177SOL    HW128430   0.447   5.051   4.763
 9177SOL    HW228431   0.544   5.177   4.797
 9178SOL     OW28432   2.080   5.495   0.574
 9178SOL    HW128433   2.124   5.546   0.500
 9178SOL    HW228434   2.086   5.397   0.556
 9179SOL     OW28435   3.018   5.484   4.462
 9179SOL    HW128436   3.014   5.479   4.562
 9179SOL    HW228437   2.968   5.406   4.424
 9180SOL     OW28438   5.995   2.494   2.987
 9180SOL    HW128439   5.903   2.530   2.998
 9180SOL    HW228440   6.008   2.464   2.892
 9181SOL     OW28441   4.185   2.264   4.561
 9181SOL    HW128442   4.143   2.173   4.556
 9181SOL    HW228443   4.178   2.309   4.473
 9182SOL     OW28444   2.181   6.837   2.168
 9182SOL    HW128445   2.121   6.884   2.234
 9182SOL    HW228446   2.149   6.858   2.075
 9183SOL     OW28447   5.130   5.767   0.442
 9183SOL    HW128448   5.138   5.696   0.372
 9183SOL    HW228449   5.135   5.857   0.399
 9184SOL     OW28450   4.988   1.746   0.815
 9184SOL    HW128451   4.946   1.710   0.899
 9184SOL    HW228452   4.970   1.845   0.810
 9185SOL     OW28453   4.236   6.647   4.528
 9185SOL    HW128454   4.183   6.566   4.502
 9185SOL    HW228455   4.214   6.722   4.466
 9186SOL     OW28456   5.805   6.998   4.223
 9186SOL    HW128457   5.776   6.941   4.300
 9186SOL    HW228458   5.733   0.036   4.200
 9187SOL     OW28459   2.434   1.852   1.086
 9187SOL    HW128460   2.485   1.931   1.119
 9187SOL    HW228461   2.391   1.805   1.163
 9188SOL     OW28462   1.424   6.410   1.849
 9188SOL    HW128463   1.347   6.429   1.790
 9188SOL    HW228464   1.455   6.316   1.835
 9189SOL     OW28465   4.643   6.534   1.313
 9189SOL    HW128466   4.734   6.515   1.277
 9189SOL    HW228467   4.608   6.452   1.359
 9190SOL     OW28468   2.272   4.452   6.579
 9190SOL    HW128469   2.274   4.552   6.581
 9190SOL    HW228470   2.344   4.419   6.518
 9191SOL     OW28471   6.487   2.336   5.394
 9191SOL    HW128472   6.534   2.279   5.461
 9191SOL    HW228473   6.453   2.279   5.319
 9192SOL     OW28474   0.288   3.714   6.608
 9192SOL    HW128475   0.189   3.710   6.623
 9192SOL    HW228476   0.334   3.722   6.696
 9193SOL     OW28477   4.764   4.375   0.078
 9193SOL    HW128478   4.773   4.356   0.176
 9193SOL    HW228479   4.812   4.305   0.025
 9194SOL     OW28480   2.777   0.141   3.694
 9194SOL    HW128481   2.875   0.154   3.677
 9194SOL    HW228482   2.725   0.181   3.619
 9195SOL     OW28483   1.551   1.648   3.896
 9195SOL    HW128484   1.632   1.687   3.854
 9195SOL    HW228485   1.515   1.574   3.838
 9196SOL     OW28486   4.568   6.644   3.232
 9196SOL    HW128487   4.470   6.642   3.250
 9196SOL    HW228488   4.583   6.658   3.134
 9197SOL     OW28489   1.753   4.822   2.209
 9197SOL    HW128490   1.806   4.886   2.266
 9197SOL    HW228491   1.742   4.861   2.117
 9198SOL     OW28492   6.376   5.026   6.526
 9198SOL    HW128493   6.285   4.989   6.506
 9198SOL    HW228494   6.434   5.014   6.446
 9199SOL     OW28495   1.248   4.469   5.707
 9199SOL    HW128496   1.201   4.544   5.661
 9199SOL    HW228497   1.321   4.506   5.765
 9200SOL     OW28498   2.499   0.189   0.516
 9200SOL    HW128499   2.463   0.112   0.568
 9200SOL    HW228500   2.580   0.225   0.562
 9201SOL     OW28501   0.815   2.544   0.989
 9201SOL    HW128502   0.798   2.643   0.982
 9201SOL    HW228503   0.908   2.525   0.958
 9202SOL     OW28504   1.162   7.011   2.274
 9202SOL    HW128505   1.168   6.911   2.276
 9202SOL    HW228506   1.229   0.023   2.338
 9203SOL     OW28507   0.964   4.418   6.687
 9203SOL    HW128508   0.962   4.318   6.678
 9203SOL    HW228509   0.878   4.450   6.725
 9204SOL     OW28510   5.104   3.093   6.087
 9204SOL    HW128511   5.039   3.018   6.087
 9204SOL    HW228512   5.057   3.179   6.066
 9205SOL     OW28513   6.192   4.844   3.162
 9205SOL    HW128514   6.199   4.918   3.095
 9205SOL    HW228515   6.114   4.785   3.138
 9206SOL     OW28516   3.776   5.423   2.089
 9206SOL    HW128517   3.729   5.378   2.164
 9206SOL    HW228518   3.715   5.490   2.047
 9207SOL     OW28519   4.913   3.940   6.266
 9207SOL    HW128520   4.970   3.876   6.214
 9207SOL    HW228521   4.953   4.031   6.262
 9208SOL     OW28522   6.366   4.023   3.885
 9208SOL    HW128523   6.270   4.050   3.890
 9208SOL    HW228524   6.379   3.937   3.934
 9209SOL     OW28525   3.508   0.507   6.660
 9209SOL    HW128526   3.606   0.492   6.670
 9209SOL    HW228527   3.489   0.547   6.570
 9210SOL     OW28528   0.114   1.374   2.849
 9210SOL    HW128529   0.021   1.372   2.812
 9210SOL    HW228530   0.180   1.382   2.774
 9211SOL     OW28531   0.240   2.206   5.750
 9211SOL    HW128532   0.285   2.186   5.663
 9211SOL    HW228533   0.304   2.191   5.825
 9212SOL     OW28534   5.099   5.051   4.347
 9212SOL    HW128535   5.094   4.973   4.284
 9212SOL    HW228536   5.189   5.052   4.391
 9213SOL     OW28537   5.094   3.546   5.841
 9213SOL    HW128538   5.181   3.590   5.819
 9213SOL    HW228539   5.046   3.523   5.756
 9214SOL     OW28540   6.536   3.639   6.951
 9214SOL    HW128541   6.551   3.731   6.989
 9214SOL    HW228542   6.535   3.572   7.025
 9215SOL     OW28543   0.783   2.423   1.378
 9215SOL    HW128544   0.687   2.428   1.407
 9215SOL    HW228545   0.789   2.373   1.291
 9216SOL     OW28546   2.818   0.635   2.330
 9216SOL    HW128547   2.777   0.701   2.392
 9216SOL    HW228548   2.760   0.624   2.250
 9217SOL     OW28549   0.709   2.038   6.947
 9217SOL    HW128550   0.616   2.015   6.977
 9217SOL    HW228551   0.765   1.955   6.945
 9218SOL     OW28552   2.326   6.488   0.408
 9218SOL    HW128553   2.234   6.505   0.444
 9218SOL    HW228554   2.320   6.456   0.314
 9219SOL     OW28555   6.921   2.528   1.640
 9219SOL    HW128556   7.006   2.557   1.596
 9219SOL    HW228557   6.913   2.429   1.636
 9220SOL     OW28558   1.649   6.654   1.340
 9220SOL    HW128559   1.585   6.649   1.416
 9220SOL    HW228560   1.742   6.671   1.375
 9221SOL     OW28561   2.846   0.785   3.248
 9221SOL    HW128562   2.925   0.805   3.190
 9221SOL    HW228563   2.874   0.782   3.344
 9222SOL     OW28564   1.994   0.242   6.251
 9222SOL    HW128565   1.910   0.229   6.304
 9222SOL    HW228566   2.018   0.339   6.251
 9223SOL     OW28567   0.822   1.187   4.145
 9223SOL    HW128568   0.914   1.149   4.134
 9223SOL    HW228569   0.829   1.284   4.169
 9224SOL     OW28570   1.717   4.869   4.910
 9224SOL    HW128571   1.739   4.772   4.922
 9224SOL    HW228572   1.651   4.879   4.835
 9225SOL     OW28573   3.295   6.770   5.807
 9225SOL    HW128574   3.360   6.707   5.849
 9225SOL    HW228575   3.256   6.727   5.726
 9226SOL     OW28576   6.206   6.785   1.204
 9226SOL    HW128577   6.166   6.733   1.280
 9226SOL    HW228578   6.141   6.855   1.174
 9227SOL     OW28579   0.969   5.137   0.699
 9227SOL    HW128580   1.027   5.218   0.700
 9227SOL    HW228581   1.026   5.055   0.697
 9228SOL     OW28582   1.591   1.336   5.774
 9228SOL    HW128583   1.564   1.246   5.810
 9228SOL    HW228584   1.567   1.342   5.677
 9229SOL     OW28585   0.491   5.850   4.701
 9229SOL    HW128586   0.476   5.901   4.786
 9229SOL    HW228587   0.443   5.763   4.706
 9230SOL     OW28588   4.893   1.806   3.338
 9230SOL    HW128589   4.949   1.826   3.257
 9230SOL    HW228590   4.940   1.840   3.420
 9231SOL     OW28591   0.656   4.295   4.531
 9231SOL    HW128592   0.602   4.254   4.458
 9231SOL    HW228593   0.625   4.389   4.547
 9232SOL     OW28594   3.657   5.421   0.373
 9232SOL    HW128595   3.734   5.452   0.318
 9232SOL    HW228596   3.590   5.375   0.314
 9233SOL     OW28597   5.408   5.098   2.104
 9233SOL    HW128598   5.498   5.115   2.063
 9233SOL    HW228599   5.338   5.106   2.033
 9234SOL     OW28600   3.618   5.311   5.777
 9234SOL    HW128601   3.627   5.353   5.867
 9234SOL    HW228602   3.691   5.344   5.717
 9235SOL     OW28603   1.751   3.067   3.035
 9235SOL    HW128604   1.705   3.097   3.119
 9235SOL    HW228605   1.849   3.063   3.051
 9236SOL     OW28606   2.916   3.894   5.490
 9236SOL    HW128607   2.845   3.907   5.560
 9236SOL    HW228608   2.909   3.965   5.421
 9237SOL     OW28609   1.518   5.471   4.669
 9237SOL    HW128610   1.609   5.511   4.653
 9237SOL    HW228611   1.501   5.464   4.767
 9238SOL     OW28612   4.018   1.683   6.767
 9238SOL    HW128613   3.967   1.620   6.709
 9238SOL    HW228614   4.056   1.757   6.710
 9239SOL     OW28615   6.892   4.603   0.696
 9239SOL    HW128616   6.947   4.623   0.778
 9239SOL    HW228617   6.897   4.505   0.676
 9240SOL     OW28618   4.837   1.553   1.274
 9240SOL    HW128619   4.832   1.453   1.285
 9240SOL    HW228620   4.748   1.593   1.295
 9241SOL     OW28621   0.576   5.248   5.586
 9241SOL    HW128622   0.486   5.280   5.556
 9241SOL    HW228623   0.583   5.149   5.570
 9242SOL     OW28624   0.061   5.308   0.622
 9242SOL    HW128625   0.080   5.281   0.527
 9242SOL    HW228626   0.141   5.289   0.679
 9243SOL     OW28627   6.155   6.740   2.096
 9243SOL    HW128628   6.140   6.696   2.007
 9243SOL    HW228629   6.251   6.729   2.123
 9244SOL     OW28630   4.527   4.907   6.461
 9244SOL    HW128631   4.617   4.865   6.450
 9244SOL    HW228632   4.515   4.935   6.557
 9245SOL     OW28633   1.559   4.690   3.412
 9245SOL    HW128634   1.591   4.600   3.440
 9245SOL    HW228635   1.636   4.744   3.378
 9246SOL     OW28636   0.442   4.268   2.646
 9246SOL    HW128637   0.520   4.274   2.708
 9246SOL    HW228638   0.364   4.228   2.695
 9247SOL     OW28639   1.155   0.100   2.763
 9247SOL    HW128640   1.064   0.098   2.723
 9247SOL    HW228641   1.161   0.175   2.829
 9248SOL     OW28642   1.501   2.425   5.411
 9248SOL    HW128643   1.525   2.349   5.350
 9248SOL    HW228644   1.415   2.466   5.382
 9249SOL     OW28645   4.820   3.472   6.871
 9249SOL    HW128646   4.799   3.403   6.940
 9249SOL    HW228647   4.919   3.477   6.857
 9250SOL     OW28648   5.201   3.196   5.130
 9250SOL    HW128649   5.275   3.216   5.066
 9250SOL    HW228650   5.211   3.255   5.211
 9251SOL     OW28651   4.037   2.229   3.205
 9251SOL    HW128652   4.021   2.327   3.219
 9251SOL    HW228653   4.106   2.197   3.269
 9252SOL     OW28654   5.875   0.609   4.303
 9252SOL    HW128655   5.849   0.537   4.367
 9252SOL    HW228656   5.793   0.645   4.257
 9253SOL     OW28657   5.868   6.548   5.649
 9253SOL    HW128658   5.923   6.585   5.724
 9253SOL    HW228659   5.906   6.580   5.562
 9254SOL     OW28660   6.343   4.314   3.097
 9254SOL    HW128661   6.348   4.215   3.081
 9254SOL    HW228662   6.316   4.360   3.013
 9255SOL     OW28663   4.758   4.291   0.344
 9255SOL    HW128664   4.781   4.338   0.429
 9255SOL    HW228665   4.705   4.209   0.365
 9256SOL     OW28666   4.115   6.762   2.557
 9256SOL    HW128667   4.072   6.845   2.522
 9256SOL    HW228668   4.166   6.717   2.483
 9257SOL     OW28669   0.770   3.914   3.225
 9257SOL    HW128670   0.750   3.820   3.199
 9257SOL    HW228671   0.842   3.915   3.295
 9258SOL     OW28672   3.279   3.434   3.526
 9258SOL    HW128673   3.331   3.381   3.593
 9258SOL    HW228674   3.312   3.412   3.434
 9259SOL     OW28675   1.354   2.304   0.607
 9259SOL    HW128676   1.332   2.271   0.516
 9259SOL    HW228677   1.401   2.392   0.601
 9260SOL     OW28678   5.026   1.752   5.695
 9260SOL    HW128679   5.067   1.712   5.613
 9260SOL    HW228680   5.007   1.849   5.678
 9261SOL     OW28681   4.592   0.399   6.811
 9261SOL    HW128682   4.647   0.432   6.734
 9261SOL    HW228683   4.648   0.340   6.869
 9262SOL     OW28684   6.523   3.234   5.369
 9262SOL    HW128685   6.482   3.143   5.361
 9262SOL    HW228686   6.452   3.299   5.399
 9263SOL     OW28687   5.651   5.037   1.951
 9263SOL    HW128688   5.696   5.056   2.038
 9263SOL    HW228689   5.664   5.115   1.889
 9264SOL     OW28690   5.589   4.010   0.316
 9264SOL    HW128691   5.667   4.035   0.373
 9264SOL    HW228692   5.621   3.991   0.223
 9265SOL     OW28693   2.975   1.684   6.739
 9265SOL    HW128694   3.075   1.671   6.734
 9265SOL    HW228695   2.941   1.712   6.649
 9266SOL     OW28696   1.690   6.423   2.122
 9266SOL    HW128697   1.703   6.393   2.028
 9266SOL    HW228698   1.747   6.503   2.140
 9267SOL     OW28699   0.536   3.800   6.045
 9267SOL    HW128700   0.601   3.809   6.121
 9267SOL    HW228701   0.586   3.805   5.958
 9268SOL     OW28702   1.551   5.038   1.426
 9268SOL    HW128703   1.581   5.134   1.433
 9268SOL    HW228704   1.456   5.036   1.397
 9269SOL     OW28705   3.232   2.112   5.694
 9269SOL    HW128706   3.309   2.078   5.641
 9269SOL    HW228707   3.237   2.212   5.701
 9270SOL     OW28708   4.659   7.012   5.861
 9270SOL    HW128709   4.646   0.074   5.905
 9270SOL    HW228710   4.713   7.023   5.778
 9271SOL     OW28711   2.140   6.063   6.375
 9271SOL    HW128712   2.097   6.029   6.291
 9271SOL    HW228713   2.073   6.118   6.426
 9272SOL     OW28714   1.722   5.626   5.738
 9272SOL    HW128715   1.653   5.652   5.670
 9272SOL    HW228716   1.813   5.633   5.697
 9273SOL     OW28717   5.136   5.714   4.099
 9273SOL    HW128718   5.139   5.798   4.153
 9273SOL    HW228719   5.055   5.715   4.040
 9274SOL     OW28720   6.637   2.508   0.378
 9274SOL    HW128721   6.654   2.419   0.421
 9274SOL    HW228722   6.723   2.559   0.372
 9275SOL     OW28723   6.992   2.004   0.370
 9275SOL    HW128724   6.930   1.968   0.300
 9275SOL    HW228725   0.044   2.047   0.327
 9276SOL     OW28726   2.188   4.692   3.016
 9276SOL    HW128727   2.170   4.613   3.074
 9276SOL    HW228728   2.192   4.664   2.920
 9277SOL     OW28729   5.527   3.130   0.420
 9277SOL    HW128730   5.616   3.124   0.467
 9277SOL    HW228731   5.456   3.094   0.479
 9278SOL     OW28732   1.357   0.681   4.826
 9278SOL    HW128733   1.295   0.742   4.876
 9278SOL    HW228734   1.319   0.660   4.736
 9279SOL     OW28735   4.706   0.611   2.071
 9279SOL    HW128736   4.721   0.566   2.158
 9279SOL    HW228737   4.765   0.692   2.064
 9280SOL     OW28738   1.693   1.246   2.663
 9280SOL    HW128739   1.621   1.177   2.667
 9280SOL    HW228740   1.696   1.286   2.572
 9281SOL     OW28741   3.074   4.291   1.082
 9281SOL    HW128742   3.006   4.357   1.112
 9281SOL    HW228743   3.029   4.213   1.039
 9282SOL     OW28744   4.774   1.325   4.926
 9282SOL    HW128745   4.849   1.263   4.950
 9282SOL    HW228746   4.778   1.405   4.985
 9283SOL     OW28747   5.644   0.618   3.792
 9283SOL    HW128748   5.738   0.653   3.791
 9283SOL    HW228749   5.631   0.555   3.715
 9284SOL     OW28750   3.241   4.822   5.636
 9284SOL    HW128751   3.237   4.802   5.734
 9284SOL    HW228752   3.336   4.839   5.610
 9285SOL     OW28753   5.386   3.048   1.130
 9285SOL    HW128754   5.299   3.080   1.168
 9285SOL    HW228755   5.456   3.050   1.202
 9286SOL     OW28756   5.276   6.482   6.308
 9286SOL    HW128757   5.242   6.565   6.264
 9286SOL    HW228758   5.203   6.439   6.361
 9287SOL     OW28759   3.303   5.421   0.740
 9287SOL    HW128760   3.359   5.387   0.815
 9287SOL    HW228761   3.363   5.448   0.664
 9288SOL     OW28762   4.022   1.396   4.197
 9288SOL    HW128763   3.945   1.445   4.157
 9288SOL    HW228764   4.092   1.461   4.226
 9289SOL     OW28765   3.448   2.049   2.807
 9289SOL    HW128766   3.473   2.098   2.891
 9289SOL    HW228767   3.466   1.951   2.819
 9290SOL     OW28768   4.665   1.842   3.851
 9290SOL    HW128769   4.653   1.779   3.928
 9290SOL    HW228770   4.673   1.790   3.766
 9291SOL     OW28771   2.468   0.029   4.787
 9291SOL    HW128772   2.403   0.005   4.859
 9291SOL    HW228773   2.421   0.079   4.715
 9292SOL     OW28774   0.416   3.072   6.796
 9292SOL    HW128775   0.320   3.093   6.810
 9292SOL    HW228776   0.457   3.140   6.735
 9293SOL     OW28777   5.698   3.817   0.066
 9293SOL    HW128778   5.703   3.723   0.031
 9293SOL    HW228779   5.643   3.873   0.004
 9294SOL     OW28780   3.197   6.754   4.995
 9294SOL    HW128781   3.099   6.766   4.975
 9294SOL    HW228782   3.248   6.746   4.909
 9295SOL     OW28783   4.935   2.464   4.531
 9295SOL    HW128784   4.957   2.370   4.559
 9295SOL    HW228785   4.918   2.519   4.613
 9296SOL     OW28786   0.806   6.617   6.114
 9296SOL    HW128787   0.723   6.671   6.102
 9296SOL    HW228788   0.820   6.559   6.033
 9297SOL     OW28789   6.062   1.192   0.531
 9297SOL    HW128790   5.981   1.134   0.520
 9297SOL    HW228791   6.124   1.176   0.454
 9298SOL     OW28792   1.649   0.628   4.743
 9298SOL    HW128793   1.559   0.656   4.710
 9298SOL    HW228794   1.707   0.606   4.664
 9299SOL     OW28795   0.702   2.753   4.489
 9299SOL    HW128796   0.718   2.794   4.399
 9299SOL    HW228797   0.605   2.736   4.501
 9300SOL     OW28798   0.424   4.506   5.460
 9300SOL    HW128799   0.380   4.478   5.546
 9300SOL    HW228800   0.388   4.595   5.432
 9301SOL     OW28801   5.155   4.091   3.585
 9301SOL    HW128802   5.239   4.144   3.572
 9301SOL    HW228803   5.160   4.044   3.673
 9302SOL     OW28804   2.223   3.144   4.447
 9302SOL    HW128805   2.154   3.174   4.381
 9302SOL    HW228806   2.309   3.127   4.401
 9303SOL     OW28807   4.000   5.978   0.253
 9303SOL    HW128808   4.049   6.036   0.318
 9303SOL    HW228809   3.902   5.997   0.260
 9304SOL     OW28810   4.755   4.182   1.473
 9304SOL    HW128811   4.700   4.142   1.546
 9304SOL    HW228812   4.851   4.158   1.487
 9305SOL     OW28813   3.419   1.303   2.032
 9305SOL    HW128814   3.394   1.319   2.127
 9305SOL    HW228815   3.438   1.390   1.987
 9306SOL     OW28816   0.359   4.390   5.006
 9306SOL    HW128817   0.443   4.436   4.978
 9306SOL    HW228818   0.325   4.336   4.929
 9307SOL     OW28819   1.478   3.360   1.012
 9307SOL    HW128820   1.429   3.446   1.031
 9307SOL    HW228821   1.425   3.283   1.047
 9308SOL     OW28822   1.018   4.177   0.738
 9308SOL    HW128823   1.113   4.147   0.731
 9308SOL    HW228824   1.002   4.251   0.672
 9309SOL     OW28825   3.501   4.829   5.565
 9309SOL    HW128826   3.532   4.911   5.614
 9309SOL    HW228827   3.576   4.764   5.558
 9310SOL     OW28828   4.265   5.274   5.915
 9310SOL    HW128829   4.322   5.223   5.980
 9310SOL    HW228830   4.266   5.371   5.939
 9311SOL     OW28831   4.821   5.468   1.944
 9311SOL    HW128832   4.805   5.450   1.847
 9311SOL    HW228833   4.900   5.417   1.976
 9312SOL     OW28834   1.235   3.571   1.147
 9312SOL    HW128835   1.174   3.649   1.164
 9312SOL    HW228836   1.323   3.587   1.192
 9313SOL     OW28837   6.655   0.586   0.926
 9313SOL    HW128838   6.569   0.535   0.922
 9313SOL    HW228839   6.639   0.676   0.965
 9314SOL     OW28840   4.656   5.871   6.310
 9314SOL    HW128841   4.566   5.874   6.355
 9314SOL    HW228842   4.643   5.868   6.211
 9315SOL     OW28843   6.494   0.862   5.259
 9315SOL    HW128844   6.425   0.920   5.216
 9315SOL    HW228845   6.452   0.775   5.286
 9316SOL     OW28846   4.270   5.996   5.302
 9316SOL    HW128847   4.293   5.898   5.302
 9316SOL    HW228848   4.344   6.047   5.259
 9317SOL     OW28849   6.564   5.110   3.429
 9317SOL    HW128850   6.469   5.090   3.404
 9317SOL    HW228851   6.600   5.181   3.370
 9318SOL     OW28852   6.038   0.567   5.850
 9318SOL    HW128853   5.978   0.489   5.834
 9318SOL    HW228854   5.993   0.633   5.910
 9319SOL     OW28855   1.011   2.569   0.050
 9319SOL    HW128856   1.028   2.492   7.016
 9319SOL    HW228857   0.940   2.543   0.116
 9320SOL     OW28858   3.866   1.198   6.072
 9320SOL    HW128859   3.837   1.158   5.984
 9320SOL    HW228860   3.911   1.286   6.055
 9321SOL     OW28861   6.243   0.403   3.229
 9321SOL    HW128862   6.154   0.448   3.240
 9321SOL    HW228863   6.230   0.304   3.228
 9322SOL     OW28864   1.075   4.849   6.350
 9322SOL    HW128865   0.991   4.823   6.398
 9322SOL    HW228866   1.152   4.796   6.387
 9323SOL     OW28867   1.548   0.241   5.405
 9323SOL    HW128868   1.538   0.143   5.388
 9323SOL    HW228869   1.520   0.263   5.498
 9324SOL     OW28870   1.461   4.886   0.779
 9324SOL    HW128871   1.410   4.931   0.852
 9324SOL    HW228872   1.555   4.868   0.810
 9325SOL     OW28873   5.013   0.888   6.498
 9325SOL    HW128874   4.939   0.867   6.433
 9325SOL    HW228875   4.991   0.848   6.587
 9326SOL     OW28876   2.185   6.632   1.001
 9326SOL    HW128877   2.153   6.591   0.916
 9326SOL    HW228878   2.109   6.678   1.047
 9327SOL     OW28879   4.979   6.985   2.642
 9327SOL    HW128880   5.000   6.945   2.732
 9327SOL    HW228881   4.981   6.914   2.572
 9328SOL     OW28882   3.293   0.697   5.500
 9328SOL    HW128883   3.276   0.778   5.444
 9328SOL    HW228884   3.390   0.673   5.494
 9329SOL     OW28885   6.802   4.169   2.484
 9329SOL    HW128886   6.890   4.145   2.443
 9329SOL    HW228887   6.816   4.242   2.551
 9330SOL     OW28888   6.941   6.283   6.582
 9330SOL    HW128889   0.011   6.279   6.607
 9330SOL    HW228890   6.904   6.372   6.608
 9331SOL     OW28891   1.588   1.177   6.413
 9331SOL    HW128892   1.530   1.097   6.397
 9331SOL    HW228893   1.559   1.251   6.353
 9332SOL     OW28894   4.016   3.982   1.734
 9332SOL    HW128895   4.037   3.981   1.636
 9332SOL    HW228896   3.963   4.064   1.755
 9333SOL     OW28897   4.597   3.508   1.361
 9333SOL    HW128898   4.586   3.498   1.460
 9333SOL    HW228899   4.508   3.527   1.320
 9334SOL     OW28900   4.908   5.423   3.933
 9334SOL    HW128901   4.861   5.340   3.902
 9334SOL    HW228902   5.002   5.399   3.957
 9335SOL     OW28903   1.033   1.321   6.054
 9335SOL    HW128904   0.957   1.328   5.990
 9335SOL    HW228905   1.118   1.308   6.003
 9336SOL     OW28906   2.794   5.232   5.273
 9336SOL    HW128907   2.772   5.206   5.366
 9336SOL    HW228908   2.848   5.159   5.230
 9337SOL     OW28909   5.489   1.884   3.941
 9337SOL    HW128910   5.482   1.892   3.842
 9337SOL    HW228911   5.523   1.793   3.965
 9338SOL     OW28912   3.933   0.360   2.097
 9338SOL    HW128913   3.907   0.362   2.000
 9338SOL    HW228914   3.922   0.451   2.136
 9339SOL     OW28915   5.515   0.235   1.503
 9339SOL    HW128916   5.488   0.308   1.565
 9339SOL    HW228917   5.567   0.275   1.427
 9340SOL     OW28918   5.683   3.722   4.041
 9340SOL    HW128919   5.723   3.637   4.077
 9340SOL    HW228920   5.606   3.749   4.099
 9341SOL     OW28921   0.335   6.213   0.274
 9341SOL    HW128922   0.404   6.270   0.319
 9341SOL    HW228923   0.381   6.137   0.227
 9342SOL     OW28924   1.660   6.943   3.397
 9342SOL    HW128925   1.700   6.875   3.336
 9342SOL    HW228926   1.568   6.966   3.367
 9343SOL     OW28927   5.843   4.296   2.645
 9343SOL    HW128928   5.843   4.198   2.665
 9343SOL    HW228929   5.805   4.345   2.723
 9344SOL     OW28930   4.593   6.561   1.782
 9344SOL    HW128931   4.618   6.634   1.718
 9344SOL    HW228932   4.548   6.601   1.862
 9345SOL     OW28933   6.505   4.669   2.509
 9345SOL    HW128934   6.487   4.700   2.603
 9345SOL    HW228935   6.421   4.631   2.471
 9346SOL     OW28936   6.025   0.780   1.136
 9346SOL    HW128937   5.974   0.862   1.114
 9346SOL    HW228938   6.115   0.805   1.172
 9347SOL     OW28939   0.998   4.284   0.462
 9347SOL    HW128940   0.899   4.272   0.471
 9347SOL    HW228941   1.034   4.215   0.399
 9348SOL     OW28942   4.232   5.992   1.805
 9348SOL    HW128943   4.193   6.008   1.714
 9348SOL    HW228944   4.321   5.947   1.795
 9349SOL     OW28945   0.891   6.381   2.460
 9349SOL    HW128946   0.802   6.427   2.466
 9349SOL    HW228947   0.882   6.298   2.406
 9350SOL     OW28948   0.109   3.527   5.165
 9350SOL    HW128949   0.020   3.533   5.211
 9350SOL    HW228950   0.150   3.438   5.185
 9351SOL     OW28951   2.685   0.159   6.661
 9351SOL    HW128952   2.634   0.170   6.576
 9351SOL    HW228953   2.765   0.101   6.646
 9352SOL     OW28954   3.453   2.080   6.909
 9352SOL    HW128955   3.545   2.102   6.875
 9352SOL    HW228956   3.390   2.153   6.881
 9353SOL     OW28957   0.360   4.961   0.672
 9353SOL    HW128958   0.433   4.955   0.604
 9353SOL    HW228959   0.363   4.881   0.732
 9354SOL     OW28960   6.303   1.896   6.536
 9354SOL    HW128961   6.384   1.838   6.533
 9354SOL    HW228962   6.319   1.978   6.481
 9355SOL     OW28963   0.561   2.525   4.844
 9355SOL    HW128964   0.496   2.543   4.918
 9355SOL    HW228965   0.621   2.604   4.832
 9356SOL     OW28966   4.495   0.073   1.542
 9356SOL    HW128967   4.463   0.138   1.474
 9356SOL    HW228968   4.566   0.015   1.502
 9357SOL     OW28969   0.785   3.455   6.486
 9357SOL    HW128970   0.777   3.365   6.444
 9357SOL    HW228971   0.759   3.525   6.420
 9358SOL     OW28972   0.171   3.791   2.375
 9358SOL    HW128973   0.151   3.707   2.424
 9358SOL    HW228974   0.189   3.770   2.279
 9359SOL     OW28975   1.432   4.950   0.227
 9359SOL    HW128976   1.408   4.870   0.173
 9359SOL    HW228977   1.426   4.928   0.324
 9360SOL     OW28978   2.138   5.308   6.155
 9360SOL    HW128979   2.105   5.345   6.068
 9360SOL    HW228980   2.064   5.315   6.223
 9361SOL     OW28981   1.721   5.300   3.285
 9361SOL    HW128982   1.631   5.318   3.245
 9361SOL    HW228983   1.781   5.379   3.268
 9362SOL     OW28984   1.111   0.877   2.519
 9362SOL    HW128985   1.097   0.928   2.434
 9362SOL    HW228986   1.145   0.786   2.498
 9363SOL     OW28987   3.888   5.166   1.679
 9363SOL    HW128988   3.927   5.186   1.769
 9363SOL    HW228989   3.791   5.187   1.679
 9364SOL     OW28990   2.568   2.132   0.078
 9364SOL    HW128991   2.564   2.048   0.132
 9364SOL    HW228992   2.653   2.135   0.026
 9365SOL     OW28993   3.049   1.757   3.684
 9365SOL    HW128994   3.014   1.764   3.591
 9365SOL    HW228995   3.015   1.674   3.727
 9366SOL     OW28996   3.324   5.162   0.573
 9366SOL    HW128997   3.296   5.240   0.628
 9366SOL    HW228998   3.383   5.102   0.627
 9367SOL     OW28999   6.386   0.132   1.618
 9367SOL    HW129000   6.421   0.178   1.537
 9367SOL    HW229001   6.350   0.200   1.682
 9368SOL     OW29002   3.814   6.315   2.051
 9368SOL    HW129003   3.803   6.255   1.972
 9368SOL    HW229004   3.743   6.386   2.049
 9369SOL     OW29005   6.972   5.902   4.893
 9369SOL    HW129006   0.042   5.911   4.912
 9369SOL    HW229007   6.959   5.876   4.797
 9370SOL     OW29008   5.454   0.074   3.513
 9370SOL    HW129009   5.381   0.080   3.581
 9370SOL    HW229010   5.484   7.006   3.505
 9371SOL     OW29011   2.638   5.641   1.276
 9371SOL    HW129012   2.715   5.585   1.244
 9371SOL    HW229013   2.582   5.669   1.197
 9372SOL     OW29014   5.116   0.081   1.633
 9372SOL    HW129015   5.190   0.013   1.634
 9372SOL    HW229016   5.135   0.152   1.701
 9373SOL     OW29017   5.591   1.901   0.591
 9373SOL    HW129018   5.639   1.986   0.614
 9373SOL    HW229019   5.543   1.867   0.672
 9374SOL     OW29020   6.697   3.325   5.608
 9374SOL    HW129021   6.638   3.350   5.531
 9374SOL    HW229022   6.675   3.382   5.687
 9375SOL     OW29023   6.912   1.894   0.981
 9375SOL    HW129024   6.833   1.849   1.022
 9375SOL    HW229025   6.896   1.907   0.883
 9376SOL     OW29026   2.287   3.738   1.762
 9376SOL    HW129027   2.234   3.734   1.677
 9376SOL    HW229028   2.260   3.662   1.821
 9377SOL     OW29029   2.033   5.021   3.331
 9377SOL    HW129030   1.939   5.040   3.360
 9377SOL    HW229031   2.074   5.105   3.295
 9378SOL     OW29032   3.381   1.134   3.869
 9378SOL    HW129033   3.348   1.095   3.783
 9378SOL    HW229034   3.423   1.223   3.851
 9379SOL     OW29035   5.474   0.184   5.159
 9379SOL    HW129036   5.381   0.148   5.166
 9379SOL    HW229037   5.483   0.239   5.076
 9380SOL     OW29038   3.520   5.595   5.634
 9380SOL    HW129039   3.531   5.529   5.559
 9380SOL    HW229040   3.441   5.570   5.689
 9381SOL     OW29041   5.017   2.631   4.996
 9381SOL    HW129042   5.034   2.669   5.087
 9381SOL    HW229043   5.097   2.579   4.967
 9382SOL     OW29044   3.715   1.202   3.703
 9382SOL    HW129045   3.632   1.259   3.703
 9382SOL    HW229046   3.788   1.250   3.654
 9383SOL     OW29047   5.100   4.448   4.327
 9383SOL    HW129048   5.060   4.386   4.259
 9383SOL    HW229049   5.199   4.455   4.312
 9384SOL     OW29050   3.146   6.819   2.127
 9384SOL    HW129051   3.208   6.873   2.071
 9384SOL    HW229052   3.199   6.754   2.181
 9385SOL     OW29053   4.513   1.650   4.152
 9385SOL    HW129054   4.472   1.566   4.186
 9385SOL    HW229055   4.493   1.725   4.215
 9386SOL     OW29056   2.697   5.750   5.156
 9386SOL    HW129057   2.635   5.682   5.196
 9386SOL    HW229058   2.784   5.749   5.205
 9387SOL     OW29059   3.685   2.254   0.287
 9387SOL    HW129060   3.760   2.221   0.343
 9387SOL    HW229061   3.658   2.345   0.319
 9388SOL     OW29062   1.934   6.594   3.187
 9388SOL    HW129063   1.923   6.521   3.255
 9388SOL    HW229064   1.984   6.557   3.108
 9389SOL     OW29065   3.247   6.092   2.630
 9389SOL    HW129066   3.161   6.112   2.584
 9389SOL    HW229067   3.291   6.178   2.658
 9390SOL     OW29068   5.771   5.020   5.823
 9390SOL    HW129069   5.732   5.025   5.731
 9390SOL    HW229070   5.743   5.100   5.876
 9391SOL     OW29071   0.481   0.137   4.875
 9391SOL    HW129072   0.424   0.080   4.815
 9391SOL    HW229073   0.530   0.205   4.821
 9392SOL     OW29074   4.639   4.366   4.001
 9392SOL    HW129075   4.627   4.398   4.095
 9392SOL    HW229076   4.734   4.339   3.987
 9393SOL     OW29077   2.791   0.422   6.154
 9393SOL    HW129078   2.844   0.440   6.071
 9393SOL    HW229079   2.846   0.368   6.218
 9394SOL     OW29080   5.908   0.566   1.390
 9394SOL    HW129081   5.922   0.628   1.467
 9394SOL    HW229082   5.996   0.525   1.364
 9395SOL     OW29083   2.113   1.336   0.927
 9395SOL    HW129084   2.103   1.357   1.024
 9395SOL    HW229085   2.141   1.419   0.878
 9396SOL     OW29086   2.264   5.204   5.274
 9396SOL    HW129087   2.282   5.206   5.176
 9396SOL    HW229088   2.169   5.180   5.290
 9397SOL     OW29089   2.873   6.810   5.450
 9397SOL    HW129090   2.938   6.838   5.380
 9397SOL    HW229091   2.893   6.716   5.478
 9398SOL     OW29092   6.169   1.299   5.556
 9398SOL    HW129093   6.159   1.219   5.498
 9398SOL    HW229094   6.183   1.270   5.651
 9399SOL     OW29095   0.953   2.653   4.536
 9399SOL    HW129096   1.012   2.710   4.594
 9399SOL    HW229097   0.864   2.697   4.527
 9400SOL     OW29098   4.947   0.508   0.295
 9400SOL    HW129099   4.952   0.476   0.389
 9400SOL    HW229100   4.851   0.519   0.268
 9401SOL     OW29101   0.123   2.891   1.806
 9401SOL    HW129102   0.212   2.859   1.774
 9401SOL    HW229103   0.098   2.843   1.891
 9402SOL     OW29104   1.621   5.048   3.641
 9402SOL    HW129105   1.691   5.107   3.679
 9402SOL    HW229106   1.582   4.991   3.714
 9403SOL     OW29107   0.304   1.426   2.656
 9403SOL    HW129108   0.380   1.416   2.591
 9403SOL    HW229109   0.286   1.522   2.672
 9404SOL     OW29110   0.269   2.218   1.378
 9404SOL    HW129111   0.191   2.277   1.359
 9404SOL    HW229112   0.244   2.122   1.361
 9405SOL     OW29113   0.829   4.530   4.758
 9405SOL    HW129114   0.890   4.470   4.706
 9405SOL    HW229115   0.759   4.567   4.697
 9406SOL     OW29116   0.917   3.264   6.713
 9406SOL    HW129117   0.917   3.182   6.770
 9406SOL    HW229118   0.968   3.246   6.628
 9407SOL     OW29119   2.984   5.197   4.823
 9407SOL    HW129120   2.977   5.210   4.724
 9407SOL    HW229121   2.892   5.186   4.861
 9408SOL     OW29122   0.134   2.757   5.803
 9408SOL    HW129123   0.218   2.811   5.803
 9408SOL    HW229124   0.117   2.722   5.895
 9409SOL     OW29125   6.464   5.464   2.368
 9409SOL    HW129126   6.527   5.419   2.305
 9409SOL    HW229127   6.498   5.556   2.389
 9410SOL     OW29128   5.071   1.222   1.662
 9410SOL    HW129129   5.084   1.271   1.576
 9410SOL    HW229130   4.989   1.257   1.708
 9411SOL     OW29131   3.178   3.104   3.037
 9411SOL    HW129132   3.257   3.158   3.067
 9411SOL    HW229133   3.204   3.049   2.957
 9412SOL     OW29134   0.694   0.655   1.257
 9412SOL    HW129135   0.718   0.600   1.337
 9412SOL    HW229136   0.650   0.740   1.286
 9413SOL     OW29137   4.829   4.597   4.847
 9413SOL    HW129138   4.904   4.535   4.873
 9413SOL    HW229139   4.759   4.545   4.798
 9414SOL     OW29140   2.488   2.238   4.719
 9414SOL    HW129141   2.399   2.246   4.674
 9414SOL    HW229142   2.536   2.326   4.711
 9415SOL     OW29143   2.574   0.154   1.777
 9415SOL    HW129144   2.492   0.156   1.719
 9415SOL    HW229145   2.598   0.247   1.804
 9416SOL     OW29146   0.433   0.557   5.271
 9416SOL    HW129147   0.446   0.648   5.312
 9416SOL    HW229148   0.519   0.506   5.276
 9417SOL     OW29149   3.090   6.424   1.704
 9417SOL    HW129150   3.115   6.496   1.768
 9417SOL    HW229151   3.092   6.460   1.611
 9418SOL     OW29152   2.958   1.516   2.894
 9418SOL    HW129153   2.977   1.601   2.844
 9418SOL    HW229154   2.860   1.500   2.895
 9419SOL     OW29155   2.768   2.885   6.610
 9419SOL    HW129156   2.749   2.975   6.649
 9419SOL    HW229157   2.682   2.839   6.587
 9420SOL     OW29158   5.989   4.724   0.678
 9420SOL    HW129159   5.981   4.641   0.622
 9420SOL    HW229160   5.930   4.795   0.640
 9421SOL     OW29161   3.211   5.636   4.356
 9421SOL    HW129162   3.226   5.614   4.259
 9421SOL    HW229163   3.143   5.573   4.394
 9422SOL     OW29164   2.387   6.572   3.932
 9422SOL    HW129165   2.458   6.504   3.948
 9422SOL    HW229166   2.422   6.663   3.951
 9423SOL     OW29167   3.980   6.222   2.572
 9423SOL    HW129168   3.939   6.227   2.481
 9423SOL    HW229169   4.073   6.259   2.569
 9424SOL     OW29170   5.327   1.746   4.738
 9424SOL    HW129171   5.416   1.750   4.693
 9424SOL    HW229172   5.291   1.653   4.733
 9425SOL     OW29173   6.152   4.939   1.659
 9425SOL    HW129174   6.180   4.905   1.569
 9425SOL    HW229175   6.054   4.922   1.671
 9426SOL     OW29176   1.738   1.656   6.336
 9426SOL    HW129177   1.728   1.559   6.361
 9426SOL    HW229178   1.783   1.664   6.248
 9427SOL     OW29179   2.349   5.951   3.086
 9427SOL    HW129180   2.275   5.929   3.022
 9427SOL    HW229181   2.431   5.975   3.034
 9428SOL     OW29182   6.363   6.238   0.225
 9428SOL    HW129183   6.404   6.322   0.260
 9428SOL    HW229184   6.311   6.193   0.298
 9429SOL     OW29185   1.395   2.139   4.028
 9429SOL    HW129186   1.466   2.092   3.976
 9429SOL    HW229187   1.426   2.154   4.122
 9430SOL     OW29188   0.070   2.313   4.645
 9430SOL    HW129189   7.018   2.313   4.584
 9430SOL    HW229190   0.044   2.348   4.735
 9431SOL     OW29191   6.689   4.514   0.980
 9431SOL    HW129192   6.643   4.470   0.903
 9431SOL    HW229193   6.786   4.491   0.979
 9432SOL     OW29194   6.464   1.824   4.304
 9432SOL    HW129195   6.376   1.776   4.309
 9432SOL    HW229196   6.453   1.907   4.249
 9433SOL     OW29197   4.193   5.626   3.060
 9433SOL    HW129198   4.293   5.618   3.064
 9433SOL    HW229199   4.161   5.683   3.136
 9434SOL     OW29200   5.733   5.660   3.794
 9434SOL    HW129201   5.795   5.585   3.815
 9434SOL    HW229202   5.755   5.739   3.852
 9435SOL     OW29203   0.471   2.436   2.274
 9435SOL    HW129204   0.407   2.409   2.346
 9435SOL    HW229205   0.453   2.382   2.192
 9436SOL     OW29206   1.055   1.048   2.288
 9436SOL    HW129207   1.068   1.010   2.196
 9436SOL    HW229208   1.062   1.148   2.283
 9437SOL     OW29209   0.769   5.083   3.239
 9437SOL    HW129210   0.754   5.079   3.338
 9437SOL    HW229211   0.846   5.144   3.219
 9438SOL     OW29212   1.311   0.030   1.811
 9438SOL    HW129213   1.250   7.021   1.741
 9438SOL    HW229214   1.406   0.015   1.784
 9439SOL     OW29215   0.316   3.188   1.077
 9439SOL    HW129216   0.271   3.255   1.018
 9439SOL    HW229217   0.385   3.138   1.025
 9440SOL     OW29218   2.734   4.962   3.334
 9440SOL    HW129219   2.663   5.020   3.373
 9440SOL    HW229220   2.732   4.872   3.378
 9441SOL     OW29221   6.850   5.459   5.486
 9441SOL    HW129222   6.793   5.516   5.427
 9441SOL    HW229223   6.836   5.362   5.463
 9442SOL     OW29224   4.846   3.700   1.459
 9442SOL    HW129225   4.804   3.648   1.533
 9442SOL    HW229226   4.790   3.781   1.440
 9443SOL     OW29227   2.940   5.703   1.699
 9443SOL    HW129228   2.877   5.682   1.775
 9443SOL    HW229229   2.899   5.675   1.613
 9444SOL     OW29230   1.826   3.934   0.893
 9444SOL    HW129231   1.828   3.834   0.890
 9444SOL    HW229232   1.912   3.968   0.930
 9445SOL     OW29233   0.132   1.811   3.833
 9445SOL    HW129234   0.198   1.770   3.896
 9445SOL    HW229235   0.156   1.907   3.816
 9446SOL     OW29236   6.156   4.946   4.268
 9446SOL    HW129237   6.148   5.046   4.263
 9446SOL    HW229238   6.066   4.906   4.284
 9447SOL     OW29239   4.745   5.124   2.717
 9447SOL    HW129240   4.699   5.209   2.742
 9447SOL    HW229241   4.844   5.140   2.714
 9448SOL     OW29242   6.066   6.822   5.764
 9448SOL    HW129243   6.129   6.897   5.784
 9448SOL    HW229244   5.972   6.849   5.787
 9449SOL     OW29245   5.305   6.664   6.746
 9449SOL    HW129246   5.210   6.635   6.738
 9449SOL    HW229247   5.332   6.716   6.665
 9450SOL     OW29248   1.798   5.722   4.323
 9450SOL    HW129249   1.739   5.748   4.247
 9450SOL    HW229250   1.832   5.629   4.309
 9451SOL     OW29251   3.689   5.699   6.393
 9451SOL    HW129252   3.590   5.682   6.388
 9451SOL    HW229253   3.722   5.727   6.302
 9452SOL     OW29254   0.637   4.285   0.956
 9452SOL    HW129255   0.626   4.342   1.038
 9452SOL    HW229256   0.597   4.195   0.972
 9453SOL     OW29257   2.860   5.157   3.194
 9453SOL    HW129258   2.779   5.201   3.155
 9453SOL    HW229259   2.831   5.078   3.248
 9454SOL     OW29260   4.523   4.091   1.145
 9454SOL    HW129261   4.474   4.062   1.227
 9454SOL    HW229262   4.587   4.019   1.118
 9455SOL     OW29263   2.455   2.044   2.661
 9455SOL    HW129264   2.387   2.112   2.690
 9455SOL    HW229265   2.524   2.089   2.603
 9456SOL     OW29266   6.268   4.143   2.494
 9456SOL    HW129267   6.235   4.180   2.407
 9456SOL    HW229268   6.368   4.136   2.492
 9457SOL     OW29269   0.621   5.238   4.506
 9457SOL    HW129270   0.717   5.220   4.486
 9457SOL    HW229271   0.607   5.336   4.520
 9458SOL     OW29272   6.887   4.302   0.582
 9458SOL    HW129273   6.830   4.239   0.530
 9458SOL    HW229274   6.983   4.287   0.559
 9459SOL     OW29275   5.213   4.100   4.189
 9459SOL    HW129276   5.224   4.013   4.237
 9459SOL    HW229277   5.293   4.158   4.207
 9460SOL     OW29278   1.727   3.198   4.481
 9460SOL    HW129279   1.749   3.133   4.408
 9460SOL    HW229280   1.764   3.165   4.568
 9461SOL     OW29281   1.349   1.651   1.234
 9461SOL    HW129282   1.413   1.631   1.160
 9461SOL    HW229283   1.350   1.577   1.301
 9462SOL     OW29284   1.640   3.214   3.237
 9462SOL    HW129285   1.726   3.258   3.262
 9462SOL    HW229286   1.575   3.224   3.313
 9463SOL     OW29287   4.946   6.500   1.372
 9463SOL    HW129288   4.948   6.570   1.443
 9463SOL    HW229289   5.014   6.430   1.392
 9464SOL     OW29290   6.715   0.150   1.690
 9464SOL    HW129291   6.784   0.206   1.736
 9464SOL    HW229292   6.685   0.077   1.751
 9465SOL     OW29293   0.412   4.250   1.691
 9465SOL    HW129294   0.419   4.295   1.780
 9465SOL    HW229295   0.320   4.261   1.656
 9466SOL     OW29296   4.478   5.665   6.694
 9466SOL    HW129297   4.481   5.687   6.791
 9466SOL    HW229298   4.569   5.641   6.662
 9467SOL     OW29299   1.625   2.910   0.914
 9467SOL    HW129300   1.575   2.823   0.903
 9467SOL    HW229301   1.723   2.894   0.900
 9468SOL     OW29302   6.321   3.328   6.774
 9468SOL    HW129303   6.348   3.357   6.866
 9468SOL    HW229304   6.222   3.339   6.763
 9469SOL     OW29305   6.901   6.456   0.131
 9469SOL    HW129306   6.927   6.528   0.067
 9469SOL    HW229307   6.980   6.398   0.149
 9470SOL     OW29308   4.977   3.751   0.142
 9470SOL    HW129309   4.942   3.811   0.214
 9470SOL    HW229310   5.020   3.670   0.184
 9471SOL     OW29311   6.087   2.186   5.736
 9471SOL    HW129312   6.121   2.280   5.742
 9471SOL    HW229313   6.007   2.175   5.795
 9472SOL     OW29314   1.397   4.270   6.132
 9472SOL    HW129315   1.320   4.332   6.145
 9472SOL    HW229316   1.465   4.285   6.205
 9473SOL     OW29317   3.075   3.681   6.654
 9473SOL    HW129318   3.006   3.629   6.705
 9473SOL    HW229319   3.155   3.697   6.711
 9474SOL     OW29320   6.321   3.398   1.573
 9474SOL    HW129321   6.407   3.424   1.618
 9474SOL    HW229322   6.305   3.459   1.495
 9475SOL     OW29323   4.340   3.562   6.707
 9475SOL    HW129324   4.292   3.582   6.621
 9475SOL    HW229325   4.299   3.481   6.750
 9476SOL     OW29326   3.831   4.439   5.747
 9476SOL    HW129327   3.893   4.384   5.691
 9476SOL    HW229328   3.763   4.379   5.790
 9477SOL     OW29329   1.590   3.522   0.804
 9477SOL    HW129330   1.559   3.456   0.873
 9477SOL    HW229331   1.600   3.476   0.716
 9478SOL     OW29332   4.305   2.528   1.056
 9478SOL    HW129333   4.284   2.519   0.959
 9478SOL    HW229334   4.403   2.512   1.071
 9479SOL     OW29335   3.886   0.546   1.365
 9479SOL    HW129336   3.951   0.582   1.299
 9479SOL    HW229337   3.882   0.606   1.445
 9480SOL     OW29338   5.786   5.859   6.665
 9480SOL    HW129339   5.824   5.900   6.748
 9480SOL    HW229340   5.691   5.831   6.682
 9481SOL     OW29341   4.882   2.360   3.117
 9481SOL    HW129342   4.814   2.308   3.065
 9481SOL    HW229343   4.840   2.444   3.152
 9482SOL     OW29344   5.855   0.097   1.439
 9482SOL    HW129345   5.887   0.163   1.371
 9482SOL    HW229346   5.777   0.047   1.402
 9483SOL     OW29347   1.537   0.753   6.711
 9483SOL    HW129348   1.543   0.657   6.736
 9483SOL    HW229349   1.462   0.797   6.760
 9484SOL     OW29350   2.521   0.097   4.486
 9484SOL    HW129351   2.590   0.026   4.472
 9484SOL    HW229352   2.566   0.182   4.513
 9485SOL     OW29353   5.977   1.808   1.443
 9485SOL    HW129354   5.947   1.889   1.494
 9485SOL    HW229355   5.903   1.777   1.384
 9486SOL     OW29356   4.991   5.611   0.989
 9486SOL    HW129357   5.043   5.686   1.028
 9486SOL    HW229358   4.894   5.625   1.006
 9487SOL     OW29359   3.113   3.499   4.657
 9487SOL    HW129360   3.066   3.562   4.595
 9487SOL    HW229361   3.060   3.489   4.741
 9488SOL     OW29362   1.851   1.284   1.408
 9488SOL    HW129363   1.807   1.247   1.326
 9488SOL    HW229364   1.840   1.384   1.409
 9489SOL     OW29365   5.554   4.548   1.212
 9489SOL    HW129366   5.569   4.646   1.213
 9489SOL    HW229367   5.483   4.526   1.145
 9490SOL     OW29368   6.662   5.862   3.970
 9490SOL    HW129369   6.738   5.926   3.962
 9490SOL    HW229370   6.618   5.875   4.059
 9491SOL     OW29371   5.521   5.573   4.078
 9491SOL    HW129372   5.506   5.638   4.003
 9491SOL    HW229373   5.523   5.623   4.164
 9492SOL     OW29374   4.623   3.343   5.533
 9492SOL    HW129375   4.567   3.274   5.578
 9492SOL    HW229376   4.660   3.406   5.601
 9493SOL     OW29377   3.469   6.279   3.792
 9493SOL    HW129378   3.499   6.183   3.799
 9493SOL    HW229379   3.389   6.284   3.731
 9494SOL     OW29380   6.069   2.998   2.168
 9494SOL    HW129381   6.115   3.080   2.202
 9494SOL    HW229382   6.041   3.012   2.073
 9495SOL     OW29383   6.997   1.384   2.470
 9495SOL    HW129384   0.025   1.455   2.426
 9495SOL    HW229385   7.024   1.294   2.437
 9496SOL     OW29386   4.623   2.248   2.186
 9496SOL    HW129387   4.614   2.271   2.089
 9496SOL    HW229388   4.534   2.258   2.230
 9497SOL     OW29389   5.460   5.851   5.230
 9497SOL    HW129390   5.387   5.785   5.212
 9497SOL    HW229391   5.547   5.812   5.202
 9498SOL     OW29392   0.158   4.720   4.688
 9498SOL    HW129393   0.148   4.666   4.772
 9498SOL    HW229394   0.197   4.662   4.616
 9499SOL     OW29395   6.981   5.225   5.203
 9499SOL    HW129396   6.918   5.228   5.281
 9499SOL    HW229397   6.984   5.315   5.160
 9500SOL     OW29398   4.030   6.295   1.112
 9500SOL    HW129399   4.028   6.392   1.138
 9500SOL    HW229400   4.097   6.247   1.169
 9501SOL     OW29401   1.503   1.501   4.317
 9501SOL    HW129402   1.575   1.540   4.260
 9501SOL    HW229403   1.467   1.571   4.378
 9502SOL     OW29404   5.895   4.075   4.806
 9502SOL    HW129405   5.968   4.053   4.871
 9502SOL    HW229406   5.925   4.150   4.747
 9503SOL     OW29407   0.680   2.303   0.750
 9503SOL    HW129408   0.673   2.351   0.662
 9503SOL    HW229409   0.642   2.360   0.822
 9504SOL     OW29410   6.605   3.916   1.774
 9504SOL    HW129411   6.643   3.922   1.682
 9504SOL    HW229412   6.649   3.842   1.824
 9505SOL     OW29413   4.870   4.971   5.628
 9505SOL    HW129414   4.949   5.023   5.595
 9505SOL    HW229415   4.800   4.967   5.557
 9506SOL     OW29416   2.417   2.574   0.252
 9506SOL    HW129417   2.488   2.591   0.184
 9506SOL    HW229418   2.441   2.492   0.304
 9507SOL     OW29419   6.416   0.434   0.736
 9507SOL    HW129420   6.480   0.501   0.699
 9507SOL    HW229421   6.381   0.467   0.824
 9508SOL     OW29422   5.583   1.885   2.484
 9508SOL    HW129423   5.637   1.962   2.450
 9508SOL    HW229424   5.532   1.844   2.409
 9509SOL     OW29425   6.496   0.461   3.296
 9509SOL    HW129426   6.399   0.450   3.275
 9509SOL    HW229427   6.512   0.439   3.392
 9510SOL     OW29428   0.938   3.905   3.423
 9510SOL    HW129429   0.887   3.839   3.477
 9510SOL    HW229430   1.035   3.901   3.447
 9511SOL     OW29431   1.049   0.985   1.780
 9511SOL    HW129432   1.125   0.964   1.841
 9511SOL    HW229433   0.972   1.020   1.834
 9512SOL     OW29434   0.066   2.645   0.907
 9512SOL    HW129435   7.026   2.577   0.879
 9512SOL    HW229436   0.095   2.626   1.001
 9513SOL     OW29437   3.369   5.060   5.932
 9513SOL    HW129438   3.352   5.119   6.011
 9513SOL    HW229439   3.351   5.112   5.848
 9514SOL     OW29440   2.685   3.749   6.929
 9514SOL    HW129441   2.655   3.657   6.903
 9514SOL    HW229442   2.755   3.781   6.864
 9515SOL     OW29443   2.515   5.139   3.485
 9515SOL    HW129444   2.428   5.169   3.525
 9515SOL    HW229445   2.588   5.200   3.515
 9516SOL     OW29446   5.581   4.467   0.701
 9516SOL    HW129447   5.518   4.476   0.625
 9516SOL    HW229448   5.551   4.393   0.761
 9517SOL     OW29449   1.055   4.240   1.547
 9517SOL    HW129450   1.104   4.181   1.611
 9517SOL    HW229451   1.103   4.240   1.459
 9518SOL     OW29452   2.702   1.357   0.491
 9518SOL    HW129453   2.689   1.260   0.512
 9518SOL    HW229454   2.661   1.412   0.564
 9519SOL     OW29455   1.288   1.982   5.984
 9519SOL    HW129456   1.249   2.046   6.050
 9519SOL    HW229457   1.252   2.001   5.893
 9520SOL     OW29458   2.901   0.353   2.407
 9520SOL    HW129459   2.897   0.261   2.368
 9520SOL    HW229460   2.860   0.418   2.344
 9521SOL     OW29461   5.385   6.060   3.309
 9521SOL    HW129462   5.444   6.065   3.229
 9521SOL    HW229463   5.411   6.131   3.375
 9522SOL     OW29464   3.470   5.789   1.156
 9522SOL    HW129465   3.565   5.812   1.178
 9522SOL    HW229466   3.442   5.838   1.074
 9523SOL     OW29467   3.296   5.620   4.105
 9523SOL    HW129468   3.289   5.715   4.135
 9523SOL    HW229469   3.225   5.601   4.037
 9524SOL     OW29470   3.991   2.535   1.439
 9524SOL    HW129471   3.902   2.573   1.463
 9524SOL    HW229472   4.000   2.528   1.340
 9525SOL     OW29473   2.195   1.163   6.038
 9525SOL    HW129474   2.192   1.199   5.944
 9525SOL    HW229475   2.167   1.235   6.102
 9526SOL     OW29476   5.487   5.756   3.193
 9526SOL    HW129477   5.506   5.783   3.288
 9526SOL    HW229478   5.574   5.738   3.147
 9527SOL     OW29479   1.009   0.906   2.067
 9527SOL    HW129480   0.922   0.932   2.024
 9527SOL    HW229481   1.016   0.806   2.068
 9528SOL     OW29482   6.571   0.180   0.774
 9528SOL    HW129483   6.506   0.245   0.734
 9528SOL    HW229484   6.546   0.163   0.869
 9529SOL     OW29485   1.080   3.048   6.218
 9529SOL    HW129486   1.063   3.085   6.310
 9529SOL    HW229487   1.163   2.993   6.220
 9530SOL     OW29488   1.567   2.921   2.933
 9530SOL    HW129489   1.587   2.842   2.876
 9530SOL    HW229490   1.652   2.970   2.954
 9531SOL     OW29491   4.127   5.945   2.826
 9531SOL    HW129492   4.125   5.937   2.925
 9531SOL    HW229493   4.034   5.947   2.790
 9532SOL     OW29494   1.642   5.903   1.374
 9532SOL    HW129495   1.681   5.981   1.324
 9532SOL    HW229496   1.706   5.826   1.370
 9533SOL     OW29497   0.290   1.430   5.314
 9533SOL    HW129498   0.211   1.472   5.358
 9533SOL    HW229499   0.336   1.496   5.256
 9534SOL     OW29500   5.568   2.508   5.215
 9534SOL    HW129501   5.638   2.577   5.238
 9534SOL    HW229502   5.478   2.552   5.211
 9535SOL     OW29503   2.654   0.970   5.676
 9535SOL    HW129504   2.720   0.946   5.748
 9535SOL    HW229505   2.622   0.886   5.632
 9536SOL     OW29506   2.212   5.960   5.468
 9536SOL    HW129507   2.115   5.936   5.480
 9536SOL    HW229508   2.233   6.040   5.524
 9537SOL     OW29509   3.203   0.322   2.449
 9537SOL    HW129510   3.113   0.352   2.483
 9537SOL    HW229511   3.212   0.348   2.353
 9538SOL     OW29512   6.839   1.783   4.325
 9538SOL    HW129513   6.778   1.734   4.388
 9538SOL    HW229514   6.808   1.769   4.231
 9539SOL     OW29515   2.211   4.733   5.905
 9539SOL    HW129516   2.277   4.718   5.978
 9539SOL    HW229517   2.255   4.719   5.816
 9540SOL     OW29518   4.675   4.683   5.270
 9540SOL    HW129519   4.681   4.760   5.207
 9540SOL    HW229520   4.746   4.690   5.339
 9541SOL     OW29521   1.595   2.242   5.217
 9541SOL    HW129522   1.677   2.197   5.183
 9541SOL    HW229523   1.571   2.319   5.158
 9542SOL     OW29524   5.043   3.395   4.892
 9542SOL    HW129525   5.117   3.394   4.959
 9542SOL    HW229526   4.995   3.483   4.896
 9543SOL     OW29527   4.817   0.782   4.368
 9543SOL    HW129528   4.765   0.859   4.403
 9543SOL    HW229529   4.763   0.698   4.376
 9544SOL     OW29530   5.757   6.826   2.221
 9544SOL    HW129531   5.743   6.742   2.168
 9544SOL    HW229532   5.814   6.889   2.168
 9545SOL     OW29533   6.739   6.580   3.301
 9545SOL    HW129534   6.640   6.577   3.297
 9545SOL    HW229535   6.773   6.501   3.352
 9546SOL     OW29536   2.940   3.858   6.501
 9546SOL    HW129537   2.973   3.884   6.410
 9546SOL    HW229538   3.012   3.809   6.550
 9547SOL     OW29539   1.979   6.393   4.262
 9547SOL    HW129540   2.000   6.296   4.272
 9547SOL    HW229541   2.036   6.431   4.188
 9548SOL     OW29542   6.266   5.087   4.672
 9548SOL    HW129543   6.293   5.178   4.642
 9548SOL    HW229544   6.308   5.018   4.612
 9549SOL     OW29545   3.685   5.605   0.840
 9549SOL    HW129546   3.716   5.530   0.781
 9549SOL    HW229547   3.717   5.590   0.933
 9550SOL     OW29548   0.521   1.449   0.167
 9550SOL    HW129549   0.450   1.516   0.186
 9550SOL    HW229550   0.550   1.458   0.071
 9551SOL     OW29551   0.219   0.212   5.015
 9551SOL    HW129552   0.261   0.172   5.096
 9551SOL    HW229553   0.265   0.178   4.933
 9552SOL     OW29554   1.042   6.971   3.214
 9552SOL    HW129555   1.091   6.987   3.128
 9552SOL    HW229556   1.038   0.029   3.267
 9553SOL     OW29557   6.303   4.513   6.812
 9553SOL    HW129558   6.242   4.541   6.887
 9553SOL    HW229559   6.256   4.526   6.725
 9554SOL     OW29560   2.722   0.631   2.065
 9554SOL    HW129561   2.654   0.574   2.019
 9554SOL    HW229562   2.810   0.621   2.018
 9555SOL     OW29563   6.390   2.433   1.369
 9555SOL    HW129564   6.396   2.333   1.378
 9555SOL    HW229565   6.453   2.476   1.435
 9556SOL     OW29566   2.725   1.261   1.145
 9556SOL    HW129567   2.702   1.264   1.048
 9556SOL    HW229568   2.642   1.271   1.200
 9557SOL     OW29569   6.350   0.750   2.634
 9557SOL    HW129570   6.304   0.773   2.720
 9557SOL    HW229571   6.443   0.787   2.635
 9558SOL     OW29572   0.003   5.022   3.062
 9558SOL    HW129573   0.042   5.055   3.148
 9558SOL    HW229574   6.931   5.040   3.062
 9559SOL     OW29575   0.644   3.743   1.847
 9559SOL    HW129576   0.611   3.787   1.763
 9559SOL    HW229577   0.578   3.757   1.921
 9560SOL     OW29578   2.163   1.441   3.450
 9560SOL    HW129579   2.239   1.402   3.501
 9560SOL    HW229580   2.103   1.492   3.512
 9561SOL     OW29581   3.355   6.395   0.951
 9561SOL    HW129582   3.375   6.482   0.905
 9561SOL    HW229583   3.264   6.401   0.993
 9562SOL     OW29584   4.226   5.897   3.561
 9562SOL    HW129585   4.178   5.981   3.537
 9562SOL    HW229586   4.241   5.893   3.659
 9563SOL     OW29587   0.103   6.456   6.301
 9563SOL    HW129588   0.056   6.544   6.296
 9563SOL    HW229589   0.037   6.383   6.284
 9564SOL     OW29590   2.948   6.435   6.542
 9564SOL    HW129591   2.915   6.508   6.482
 9564SOL    HW229592   2.970   6.354   6.486
 9565SOL     OW29593   3.667   5.833   4.636
 9565SOL    HW129594   3.649   5.831   4.537
 9565SOL    HW229595   3.742   5.770   4.657
 9566SOL     OW29596   3.339   4.745   6.195
 9566SOL    HW129597   3.254   4.757   6.143
 9566SOL    HW229598   3.380   4.657   6.173
 9567SOL     OW29599   5.888   6.113   6.282
 9567SOL    HW129600   5.828   6.113   6.362
 9567SOL    HW229601   5.863   6.039   6.220
 9568SOL     OW29602   5.293   3.934   6.473
 9568SOL    HW129603   5.380   3.886   6.490
 9568SOL    HW229604   5.309   4.010   6.411
 9569SOL     OW29605   6.393   1.596   0.364
 9569SOL    HW129606   6.473   1.578   0.421
 9569SOL    HW229607   6.389   1.694   0.342
 9570SOL     OW29608   6.965   1.426   0.779
 9570SOL    HW129609   6.944   1.438   0.876
 9570SOL    HW229610   0.018   1.367   0.768
 9571SOL     OW29611   2.429   3.994   0.531
 9571SOL    HW129612   2.459   3.945   0.450
 9571SOL    HW229613   2.503   3.996   0.599
 9572SOL     OW29614   0.886   4.610   0.833
 9572SOL    HW129615   0.926   4.697   0.860
 9572SOL    HW229616   0.955   4.553   0.788
 9573SOL     OW29617   1.218   1.306   0.016
 9573SOL    HW129618   1.316   1.292   0.027
 9573SOL    HW229619   1.202   1.384   6.982
 9574SOL     OW29620   3.789   3.764   5.704
 9574SOL    HW129621   3.711   3.785   5.645
 9574SOL    HW229622   3.862   3.721   5.649
 9575SOL     OW29623   5.666   0.750   1.941
 9575SOL    HW129624   5.644   0.748   2.039
 9575SOL    HW229625   5.600   0.809   1.894
 9576SOL     OW29626   3.309   1.372   4.087
 9576SOL    HW129627   3.256   1.425   4.153
 9576SOL    HW229628   3.272   1.279   4.081
 9577SOL     OW29629   0.196   6.787   2.380
 9577SOL    HW129630   0.270   6.728   2.348
 9577SOL    HW229631   0.222   6.827   2.468
 9578SOL     OW29632   6.468   2.759   2.607
 9578SOL    HW129633   6.371   2.752   2.627
 9578SOL    HW229634   6.494   2.855   2.600
 9579SOL     OW29635   1.738   0.055   1.456
 9579SOL    HW129636   1.758   0.053   1.358
 9579SOL    HW229637   1.697   6.995   1.483
 9580SOL     OW29638   4.716   3.747   0.403
 9580SOL    HW129639   4.813   3.773   0.394
 9580SOL    HW229640   4.710   3.649   0.422
 9581SOL     OW29641   1.306   4.919   6.097
 9581SOL    HW129642   1.405   4.923   6.079
 9581SOL    HW229643   1.291   4.901   6.195
 9582SOL     OW29644   4.133   5.206   4.132
 9582SOL    HW129645   4.087   5.210   4.220
 9582SOL    HW229646   4.162   5.112   4.113
 9583SOL     OW29647   2.106   3.729   2.086
 9583SOL    HW129648   2.048   3.779   2.022
 9583SOL    HW229649   2.150   3.653   2.038
 9584SOL     OW29650   6.125   4.915   6.457
 9584SOL    HW129651   6.092   4.973   6.382
 9584SOL    HW229652   6.140   4.822   6.424
 9585SOL     OW29653   5.782   6.838   2.950
 9585SOL    HW129654   5.864   6.887   2.982
 9585SOL    HW229655   5.791   6.741   2.972
 9586SOL     OW29656   5.257   3.127   2.815
 9586SOL    HW129657   5.164   3.115   2.781
 9586SOL    HW229658   5.271   3.223   2.842
 9587SOL     OW29659   5.898   0.001   2.071
 9587SOL    HW129660   5.996   0.016   2.087
 9587SOL    HW229661   5.853   0.090   2.063
 9588SOL     OW29662   6.871   0.841   1.600
 9588SOL    HW129663   6.858   0.858   1.502
 9588SOL    HW229664   6.802   0.892   1.651
 9589SOL     OW29665   2.477   6.950   5.871
 9589SOL    HW129666   2.526   6.890   5.808
 9589SOL    HW229667   2.434   7.024   5.820
 9590SOL     OW29668   0.301   4.328   2.962
 9590SOL    HW129669   0.256   4.416   2.951
 9590SOL    HW229670   0.292   4.275   2.877
 9591SOL     OW29671   2.645   6.150   1.090
 9591SOL    HW129672   2.690   6.074   1.138
 9591SOL    HW229673   2.666   6.235   1.137
 9592SOL     OW29674   4.426   5.174   2.919
 9592SOL    HW129675   4.445   5.267   2.950
 9592SOL    HW229676   4.388   5.177   2.827
 9593SOL     OW29677   6.703   2.824   4.475
 9593SOL    HW129678   6.759   2.755   4.430
 9593SOL    HW229679   6.756   2.908   4.487
 9594SOL     OW29680   6.778   6.440   2.323
 9594SOL    HW129681   6.680   6.445   2.307
 9594SOL    HW229682   6.802   6.351   2.362
 9595SOL     OW29683   1.796   5.754   4.610
 9595SOL    HW129684   1.802   5.732   4.513
 9595SOL    HW229685   1.887   5.778   4.644
 9596SOL     OW29686   6.404   5.874   5.322
 9596SOL    HW129687   6.402   5.972   5.338
 9596SOL    HW229688   6.422   5.826   5.408
 9597SOL     OW29689   1.045   4.263   1.839
 9597SOL    HW129690   1.097   4.347   1.852
 9597SOL    HW229691   1.016   4.228   1.928
 9598SOL     OW29692   0.232   4.467   6.405
 9598SOL    HW129693   0.257   4.528   6.330
 9598SOL    HW229694   0.168   4.514   6.466
 9599SOL     OW29695   3.878   0.496   5.672
 9599SOL    HW129696   3.878   0.534   5.764
 9599SOL    HW229697   3.932   0.555   5.611
 9600SOL     OW29698   1.133   0.062   5.590
 9600SOL    HW129699   1.086   0.015   5.665
 9600SOL    HW229700   1.219   0.101   5.623
 9601SOL     OW29701   0.734   4.510   5.976
 9601SOL    HW129702   0.721   4.413   5.994
 9601SOL    HW229703   0.735   4.525   5.877
 9602SOL     OW29704   0.876   4.867   6.664
 9602SOL    HW129705   0.793   4.916   6.690
 9602SOL    HW229706   0.951   4.932   6.652
 9603SOL     OW29707   1.940   6.353   4.548
 9603SOL    HW129708   1.873   6.391   4.611
 9603SOL    HW229709   1.957   6.418   4.474
 9604SOL     OW29710   4.800   1.311   6.508
 9604SOL    HW129711   4.778   1.354   6.596
 9604SOL    HW229712   4.883   1.256   6.518
 9605SOL     OW29713   2.114   5.872   6.076
 9605SOL    HW129714   2.050   5.948   6.077
 9605SOL    HW229715   2.208   5.908   6.069
 9606SOL     OW29716   0.302   5.879   3.382
 9606SOL    HW129717   0.281   5.805   3.444
 9606SOL    HW229718   0.254   5.865   3.295
 9607SOL     OW29719   1.030   1.611   2.225
 9607SOL    HW129720   0.969   1.683   2.193
 9607SOL    HW229721   1.125   1.642   2.214
 9608SOL     OW29722   0.267   0.247   2.540
 9608SOL    HW129723   0.223   0.337   2.541
 9608SOL    HW229724   0.203   0.179   2.505
 9609SOL     OW29725   2.069   4.394   4.679
 9609SOL    HW129726   2.120   4.309   4.664
 9609SOL    HW229727   2.131   4.466   4.708
 9610SOL     OW29728   2.466   1.970   6.180
 9610SOL    HW129729   2.405   1.898   6.213
 9610SOL    HW229730   2.504   2.020   6.258
 9611SOL     OW29731   6.343   0.544   0.992
 9611SOL    HW129732   6.340   0.607   1.070
 9611SOL    HW229733   6.292   0.461   1.015
 9612SOL     OW29734   6.099   3.019   1.205
 9612SOL    HW129735   6.142   3.052   1.289
 9612SOL    HW229736   6.005   2.993   1.225
 9613SOL     OW29737   6.164   6.439   5.060
 9613SOL    HW129738   6.138   6.345   5.085
 9613SOL    HW229739   6.204   6.484   5.140
 9614SOL     OW29740   3.656   3.746   2.062
 9614SOL    HW129741   3.727   3.682   2.033
 9614SOL    HW229742   3.566   3.704   2.050
 9615SOL     OW29743   1.368   6.110   2.424
 9615SOL    HW129744   1.323   6.035   2.376
 9615SOL    HW229745   1.464   6.085   2.442
 9616SOL     OW29746   3.561   2.355   0.635
 9616SOL    HW129747   3.484   2.297   0.661
 9616SOL    HW229748   3.552   2.445   0.679
 9617SOL     OW29749   1.172   3.256   3.803
 9617SOL    HW129750   1.180   3.227   3.898
 9617SOL    HW229751   1.078   3.288   3.786
 9618SOL     OW29752   3.651   6.205   6.364
 9618SOL    HW129753   3.689   6.223   6.455
 9618SOL    HW229754   3.584   6.276   6.341
 9619SOL     OW29755   2.396   5.972   0.516
 9619SOL    HW129756   2.455   5.998   0.593
 9619SOL    HW229757   2.308   5.940   0.551
 9620SOL     OW29758   3.133   0.871   6.989
 9620SOL    HW129759   3.199   0.843   6.919
 9620SOL    HW229760   3.132   0.804   0.036
 9621SOL     OW29761   0.356   1.090   2.361
 9621SOL    HW129762   0.380   1.009   2.306
 9621SOL    HW229763   0.376   1.072   2.457
 9622SOL     OW29764   5.491   0.473   6.806
 9622SOL    HW129765   5.516   0.431   6.893
 9622SOL    HW229766   5.403   0.520   6.816
 9623SOL     OW29767   4.897   6.042   6.320
 9623SOL    HW129768   4.894   6.140   6.339
 9623SOL    HW229769   4.804   6.008   6.304
 9624SOL     OW29770   4.532   5.839   4.991
 9624SOL    HW129771   4.537   5.920   4.931
 9624SOL    HW229772   4.446   5.841   5.042
 9625SOL     OW29773   5.250   4.161   6.717
 9625SOL    HW129774   5.224   4.225   6.788
 9625SOL    HW229775   5.171   4.104   6.692
 9626SOL     OW29776   2.100   4.385   5.824
 9626SOL    HW129777   2.188   4.424   5.799
 9626SOL    HW229778   2.050   4.360   5.741
 9627SOL     OW29779   1.444   5.042   6.580
 9627SOL    HW129780   1.522   4.980   6.580
 9627SOL    HW229781   1.441   5.092   6.667
 9628SOL     OW29782   5.499   4.007   6.765
 9628SOL    HW129783   5.409   4.039   6.735
 9628SOL    HW229784   5.532   3.938   6.701
 9629SOL     OW29785   0.247   5.858   2.516
 9629SOL    HW129786   0.192   5.929   2.561
 9629SOL    HW229787   0.309   5.901   2.450
 9630SOL     OW29788   6.409   6.428   5.751
 9630SOL    HW129789   6.329   6.474   5.790
 9630SOL    HW229790   6.414   6.446   5.653
 9631SOL     OW29791   4.239   1.153   1.136
 9631SOL    HW129792   4.249   1.181   1.040
 9631SOL    HW229793   4.251   1.232   1.195
 9632SOL     OW29794   3.038   6.053   1.159
 9632SOL    HW129795   2.992   5.964   1.163
 9632SOL    HW229796   2.985   6.119   1.212
 9633SOL     OW29797   3.998   3.111   2.122
 9633SOL    HW129798   3.969   3.073   2.034
 9633SOL    HW229799   4.067   3.181   2.108
 9634SOL     OW29800   5.317   4.864   2.928
 9634SOL    HW129801   5.346   4.774   2.899
 9634SOL    HW229802   5.383   4.902   2.993
 9635SOL     OW29803   1.344   4.114   4.276
 9635SOL    HW129804   1.375   4.080   4.187
 9635SOL    HW229805   1.378   4.054   4.348
 9636SOL     OW29806   4.517   2.172   5.081
 9636SOL    HW129807   4.498   2.115   5.161
 9636SOL    HW229808   4.486   2.265   5.098
 9637SOL     OW29809   1.933   3.061   1.093
 9637SOL    HW129810   1.932   2.971   1.050
 9637SOL    HW229811   1.840   3.096   1.099
 9638SOL     OW29812   0.558   4.176   6.302
 9638SOL    HW129813   0.593   4.185   6.209
 9638SOL    HW229814   0.585   4.087   6.339
 9639SOL     OW29815   4.548   2.062   1.815
 9639SOL    HW129816   4.636   2.107   1.833
 9639SOL    HW229817   4.533   2.058   1.717
 9640SOL     OW29818   3.914   0.892   2.352
 9640SOL    HW129819   3.957   0.979   2.328
 9640SOL    HW229820   3.985   0.822   2.364
 9641SOL     OW29821   5.471   4.792   2.608
 9641SOL    HW129822   5.480   4.884   2.570
 9641SOL    HW229823   5.382   4.754   2.581
 9642SOL     OW29824   1.148   0.500   3.879
 9642SOL    HW129825   1.134   0.562   3.802
 9642SOL    HW229826   1.222   0.534   3.937
 9643SOL     OW29827   5.146   3.794   4.092
 9643SOL    HW129828   5.047   3.792   4.087
 9643SOL    HW229829   5.184   3.787   3.999
 9644SOL     OW29830   1.118   6.119   5.034
 9644SOL    HW129831   1.216   6.137   5.025
 9644SOL    HW229832   1.098   6.028   4.998
 9645SOL     OW29833   1.647   5.167   6.351
 9645SOL    HW129834   1.609   5.224   6.278
 9645SOL    HW229835   1.606   5.194   6.438
 9646SOL     OW29836   2.653   6.779   5.241
 9646SOL    HW129837   2.736   6.767   5.296
 9646SOL    HW229838   2.662   6.862   5.185
 9647SOL     OW29839   6.208   6.374   3.496
 9647SOL    HW129840   6.239   6.465   3.522
 9647SOL    HW229841   6.109   6.367   3.510
 9648SOL     OW29842   5.065   2.318   1.305
 9648SOL    HW129843   4.987   2.380   1.311
 9648SOL    HW229844   5.150   2.370   1.315
 9649SOL     OW29845   2.233   3.552   0.585
 9649SOL    HW129846   2.210   3.498   0.504
 9649SOL    HW229847   2.225   3.649   0.564
 9650SOL     OW29848   6.574   4.955   4.096
 9650SOL    HW129849   6.532   5.029   4.045
 9650SOL    HW229850   6.516   4.932   4.175
 9651SOL     OW29851   2.517   1.475   6.973
 9651SOL    HW129852   2.433   1.447   6.926
 9651SOL    HW229853   2.548   1.401   0.005
 9652SOL     OW29854   0.109   4.003   1.096
 9652SOL    HW129855   0.196   3.981   1.052
 9652SOL    HW229856   0.054   3.920   1.105
 9653SOL     OW29857   4.636   4.340   6.294
 9653SOL    HW129858   4.589   4.251   6.300
 9653SOL    HW229859   4.712   4.333   6.230
 9654SOL     OW29860   4.074   3.267   3.629
 9654SOL    HW129861   4.068   3.236   3.534
 9654SOL    HW229862   4.087   3.366   3.631
 9655SOL     OW29863   5.937   0.745   1.874
 9655SOL    HW129864   5.842   0.748   1.903
 9655SOL    HW229865   5.989   0.687   1.936
 9656SOL     OW29866   5.758   3.616   0.739
 9656SOL    HW129867   5.773   3.712   0.716
 9656SOL    HW229868   5.837   3.580   0.788
 9657SOL     OW29869   5.826   3.766   3.198
 9657SOL    HW129870   5.819   3.794   3.103
 9657SOL    HW229871   5.745   3.713   3.223
 9658SOL     OW29872   4.233   1.703   2.762
 9658SOL    HW129873   4.205   1.608   2.748
 9658SOL    HW229874   4.181   1.763   2.701
 9659SOL     OW29875   3.764   2.665   0.885
 9659SOL    HW129876   3.796   2.573   0.862
 9659SOL    HW229877   3.712   2.702   0.808
 9660SOL     OW29878   0.474   5.957   0.525
 9660SOL    HW129879   0.526   5.977   0.442
 9660SOL    HW229880   0.430   6.040   0.558
 9661SOL     OW29881   5.138   4.809   1.733
 9661SOL    HW129882   5.223   4.801   1.786
 9661SOL    HW229883   5.158   4.855   1.646
 9662SOL     OW29884   5.577   4.909   0.165
 9662SOL    HW129885   5.608   4.887   0.072
 9662SOL    HW229886   5.564   5.007   0.174
 9663SOL     OW29887   1.113   4.535   4.048
 9663SOL    HW129888   1.126   4.497   4.140
 9663SOL    HW229889   1.172   4.614   4.036
 9664SOL     OW29890   5.262   3.758   3.287
 9664SOL    HW129891   5.344   3.811   3.265
 9664SOL    HW229892   5.188   3.821   3.312
 9665SOL     OW29893   6.601   6.927   6.289
 9665SOL    HW129894   6.631   6.997   6.354
 9665SOL    HW229895   6.501   6.929   6.283
 9666SOL     OW29896   6.432   4.667   1.365
 9666SOL    HW129897   6.350   4.618   1.334
 9666SOL    HW229898   6.504   4.656   1.297
 9667SOL     OW29899   4.256   5.722   0.667
 9667SOL    HW129900   4.315   5.686   0.594
 9667SOL    HW229901   4.281   5.680   0.754
 9668SOL     OW29902   1.263   6.369   5.774
 9668SOL    HW129903   1.347   6.333   5.816
 9668SOL    HW229904   1.278   6.379   5.675
 9669SOL     OW29905   2.570   0.044   1.152
 9669SOL    HW129906   2.574   0.134   1.195
 9669SOL    HW229907   2.657   7.023   1.166
 9670SOL     OW29908   0.608   0.330   5.978
 9670SOL    HW129909   0.697   0.329   6.023
 9670SOL    HW229910   0.580   0.237   5.955
 9671SOL     OW29911   1.209   4.890   6.870
 9671SOL    HW129912   1.165   4.919   6.955
 9671SOL    HW229913   1.158   4.813   6.831
 9672SOL     OW29914   0.423   4.228   3.680
 9672SOL    HW129915   0.418   4.226   3.780
 9672SOL    HW229916   0.474   4.149   3.648
 9673SOL     OW29917   3.414   4.202   1.637
 9673SOL    HW129918   3.484   4.211   1.566
 9673SOL    HW229919   3.344   4.138   1.607
 9674SOL     OW29920   3.532   6.561   2.916
 9674SOL    HW129921   3.624   6.569   2.880
 9674SOL    HW229922   3.520   6.623   2.994
 9675SOL     OW29923   4.815   3.958   0.859
 9675SOL    HW129924   4.739   4.017   0.832
 9675SOL    HW229925   4.793   3.914   0.947
 9676SOL     OW29926   1.282   2.582   6.214
 9676SOL    HW129927   1.254   2.486   6.204
 9676SOL    HW229928   1.227   2.625   6.285
 9677SOL     OW29929   6.224   5.310   0.433
 9677SOL    HW129930   6.289   5.249   0.387
 9677SOL    HW229931   6.173   5.361   0.365
 9678SOL     OW29932   3.259   3.867   4.476
 9678SOL    HW129933   3.320   3.894   4.550
 9678SOL    HW229934   3.258   3.768   4.468
 9679SOL     OW29935   2.871   1.827   4.354
 9679SOL    HW129936   2.796   1.807   4.418
 9679SOL    HW229937   2.833   1.848   4.264
 9680SOL     OW29938   4.415   6.453   4.321
 9680SOL    HW129939   4.345   6.386   4.295
 9680SOL    HW229940   4.444   6.503   4.240
 9681SOL     OW29941   2.241   1.089   1.081
 9681SOL    HW129942   2.284   1.013   1.033
 9681SOL    HW229943   2.142   1.082   1.071
 9682SOL     OW29944   5.362   5.068   4.423
 9682SOL    HW129945   5.406   5.138   4.478
 9682SOL    HW229946   5.401   5.069   4.331
 9683SOL     OW29947   1.726   6.510   0.997
 9683SOL    HW129948   1.809   6.457   1.014
 9683SOL    HW229949   1.749   6.597   0.954
 9684SOL     OW29950   1.450   4.232   5.293
 9684SOL    HW129951   1.393   4.269   5.219
 9684SOL    HW229952   1.411   4.145   5.324
 9685SOL     OW29953   4.584   3.615   1.037
 9685SOL    HW129954   4.504   3.555   1.041
 9685SOL    HW229955   4.604   3.638   0.942
 9686SOL     OW29956   6.949   2.193   6.749
 9686SOL    HW129957   6.917   2.272   6.801
 9686SOL    HW229958   6.949   2.112   6.807
 9687SOL     OW29959   6.368   6.573   1.162
 9687SOL    HW129960   6.283   6.620   1.185
 9687SOL    HW229961   6.440   6.641   1.147
 9688SOL     OW29962   1.451   4.631   1.237
 9688SOL    HW129963   1.479   4.563   1.169
 9688SOL    HW229964   1.498   4.613   1.324
 9689SOL     OW29965   1.230   5.726   6.435
 9689SOL    HW129966   1.174   5.740   6.353
 9689SOL    HW229967   1.276   5.638   6.430
 9690SOL     OW29968   4.683   5.524   4.759
 9690SOL    HW129969   4.734   5.463   4.820
 9690SOL    HW229970   4.598   5.552   4.804
 9691SOL     OW29971   3.381   4.133   2.121
 9691SOL    HW129972   3.319   4.121   2.199
 9691SOL    HW229973   3.327   4.137   2.037
 9692SOL     OW29974   4.316   5.175   0.189
 9692SOL    HW129975   4.283   5.104   0.127
 9692SOL    HW229976   4.358   5.132   0.269
 9693SOL     OW29977   5.990   3.747   4.218
 9693SOL    HW129978   5.949   3.835   4.237
 9693SOL    HW229979   6.060   3.727   4.287
 9694SOL     OW29980   2.496   0.070   2.058
 9694SOL    HW129981   2.528   0.094   1.967
 9694SOL    HW229982   2.570   0.024   2.108
 9695SOL     OW29983   0.071   3.824   3.274
 9695SOL    HW129984   7.023   3.829   3.340
 9695SOL    HW229985   0.109   3.915   3.259
 9696SOL     OW29986   6.009   1.568   3.114
 9696SOL    HW129987   5.946   1.617   3.054
 9696SOL    HW229988   6.089   1.539   3.062
 9697SOL     OW29989   7.002   6.133   0.076
 9697SOL    HW129990   6.922   6.151   0.019
 9697SOL    HW229991   6.998   6.039   0.110
 9698SOL     OW29992   5.981   3.523   6.635
 9698SOL    HW129993   5.985   3.438   6.581
 9698SOL    HW229994   5.890   3.532   6.676
 9699SOL     OW29995   1.160   5.401   6.908
 9699SOL    HW129996   1.138   5.375   6.814
 9699SOL    HW229997   1.109   5.343   6.971
 9700SOL     OW29998   6.140   6.716   3.905
 9700SOL    HW129999   6.237   6.716   3.926
 9700SOL    HW230000   6.088   6.692   3.987
 9701SOL     OW30001   5.018   3.101   6.605
 9701SOL    HW130002   5.098   3.133   6.554
 9701SOL    HW230003   4.940   3.161   6.585
 9702SOL     OW30004   3.607   2.797   0.379
 9702SOL    HW130005   3.680   2.845   0.331
 9702SOL    HW230006   3.520   2.811   0.330
 9703SOL     OW30007   6.427   3.742   4.619
 9703SOL    HW130008   6.472   3.767   4.533
 9703SOL    HW230009   6.453   3.650   4.645
 9704SOL     OW30010   3.125   4.856   2.754
 9704SOL    HW130011   3.038   4.836   2.708
 9704SOL    HW230012   3.117   4.832   2.851
 9705SOL     OW30013   6.257   4.050   5.424
 9705SOL    HW130014   6.353   4.039   5.397
 9705SOL    HW230015   6.209   4.102   5.353
 9706SOL     OW30016   1.735   1.658   1.872
 9706SOL    HW130017   1.737   1.684   1.968
 9706SOL    HW230018   1.714   1.560   1.864
 9707SOL     OW30019   5.836   4.713   2.128
 9707SOL    HW130020   5.737   4.716   2.111
 9707SOL    HW230021   5.853   4.720   2.226
 9708SOL     OW30022   1.953   1.374   2.326
 9708SOL    HW130023   2.052   1.365   2.337
 9708SOL    HW230024   1.923   1.461   2.366
 9709SOL     OW30025   5.513   3.445   2.048
 9709SOL    HW130026   5.541   3.541   2.054
 9709SOL    HW230027   5.421   3.440   2.010
 9710SOL     OW30028   6.270   6.907   6.596
 9710SOL    HW130029   6.277   6.866   6.687
 9710SOL    HW230030   6.317   6.995   6.595
 9711SOL     OW30031   3.959   6.229   6.315
 9711SOL    HW130032   3.865   6.206   6.337
 9711SOL    HW230033   3.960   6.302   6.246
 9712SOL     OW30034   6.305   2.858   1.091
 9712SOL    HW130035   6.230   2.900   1.142
 9712SOL    HW230036   6.278   2.847   0.995
 9713SOL     OW30037   2.319   6.208   3.376
 9713SOL    HW130038   2.347   6.272   3.305
 9713SOL    HW230039   2.372   6.123   3.368
 9714SOL     OW30040   3.782   5.285   4.720
 9714SOL    HW130041   3.747   5.192   4.710
 9714SOL    HW230042   3.862   5.284   4.780
 9715SOL     OW30043   6.239   4.840   1.423
 9715SOL    HW130044   6.176   4.844   1.346
 9715SOL    HW230045   6.314   4.777   1.401
 9716SOL     OW30046   3.679   4.042   6.753
 9716SOL    HW130047   3.766   4.083   6.781
 9716SOL    HW230048   3.622   4.027   6.833
 9717SOL     OW30049   4.577   6.795   6.225
 9717SOL    HW130050   4.644   6.722   6.224
 9717SOL    HW230051   4.565   6.831   6.132
 9718SOL     OW30052   3.948   1.723   0.425
 9718SOL    HW130053   3.895   1.769   0.353
 9718SOL    HW230054   3.988   1.792   0.485
 9719SOL     OW30055   5.125   6.653   5.248
 9719SOL    HW130056   5.196   6.602   5.199
 9719SOL    HW230057   5.148   6.751   5.246
 9720SOL     OW30058   1.814   3.995   2.744
 9720SOL    HW130059   1.882   4.055   2.785
 9720SOL    HW230060   1.783   3.928   2.812
 9721SOL     OW30061   0.388   1.777   0.686
 9721SOL    HW130062   0.325   1.834   0.739
 9721SOL    HW230063   0.354   1.769   0.592
 9722SOL     OW30064   3.597   2.387   5.389
 9722SOL    HW130065   3.595   2.356   5.485
 9722SOL    HW230066   3.660   2.465   5.381
 9723SOL     OW30067   6.023   4.844   4.873
 9723SOL    HW130068   6.015   4.873   4.778
 9723SOL    HW230069   5.970   4.905   4.932
 9724SOL     OW30070   2.320   5.405   6.395
 9724SOL    HW130071   2.286   5.367   6.309
 9724SOL    HW230072   2.285   5.498   6.407
 9725SOL     OW30073   3.874   5.726   4.888
 9725SOL    HW130074   3.835   5.670   4.815
 9725SOL    HW230075   3.892   5.669   4.968
 9726SOL     OW30076   5.218   1.018   4.102
 9726SOL    HW130077   5.197   0.960   4.023
 9726SOL    HW230078   5.313   1.049   4.096
 9727SOL     OW30079   0.648   2.561   0.126
 9727SOL    HW130080   0.606   2.652   0.128
 9727SOL    HW230081   0.658   2.531   0.031
 9728SOL     OW30082   6.173   1.370   6.163
 9728SOL    HW130083   6.173   1.470   6.158
 9728SOL    HW230084   6.254   1.334   6.117
 9729SOL     OW30085   1.610   3.657   3.997
 9729SOL    HW130086   1.706   3.685   4.001
 9729SOL    HW230087   1.603   3.558   4.009
 9730SOL     OW30088   0.480   4.214   4.348
 9730SOL    HW130089   0.402   4.270   4.377
 9730SOL    HW230090   0.536   4.266   4.284
 9731SOL     OW30091   4.911   4.447   2.217
 9731SOL    HW130092   4.842   4.384   2.179
 9731SOL    HW230093   4.995   4.439   2.164
 9732SOL     OW30094   0.901   2.970   1.730
 9732SOL    HW130095   0.887   3.000   1.824
 9732SOL    HW230096   0.872   3.042   1.667
 9733SOL     OW30097   6.155   5.755   2.222
 9733SOL    HW130098   6.124   5.721   2.133
 9733SOL    HW230099   6.255   5.755   2.224
 9734SOL     OW30100   6.336   6.749   6.828
 9734SOL    HW130101   6.424   6.766   6.784
 9734SOL    HW230102   6.281   6.688   6.771
 9735SOL     OW30103   1.482   2.293   3.533
 9735SOL    HW130104   1.580   2.289   3.551
 9735SOL    HW230105   1.442   2.370   3.583
 9736SOL     OW30106   4.999   1.954   6.022
 9736SOL    HW130107   4.999   1.973   6.120
 9736SOL    HW230108   4.993   2.040   5.971
 9737SOL     OW30109   5.717   2.368   2.559
 9737SOL    HW130110   5.716   2.320   2.471
 9737SOL    HW230111   5.715   2.301   2.633
 9738SOL     OW30112   1.965   6.564   0.807
 9738SOL    HW130113   1.971   6.640   0.741
 9738SOL    HW230114   1.991   6.479   0.762
 9739SOL     OW30115   4.542   6.108   6.865
 9739SOL    HW130116   4.484   6.031   6.890
 9739SOL    HW230117   4.570   6.099   6.769
 9740SOL     OW30118   5.794   0.869   2.354
 9740SOL    HW130119   5.832   0.812   2.282
 9740SOL    HW230120   5.861   0.880   2.428
 9741SOL     OW30121   2.737   1.123   4.057
 9741SOL    HW130122   2.716   1.083   3.968
 9741SOL    HW230123   2.820   1.081   4.095
 9742SOL     OW30124   4.473   1.220   6.814
 9742SOL    HW130125   4.407   1.237   6.888
 9742SOL    HW230126   4.425   1.192   6.731
 9743SOL     OW30127   0.652   3.383   3.368
 9743SOL    HW130128   0.621   3.478   3.360
 9743SOL    HW230129   0.741   3.374   3.324
 9744SOL     OW30130   2.398   6.921   2.696
 9744SOL    HW130131   2.331   6.901   2.767
 9744SOL    HW230132   2.352   6.926   2.607
 9745SOL     OW30133   5.324   2.169   6.129
 9745SOL    HW130134   5.372   2.247   6.171
 9745SOL    HW230135   5.227   2.174   6.150
 9746SOL     OW30136   5.080   6.722   6.619
 9746SOL    HW130137   5.096   6.737   6.521
 9746SOL    HW230138   5.007   6.655   6.632
 9747SOL     OW30139   2.541   1.708   1.475
 9747SOL    HW130140   2.528   1.784   1.538
 9747SOL    HW230141   2.606   1.733   1.404
 9748SOL     OW30142   0.109   0.509   3.163
 9748SOL    HW130143   0.155   0.561   3.091
 9748SOL    HW230144   0.117   0.411   3.145
 9749SOL     OW30145   0.399   2.084   2.236
 9749SOL    HW130146   0.480   2.104   2.292
 9749SOL    HW230147   0.338   2.163   2.235
 9750SOL     OW30148   6.121   4.595   3.877
 9750SOL    HW130149   6.078   4.642   3.800
 9750SOL    HW230150   6.112   4.497   3.867
 9751SOL     OW30151   2.895   0.459   1.297
 9751SOL    HW130152   2.895   0.470   1.198
 9751SOL    HW230153   2.958   0.385   1.323
 9752SOL     OW30154   4.273   2.556   6.705
 9752SOL    HW130155   4.338   2.555   6.628
 9752SOL    HW230156   4.181   2.537   6.670
 9753SOL     OW30157   0.969   5.411   6.079
 9753SOL    HW130158   0.878   5.378   6.055
 9753SOL    HW230159   0.973   5.431   6.177
 9754SOL     OW30160   3.858   0.301   0.459
 9754SOL    HW130161   3.934   0.239   0.480
 9754SOL    HW230162   3.854   0.373   0.528
 9755SOL     OW30163   3.003   4.091   5.087
 9755SOL    HW130164   3.028   4.076   4.991
 9755SOL    HW230165   2.987   4.189   5.102
 9756SOL     OW30166   5.490   1.742   6.118
 9756SOL    HW130167   5.584   1.711   6.132
 9756SOL    HW230168   5.429   1.663   6.118
 9757SOL     OW30169   5.676   4.708   4.000
 9757SOL    HW130170   5.704   4.616   3.972
 9757SOL    HW230171   5.655   4.708   4.097
 9758SOL     OW30172   1.331   1.187   0.320
 9758SOL    HW130173   1.411   1.137   0.287
 9758SOL    HW230174   1.356   1.282   0.338
 9759SOL     OW30175   0.771   1.418   0.631
 9759SOL    HW130176   0.845   1.359   0.598
 9759SOL    HW230177   0.704   1.432   0.559
 9760SOL     OW30178   4.989   2.404   6.890
 9760SOL    HW130179   5.011   2.427   6.985
 9760SOL    HW230180   4.924   2.471   6.854
 9761SOL     OW30181   1.270   1.428   1.981
 9761SOL    HW130182   1.307   1.517   2.007
 9761SOL    HW230183   1.296   1.407   1.887
 9762SOL     OW30184   3.083   1.705   4.489
 9762SOL    HW130185   3.148   1.752   4.549
 9762SOL    HW230186   3.020   1.772   4.449
 9763SOL     OW30187   6.007   1.404   2.666
 9763SOL    HW130188   6.084   1.382   2.726
 9763SOL    HW230189   6.018   1.354   2.580
 9764SOL     OW30190   6.270   2.309   2.860
 9764SOL    HW130191   6.364   2.333   2.883
 9764SOL    HW230192   6.234   2.245   2.928
 9765SOL     OW30193   6.393   1.241   2.137
 9765SOL    HW130194   6.381   1.221   2.235
 9765SOL    HW230195   6.416   1.337   2.126
 9766SOL     OW30196   2.012   0.260   3.278
 9766SOL    HW130197   1.923   0.218   3.299
 9766SOL    HW230198   2.051   0.216   3.197
 9767SOL     OW30199   2.074   2.967   5.406
 9767SOL    HW130200   2.027   2.953   5.493
 9767SOL    HW230201   2.172   2.949   5.418
 9768SOL     OW30202   5.703   2.129   0.736
 9768SOL    HW130203   5.626   2.120   0.799
 9768SOL    HW230204   5.785   2.156   0.788
 9769SOL     OW30205   3.366   0.639   5.217
 9769SOL    HW130206   3.269   0.625   5.234
 9769SOL    HW230207   3.417   0.631   5.302
 9770SOL     OW30208   3.645   1.914   5.374
 9770SOL    HW130209   3.639   2.012   5.352
 9770SOL    HW230210   3.635   1.860   5.291
 9771SOL     OW30211   2.362   0.075   1.580
 9771SOL    HW130212   2.318   0.012   1.644
 9771SOL    HW230213   2.396   0.023   1.501
 9772SOL     OW30214   1.771   6.376   1.864
 9772SOL    HW130215   1.745   6.465   1.826
 9772SOL    HW230216   1.810   6.320   1.791
 9773SOL     OW30217   5.621   5.115   3.318
 9773SOL    HW130218   5.633   5.198   3.264
 9773SOL    HW230219   5.575   5.137   3.404
 9774SOL     OW30220   1.078   5.052   3.663
 9774SOL    HW130221   0.994   5.005   3.636
 9774SOL    HW230222   1.056   5.123   3.730
 9775SOL     OW30223   2.784   0.546   3.131
 9775SOL    HW130224   2.797   0.634   3.176
 9775SOL    HW230225   2.713   0.554   3.061
 9776SOL     OW30226   1.652   4.682   6.074
 9776SOL    HW130227   1.727   4.621   6.050
 9776SOL    HW230228   1.650   4.695   6.174
 9777SOL     OW30229   5.208   6.311   6.705
 9777SOL    HW130230   5.267   6.354   6.773
 9777SOL    HW230231   5.261   6.243   6.654
 9778SOL     OW30232   0.070   2.045   4.750
 9778SOL    HW130233   0.047   2.142   4.755
 9778SOL    HW230234   0.136   2.029   4.677
 9779SOL     OW30235   0.346   2.688   4.085
 9779SOL    HW130236   0.409   2.644   4.021
 9779SOL    HW230237   0.304   2.620   4.144
 9780SOL     OW30238   1.865   1.286   1.124
 9780SOL    HW130239   1.803   1.343   1.070
 9780SOL    HW230240   1.941   1.341   1.157
 9781SOL     OW30241   2.076   3.525   4.620
 9781SOL    HW130242   1.999   3.521   4.683
 9781SOL    HW230243   2.137   3.447   4.636
 9782SOL     OW30244   0.862   1.927   0.764
 9782SOL    HW130245   0.897   1.959   0.676
 9782SOL    HW230246   0.787   1.863   0.749
 9783SOL     OW30247   4.631   1.796   3.362
 9783SOL    HW130248   4.600   1.791   3.267
 9783SOL    HW230249   4.730   1.782   3.365
 9784SOL     OW30250   3.538   1.376   6.376
 9784SOL    HW130251   3.502   1.337   6.291
 9784SOL    HW230252   3.585   1.305   6.428
 9785SOL     OW30253   6.233   2.453   5.433
 9785SOL    HW130254   6.217   2.484   5.340
 9785SOL    HW230255   6.328   2.471   5.458
 9786SOL     OW30256   2.761   4.305   0.472
 9786SOL    HW130257   2.683   4.350   0.428
 9786SOL    HW230258   2.744   4.294   0.569
 9787SOL     OW30259   4.023   3.622   4.436
 9787SOL    HW130260   3.993   3.703   4.385
 9787SOL    HW230261   4.035   3.545   4.373
 9788SOL     OW30262   1.435   5.743   2.073
 9788SOL    HW130263   1.503   5.669   2.069
 9788SOL    HW230264   1.357   5.713   2.128
 9789SOL     OW30265   2.987   6.951   0.154
 9789SOL    HW130266   2.932   6.948   0.070
 9789SOL    HW230267   2.961   6.874   0.213
 9790SOL     OW30268   6.400   4.542   6.044
 9790SOL    HW130269   6.390   4.522   6.141
 9790SOL    HW230270   6.325   4.601   6.014
 9791SOL     OW30271   0.768   0.243   0.231
 9791SOL    HW130272   0.780   0.241   0.331
 9791SOL    HW230273   0.766   0.149   0.197
 9792SOL     OW30274   4.215   5.114   1.150
 9792SOL    HW130275   4.171   5.126   1.061
 9792SOL    HW230276   4.269   5.195   1.172
 9793SOL     OW30277   4.073   0.136   1.733
 9793SOL    HW130278   4.033   0.085   1.656
 9793SOL    HW230279   4.006   0.200   1.769
 9794SOL     OW30280   5.002   4.371   4.900
 9794SOL    HW130281   5.065   4.324   4.962
 9794SOL    HW230282   4.997   4.321   4.814
 9795SOL     OW30283   1.102   3.152   4.050
 9795SOL    HW130284   1.153   3.194   4.125
 9795SOL    HW230285   1.110   3.053   4.057
 9796SOL     OW30286   3.977   3.909   3.754
 9796SOL    HW130287   4.020   3.884   3.667
 9796SOL    HW230288   3.897   3.851   3.770
 9797SOL     OW30289   2.491   6.239   0.388
 9797SOL    HW130290   2.427   6.168   0.417
 9797SOL    HW230291   2.460   6.279   0.302
 9798SOL     OW30292   2.031   1.824   1.184
 9798SOL    HW130293   2.114   1.785   1.225
 9798SOL    HW230294   2.039   1.821   1.084
 9799SOL     OW30295   3.081   4.059   6.265
 9799SOL    HW130296   3.075   4.081   6.168
 9799SOL    HW230297   3.147   4.120   6.309
 9800SOL     OW30298   5.821   3.493   4.168
 9800SOL    HW130299   5.911   3.527   4.140
 9800SOL    HW230300   5.807   3.401   4.131
 9801SOL     OW30301   5.148   4.661   0.388
 9801SOL    HW130302   5.097   4.686   0.471
 9801SOL    HW230303   5.245   4.653   0.410
 9802SOL     OW30304   4.191   4.667   0.381
 9802SOL    HW130305   4.128   4.657   0.458
 9802SOL    HW230306   4.141   4.661   0.295
 9803SOL     OW30307   1.813   3.442   6.431
 9803SOL    HW130308   1.912   3.436   6.427
 9803SOL    HW230309   1.777   3.470   6.341
 9804SOL     OW30310   6.830   6.144   2.970
 9804SOL    HW130311   6.851   6.116   3.063
 9804SOL    HW230312   6.853   6.241   2.958
 9805SOL     OW30313   1.317   6.919   3.038
 9805SOL    HW130314   1.414   6.919   3.012
 9805SOL    HW230315   1.261   6.901   2.958
 9806SOL     OW30316   2.874   2.753   6.182
 9806SOL    HW130317   2.781   2.716   6.178
 9806SOL    HW230318   2.912   2.739   6.273
 9807SOL     OW30319   3.235   2.959   2.398
 9807SOL    HW130320   3.192   2.963   2.308
 9807SOL    HW230321   3.329   2.926   2.390
 9808SOL     OW30322   3.764   5.626   3.686
 9808SOL    HW130323   3.772   5.578   3.598
 9808SOL    HW230324   3.849   5.616   3.737
 9809SOL     OW30325   0.964   3.202   0.142
 9809SOL    HW130326   0.973   3.158   0.053
 9809SOL    HW230327   0.952   3.300   0.130
 9810SOL     OW30328   2.835   2.202   5.015
 9810SOL    HW130329   2.822   2.129   5.083
 9810SOL    HW230330   2.930   2.231   5.017
 9811SOL     OW30331   6.009   3.621   3.297
 9811SOL    HW130332   5.956   3.699   3.265
 9811SOL    HW230333   6.018   3.625   3.397
 9812SOL     OW30334   3.148   0.349   4.188
 9812SOL    HW130335   3.053   0.323   4.206
 9812SOL    HW230336   3.151   0.414   4.112
 9813SOL     OW30337   5.906   2.197   0.895
 9813SOL    HW130338   5.851   2.240   0.967
 9813SOL    HW230339   6.003   2.217   0.910
 9814SOL     OW30340   5.300   1.501   7.005
 9814SOL    HW130341   5.258   1.413   0.002
 9814SOL    HW230342   5.378   1.484   6.944
 9815SOL     OW30343   4.981   2.613   4.143
 9815SOL    HW130344   5.033   2.698   4.142
 9815SOL    HW230345   4.894   2.628   4.190
 9816SOL     OW30346   1.167   0.415   6.564
 9816SOL    HW130347   1.261   0.441   6.541
 9816SOL    HW230348   1.128   0.482   6.627
 9817SOL     OW30349   0.616   6.824   3.045
 9817SOL    HW130350   0.664   6.739   3.023
 9817SOL    HW230351   0.604   6.831   3.144
 9818SOL     OW30352   6.240   1.986   4.739
 9818SOL    HW130353   6.228   2.077   4.779
 9818SOL    HW230354   6.150   1.949   4.714
 9819SOL     OW30355   4.398   2.477   3.354
 9819SOL    HW130356   4.390   2.549   3.285
 9819SOL    HW230357   4.459   2.508   3.427
 9820SOL     OW30358   3.570   3.162   6.839
 9820SOL    HW130359   3.476   3.188   6.814
 9820SOL    HW230360   3.634   3.228   6.799
 9821SOL     OW30361   5.796   0.361   6.296
 9821SOL    HW130362   5.857   0.433   6.263
 9821SOL    HW230363   5.786   0.370   6.395
 9822SOL     OW30364   0.622   7.006   2.686
 9822SOL    HW130365   0.614   0.066   2.736
 9822SOL    HW230366   0.549   6.944   2.714
 9823SOL     OW30367   3.701   0.202   1.762
 9823SOL    HW130368   3.731   0.249   1.679
 9823SOL    HW230369   3.660   0.268   1.825
 9824SOL     OW30370   2.178   4.165   5.572
 9824SOL    HW130371   2.139   4.127   5.656
 9824SOL    HW230372   2.114   4.232   5.533
 9825SOL     OW30373   3.252   5.529   5.220
 9825SOL    HW130374   3.337   5.567   5.255
 9825SOL    HW230375   3.268   5.436   5.187
 9826SOL     OW30376   4.462   5.629   6.181
 9826SOL    HW130377   4.474   5.715   6.131
 9826SOL    HW230378   4.496   5.640   6.274
 9827SOL     OW30379   2.066   4.429   4.381
 9827SOL    HW130380   2.034   4.351   4.329
 9827SOL    HW230381   2.079   4.403   4.477
 9828SOL     OW30382   2.877   2.902   6.912
 9828SOL    HW130383   2.953   2.861   6.862
 9828SOL    HW230384   2.874   2.865   7.005
 9829SOL     OW30385   2.792   6.252   0.853
 9829SOL    HW130386   2.839   6.340   0.843
 9829SOL    HW230387   2.710   6.264   0.908
 9830SOL     OW30388   5.678   2.495   1.758
 9830SOL    HW130389   5.669   2.464   1.853
 9830SOL    HW230390   5.596   2.545   1.731
 9831SOL     OW30391   2.059   6.247   0.572
 9831SOL    HW130392   2.077   6.323   0.510
 9831SOL    HW230393   2.122   6.250   0.649
 9832SOL     OW30394   5.011   5.265   2.030
 9832SOL    HW130395   5.097   5.309   2.056
 9832SOL    HW230396   5.031   5.185   1.974
 9833SOL     OW30397   3.309   2.916   4.965
 9833SOL    HW130398   3.322   2.889   5.060
 9833SOL    HW230399   3.315   2.835   4.906
 9834SOL     OW30400   2.815   3.656   6.107
 9834SOL    HW130401   2.743   3.683   6.171
 9834SOL    HW230402   2.810   3.557   6.091
 9835SOL     OW30403   3.804   2.598   5.852
 9835SOL    HW130404   3.706   2.585   5.837
 9835SOL    HW230405   3.830   2.556   5.939
 9836SOL     OW30406   6.304   4.269   3.770
 9836SOL    HW130407   6.358   4.336   3.718
 9836SOL    HW230408   6.364   4.197   3.805
 9837SOL     OW30409   2.081   0.270   2.575
 9837SOL    HW130410   2.157   0.309   2.523
 9837SOL    HW230411   2.065   0.324   2.657
 9838SOL     OW30412   0.877   6.735   5.840
 9838SOL    HW130413   0.888   6.673   5.762
 9838SOL    HW230414   0.797   6.793   5.826
 9839SOL     OW30415   5.792   1.257   2.756
 9839SOL    HW130416   5.784   1.242   2.855
 9839SOL    HW230417   5.851   1.336   2.739
 9840SOL     OW30418   0.133   0.976   1.302
 9840SOL    HW130419   0.206   0.940   1.360
 9840SOL    HW230420   0.143   0.940   1.209
 9841SOL     OW30421   1.191   4.904   4.710
 9841SOL    HW130422   1.226   4.819   4.749
 9841SOL    HW230423   1.245   4.927   4.628
 9842SOL     OW30424   3.613   4.168   3.407
 9842SOL    HW130425   3.525   4.122   3.418
 9842SOL    HW230426   3.682   4.122   3.463
 9843SOL     OW30427   6.809   1.873   1.982
 9843SOL    HW130428   6.814   1.789   2.035
 9843SOL    HW230429   6.863   1.864   1.899
 9844SOL     OW30430   4.954   0.429   2.546
 9844SOL    HW130431   5.001   0.390   2.626
 9844SOL    HW230432   4.972   0.527   2.541
 9845SOL     OW30433   2.431   1.700   4.714
 9845SOL    HW130434   2.360   1.770   4.705
 9845SOL    HW230435   2.519   1.744   4.734
 9846SOL     OW30436   3.694   3.367   2.136
 9846SOL    HW130437   3.603   3.408   2.139
 9846SOL    HW230438   3.710   3.315   2.220
 9847SOL     OW30439   3.537   2.731   5.683
 9847SOL    HW130440   3.543   2.677   5.766
 9847SOL    HW230441   3.479   2.684   5.616
 9848SOL     OW30442   3.426   2.507   6.429
 9848SOL    HW130443   3.394   2.510   6.524
 9848SOL    HW230444   3.347   2.510   6.367
 9849SOL     OW30445   5.863   0.298   0.200
 9849SOL    HW130446   5.887   0.390   0.233
 9849SOL    HW230447   5.782   0.304   0.142
 9850SOL     OW30448   5.600   6.274   2.592
 9850SOL    HW130449   5.549   6.241   2.671
 9850SOL    HW230450   5.570   6.367   2.570
 9851SOL     OW30451   4.703   2.046   5.644
 9851SOL    HW130452   4.675   2.139   5.619
 9851SOL    HW230453   4.634   2.004   5.703
 9852SOL     OW30454   4.402   1.930   3.448
 9852SOL    HW130455   4.493   1.893   3.431
 9852SOL    HW230456   4.370   1.898   3.537
 9853SOL     OW30457   4.812   4.098   3.307
 9853SOL    HW130458   4.854   4.030   3.366
 9853SOL    HW230459   4.713   4.096   3.318
 9854SOL     OW30460   6.393   5.006   5.212
 9854SOL    HW130461   6.346   4.936   5.158
 9854SOL    HW230462   6.325   5.071   5.248
 9855SOL     OW30463   2.140   4.440   2.166
 9855SOL    HW130464   2.054   4.404   2.203
 9855SOL    HW230465   2.204   4.364   2.152
 9856SOL     OW30466   5.200   3.893   6.963
 9856SOL    HW130467   5.231   3.967   7.022
 9856SOL    HW230468   5.166   3.817   7.019
 9857SOL     OW30469   4.403   2.086   4.313
 9857SOL    HW130470   4.412   2.068   4.215
 9857SOL    HW230471   4.344   2.165   4.327
 9858SOL     OW30472   6.637   1.238   1.749
 9858SOL    HW130473   6.539   1.217   1.742
 9858SOL    HW230474   6.649   1.323   1.801
 9859SOL     OW30475   6.409   6.992   1.199
 9859SOL    HW130476   6.488   6.961   1.251
 9859SOL    HW230477   6.343   6.917   1.190
 9860SOL     OW30478   6.988   0.973   2.665
 9860SOL    HW130479   6.939   0.974   2.578
 9860SOL    HW230480   6.985   1.063   2.707
 9861SOL     OW30481   2.800   7.001   3.214
 9861SOL    HW130482   2.700   7.002   3.216
 9861SOL    HW230483   2.834   6.939   3.284
 9862SOL     OW30484   2.569   4.505   0.431
 9862SOL    HW130485   2.540   4.544   0.343
 9862SOL    HW230486   2.629   4.570   0.478
 9863SOL     OW30487   3.027   0.154   3.245
 9863SOL    HW130488   3.096   0.134   3.176
 9863SOL    HW230489   2.944   0.101   3.226
 9864SOL     OW30490   3.996   5.738   4.118
 9864SOL    HW130491   3.962   5.644   4.130
 9864SOL    HW230492   3.927   5.803   4.149
 9865SOL     OW30493   1.265   1.453   4.199
 9865SOL    HW130494   1.200   1.461   4.274
 9865SOL    HW230495   1.358   1.455   4.236
 9866SOL     OW30496   5.712   4.195   5.151
 9866SOL    HW130497   5.764   4.215   5.068
 9866SOL    HW230498   5.765   4.132   5.208
 9867SOL     OW30499   6.219   0.316   1.107
 9867SOL    HW130500   6.207   0.284   1.201
 9867SOL    HW230501   6.129   0.339   1.068
 9868SOL     OW30502   1.608   4.380   5.468
 9868SOL    HW130503   1.558   4.302   5.431
 9868SOL    HW230504   1.624   4.366   5.566
 9869SOL     OW30505   1.782   3.552   2.410
 9869SOL    HW130506   1.738   3.569   2.498
 9869SOL    HW230507   1.743   3.614   2.341
 9870SOL     OW30508   4.528   5.613   2.647
 9870SOL    HW130509   4.621   5.616   2.609
 9870SOL    HW230510   4.462   5.623   2.573
 9871SOL     OW30511   1.245   6.906   5.422
 9871SOL    HW130512   1.166   6.903   5.360
 9871SOL    HW230513   1.241   6.990   5.476
 9872SOL     OW30514   3.128   5.127   4.121
 9872SOL    HW130515   3.107   5.056   4.054
 9872SOL    HW230516   3.082   5.106   4.207
 9873SOL     OW30517   2.825   2.099   1.275
 9873SOL    HW130518   2.789   2.172   1.332
 9873SOL    HW230519   2.887   2.139   1.206
 9874SOL     OW30520   0.691   3.823   4.218
 9874SOL    HW130521   0.691   3.837   4.120
 9874SOL    HW230522   0.640   3.896   4.263
 9875SOL     OW30523   0.379   6.606   2.308
 9875SOL    HW130524   0.416   6.523   2.267
 9875SOL    HW230525   0.453   6.668   2.332
 9876SOL     OW30526   6.639   0.832   2.681
 9876SOL    HW130527   6.690   0.779   2.613
 9876SOL    HW230528   6.702   0.892   2.731
 9877SOL     OW30529   0.137   6.265   3.088
 9877SOL    HW130530   0.075   6.205   3.139
 9877SOL    HW230531   0.230   6.230   3.094
 9878SOL     OW30532   2.320   5.425   4.813
 9878SOL    HW130533   2.257   5.374   4.872
 9878SOL    HW230534   2.375   5.487   4.869
 9879SOL     OW30535   5.876   5.334   4.220
 9879SOL    HW130536   5.857   5.305   4.313
 9879SOL    HW230537   5.885   5.434   4.217
 9880SOL     OW30538   2.813   1.846   5.721
 9880SOL    HW130539   2.762   1.922   5.760
 9880SOL    HW230540   2.870   1.879   5.645
 9881SOL     OW30541   1.990   1.191   4.988
 9881SOL    HW130542   1.958   1.096   4.998
 9881SOL    HW230543   2.023   1.224   5.076
 9882SOL     OW30544   1.031   2.287   4.228
 9882SOL    HW130545   1.102   2.346   4.266
 9882SOL    HW230546   1.072   2.203   4.193
 9883SOL     OW30547   2.032   5.623   0.104
 9883SOL    HW130548   1.935   5.629   0.129
 9883SOL    HW230549   2.053   5.694   0.037
 9884SOL     OW30550   3.943   1.706   3.156
 9884SOL    HW130551   3.996   1.623   3.172
 9884SOL    HW230552   3.943   1.762   3.238
 9885SOL     OW30553   6.727   3.026   5.486
 9885SOL    HW130554   6.764   2.973   5.562
 9885SOL    HW230555   6.670   3.100   5.522
 9886SOL     OW30556   0.901   4.512   1.551
 9886SOL    HW130557   0.810   4.499   1.512
 9886SOL    HW230558   0.934   4.426   1.588
 9887SOL     OW30559   3.629   0.863   5.968
 9887SOL    HW130560   3.535   0.886   5.945
 9887SOL    HW230561   3.688   0.878   5.888
 9888SOL     OW30562   6.176   4.027   2.069
 9888SOL    HW130563   6.106   3.957   2.061
 9888SOL    HW230564   6.261   3.995   2.026
 9889SOL     OW30565   0.090   5.481   1.741
 9889SOL    HW130566   0.078   5.445   1.648
 9889SOL    HW230567   0.185   5.467   1.769
 9890SOL     OW30568   1.669   1.972   0.438
 9890SOL    HW130569   1.737   1.978   0.511
 9890SOL    HW230570   1.582   2.010   0.470
 9891SOL     OW30571   5.568   2.839   1.524
 9891SOL    HW130572   5.569   2.832   1.424
 9891SOL    HW230573   5.643   2.897   1.554
 9892SOL     OW30574   6.886   5.155   0.752
 9892SOL    HW130575   6.965   5.182   0.697
 9892SOL    HW230576   6.907   5.071   0.801
 9893SOL     OW30577   0.992   0.026   1.257
 9893SOL    HW130578   0.967   6.991   1.332
 9893SOL    HW230579   1.009   7.000   1.174
 9894SOL     OW30580   2.463   2.708   1.842
 9894SOL    HW130581   2.492   2.616   1.871
 9894SOL    HW230582   2.528   2.744   1.776
 9895SOL     OW30583   6.815   3.666   5.185
 9895SOL    HW130584   6.865   3.750   5.166
 9895SOL    HW230585   6.842   3.631   5.275
 9896SOL     OW30586   6.231   0.255   6.874
 9896SOL    HW130587   6.228   0.198   6.956
 9896SOL    HW230588   6.173   0.214   6.803
 9897SOL     OW30589   6.348   5.756   3.238
 9897SOL    HW130590   6.410   5.777   3.314
 9897SOL    HW230591   6.390   5.689   3.178
 9898SOL     OW30592   1.613   5.951   4.586
 9898SOL    HW130593   1.547   5.895   4.636
 9898SOL    HW230594   1.704   5.910   4.593
 9899SOL     OW30595   0.954   5.622   6.869
 9899SOL    HW130596   0.991   5.659   6.784
 9899SOL    HW230597   0.964   5.522   6.869
 9900SOL     OW30598   1.743   3.529   3.621
 9900SOL    HW130599   1.708   3.622   3.636
 9900SOL    HW230600   1.772   3.520   3.525
 9901SOL     OW30601   3.083   0.797   6.161
 9901SOL    HW130602   2.988   0.826   6.153
 9901SOL    HW230603   3.143   0.873   6.137
 9902SOL     OW30604   3.210   4.884   0.572
 9902SOL    HW130605   3.230   4.964   0.629
 9902SOL    HW230606   3.120   4.847   0.597
 9903SOL     OW30607   5.333   1.442   2.132
 9903SOL    HW130608   5.316   1.419   2.037
 9903SOL    HW230609   5.431   1.454   2.146
 9904SOL     OW30610   1.414   4.253   6.724
 9904SOL    HW130611   1.480   4.205   6.665
 9904SOL    HW230612   1.353   4.308   6.667
 9905SOL     OW30613   2.482   0.078   6.153
 9905SOL    HW130614   2.496   0.020   6.073
 9905SOL    HW230615   2.404   0.044   6.205
 9906SOL     OW30616   2.578   3.480   1.719
 9906SOL    HW130617   2.502   3.446   1.774
 9906SOL    HW230618   2.545   3.553   1.659
 9907SOL     OW30619   6.500   0.266   1.401
 9907SOL    HW130620   6.482   0.355   1.442
 9907SOL    HW230621   6.570   0.275   1.330
 9908SOL     OW30622   5.612   2.132   4.889
 9908SOL    HW130623   5.545   2.109   4.959
 9908SOL    HW230624   5.679   2.197   4.926
 9909SOL     OW30625   4.134   0.872   3.621
 9909SOL    HW130626   4.215   0.929   3.635
 9909SOL    HW230627   4.135   0.797   3.687
 9910SOL     OW30628   1.484   4.383   3.100
 9910SOL    HW130629   1.520   4.328   3.175
 9910SOL    HW230630   1.435   4.462   3.136
 9911SOL     OW30631   3.205   5.923   2.217
 9911SOL    HW130632   3.258   5.990   2.269
 9911SOL    HW230633   3.204   5.836   2.267
 9912SOL     OW30634   4.099   0.648   1.248
 9912SOL    HW130635   4.107   0.739   1.208
 9912SOL    HW230636   4.184   0.626   1.296
 9913SOL     OW30637   6.209   4.328   1.386
 9913SOL    HW130638   6.117   4.366   1.377
 9913SOL    HW230639   6.214   4.242   1.335
 9914SOL     OW30640   5.720   1.592   4.653
 9914SOL    HW130641   5.694   1.687   4.670
 9914SOL    HW230642   5.811   1.575   4.691
 9915SOL     OW30643   4.971   0.556   3.673
 9915SOL    HW130644   4.887   0.607   3.656
 9915SOL    HW230645   5.049   0.605   3.633
 9916SOL     OW30646   2.144   2.818   3.212
 9916SOL    HW130647   2.099   2.745   3.263
 9916SOL    HW230648   2.202   2.778   3.141
 9917SOL     OW30649   5.576   4.059   0.000
 9917SOL    HW130650   5.525   4.071   6.942
 9917SOL    HW230651   5.650   4.126   0.004
 9918SOL     OW30652   3.370   1.663   3.164
 9918SOL    HW130653   3.395   1.612   3.247
 9918SOL    HW230654   3.451   1.674   3.106
 9919SOL     OW30655   6.436   5.293   1.631
 9919SOL    HW130656   6.469   5.372   1.579
 9919SOL    HW230657   6.493   5.214   1.610
 9920SOL     OW30658   4.902   1.565   2.036
 9920SOL    HW130659   4.894   1.511   2.120
 9920SOL    HW230660   4.857   1.653   2.049
 9921SOL     OW30661   4.143   0.069   5.593
 9921SOL    HW130662   4.065   0.017   5.628
 9921SOL    HW230663   4.135   0.164   5.623
 9922SOL     OW30664   2.879   4.102   0.315
 9922SOL    HW130665   2.835   4.183   0.354
 9922SOL    HW230666   2.816   4.024   0.318
 9923SOL     OW30667   5.248   4.800   6.663
 9923SOL    HW130668   5.222   4.832   6.572
 9923SOL    HW230669   5.200   4.714   6.683
 9924SOL     OW30670   6.498   1.921   4.776
 9924SOL    HW130671   6.558   1.948   4.700
 9924SOL    HW230672   6.403   1.941   4.753
 9925SOL     OW30673   0.132   3.084   4.336
 9925SOL    HW130674   0.196   3.161   4.331
 9925SOL    HW230675   0.099   3.074   4.430
 9926SOL     OW30676   3.907   2.207   0.448
 9926SOL    HW130677   3.928   2.304   0.461
 9926SOL    HW230678   3.873   2.169   0.534
 9927SOL     OW30679   0.192   6.585   0.223
 9927SOL    HW130680   0.157   6.670   0.262
 9927SOL    HW230681   0.116   6.523   0.203
 9928SOL     OW30682   4.962   4.304   2.597
 9928SOL    HW130683   4.877   4.255   2.578
 9928SOL    HW230684   4.952   4.401   2.573
 9929SOL     OW30685   3.023   4.493   5.542
 9929SOL    HW130686   2.985   4.582   5.516
 9929SOL    HW230687   2.996   4.424   5.475
 9930SOL     OW30688   6.544   6.335   4.981
 9930SOL    HW130689   6.492   6.256   5.013
 9930SOL    HW230690   6.639   6.326   5.011
 9931SOL     OW30691   0.276   5.830   3.961
 9931SOL    HW130692   0.214   5.863   4.032
 9931SOL    HW230693   0.242   5.744   3.925
 9932SOL     OW30694   3.204   4.104   6.887
 9932SOL    HW130695   3.109   4.081   6.864
 9932SOL    HW230696   3.204   4.169   6.963
 9933SOL     OW30697   0.199   5.627   3.405
 9933SOL    HW130698   0.191   5.550   3.469
 9933SOL    HW230699   0.165   5.598   3.315
 9934SOL     OW30700   5.910   2.207   5.923
 9934SOL    HW130701   5.878   2.112   5.922
 9934SOL    HW230702   5.962   2.224   6.007
 9935SOL     OW30703   2.412   6.428   6.943
 9935SOL    HW130704   2.367   6.394   6.860
 9935SOL    HW230705   2.486   6.365   6.968
 9936SOL     OW30706   6.575   5.397   6.579
 9936SOL    HW130707   6.497   5.363   6.632
 9936SOL    HW230708   6.644   5.326   6.571
 9937SOL     OW30709   6.406   1.282   0.854
 9937SOL    HW130710   6.361   1.284   0.943
 9937SOL    HW230711   6.344   1.243   0.785
 9938SOL     OW30712   6.748   5.048   2.684
 9938SOL    HW130713   6.789   4.957   2.694
 9938SOL    HW230714   6.648   5.039   2.681
 9939SOL     OW30715   4.151   2.491   0.266
 9939SOL    HW130716   4.072   2.550   0.254
 9939SOL    HW230717   4.164   2.470   0.363
 9940SOL     OW30718   1.074   0.474   1.288
 9940SOL    HW130719   1.016   0.516   1.358
 9940SOL    HW230720   1.032   0.389   1.256
 9941SOL     OW30721   3.013   3.559   5.506
 9941SOL    HW130722   2.935   3.499   5.494
 9941SOL    HW230723   3.031   3.573   5.604
 9942SOL     OW30724   2.520   5.586   2.256
 9942SOL    HW130725   2.473   5.634   2.183
 9942SOL    HW230726   2.455   5.530   2.307
 9943SOL     OW30727   0.230   4.398   5.629
 9943SOL    HW130728   0.292   4.369   5.701
 9943SOL    HW230729   0.152   4.447   5.669
 9944SOL     OW30730   1.583   4.491   6.805
 9944SOL    HW130731   1.545   4.402   6.781
 9944SOL    HW230732   1.590   4.499   6.904
 9945SOL     OW30733   5.959   5.713   6.322
 9945SOL    HW130734   6.050   5.706   6.281
 9945SOL    HW230735   5.900   5.768   6.262
 9946SOL     OW30736   5.099   0.998   3.560
 9946SOL    HW130737   5.139   1.039   3.642
 9946SOL    HW230738   5.070   1.070   3.497
 9947SOL     OW30739   1.711   2.673   4.898
 9947SOL    HW130740   1.690   2.612   4.975
 9947SOL    HW230741   1.787   2.636   4.845
 9948SOL     OW30742   5.591   4.059   4.854
 9948SOL    HW130743   5.691   4.058   4.847
 9948SOL    HW230744   5.557   3.965   4.859
 9949SOL     OW30745   6.830   4.910   4.191
 9949SOL    HW130746   6.893   4.940   4.119
 9949SOL    HW230747   6.736   4.914   4.158
 9950SOL     OW30748   5.643   5.848   4.896
 9950SOL    HW130749   5.634   5.947   4.900
 9950SOL    HW230750   5.553   5.805   4.900
 9951SOL     OW30751   0.206   0.660   4.640
 9951SOL    HW130752   0.253   0.739   4.679
 9951SOL    HW230753   0.273   0.600   4.596
 9952SOL     OW30754   1.329   3.816   1.058
 9952SOL    HW130755   1.270   3.894   1.079
 9952SOL    HW230756   1.308   3.781   0.967
 9953SOL     OW30757   5.566   2.880   4.736
 9953SOL    HW130758   5.510   2.962   4.723
 9953SOL    HW230759   5.511   2.807   4.776
 9954SOL     OW30760   6.418   0.894   6.479
 9954SOL    HW130761   6.478   0.935   6.548
 9954SOL    HW230762   6.474   0.850   6.408
 9955SOL     OW30763   6.431   3.447   5.576
 9955SOL    HW130764   6.481   3.526   5.610
 9955SOL    HW230765   6.350   3.477   5.527
 9956SOL     OW30766   1.453   6.826   2.570
 9956SOL    HW130767   1.449   6.729   2.547
 9956SOL    HW230768   1.420   6.840   2.663
 9957SOL     OW30769   5.111   5.800   2.410
 9957SOL    HW130770   5.202   5.766   2.432
 9957SOL    HW230771   5.088   5.877   2.469
 9958SOL     OW30772   3.476   5.557   0.532
 9958SOL    HW130773   3.556   5.507   0.501
 9958SOL    HW230774   3.446   5.620   0.459
 9959SOL     OW30775   4.149   3.736   5.260
 9959SOL    HW130776   4.160   3.699   5.168
 9959SOL    HW230777   4.178   3.832   5.261
 9960SOL     OW30778   0.150   6.953   1.928
 9960SOL    HW130779   0.249   6.943   1.932
 9960SOL    HW230780   0.108   6.900   2.002
 9961SOL     OW30781   1.358   5.299   4.533
 9961SOL    HW130782   1.417   5.372   4.571
 9961SOL    HW230783   1.272   5.297   4.584
 9962SOL     OW30784   6.177   6.527   2.859
 9962SOL    HW130785   6.166   6.435   2.821
 9962SOL    HW230786   6.148   6.595   2.791
 9963SOL     OW30787   2.698   3.473   6.873
 9963SOL    HW130788   2.723   3.445   6.780
 9963SOL    HW230789   2.780   3.497   6.924
 9964SOL     OW30790   5.144   4.928   5.519
 9964SOL    HW130791   5.170   4.833   5.503
 9964SOL    HW230792   5.122   4.972   5.432
 9965SOL     OW30793   3.694   6.537   6.140
 9965SOL    HW130794   3.673   6.630   6.169
 9965SOL    HW230795   3.793   6.526   6.135
 9966SOL     OW30796   1.702   5.982   1.770
 9966SOL    HW130797   1.734   5.888   1.783
 9966SOL    HW230798   1.780   6.044   1.765
 9967SOL     OW30799   0.508   6.980   2.128
 9967SOL    HW130800   0.578   6.929   2.177
 9967SOL    HW230801   0.532   0.050   2.127
 9968SOL     OW30802   3.424   3.812   1.230
 9968SOL    HW130803   3.471   3.807   1.142
 9968SOL    HW230804   3.426   3.722   1.275
 9969SOL     OW30805   1.748   2.959   2.606
 9969SOL    HW130806   1.739   3.029   2.678
 9969SOL    HW230807   1.759   3.004   2.517
 9970SOL     OW30808   5.455   3.955   2.395
 9970SOL    HW130809   5.402   3.995   2.320
 9970SOL    HW230810   5.536   4.012   2.412
 9971SOL     OW30811   2.382   5.748   1.723
 9971SOL    HW130812   2.404   5.768   1.627
 9971SOL    HW230813   2.325   5.665   1.727
 9972SOL     OW30814   4.601   4.782   1.577
 9972SOL    HW130815   4.573   4.777   1.673
 9972SOL    HW230816   4.519   4.781   1.519
 9973SOL     OW30817   5.087   1.840   3.977
 9973SOL    HW130818   5.128   1.899   3.908
 9973SOL    HW230819   5.159   1.799   4.034
 9974SOL     OW30820   0.523   2.656   2.757
 9974SOL    HW130821   0.573   2.740   2.774
 9974SOL    HW230822   0.446   2.674   2.697
 9975SOL     OW30823   5.960   4.350   6.896
 9975SOL    HW130824   5.976   4.430   6.838
 9975SOL    HW230825   6.047   4.307   6.919
 9976SOL     OW30826   0.851   6.250   5.611
 9976SOL    HW130827   0.904   6.205   5.538
 9976SOL    HW230828   0.784   6.185   5.647
 9977SOL     OW30829   0.032   5.123   5.525
 9977SOL    HW130830   0.126   5.120   5.492
 9977SOL    HW230831   6.998   5.147   5.450
 9978SOL     OW30832   0.227   2.282   4.421
 9978SOL    HW130833   0.247   2.289   4.518
 9978SOL    HW230834   0.152   2.217   4.407
 9979SOL     OW30835   6.314   5.069   5.554
 9979SOL    HW130836   6.384   5.140   5.550
 9979SOL    HW230837   6.268   5.062   5.466
 9980SOL     OW30838   1.823   0.854   5.664
 9980SOL    HW130839   1.758   0.778   5.669
 9980SOL    HW230840   1.799   0.923   5.731
 9981SOL     OW30841   2.566   1.615   2.793
 9981SOL    HW130842   2.636   1.653   2.732
 9981SOL    HW230843   2.506   1.689   2.824
 9982SOL     OW30844   6.387   6.584   4.451
 9982SOL    HW130845   6.344   6.627   4.530
 9982SOL    HW230846   6.482   6.560   4.473
 9983SOL     OW30847   6.807   2.217   2.525
 9983SOL    HW130848   6.837   2.250   2.615
 9983SOL    HW230849   6.716   2.254   2.505
 9984SOL     OW30850   2.096   0.837   6.968
 9984SOL    HW130851   2.147   0.829   6.883
 9984SOL    HW230852   1.998   0.824   6.950
 9985SOL     OW30853   0.927   1.116   1.173
 9985SOL    HW130854   0.939   1.116   1.074
 9985SOL    HW230855   1.011   1.147   1.217
 9986SOL     OW30856   5.363   4.018   6.001
 9986SOL    HW130857   5.310   4.070   5.934
 9986SOL    HW230858   5.429   4.079   6.045
 9987SOL     OW30859   0.289   3.309   4.264
 9987SOL    HW130860   0.346   3.298   4.182
 9987SOL    HW230861   0.348   3.334   4.341
 9988SOL     OW30862   6.530   5.907   4.197
 9988SOL    HW130863   6.551   5.858   4.281
 9988SOL    HW230864   6.500   6.000   4.218
 9989SOL     OW30865   6.497   3.492   3.525
 9989SOL    HW130866   6.487   3.397   3.494
 9989SOL    HW230867   6.415   3.543   3.502
 9990SOL     OW30868   2.505   5.498   1.856
 9990SOL    HW130869   2.421   5.552   1.857
 9990SOL    HW230870   2.584   5.560   1.850
 9991SOL     OW30871   2.156   2.354   3.487
 9991SOL    HW130872   2.228   2.346   3.418
 9991SOL    HW230873   2.087   2.418   3.455
 9992SOL     OW30874   5.876   5.257   0.045
 9992SOL    HW130875   5.823   5.259   0.129
 9992SOL    HW230876   5.848   5.179   7.016
 9993SOL     OW30877   2.857   0.766   0.717
 9993SOL    HW130878   2.797   0.736   0.791
 9993SOL    HW230879   2.951   0.742   0.740
 9994SOL     OW30880   5.882   4.443   3.293
 9994SOL    HW130881   5.797   4.396   3.272
 9994SOL    HW230882   5.959   4.380   3.282
 9995SOL     OW30883   4.643   1.173   2.830
 9995SOL    HW130884   4.656   1.273   2.826
 9995SOL    HW230885   4.710   1.134   2.893
 9996SOL     OW30886   2.906   3.337   0.675
 9996SOL    HW130887   2.936   3.397   0.601
 9996SOL    HW230888   2.860   3.257   0.636
 9997SOL     OW30889   3.667   1.838   6.870
 9997SOL    HW130890   3.692   1.897   6.793
 9997SOL    HW230891   3.570   1.815   6.864
 9998SOL     OW30892   5.652   4.399   6.247
 9998SOL    HW130893   5.700   4.348   6.318
 9998SOL    HW230894   5.710   4.474   6.215
 9999SOL     OW30895   6.181   3.083   5.676
 9999SOL    HW130896   6.104   3.137   5.710
 9999SOL    HW230897   6.265   3.117   5.718
10000SOL     OW30898   0.235   4.592   6.971
10000SOL    HW130899   0.140   4.601   6.941
10000SOL    HW230900   0.242   4.619   0.041
10001SOL     OW30901   5.016   6.885   2.158
10001SOL    HW130902   5.061   6.810   2.206
10001SOL    HW230903   5.008   6.964   2.220
10002SOL     OW30904   0.915   0.377   2.760
10002SOL    HW130905   0.902   0.326   2.675
10002SOL    HW230906   0.960   0.465   2.739
10003SOL     OW30907   3.991   1.454   3.385
10003SOL    HW130908   4.054   1.409   3.449
10003SOL    HW230909   3.931   1.516   3.436
10004SOL     OW30910   6.805   2.605   4.346
10004SOL    HW130911   6.867   2.538   4.387
10004SOL    HW230912   6.719   2.561   4.322
10005SOL     OW30913   5.577   0.337   4.891
10005SOL    HW130914   5.635   0.256   4.885
10005SOL    HW230915   5.588   0.391   4.807
10006SOL     OW30916   4.854   5.123   4.255
10006SOL    HW130917   4.856   5.223   4.249
10006SOL    HW230918   4.944   5.089   4.280
10007SOL     OW30919   6.767   4.446   5.739
10007SOL    HW130920   6.732   4.527   5.692
10007SOL    HW230921   6.692   4.400   5.787
10008SOL     OW30922   3.784   1.501   4.456
10008SOL    HW130923   3.788   1.596   4.485
10008SOL    HW230924   3.706   1.488   4.394
10009SOL     OW30925   1.890   3.843   1.896
10009SOL    HW130926   1.957   3.826   1.824
10009SOL    HW230927   1.801   3.806   1.868
10010SOL     OW30928   2.448   0.795   5.560
10010SOL    HW130929   2.375   0.729   5.581
10010SOL    HW230930   2.409   0.887   5.554
10011SOL     OW30931   6.072   0.975   5.872
10011SOL    HW130932   6.128   0.950   5.951
10011SOL    HW230933   5.984   0.929   5.877
10012SOL     OW30934   5.670   1.327   3.198
10012SOL    HW130935   5.616   1.246   3.221
10012SOL    HW230936   5.614   1.391   3.146
10013SOL     OW30937   0.234   1.290   3.526
10013SOL    HW130938   0.191   1.310   3.614
10013SOL    HW230939   0.309   1.225   3.539
10014SOL     OW30940   6.861   4.052   0.368
10014SOL    HW130941   6.881   4.051   0.466
10014SOL    HW230942   6.773   4.009   0.351
10015SOL     OW30943   2.229   5.209   0.654
10015SOL    HW130944   2.182   5.195   0.567
10015SOL    HW230945   2.162   5.210   0.728
10016SOL     OW30946   1.289   1.338   6.375
10016SOL    HW130947   1.203   1.370   6.336
10016SOL    HW230948   1.311   1.248   6.337
10017SOL     OW30949   2.806   1.709   3.226
10017SOL    HW130950   2.717   1.752   3.213
10017SOL    HW230951   2.801   1.612   3.200
10018SOL     OW30952   4.436   0.617   6.136
10018SOL    HW130953   4.533   0.644   6.138
10018SOL    HW230954   4.428   0.525   6.098
10019SOL     OW30955   0.476   1.576   3.087
10019SOL    HW130956   0.505   1.555   2.994
10019SOL    HW230957   0.380   1.549   3.100
10020SOL     OW30958   1.767   2.047   0.923
10020SOL    HW130959   1.744   1.975   0.988
10020SOL    HW230960   1.846   2.098   0.955
10021SOL     OW30961   0.446   2.654   1.424
10021SOL    HW130962   0.465   2.714   1.501
10021SOL    HW230963   0.484   2.693   1.340
10022SOL     OW30964   2.701   1.383   5.937
10022SOL    HW130965   2.758   1.463   5.960
10022SOL    HW230966   2.699   1.321   6.016
10023SOL     OW30967   6.831   4.766   0.945
10023SOL    HW130968   6.781   4.680   0.958
10023SOL    HW230969   6.770   4.843   0.959
10024SOL     OW30970   2.128   6.227   2.483
10024SOL    HW130971   2.120   6.275   2.570
10024SOL    HW230972   2.081   6.280   2.412
10025SOL     OW30973   1.305   0.737   0.801
10025SOL    HW130974   1.209   0.753   0.824
10025SOL    HW230975   1.321   0.638   0.792
10026SOL     OW30976   4.757   6.665   3.943
10026SOL    HW130977   4.851   6.679   3.915
10026SOL    HW230978   4.695   6.699   3.872
10027SOL     OW30979   6.753   4.045   4.139
10027SOL    HW130980   6.766   3.955   4.097
10027SOL    HW230981   6.656   4.062   4.154
10028SOL     OW30982   0.871   0.322   2.141
10028SOL    HW130983   0.970   0.315   2.126
10028SOL    HW230984   0.853   0.340   2.238
10029SOL     OW30985   4.950   1.645   4.517
10029SOL    HW130986   4.920   1.712   4.449
10029SOL    HW230987   5.002   1.572   4.471
10030SOL     OW30988   2.051   0.882   3.349
10030SOL    HW130989   2.004   0.952   3.402
10030SOL    HW230990   2.054   0.910   3.253
10031SOL     OW30991   5.225   4.522   4.623
10031SOL    HW130992   5.224   4.535   4.722
10031SOL    HW230993   5.162   4.448   4.599
10032SOL     OW30994   3.027   1.104   4.883
10032SOL    HW130995   2.986   1.179   4.831
10032SOL    HW230996   3.114   1.077   4.842
10033SOL     OW30997   6.708   3.101   4.235
10033SOL    HW130998   6.735   3.004   4.235
10033SOL    HW230999   6.608   3.106   4.236
10034SOL     OW31000   3.709   0.152   4.426
10034SOL    HW131001   3.700   0.111   4.517
10034SOL    HW231002   3.679   0.086   4.357
10035SOL     OW31003   6.794   5.535   1.516
10035SOL    HW131004   6.804   5.497   1.608
10035SOL    HW231005   6.737   5.617   1.520
10036SOL     OW31006   6.429   2.016   0.660
10036SOL    HW131007   6.493   2.016   0.737
10036SOL    HW231008   6.399   1.923   0.642
10037SOL     OW31009   6.764   1.720   6.860
10037SOL    HW131010   6.672   1.686   6.880
10037SOL    HW231011   6.762   1.775   6.777
10038SOL     OW31012   5.871   6.894   0.502
10038SOL    HW131013   5.937   6.904   0.427
10038SOL    HW231014   5.916   6.917   0.588
10039SOL     OW31015   3.621   0.642   3.632
10039SOL    HW131016   3.642   0.737   3.657
10039SOL    HW231017   3.606   0.636   3.533
10040SOL     OW31018   5.872   5.030   6.914
10040SOL    HW131019   5.963   5.059   6.885
10040SOL    HW231020   5.880   4.944   6.966
10041SOL     OW31021   3.088   5.933   6.996
10041SOL    HW131022   3.006   5.898   6.951
10041SOL    HW231023   3.064   5.969   0.059
10042SOL     OW31024   6.927   1.655   3.834
10042SOL    HW131025   7.005   1.716   3.822
10042SOL    HW231026   6.886   1.635   3.745
10043SOL     OW31027   6.235   1.349   5.220
10043SOL    HW131028   6.323   1.328   5.264
10043SOL    HW231029   6.225   1.294   5.138
10044SOL     OW31030   2.547   3.392   5.781
10044SOL    HW131031   2.639   3.369   5.748
10044SOL    HW231032   2.514   3.473   5.732
10045SOL     OW31033   4.167   0.801   1.048
10045SOL    HW131034   4.251   0.843   1.082
10045SOL    HW231035   4.181   0.769   0.954
10046SOL     OW31036   1.882   3.712   1.190
10046SOL    HW131037   1.842   3.694   1.100
10046SOL    HW231038   1.814   3.754   1.249
10047SOL     OW31039   0.746   3.433   6.128
10047SOL    HW131040   0.759   3.348   6.179
10047SOL    HW231041   0.747   3.510   6.192
10048SOL     OW31042   6.975   6.789   3.199
10048SOL    HW131043   0.044   6.761   3.206
10048SOL    HW231044   6.918   6.730   3.256
10049SOL     OW31045   0.509   1.779   6.175
10049SOL    HW131046   0.582   1.770   6.108
10049SOL    HW231047   0.437   1.839   6.138
10050SOL     OW31048   5.087   3.927   5.133
10050SOL    HW131049   5.170   3.890   5.175
10050SOL    HW231050   5.109   4.012   5.085
10051SOL     OW31051   0.803   3.992   5.266
10051SOL    HW131052   0.761   3.997   5.356
10051SOL    HW231053   0.751   4.047   5.201
10052SOL     OW31054   1.376   1.145   3.212
10052SOL    HW131055   1.293   1.127   3.159
10052SOL    HW231056   1.398   1.064   3.267
10053SOL     OW31057   4.818   5.125   3.851
10053SOL    HW131058   4.878   5.111   3.772
10053SOL    HW231059   4.726   5.150   3.820
10054SOL     OW31060   5.644   4.480   4.904
10054SOL    HW131061   5.661   4.467   5.002
10054SOL    HW231062   5.580   4.410   4.872
10055SOL     OW31063   6.679   2.581   6.864
10055SOL    HW131064   6.639   2.520   6.932
10055SOL    HW231065   6.637   2.672   6.872
10056SOL     OW31066   5.285   3.427   2.989
10056SOL    HW131067   5.285   3.495   2.916
10056SOL    HW231068   5.377   3.420   3.027
10057SOL     OW31069   5.929   3.752   5.856
10057SOL    HW131070   5.922   3.807   5.773
10057SOL    HW231071   5.930   3.655   5.831
10058SOL     OW31072   7.025   2.922   4.174
10058SOL    HW131073   0.048   2.910   4.088
10058SOL    HW231074   0.033   3.003   4.222
10059SOL     OW31075   6.012   1.320   1.032
10059SOL    HW131076   5.944   1.357   1.095
10059SOL    HW231077   5.967   1.283   0.951
10060SOL     OW31078   2.742   1.775   2.621
10060SOL    HW131079   2.665   1.786   2.558
10060SOL    HW231080   2.826   1.762   2.569
10061SOL     OW31081   4.159   1.298   3.617
10061SOL    HW131082   4.243   1.249   3.640
10061SOL    HW231083   4.107   1.316   3.700
10062SOL     OW31084   0.657   6.756   3.758
10062SOL    HW131085   0.598   6.675   3.754
10062SOL    HW231086   0.628   6.822   3.689
10063SOL     OW31087   1.972   2.046   4.723
10063SOL    HW131088   1.918   2.115   4.770
10063SOL    HW231089   1.917   1.963   4.711
10064SOL     OW31090   3.419   6.219   0.004
10064SOL    HW131091   3.319   6.228   0.009
10064SOL    HW231092   3.442   6.154   6.959
10065SOL     OW31093   1.428   0.778   1.560
10065SOL    HW131094   1.393   0.761   1.652
10065SOL    HW231095   1.498   0.711   1.537
10066SOL     OW31096   0.069   3.813   4.951
10066SOL    HW131097   0.089   3.804   5.049
10066SOL    HW231098   0.051   3.908   4.929
10067SOL     OW31099   0.496   2.827   6.708
10067SOL    HW131100   0.423   2.765   6.737
10067SOL    HW231101   0.467   2.922   6.723
10068SOL     OW31102   1.714   3.537   2.719
10068SOL    HW131103   1.722   3.613   2.783
10068SOL    HW231104   1.620   3.504   2.717
10069SOL     OW31105   3.570   4.962   1.625
10069SOL    HW131106   3.514   4.932   1.548
10069SOL    HW231107   3.514   5.016   1.689
10070SOL     OW31108   2.657   5.977   4.487
10070SOL    HW131109   2.618   5.988   4.395
10070SOL    HW231110   2.700   5.888   4.494
10071SOL     OW31111   0.573   6.431   3.761
10071SOL    HW131112   0.529   6.342   3.770
10071SOL    HW231113   0.504   6.503   3.764
10072SOL     OW31114   6.947   1.099   3.019
10072SOL    HW131115   0.004   1.066   3.063
10072SOL    HW231116   6.922   1.188   3.057
10073SOL     OW31117   6.074   2.864   3.750
10073SOL    HW131118   5.991   2.814   3.723
10073SOL    HW231119   6.061   2.962   3.735
10074SOL     OW31120   1.924   4.995   0.744
10074SOL    HW131121   1.916   5.081   0.795
10074SOL    HW231122   1.890   5.009   0.651
10075SOL     OW31123   2.150   1.519   2.714
10075SOL    HW131124   2.085   1.445   2.728
10075SOL    HW231125   2.237   1.481   2.682
10076SOL     OW31126   4.631   5.606   3.283
10076SOL    HW131127   4.658   5.530   3.225
10076SOL    HW231128   4.712   5.655   3.314
10077SOL     OW31129   6.397   3.370   0.033
10077SOL    HW131130   6.463   3.428   0.080
10077SOL    HW231131   6.355   3.307   0.098
10078SOL     OW31132   6.826   6.016   5.121
10078SOL    HW131133   6.831   6.116   5.127
10078SOL    HW231134   6.875   5.985   5.040
10079SOL     OW31135   5.543   2.970   2.753
10079SOL    HW131136   5.640   2.988   2.735
10079SOL    HW231137   5.509   3.034   2.822
10080SOL     OW31138   5.417   0.669   6.122
10080SOL    HW131139   5.456   0.751   6.082
10080SOL    HW231140   5.338   0.639   6.068
10081SOL     OW31141   1.670   2.081   6.907
10081SOL    HW131142   1.643   2.010   6.843
10081SOL    HW231143   1.676   2.043   6.999
10082SOL     OW31144   1.595   4.627   2.767
10082SOL    HW131145   1.630   4.543   2.808
10082SOL    HW231146   1.507   4.609   2.724
10083SOL     OW31147   3.864   5.145   4.006
10083SOL    HW131148   3.774   5.189   4.011
10083SOL    HW231149   3.920   5.176   4.083
10084SOL     OW31150   1.014   0.325   5.543
10084SOL    HW131151   1.031   0.227   5.558
10084SOL    HW231152   1.093   0.378   5.574
10085SOL     OW31153   4.021   6.889   6.900
10085SOL    HW131154   3.991   6.943   6.822
10085SOL    HW231155   4.121   6.896   6.909
10086SOL     OW31156   6.525   6.494   2.231
10086SOL    HW131157   6.433   6.473   2.198
10086SOL    HW231158   6.527   6.588   2.264
10087SOL     OW31159   0.971   6.651   4.018
10087SOL    HW131160   0.934   6.717   4.083
10087SOL    HW231161   1.070   6.642   4.031
10088SOL     OW31162   0.252   2.847   0.003
10088SOL    HW131163   0.178   2.813   0.062
10088SOL    HW231164   0.265   2.784   6.953
10089SOL     OW31165   4.373   1.864   2.179
10089SOL    HW131166   4.347   1.902   2.268
10089SOL    HW231167   4.295   1.867   2.117
10090SOL     OW31168   1.051   5.159   1.245
10090SOL    HW131169   1.073   5.227   1.176
10090SOL    HW231170   1.114   5.168   1.322
10091SOL     OW31171   6.491   5.250   6.140
10091SOL    HW131172   6.480   5.192   6.060
10091SOL    HW231173   6.539   5.334   6.114
10092SOL     OW31174   0.566   2.964   5.481
10092SOL    HW131175   0.643   2.988   5.421
10092SOL    HW231176   0.504   2.903   5.432
10093SOL     OW31177   5.591   3.755   5.701
10093SOL    HW131178   5.608   3.659   5.721
10093SOL    HW231179   5.678   3.805   5.697
10094SOL     OW31180   3.226   0.349   1.086
10094SOL    HW131181   3.237   0.290   1.006
10094SOL    HW231182   3.134   0.388   1.085
10095SOL     OW31183   5.172   2.600   5.399
10095SOL    HW131184   5.148   2.618   5.494
10095SOL    HW231185   5.141   2.677   5.342
10096SOL     OW31186   4.855   0.922   2.735
10096SOL    HW131187   4.789   0.970   2.793
10096SOL    HW231188   4.918   0.869   2.793
10097SOL     OW31189   1.458   1.512   6.042
10097SOL    HW131190   1.401   1.592   6.062
10097SOL    HW231191   1.549   1.542   6.013
10098SOL     OW31192   3.084   5.737   4.672
10098SOL    HW131193   3.133   5.682   4.740
10098SOL    HW231194   3.150   5.780   4.610
10099SOL     OW31195   0.008   4.199   2.368
10099SOL    HW131196   0.091   4.217   2.420
10099SOL    HW231197   7.001   4.285   2.328
10100SOL     OW31198   5.077   5.133   4.977
10100SOL    HW131199   5.070   5.104   4.881
10100SOL    HW231200   4.986   5.136   5.017
10101SOL     OW31201   1.203   2.419   1.379
10101SOL    HW131202   1.178   2.471   1.460
10101SOL    HW231203   1.125   2.365   1.348
10102SOL     OW31204   6.045   6.463   0.888
10102SOL    HW131205   6.110   6.400   0.846
10102SOL    HW231206   6.085   6.555   0.891
10103SOL     OW31207   0.169   6.852   5.425
10103SOL    HW131208   0.214   6.780   5.371
10103SOL    HW231209   0.091   6.887   5.374
10104SOL     OW31210   2.394   0.552   6.011
10104SOL    HW131211   2.403   0.602   5.924
10104SOL    HW231212   2.409   0.455   5.995
10105SOL     OW31213   2.828   1.014   5.904
10105SOL    HW131214   2.855   1.110   5.892
10105SOL    HW231215   2.898   0.955   5.863
10106SOL     OW31216   4.948   5.981   1.117
10106SOL    HW131217   4.896   5.904   1.155
10106SOL    HW231218   5.044   5.972   1.142
10107SOL     OW31219   5.427   4.313   6.579
10107SOL    HW131220   5.361   4.248   6.620
10107SOL    HW231221   5.391   4.406   6.588
10108SOL     OW31222   1.523   2.925   0.438
10108SOL    HW131223   1.518   2.930   0.338
10108SOL    HW231224   1.433   2.944   0.477
10109SOL     OW31225   0.609   1.657   0.417
10109SOL    HW131226   0.604   1.568   0.371
10109SOL    HW231227   0.521   1.679   0.457
10110SOL     OW31228   4.971   5.783   2.712
10110SOL    HW131229   5.046   5.845   2.688
10110SOL    HW231230   4.922   5.818   2.791
10111SOL     OW31231   1.263   1.923   1.817
10111SOL    HW131232   1.191   1.989   1.796
10111SOL    HW231233   1.318   1.905   1.735
10112SOL     OW31234   6.113   2.618   3.441
10112SOL    HW131235   6.183   2.690   3.449
10112SOL    HW231236   6.157   2.531   3.421
10113SOL     OW31237   5.013   1.138   6.610
10113SOL    HW131238   5.031   1.046   6.575
10113SOL    HW231239   5.015   1.137   6.710
10114SOL     OW31240   3.871   1.518   2.880
10114SOL    HW131241   3.911   1.546   2.967
10114SOL    HW231242   3.858   1.598   2.822
10115SOL     OW31243   3.683   1.777   5.049
10115SOL    HW131244   3.607   1.827   5.008
10115SOL    HW231245   3.724   1.716   4.981
10116SOL     OW31246   6.487   0.570   4.825
10116SOL    HW131247   6.550   0.647   4.815
10116SOL    HW231248   6.529   0.488   4.789
10117SOL     OW31249   6.498   5.304   4.068
10117SOL    HW131250   6.457   5.262   4.149
10117SOL    HW231251   6.489   5.403   4.074
10118SOL     OW31252   3.172   4.880   5.011
10118SOL    HW131253   3.261   4.850   4.977
10118SOL    HW231254   3.106   4.883   4.936
10119SOL     OW31255   0.240   5.180   4.505
10119SOL    HW131256   0.180   5.138   4.436
10119SOL    HW231257   0.245   5.120   4.585
10120SOL     OW31258   2.170   2.801   1.884
10120SOL    HW131259   2.173   2.899   1.902
10120SOL    HW231260   2.263   2.767   1.867
10121SOL     OW31261   6.278   4.520   0.689
10121SOL    HW131262   6.179   4.509   0.698
10121SOL    HW231263   6.319   4.432   0.663
10122SOL     OW31264   0.494   1.619   3.774
10122SOL    HW131265   0.480   1.703   3.826
10122SOL    HW231266   0.412   1.600   3.719
10123SOL     OW31267   5.615   6.088   0.983
10123SOL    HW131268   5.636   6.185   0.986
10123SOL    HW231269   5.519   6.076   0.955
10124SOL     OW31270   1.064   4.419   2.789
10124SOL    HW131271   1.073   4.511   2.751
10124SOL    HW231272   1.151   4.391   2.830
10125SOL     OW31273   1.309   2.182   6.840
10125SOL    HW131274   1.283   2.159   6.746
10125SOL    HW231275   1.406   2.208   6.842
10126SOL     OW31276   6.464   0.102   6.607
10126SOL    HW131277   6.554   0.096   6.564
10126SOL    HW231278   6.473   0.088   6.706
10127SOL     OW31279   2.697   5.284   5.912
10127SOL    HW131280   2.734   5.332   5.991
10127SOL    HW231281   2.622   5.224   5.941
10128SOL     OW31282   3.190   0.665   0.132
10128SOL    HW131283   3.226   0.581   0.092
10128SOL    HW231284   3.114   0.642   0.194
10129SOL     OW31285   6.516   1.300   4.271
10129SOL    HW131286   6.489   1.334   4.362
10129SOL    HW231287   6.580   1.224   4.282
10130SOL     OW31288   1.843   2.204   2.500
10130SOL    HW131289   1.746   2.181   2.511
10130SOL    HW231290   1.895   2.120   2.482
10131SOL     OW31291   1.800   0.506   4.123
10131SOL    HW131292   1.778   0.416   4.086
10131SOL    HW231293   1.874   0.497   4.190
10132SOL     OW31294   0.160   1.000   3.116
10132SOL    HW131295   0.239   0.968   3.168
10132SOL    HW231296   0.167   0.967   3.022
10133SOL     OW31297   4.947   6.083   0.669
10133SOL    HW131298   4.869   6.021   0.677
10133SOL    HW231299   4.948   6.123   0.577
10134SOL     OW31300   6.054   0.856   2.219
10134SOL    HW131301   6.131   0.830   2.277
10134SOL    HW231302   6.016   0.775   2.175
10135SOL     OW31303   5.529   0.118   3.197
10135SOL    HW131304   5.450   0.057   3.182
10135SOL    HW231305   5.525   0.154   3.291
10136SOL     OW31306   4.560   1.679   2.742
10136SOL    HW131307   4.462   1.659   2.744
10136SOL    HW231308   4.602   1.636   2.662
10137SOL     OW31309   0.076   5.834   5.766
10137SOL    HW131310   0.053   5.737   5.772
10137SOL    HW231311   0.015   5.880   5.702
10138SOL     OW31312   5.679   1.056   0.086
10138SOL    HW131313   5.728   1.001   0.153
10138SOL    HW231314   5.628   1.128   0.134
10139SOL     OW31315   3.319   3.622   5.328
10139SOL    HW131316   3.243   3.561   5.349
10139SOL    HW231317   3.287   3.696   5.268
10140SOL     OW31318   0.056   5.282   5.985
10140SOL    HW131319   7.005   5.318   6.036
10140SOL    HW231320   0.064   5.329   5.897
10141SOL     OW31321   2.679   1.271   4.402
10141SOL    HW131322   2.591   1.318   4.398
10141SOL    HW231323   2.750   1.327   4.360
10142SOL     OW31324   5.983   6.266   4.219
10142SOL    HW131325   6.028   6.204   4.155
10142SOL    HW231326   6.011   6.244   4.312
10143SOL     OW31327   5.736   2.999   0.133
10143SOL    HW131328   5.697   3.090   0.145
10143SOL    HW231329   5.815   3.004   0.072
10144SOL     OW31330   3.709   6.460   5.483
10144SOL    HW131331   3.639   6.418   5.425
10144SOL    HW231332   3.730   6.552   5.449
10145SOL     OW31333   5.410   5.877   0.041
10145SOL    HW131334   5.487   5.826   0.003
10145SOL    HW231335   5.371   5.937   6.998
10146SOL     OW31336   0.358   2.747   4.510
10146SOL    HW131337   0.373   2.831   4.562
10146SOL    HW231338   0.280   2.759   4.448
10147SOL     OW31339   4.750   5.837   6.568
10147SOL    HW131340   4.803   5.753   6.584
10147SOL    HW231341   4.733   5.847   6.470
10148SOL     OW31342   0.980   4.672   6.827
10148SOL    HW131343   0.947   4.746   6.769
10148SOL    HW231344   0.990   4.589   6.773
10149SOL     OW31345   4.598   4.108   0.810
10149SOL    HW131346   4.531   4.038   0.834
10149SOL    HW231347   4.551   4.194   0.793
10150SOL     OW31348   4.393   4.078   0.077
10150SOL    HW131349   4.383   4.139   0.156
10150SOL    HW231350   4.446   3.997   0.104
10151SOL     OW31351   6.263   6.888   5.453
10151SOL    HW131352   6.165   6.905   5.466
10151SOL    HW231353   6.310   6.892   5.542
10152SOL     OW31354   5.532   6.528   2.890
10152SOL    HW131355   5.612   6.570   2.847
10152SOL    HW231356   5.561   6.449   2.944
10153SOL     OW31357   5.556   4.347   3.800
10153SOL    HW131358   5.476   4.358   3.859
10153SOL    HW231359   5.543   4.268   3.740
10154SOL     OW31360   4.865   5.318   4.774
10154SOL    HW131361   4.953   5.339   4.732
10154SOL    HW231362   4.829   5.234   4.736
10155SOL     OW31363   4.487   2.043   5.325
10155SOL    HW131364   4.575   2.084   5.347
10155SOL    HW231365   4.478   1.955   5.372
10156SOL     OW31366   5.139   0.952   0.655
10156SOL    HW131367   5.120   1.025   0.721
10156SOL    HW231368   5.053   0.910   0.627
10157SOL     OW31369   0.306   3.202   1.479
10157SOL    HW131370   0.332   3.115   1.439
10157SOL    HW231371   0.283   3.190   1.575
10158SOL     OW31372   5.690   6.216   1.614
10158SOL    HW131373   5.696   6.251   1.708
10158SOL    HW231374   5.676   6.117   1.616
10159SOL     OW31375   3.548   3.171   2.930
10159SOL    HW131376   3.615   3.245   2.930
10159SOL    HW231377   3.547   3.127   2.840
10160SOL     OW31378   2.103   4.635   3.718
10160SOL    HW131379   2.098   4.707   3.648
10160SOL    HW231380   2.189   4.643   3.768
10161SOL     OW31381   4.328   4.278   6.068
10161SOL    HW131382   4.252   4.343   6.062
10161SOL    HW231383   4.394   4.298   5.995
10162SOL     OW31384   1.530   3.830   2.796
10162SOL    HW131385   1.471   3.835   2.877
10162SOL    HW231386   1.622   3.802   2.823
10163SOL     OW31387   1.038   6.638   5.163
10163SOL    HW131388   1.038   6.728   5.206
10163SOL    HW231389   1.091   6.642   5.078
10164SOL     OW31390   0.320   3.166   3.118
10164SOL    HW131391   0.359   3.257   3.130
10164SOL    HW231392   0.315   3.119   3.206
10165SOL     OW31393   6.538   3.371   4.061
10165SOL    HW131394   6.618   3.315   4.037
10165SOL    HW231395   6.481   3.321   4.126
10166SOL     OW31396   1.317   1.939   0.934
10166SOL    HW131397   1.284   1.912   0.843
10166SOL    HW231398   1.329   1.858   0.991
10167SOL     OW31399   1.121   6.516   6.236
10167SOL    HW131400   1.132   6.529   6.137
10167SOL    HW231401   1.029   6.545   6.263
10168SOL     OW31402   5.644   1.556   0.470
10168SOL    HW131403   5.698   1.572   0.552
10168SOL    HW231404   5.547   1.546   0.494
10169SOL     OW31405   6.479   2.970   3.625
10169SOL    HW131406   6.395   3.002   3.582
10169SOL    HW231407   6.457   2.909   3.701
10170SOL     OW31408   6.096   5.911   6.014
10170SOL    HW131409   6.149   5.876   5.937
10170SOL    HW231410   6.050   5.996   5.987
10171SOL     OW31411   2.061   3.590   5.809
10171SOL    HW131412   2.133   3.594   5.740
10171SOL    HW231413   1.999   3.514   5.788
10172SOL     OW31414   6.283   0.492   2.957
10172SOL    HW131415   6.264   0.454   3.048
10172SOL    HW231416   6.234   0.441   2.888
10173SOL     OW31417   3.370   4.900   6.409
10173SOL    HW131418   3.463   4.886   6.443
10173SOL    HW231419   3.362   4.861   6.317
10174SOL     OW31420   4.777   6.300   2.112
10174SOL    HW131421   4.861   6.275   2.063
10174SOL    HW231422   4.771   6.400   2.118
10175SOL     OW31423   0.576   1.836   4.272
10175SOL    HW131424   0.558   1.935   4.279
10175SOL    HW231425   0.644   1.819   4.201
10176SOL     OW31426   6.186   2.725   5.848
10176SOL    HW131427   6.131   2.799   5.886
10176SOL    HW231428   6.281   2.733   5.881
10177SOL     OW31429   2.345   0.783   1.933
10177SOL    HW131430   2.405   0.825   1.865
10177SOL    HW231431   2.310   0.696   1.899
10178SOL     OW31432   1.536   1.041   0.142
10178SOL    HW131433   1.634   1.038   0.118
10178SOL    HW231434   1.519   0.979   0.218
10179SOL     OW31435   0.056   4.264   1.199
10179SOL    HW131436   0.115   4.340   1.228
10179SOL    HW231437   0.109   4.201   1.142
10180SOL     OW31438   3.449   0.038   5.432
10180SOL    HW131439   3.474   0.049   5.336
10180SOL    HW231440   3.496   6.986   5.470
10181SOL     OW31441   0.079   3.983   1.595
10181SOL    HW131442   0.096   3.937   1.507
10181SOL    HW231443   0.033   3.919   1.657
10182SOL     OW31444   5.194   0.970   6.926
10182SOL    HW131445   5.246   1.039   6.977
10182SOL    HW231446   5.257   0.903   6.886
10183SOL     OW31447   6.087   2.438   6.524
10183SOL    HW131448   6.072   2.405   6.430
10183SOL    HW231449   6.115   2.361   6.582
10184SOL     OW31450   5.634   3.582   6.136
10184SOL    HW131451   5.614   3.557   6.231
10184SOL    HW231452   5.701   3.656   6.135
10185SOL     OW31453   3.723   5.447   2.700
10185SOL    HW131454   3.724   5.523   2.635
10185SOL    HW231455   3.730   5.360   2.650
10186SOL     OW31456   4.631   3.676   5.980
10186SOL    HW131457   4.679   3.622   5.910
10186SOL    HW231458   4.537   3.644   5.989
10187SOL     OW31459   2.461   4.842   6.065
10187SOL    HW131460   2.493   4.904   5.994
10187SOL    HW231461   2.422   4.895   6.140
10188SOL     OW31462   2.830   0.113   0.347
10188SOL    HW131463   2.787   0.087   0.433
10188SOL    HW231464   2.879   0.035   0.309
10189SOL     OW31465   0.965   1.464   6.480
10189SOL    HW131466   0.968   1.367   6.503
10189SOL    HW231467   0.992   1.476   6.384
10190SOL     OW31468   3.345   4.879   1.480
10190SOL    HW131469   3.346   4.857   1.577
10190SOL    HW231470   3.254   4.911   1.454
10191SOL     OW31471   5.730   5.957   6.432
10191SOL    HW131472   5.765   5.889   6.367
10191SOL    HW231473   5.743   5.924   6.525
10192SOL     OW31474   2.373   1.752   5.074
10192SOL    HW131475   2.389   1.661   5.034
10192SOL    HW231476   2.460   1.794   5.098
10193SOL     OW31477   3.934   3.772   2.903
10193SOL    HW131478   4.002   3.743   2.836
10193SOL    HW231479   3.843   3.740   2.875
10194SOL     OW31480   3.597   0.234   4.053
10194SOL    HW131481   3.527   0.187   4.107
10194SOL    HW231482   3.621   0.320   4.098
10195SOL     OW31483   4.864   0.137   2.187
10195SOL    HW131484   4.927   0.195   2.135
10195SOL    HW231485   4.890   0.138   2.284
10196SOL     OW31486   5.544   1.717   2.999
10196SOL    HW131487   5.529   1.798   3.056
10196SOL    HW231488   5.636   1.721   2.960
10197SOL     OW31489   6.293   0.782   2.329
10197SOL    HW131490   6.364   0.712   2.321
10197SOL    HW231491   6.326   0.857   2.385
10198SOL     OW31492   3.107   6.892   1.534
10198SOL    HW131493   3.044   6.938   1.471
10198SOL    HW231494   3.056   6.833   1.596
10199SOL     OW31495   0.787   1.591   6.669
10199SOL    HW131496   0.696   1.563   6.640
10199SOL    HW231497   0.856   1.539   6.619
10200SOL     OW31498   5.151   4.608   5.556
10200SOL    HW131499   5.221   4.650   5.498
10200SOL    HW231500   5.192   4.535   5.611
10201SOL     OW31501   0.747   5.724   2.291
10201SOL    HW131502   0.835   5.752   2.330
10201SOL    HW231503   0.699   5.666   2.356
10202SOL     OW31504   1.077   3.251   1.540
10202SOL    HW131505   1.029   3.248   1.627
10202SOL    HW231506   1.045   3.329   1.487
10203SOL     OW31507   1.929   2.922   2.112
10203SOL    HW131508   1.932   2.877   2.023
10203SOL    HW231509   2.011   2.898   2.164
10204SOL     OW31510   3.135   4.746   5.251
10204SOL    HW131511   3.066   4.674   5.241
10204SOL    HW231512   3.153   4.787   5.162
10205SOL     OW31513   5.635   2.131   3.984
10205SOL    HW131514   5.576   2.211   3.974
10205SOL    HW231515   5.581   2.053   4.013
10206SOL     OW31516   5.662   6.678   5.784
10206SOL    HW131517   5.729   6.613   5.749
10206SOL    HW231518   5.646   6.660   5.881
10207SOL     OW31519   3.101   1.096   2.952
10207SOL    HW131520   3.042   1.114   2.873
10207SOL    HW231521   3.050   1.109   3.036
10208SOL     OW31522   5.734   4.820   6.008
10208SOL    HW131523   5.751   4.892   5.941
10208SOL    HW231524   5.717   4.733   5.960
10209SOL     OW31525   0.039   0.313   6.326
10209SOL    HW131526   6.971   0.344   6.333
10209SOL    HW231527   0.058   0.246   6.398
10210SOL     OW31528   5.898   6.522   2.370
10210SOL    HW131529   5.799   6.517   2.381
10210SOL    HW231530   5.924   6.617   2.348
10211SOL     OW31531   3.602   5.879   5.505
10211SOL    HW131532   3.698   5.859   5.524
10211SOL    HW231533   3.550   5.793   5.506
10212SOL     OW31534   0.623   1.256   3.963
10212SOL    HW131535   0.693   1.224   4.027
10212SOL    HW231536   0.540   1.201   3.975
10213SOL     OW31537   6.238   1.892   3.222
10213SOL    HW131538   6.312   1.834   3.188
10213SOL    HW231539   6.224   1.873   3.319
10214SOL     OW31540   6.615   0.841   2.115
10214SOL    HW131541   6.702   0.793   2.119
10214SOL    HW231542   6.544   0.786   2.159
10215SOL     OW31543   4.002   3.200   6.349
10215SOL    HW131544   3.981   3.224   6.443
10215SOL    HW231545   3.924   3.150   6.309
10216SOL     OW31546   6.058   0.157   0.904
10216SOL    HW131547   5.979   0.115   0.862
10216SOL    HW231548   6.122   0.187   0.833
10217SOL     OW31549   2.309   2.214   4.124
10217SOL    HW131550   2.341   2.223   4.218
10217SOL    HW231551   2.324   2.120   4.092
10218SOL     OW31552   2.177   0.894   0.640
10218SOL    HW131553   2.140   0.974   0.687
10218SOL    HW231554   2.125   0.877   0.556
10219SOL     OW31555   0.967   2.680   1.522
10219SOL    HW131556   0.888   2.697   1.582
10219SOL    HW231557   1.039   2.745   1.543
10220SOL     OW31558   4.341   1.888   1.402
10220SOL    HW131559   4.337   1.788   1.396
10220SOL    HW231560   4.270   1.921   1.464
10221SOL     OW31561   2.830   0.621   5.358
10221SOL    HW131562   2.921   0.583   5.338
10221SOL    HW231563   2.805   0.598   5.452
10222SOL     OW31564   1.373   4.676   4.663
10222SOL    HW131565   1.320   4.648   4.743
10222SOL    HW231566   1.469   4.650   4.676
10223SOL     OW31567   1.788   4.614   6.673
10223SOL    HW131568   1.871   4.605   6.728
10223SOL    HW231569   1.711   4.573   6.722
10224SOL     OW31570   0.356   6.857   4.255
10224SOL    HW131571   0.437   6.877   4.200
10224SOL    HW231572   0.383   6.804   4.336
10225SOL     OW31573   6.750   5.792   4.688
10225SOL    HW131574   6.714   5.843   4.766
10225SOL    HW231575   6.794   5.708   4.720
10226SOL     OW31576   2.551   1.107   6.733
10226SOL    HW131577   2.553   1.036   6.663
10226SOL    HW231578   2.580   1.194   6.693
10227SOL     OW31579   4.459   4.475   0.251
10227SOL    HW131580   4.535   4.412   0.237
10227SOL    HW231581   4.416   4.497   0.163
10228SOL     OW31582   0.891   5.077   2.890
10228SOL    HW131583   0.984   5.041   2.902
10228SOL    HW231584   0.890   5.174   2.911
10229SOL     OW31585   0.986   0.409   3.419
10229SOL    HW131586   1.084   0.430   3.421
10229SOL    HW231587   0.951   0.417   3.326
10230SOL     OW31588   5.813   6.805   3.250
10230SOL    HW131589   5.845   6.863   3.175
10230SOL    HW231590   5.891   6.764   3.297
10231SOL     OW31591   5.625   6.888   4.398
10231SOL    HW131592   5.545   6.830   4.383
10231SOL    HW231593   5.626   6.921   4.492
10232SOL     OW31594   3.553   0.825   4.325
10232SOL    HW131595   3.520   0.814   4.419
10232SOL    HW231596   3.526   0.914   4.290
10233SOL     OW31597   4.305   3.053   6.112
10233SOL    HW131598   4.272   3.025   6.202
10233SOL    HW231599   4.247   3.014   6.041
10234SOL     OW31600   5.061   0.121   0.803
10234SOL    HW131601   5.121   0.146   0.727
10234SOL    HW231602   5.007   0.040   0.778
10235SOL     OW31603   4.994   1.374   6.938
10235SOL    HW131604   5.077   1.397   6.888
10235SOL    HW231605   5.002   1.404   0.006
10236SOL     OW31606   1.956   6.268   2.084
10236SOL    HW131607   1.982   6.356   2.124
10236SOL    HW231608   1.921   6.282   1.992
10237SOL     OW31609   6.458   4.375   2.451
10237SOL    HW131610   6.518   4.321   2.391
10237SOL    HW231611   6.412   4.445   2.397
10238SOL     OW31612   3.780   4.497   5.336
10238SOL    HW131613   3.724   4.417   5.312
10238SOL    HW231614   3.876   4.478   5.315
10239SOL     OW31615   0.344   3.882   5.193
10239SOL    HW131616   0.404   3.817   5.239
10239SOL    HW231617   0.342   3.862   5.095
10240SOL     OW31618   1.034   4.114   3.250
10240SOL    HW131619   0.998   4.177   3.182
10240SOL    HW231620   0.965   4.046   3.273
10241SOL     OW31621   0.685   1.293   2.444
10241SOL    HW131622   0.647   1.262   2.356
10241SOL    HW231623   0.763   1.236   2.469
10242SOL     OW31624   6.951   1.316   5.448
10242SOL    HW131625   6.954   1.220   5.419
10242SOL    HW231626   6.895   1.324   5.530
10243SOL     OW31627   0.645   5.469   1.263
10243SOL    HW131628   0.712   5.417   1.315
10243SOL    HW231629   0.677   5.479   1.169
10244SOL     OW31630   2.424   4.889   0.224
10244SOL    HW131631   2.350   4.928   0.168
10244SOL    HW231632   2.436   4.945   0.306
10245SOL     OW31633   1.688   3.381   6.843
10245SOL    HW131634   1.619   3.357   6.775
10245SOL    HW231635   1.644   3.424   6.922
10246SOL     OW31636   2.971   3.913   4.671
10246SOL    HW131637   2.984   3.880   4.765
10246SOL    HW231638   2.884   3.961   4.664
10247SOL     OW31639   0.021   4.978   6.092
10247SOL    HW131640   0.065   5.056   6.047
10247SOL    HW231641   0.024   4.899   6.032
10248SOL     OW31642   2.931   0.569   1.895
10248SOL    HW131643   2.910   0.483   1.849
10248SOL    HW231644   3.029   0.574   1.915
10249SOL     OW31645   4.613   0.850   5.321
10249SOL    HW131646   4.643   0.758   5.294
10249SOL    HW231647   4.594   0.851   5.419
10250SOL     OW31648   5.928   1.104   1.344
10250SOL    HW131649   6.027   1.087   1.348
10250SOL    HW231650   5.890   1.063   1.261
10251SOL     OW31651   3.090   3.085   6.804
10251SOL    HW131652   3.003   3.073   6.851
10251SOL    HW231653   3.074   3.129   6.715
10252SOL     OW31654   6.332   6.353   0.724
10252SOL    HW131655   6.403   6.284   0.716
10252SOL    HW231656   6.374   6.444   0.722
10253SOL     OW31657   4.484   4.562   0.514
10253SOL    HW131658   4.477   4.544   0.415
10253SOL    HW231659   4.445   4.486   0.565
10254SOL     OW31660   2.772   1.518   4.842
10254SOL    HW131661   2.860   1.503   4.889
10254SOL    HW231662   2.785   1.584   4.768
10255SOL     OW31663   1.907   6.047   2.194
10255SOL    HW131664   1.822   6.033   2.144
10255SOL    HW231665   1.949   6.133   2.164
10256SOL     OW31666   4.866   6.997   0.299
10256SOL    HW131667   4.962   6.981   0.324
10256SOL    HW231668   4.860   7.017   0.201
10257SOL     OW31669   1.389   5.191   6.115
10257SOL    HW131670   1.447   5.113   6.092
10257SOL    HW231671   1.353   5.179   6.208
10258SOL     OW31672   4.424   6.422   3.691
10258SOL    HW131673   4.513   6.386   3.663
10258SOL    HW231674   4.433   6.467   3.780
10259SOL     OW31675   0.115   4.794   4.286
10259SOL    HW131676   0.043   4.755   4.230
10259SOL    HW231677   0.184   4.724   4.306
10260SOL     OW31678   0.641   6.225   2.852
10260SOL    HW131679   0.552   6.227   2.897
10260SOL    HW231680   0.628   6.235   2.753
10261SOL     OW31681   0.076   5.323   2.347
10261SOL    HW131682   0.167   5.310   2.306
10261SOL    HW231683   0.067   5.264   2.427
10262SOL     OW31684   3.470   5.045   4.500
10262SOL    HW131685   3.381   5.013   4.534
10262SOL    HW231686   3.466   5.144   4.486
10263SOL     OW31687   5.016   1.968   6.591
10263SOL    HW131688   5.049   1.883   6.633
10263SOL    HW231689   5.018   1.960   6.492
10264SOL     OW31690   5.808   1.494   6.144
10264SOL    HW131691   5.871   1.418   6.158
10264SOL    HW231692   5.732   1.487   6.208
10265SOL     OW31693   3.494   1.774   2.849
10265SOL    HW131694   3.461   1.733   2.764
10265SOL    HW231695   3.545   1.706   2.902
10266SOL     OW31696   3.774   3.561   6.478
10266SOL    HW131697   3.768   3.652   6.519
10266SOL    HW231698   3.696   3.506   6.509
10267SOL     OW31699   0.051   1.882   0.082
10267SOL    HW131700   0.001   1.807   0.125
10267SOL    HW231701   0.009   1.903   7.020
10268SOL     OW31702   5.515   6.077   1.253
10268SOL    HW131703   5.498   6.049   1.159
10268SOL    HW231704   5.435   6.127   1.288
10269SOL     OW31705   2.435   2.165   6.016
10269SOL    HW131706   2.416   2.084   6.071
10269SOL    HW231707   2.369   2.172   5.942
10270SOL     OW31708   2.106   5.861   0.873
10270SOL    HW131709   2.029   5.823   0.924
10270SOL    HW231710   2.076   5.888   0.782
10271SOL     OW31711   3.511   3.736   0.978
10271SOL    HW131712   3.482   3.649   1.017
10271SOL    HW231713   3.580   3.720   0.907
10272SOL     OW31714   1.079   0.926   4.645
10272SOL    HW131715   1.127   1.003   4.687
10272SOL    HW231716   1.026   0.877   4.714
10273SOL     OW31717   3.347   5.871   4.344
10273SOL    HW131718   3.288   5.791   4.345
10273SOL    HW231719   3.318   5.933   4.272
10274SOL     OW31720   1.434   4.991   5.482
10274SOL    HW131721   1.499   5.055   5.524
10274SOL    HW231722   1.390   5.035   5.404
10275SOL     OW31723   0.854   6.410   2.937
10275SOL    HW131724   0.771   6.362   2.909
10275SOL    HW231725   0.855   6.420   3.037
10276SOL     OW31726   0.015   5.568   5.789
10276SOL    HW131727   0.008   5.542   5.886
10276SOL    HW231728   6.954   5.603   5.758
10277SOL     OW31729   2.843   6.519   4.019
10277SOL    HW131730   2.898   6.437   4.002
10277SOL    HW231731   2.746   6.498   4.004
10278SOL     OW31732   6.517   0.402   6.637
10278SOL    HW131733   6.486   0.442   6.550
10278SOL    HW231734   6.510   0.302   6.631
10279SOL     OW31735   3.436   6.901   4.612
10279SOL    HW131736   3.431   6.983   4.554
10279SOL    HW231737   3.518   6.905   4.668
10280SOL     OW31738   1.768   4.462   1.143
10280SOL    HW131739   1.834   4.534   1.164
10280SOL    HW231740   1.735   4.422   1.228
10281SOL     OW31741   4.934   1.533   2.498
10281SOL    HW131742   4.948   1.608   2.563
10281SOL    HW231743   5.019   1.481   2.488
10282SOL     OW31744   0.595   2.327   3.911
10282SOL    HW131745   0.543   2.342   3.996
10282SOL    HW231746   0.675   2.271   3.931
10283SOL     OW31747   0.824   3.463   0.716
10283SOL    HW131748   0.870   3.380   0.685
10283SOL    HW231749   0.892   3.531   0.743
10284SOL     OW31750   5.757   3.973   5.320
10284SOL    HW131751   5.839   3.963   5.376
10284SOL    HW231752   5.695   3.897   5.338
10285SOL     OW31753   4.764   0.497   1.088
10285SOL    HW131754   4.694   0.549   1.040
10285SOL    HW231755   4.729   0.406   1.110
10286SOL     OW31756   3.700   1.121   3.124
10286SOL    HW131757   3.626   1.187   3.137
10286SOL    HW231758   3.742   1.135   3.034
10287SOL     OW31759   1.244   6.524   1.679
10287SOL    HW131760   1.196   6.491   1.598
10287SOL    HW231761   1.180   6.572   1.739
10288SOL     OW31762   4.933   5.679   3.208
10288SOL    HW131763   4.962   5.596   3.257
10288SOL    HW231764   5.005   5.749   3.216
10289SOL     OW31765   3.195   1.569   1.663
10289SOL    HW131766   3.116   1.622   1.693
10289SOL    HW231767   3.228   1.605   1.575
10290SOL     OW31768   4.146   3.302   2.367
10290SOL    HW131769   4.139   3.337   2.460
10290SOL    HW231770   4.155   3.202   2.369
10291SOL     OW31771   3.777   0.863   3.230
10291SOL    HW131772   3.809   0.866   3.325
10291SOL    HW231773   3.698   0.924   3.220
10292SOL     OW31774   0.275   2.251   5.327
10292SOL    HW131775   0.255   2.221   5.233
10292SOL    HW231776   0.192   2.286   5.369
10293SOL     OW31777   1.835   5.711   2.964
10293SOL    HW131778   1.883   5.769   2.898
10293SOL    HW231779   1.740   5.741   2.972
10294SOL     OW31780   5.198   2.438   2.706
10294SOL    HW131781   5.179   2.348   2.746
10294SOL    HW231782   5.144   2.508   2.753
10295SOL     OW31783   0.063   4.693   5.470
10295SOL    HW131784   0.017   4.611   5.435
10295SOL    HW231785   7.021   4.761   5.497
10296SOL     OW31786   5.858   4.301   5.897
10296SOL    HW131787   5.939   4.359   5.905
10296SOL    HW231788   5.835   4.263   5.986
10297SOL     OW31789   2.001   6.294   3.717
10297SOL    HW131790   1.993   6.198   3.690
10297SOL    HW231791   2.067   6.340   3.659
10298SOL     OW31792   4.933   3.941   3.782
10298SOL    HW131793   4.893   4.020   3.736
10298SOL    HW231794   4.907   3.857   3.733
10299SOL     OW31795   4.839   4.177   3.658
10299SOL    HW131796   4.782   4.258   3.641
10299SOL    HW231797   4.916   4.177   3.595
10300SOL     OW31798   1.289   3.579   1.850
10300SOL    HW131799   1.243   3.623   1.773
10300SOL    HW231800   1.366   3.525   1.816
10301SOL     OW31801   5.898   1.296   3.024
10301SOL    HW131802   5.984   1.345   3.023
10301SOL    HW231803   5.834   1.340   3.087
10302SOL     OW31804   1.034   6.309   2.706
10302SOL    HW131805   1.006   6.374   2.776
10302SOL    HW231806   0.976   6.318   2.626
10303SOL     OW31807   3.856   3.406   1.430
10303SOL    HW131808   3.877   3.496   1.467
10303SOL    HW231809   3.935   3.346   1.442
10304SOL     OW31810   6.735   6.725   3.786
10304SOL    HW131811   6.724   6.642   3.841
10304SOL    HW231812   6.768   6.700   3.695
10305SOL     OW31813   2.156   5.841   6.988
10305SOL    HW131814   2.121   5.918   6.934
10305SOL    HW231815   2.249   5.862   7.018
10306SOL     OW31816   4.816   5.483   6.967
10306SOL    HW131817   4.747   5.419   7.003
10306SOL    HW231818   4.906   5.440   6.971
10307SOL     OW31819   1.452   0.836   5.580
10307SOL    HW131820   1.516   0.837   5.503
10307SOL    HW231821   1.483   0.773   5.650
10308SOL     OW31822   3.474   5.168   3.302
10308SOL    HW131823   3.563   5.140   3.265
10308SOL    HW231824   3.462   5.128   3.393
10309SOL     OW31825   5.629   6.599   3.176
10309SOL    HW131826   5.645   6.526   3.110
10309SOL    HW231827   5.708   6.660   3.177
10310SOL     OW31828   3.267   3.565   2.637
10310SOL    HW131829   3.273   3.530   2.543
10310SOL    HW231830   3.201   3.641   2.640
10311SOL     OW31831   0.471   5.525   0.650
10311SOL    HW131832   0.487   5.462   0.726
10311SOL    HW231833   0.527   5.607   0.663
10312SOL     OW31834   3.524   4.836   0.913
10312SOL    HW131835   3.544   4.792   1.000
10312SOL    HW231836   3.571   4.787   0.839
10313SOL     OW31837   4.708   0.326   2.648
10313SOL    HW131838   4.681   0.296   2.556
10313SOL    HW231839   4.797   0.371   2.643
10314SOL     OW31840   6.452   0.202   1.063
10314SOL    HW131841   6.451   0.124   1.126
10314SOL    HW231842   6.372   0.259   1.081
10315SOL     OW31843   6.679   5.661   5.402
10315SOL    HW131844   6.736   5.734   5.364
10315SOL    HW231845   6.601   5.702   5.450
10316SOL     OW31846   0.297   3.801   4.796
10316SOL    HW131847   0.368   3.740   4.829
10316SOL    HW231848   0.221   3.803   4.861
10317SOL     OW31849   4.229   4.913   6.146
10317SOL    HW131850   4.149   4.958   6.183
10317SOL    HW231851   4.271   4.856   6.217
10318SOL     OW31852   6.431   5.050   1.455
10318SOL    HW131853   6.497   5.012   1.390
10318SOL    HW231854   6.356   4.985   1.468
10319SOL     OW31855   7.015   5.073   3.499
10319SOL    HW131856   0.073   5.050   3.546
10319SOL    HW231857   6.948   5.107   3.566
10320SOL     OW31858   0.352   6.239   0.582
10320SOL    HW131859   0.257   6.262   0.562
10320SOL    HW231860   0.412   6.310   0.546
10321SOL     OW31861   4.466   5.604   4.893
10321SOL    HW131862   4.411   5.624   4.812
10321SOL    HW231863   4.501   5.689   4.932
10322SOL     OW31864   6.397   5.389   0.920
10322SOL    HW131865   6.445   5.364   1.004
10322SOL    HW231866   6.380   5.487   0.920
10323SOL     OW31867   5.900   3.213   6.298
10323SOL    HW131868   5.832   3.166   6.242
10323SOL    HW231869   5.873   3.207   6.394
10324SOL     OW31870   2.960   3.783   3.708
10324SOL    HW131871   2.997   3.865   3.752
10324SOL    HW231872   3.024   3.750   3.639
10325SOL     OW31873   6.984   3.395   3.262
10325SOL    HW131874   6.891   3.369   3.289
10325SOL    HW231875   0.002   3.316   3.221
10326SOL     OW31876   5.123   3.107   6.921
10326SOL    HW131877   5.073   3.099   6.835
10326SOL    HW231878   5.115   3.022   6.972
10327SOL     OW31879   1.094   0.838   3.071
10327SOL    HW131880   1.039   0.825   3.153
10327SOL    HW231881   1.052   0.788   2.995
10328SOL     OW31882   6.034   3.514   2.346
10328SOL    HW131883   6.012   3.612   2.346
10328SOL    HW231884   5.958   3.463   2.305
10329SOL     OW31885   3.109   0.473   2.722
10329SOL    HW131886   3.023   0.500   2.678
10329SOL    HW231887   3.092   0.396   2.784
10330SOL     OW31888   3.680   4.997   2.674
10330SOL    HW131889   3.703   4.919   2.616
10330SOL    HW231890   3.586   4.988   2.706
10331SOL     OW31891   5.253   0.882   3.853
10331SOL    HW131892   5.321   0.837   3.795
10331SOL    HW231893   5.240   0.976   3.823
10332SOL     OW31894   7.006   2.145   0.614
10332SOL    HW131895   6.980   2.116   0.522
10332SOL    HW231896   0.077   2.134   0.627
10333SOL     OW31897   5.978   5.322   4.513
10333SOL    HW131898   6.008   5.283   4.600
10333SOL    HW231899   5.943   5.414   4.528
10334SOL     OW31900   2.212   4.825   4.304
10334SOL    HW131901   2.150   4.873   4.242
10334SOL    HW231902   2.206   4.726   4.287
10335SOL     OW31903   2.451   5.228   0.806
10335SOL    HW131904   2.524   5.160   0.812
10335SOL    HW231905   2.393   5.208   0.727
10336SOL     OW31906   4.591   6.929   2.487
10336SOL    HW131907   4.626   6.910   2.396
10336SOL    HW231908   4.664   6.968   2.544
10337SOL     OW31909   0.150   5.124   4.832
10337SOL    HW131910   0.094   5.074   4.897
10337SOL    HW231911   0.217   5.062   4.790
10338SOL     OW31912   2.914   6.994   2.056
10338SOL    HW131913   2.829   6.955   2.092
10338SOL    HW231914   2.988   6.929   2.070
10339SOL     OW31915   3.159   6.127   1.461
10339SOL    HW131916   3.207   6.060   1.405
10339SOL    HW231917   3.203   6.133   1.551
10340SOL     OW31918   2.570   5.917   0.289
10340SOL    HW131919   2.542   5.960   0.375
10340SOL    HW231920   2.555   5.818   0.294
10341SOL     OW31921   2.126   1.675   2.171
10341SOL    HW131922   2.032   1.706   2.165
10341SOL    HW231923   2.132   1.599   2.236
10342SOL     OW31924   2.290   0.314   5.771
10342SOL    HW131925   2.319   0.225   5.736
10342SOL    HW231926   2.315   0.322   5.868
10343SOL     OW31927   2.585   3.659   6.246
10343SOL    HW131928   2.530   3.576   6.233
10343SOL    HW231929   2.527   3.739   6.237
10344SOL     OW31930   4.145   3.630   5.010
10344SOL    HW131931   4.231   3.584   4.987
10344SOL    HW231932   4.107   3.673   4.929
10345SOL     OW31933   2.014   1.495   0.035
10345SOL    HW131934   1.923   1.460   0.056
10345SOL    HW231935   2.005   1.576   7.004
10346SOL     OW31936   4.880   0.002   0.042
10346SOL    HW131937   4.879   0.095   0.004
10346SOL    HW231938   4.860   6.963   6.996
10347SOL     OW31939   5.431   2.161   1.502
10347SOL    HW131940   5.365   2.104   1.454
10347SOL    HW231941   5.382   2.229   1.556
10348SOL     OW31942   5.805   1.046   6.134
10348SOL    HW131943   5.713   1.082   6.151
10348SOL    HW231944   5.860   1.117   6.090
10349SOL     OW31945   6.240   1.468   1.475
10349SOL    HW131946   6.278   1.509   1.559
10349SOL    HW231947   6.194   1.382   1.498
10350SOL     OW31948   2.855   5.773   4.439
10350SOL    HW131949   2.881   5.718   4.360
10350SOL    HW231950   2.834   5.713   4.516
10351SOL     OW31951   5.878   5.367   5.305
10351SOL    HW131952   5.895   5.370   5.403
10351SOL    HW231953   5.902   5.277   5.269
10352SOL     OW31954   5.447   1.844   6.941
10352SOL    HW131955   5.391   1.914   6.985
10352SOL    HW231956   5.497   1.792   7.011
10353SOL     OW31957   0.535   2.919   3.415
10353SOL    HW131958   0.585   2.951   3.334
10353SOL    HW231959   0.438   2.938   3.403
10354SOL     OW31960   0.240   3.764   0.620
10354SOL    HW131961   0.168   3.768   0.689
10354SOL    HW231962   0.214   3.822   0.542
10355SOL     OW31963   1.469   0.187   0.449
10355SOL    HW131964   1.450   0.105   0.396
10355SOL    HW231965   1.557   0.226   0.421
10356SOL     OW31966   6.801   3.718   0.101
10356SOL    HW131967   6.874   3.764   0.152
10356SOL    HW231968   6.760   3.783   0.037
10357SOL     OW31969   1.134   2.659   6.429
10357SOL    HW131970   1.053   2.711   6.405
10357SOL    HW231971   1.120   2.614   6.518
10358SOL     OW31972   1.036   2.727   3.123
10358SOL    HW131973   1.066   2.822   3.122
10358SOL    HW231974   0.952   2.718   3.070
10359SOL     OW31975   5.179   1.887   2.712
10359SOL    HW131976   5.188   1.971   2.765
10359SOL    HW231977   5.199   1.905   2.616
10360SOL     OW31978   5.680   5.007   2.832
10360SOL    HW131979   5.661   4.926   2.776
10360SOL    HW231980   5.695   5.086   2.772
10361SOL     OW31981   0.783   1.162   1.781
10361SOL    HW131982   0.819   1.196   1.694
10361SOL    HW231983   0.844   1.187   1.855
10362SOL     OW31984   1.250   4.850   2.724
10362SOL    HW131985   1.177   4.870   2.659
10362SOL    HW231986   1.329   4.909   2.705
10363SOL     OW31987   5.135   3.377   0.603
10363SOL    HW131988   5.178   3.318   0.671
10363SOL    HW231989   5.204   3.410   0.539
10364SOL     OW31990   5.284   4.311   1.877
10364SOL    HW131991   5.317   4.365   1.799
10364SOL    HW231992   5.216   4.244   1.845
10365SOL     OW31993   5.884   5.690   0.493
10365SOL    HW131994   5.936   5.636   0.559
10365SOL    HW231995   5.831   5.759   0.542
10366SOL     OW31996   3.858   6.256   2.802
10366SOL    HW131997   3.886   6.255   2.706
10366SOL    HW231998   3.848   6.163   2.836
10367SOL     OW31999   5.954   1.725   0.916
10367SOL    HW132000   5.987   1.643   0.870
10367SOL    HW232001   6.005   1.740   1.001
10368SOL     OW32002   1.930   0.338   1.966
10368SOL    HW132003   1.839   0.323   2.004
10368SOL    HW232004   1.966   0.251   1.932
10369SOL     OW32005   2.966   6.669   5.198
10369SOL    HW132006   3.037   6.740   5.193
10369SOL    HW232007   2.985   6.598   5.131
10370SOL     OW32008   0.222   1.944   4.542
10370SOL    HW132009   0.307   1.893   4.555
10370SOL    HW232010   0.153   1.883   4.502
10371SOL     OW32011   3.694   6.060   3.378
10371SOL    HW132012   3.610   6.108   3.352
10371SOL    HW232013   3.771   6.098   3.327
10372SOL     OW32014   2.611   0.461   1.689
10372SOL    HW132015   2.704   0.437   1.662
10372SOL    HW232016   2.546   0.416   1.628
10373SOL     OW32017   6.937   1.624   5.901
10373SOL    HW132018   6.866   1.656   5.839
10373SOL    HW232019   6.952   1.693   5.972
10374SOL     OW32020   3.307   6.702   4.755
10374SOL    HW132021   3.284   6.622   4.700
10374SOL    HW232022   3.361   6.766   4.701
10375SOL     OW32023   4.076   2.796   6.865
10375SOL    HW132024   4.042   2.886   6.894
10375SOL    HW232025   4.003   2.748   6.816
10376SOL     OW32026   1.308   5.729   2.604
10376SOL    HW132027   1.404   5.751   2.621
10376SOL    HW232028   1.268   5.689   2.686
10377SOL     OW32029   0.266   1.592   1.858
10377SOL    HW132030   0.306   1.680   1.833
10377SOL    HW232031   0.334   1.520   1.845
10378SOL     OW32032   0.232   5.168   5.310
10378SOL    HW132033   0.150   5.205   5.266
10378SOL    HW232034   0.279   5.106   5.246
10379SOL     OW32035   2.452   6.822   4.033
10379SOL    HW132036   2.407   6.852   4.117
10379SOL    HW232037   2.549   6.845   4.037
10380SOL     OW32038   1.454   2.667   4.883
10380SOL    HW132039   1.551   2.684   4.895
10380SOL    HW232040   1.410   2.748   4.844
10381SOL     OW32041   4.314   4.250   1.627
10381SOL    HW132042   4.356   4.239   1.717
10381SOL    HW232043   4.382   4.289   1.564
10382SOL     OW32044   3.339   4.806   1.763
10382SOL    HW132045   3.413   4.744   1.790
10382SOL    HW232046   3.293   4.842   1.845
10383SOL     OW32047   1.928   5.118   0.207
10383SOL    HW132048   1.834   5.114   0.172
10383SOL    HW232049   1.992   5.127   0.131
10384SOL     OW32050   6.125   6.253   1.094
10384SOL    HW132051   6.146   6.199   1.012
10384SOL    HW232052   6.056   6.322   1.072
10385SOL     OW32053   3.612   5.244   6.217
10385SOL    HW132054   3.620   5.183   6.296
10385SOL    HW232055   3.521   5.233   6.176
10386SOL     OW32056   0.092   1.083   6.896
10386SOL    HW132057   0.143   1.125   6.822
10386SOL    HW232058   0.143   1.093   6.982
10387SOL     OW32059   4.825   3.078   3.376
10387SOL    HW132060   4.761   3.017   3.424
10387SOL    HW232061   4.848   3.039   3.287
10388SOL     OW32062   2.970   0.830   5.763
10388SOL    HW132063   3.045   0.765   5.777
10388SOL    HW232064   2.931   0.817   5.671
10389SOL     OW32065   6.602   3.899   0.014
10389SOL    HW132066   6.530   3.901   0.084
10389SOL    HW232067   6.630   3.993   7.021
10390SOL     OW32068   2.223   2.290   0.898
10390SOL    HW132069   2.243   2.211   0.840
10390SOL    HW232070   2.131   2.283   0.935
10391SOL     OW32071   0.732   6.041   3.638
10391SOL    HW132072   0.770   6.071   3.725
10391SOL    HW232073   0.727   6.119   3.575
10392SOL     OW32074   6.800   5.017   4.945
10392SOL    HW132075   6.740   5.085   4.901
10392SOL    HW232076   6.874   4.993   4.883
10393SOL     OW32077   2.176   3.693   3.942
10393SOL    HW132078   2.170   3.736   3.852
10393SOL    HW232079   2.219   3.757   4.006
10394SOL     OW32080   2.810   6.154   4.107
10394SOL    HW132081   2.745   6.204   4.165
10394SOL    HW232082   2.798   6.056   4.122
10395SOL     OW32083   0.208   6.602   1.393
10395SOL    HW132084   0.289   6.637   1.346
10395SOL    HW232085   0.234   6.527   1.453
10396SOL     OW32086   3.322   2.025   3.891
10396SOL    HW132087   3.395   2.054   3.828
10396SOL    HW232088   3.330   2.076   3.977
10397SOL     OW32089   3.194   2.068   2.696
10397SOL    HW132090   3.141   1.989   2.726
10397SOL    HW232091   3.287   2.061   2.732
10398SOL     OW32092   7.007   2.898   0.976
10398SOL    HW132093   6.923   2.876   1.027
10398SOL    HW232094   0.019   2.814   0.939
10399SOL     OW32095   5.495   2.463   2.823
10399SOL    HW132096   5.583   2.509   2.833
10399SOL    HW232097   5.425   2.528   2.794
10400SOL     OW32098   4.311   6.920   6.937
10400SOL    HW132099   4.361   6.999   6.901
10400SOL    HW232100   4.342   6.901   0.004
10401SOL     OW32101   6.036   0.965   3.902
10401SOL    HW132102   5.979   0.882   3.902
10401SOL    HW232103   6.088   0.970   3.817
10402SOL     OW32104   6.769   3.084   4.495
10402SOL    HW132105   6.745   3.107   4.401
10402SOL    HW232106   6.826   3.156   4.534
10403SOL     OW32107   3.756   1.136   3.400
10403SOL    HW132108   3.761   1.108   3.304
10403SOL    HW232109   3.844   1.121   3.444
10404SOL     OW32110   6.212   6.849   5.000
10404SOL    HW132111   6.221   6.859   4.901
10404SOL    HW232112   6.224   6.938   5.044
10405SOL     OW32113   0.380   1.533   5.908
10405SOL    HW132114   0.445   1.563   5.839
10405SOL    HW232115   0.291   1.517   5.866
10406SOL     OW32116   3.084   5.149   2.876
10406SOL    HW132117   3.032   5.232   2.894
10406SOL    HW232118   3.038   5.071   2.919
10407SOL     OW32119   3.457   6.631   5.969
10407SOL    HW132120   3.417   6.540   5.984
10407SOL    HW232121   3.473   6.674   6.058
10408SOL     OW32122   4.513   0.435   0.760
10408SOL    HW132123   4.512   0.346   0.805
10408SOL    HW232124   4.547   0.505   0.823
10409SOL     OW32125   6.752   4.466   1.467
10409SOL    HW132126   6.708   4.464   1.557
10409SOL    HW232127   6.703   4.531   1.407
10410SOL     OW32128   5.775   1.047   6.843
10410SOL    HW132129   5.854   1.107   6.834
10410SOL    HW232130   5.757   1.030   6.940
10411SOL     OW32131   3.993   6.856   3.367
10411SOL    HW132132   4.009   6.846   3.269
10411SOL    HW232133   4.044   6.787   3.417
10412SOL     OW32134   6.423   0.845   0.638
10412SOL    HW132135   6.494   0.775   0.624
10412SOL    HW232136   6.462   0.935   0.620
10413SOL     OW32137   6.012   2.527   0.860
10413SOL    HW132138   6.100   2.481   0.865
10413SOL    HW232139   6.006   2.596   0.933
10414SOL     OW32140   3.927   4.248   5.543
10414SOL    HW132141   3.984   4.300   5.480
10414SOL    HW232142   3.840   4.225   5.498
10415SOL     OW32143   0.640   4.137   4.790
10415SOL    HW132144   0.581   4.071   4.744
10415SOL    HW232145   0.650   4.218   4.732
10416SOL     OW32146   6.585   0.490   3.568
10416SOL    HW132147   6.526   0.570   3.572
10416SOL    HW232148   6.676   0.513   3.600
10417SOL     OW32149   3.425   5.544   4.535
10417SOL    HW132150   3.441   5.598   4.618
10417SOL    HW232151   3.342   5.576   4.490
10418SOL     OW32152   0.487   4.583   6.578
10418SOL    HW132153   0.481   4.494   6.533
10418SOL    HW232154   0.577   4.623   6.561
10419SOL     OW32155   1.239   6.929   6.546
10419SOL    HW132156   1.256   7.025   6.522
10419SOL    HW232157   1.180   6.925   6.627
10420SOL     OW32158   0.045   3.298   2.814
10420SOL    HW132159   0.065   3.280   2.910
10420SOL    HW232160   0.076   3.220   2.758
10421SOL     OW32161   0.244   2.018   3.406
10421SOL    HW132162   0.324   2.052   3.357
10421SOL    HW232163   0.229   1.922   3.384
10422SOL     OW32164   6.015   2.895   5.518
10422SOL    HW132165   5.985   2.799   5.518
10422SOL    HW232166   6.073   2.911   5.598
10423SOL     OW32167   5.262   4.924   4.740
10423SOL    HW132168   5.226   4.900   4.650
10423SOL    HW232169   5.332   4.995   4.729
10424SOL     OW32170   6.024   2.988   0.397
10424SOL    HW132171   5.948   2.922   0.395
10424SOL    HW232172   6.092   2.962   0.328
10425SOL     OW32173   1.645   6.768   2.006
10425SOL    HW132174   1.620   6.863   1.987
10425SOL    HW232175   1.731   6.765   2.055
10426SOL     OW32176   6.615   4.658   0.688
10426SOL    HW132177   6.713   4.667   0.705
10426SOL    HW232178   6.595   4.565   0.656
10427SOL     OW32179   3.861   1.371   0.121
10427SOL    HW132180   3.923   1.410   0.190
10427SOL    HW232181   3.815   1.445   0.072
10428SOL     OW32182   2.728   1.518   4.014
10428SOL    HW132183   2.693   1.505   3.921
10428SOL    HW232184   2.768   1.609   4.022
10429SOL     OW32185   7.010   5.529   0.864
10429SOL    HW132186   7.002   5.478   0.778
10429SOL    HW232187   0.068   5.581   0.864
10430SOL     OW32188   4.173   6.321   3.815
10430SOL    HW132189   4.157   6.223   3.816
10430SOL    HW232190   4.266   6.340   3.782
10431SOL     OW32191   3.352   5.895   4.630
10431SOL    HW132192   3.397   5.948   4.702
10431SOL    HW232193   3.399   5.910   4.543
10432SOL     OW32194   6.031   0.527   4.513
10432SOL    HW132195   6.022   0.583   4.431
10432SOL    HW232196   5.960   0.456   4.513
10433SOL     OW32197   1.743   0.089   1.182
10433SOL    HW132198   1.686   0.008   1.167
10433SOL    HW232199   1.690   0.171   1.160
10434SOL     OW32200   4.089   0.208   3.435
10434SOL    HW132201   4.146   0.166   3.505
10434SOL    HW232202   4.141   0.220   3.351
10435SOL     OW32203   6.950   0.128   4.786
10435SOL    HW132204   7.018   0.106   4.716
10435SOL    HW232205   6.922   0.044   4.833
10436SOL     OW32206   0.967   4.784   5.754
10436SOL    HW132207   1.009   4.874   5.758
10436SOL    HW232208   1.009   4.731   5.681
10437SOL     OW32209   5.947   4.592   5.984
10437SOL    HW132210   5.946   4.563   6.079
10437SOL    HW232211   6.034   4.639   5.964
10438SOL     OW32212   5.539   6.526   0.005
10438SOL    HW132213   5.538   6.511   6.933
10438SOL    HW232214   5.460   6.581   0.031
10439SOL     OW32215   3.557   1.626   6.000
10439SOL    HW132216   3.610   1.574   5.934
10439SOL    HW232217   3.466   1.647   5.962
10440SOL     OW32218   1.890   6.263   0.184
10440SOL    HW132219   1.977   6.235   0.145
10440SOL    HW232220   1.882   6.229   0.278
10441SOL     OW32221   4.566   1.271   0.236
10441SOL    HW132222   4.486   1.218   0.209
10441SOL    HW232223   4.643   1.247   0.178
10442SOL     OW32224   3.273   6.400   6.005
10442SOL    HW132225   3.251   6.303   6.019
10442SOL    HW232226   3.267   6.422   5.907
10443SOL     OW32227   5.230   3.753   4.807
10443SOL    HW132228   5.293   3.732   4.733
10443SOL    HW232229   5.244   3.689   4.882
10444SOL     OW32230   3.875   6.388   4.626
10444SOL    HW132231   3.793   6.356   4.578
10444SOL    HW232232   3.896   6.325   4.700
10445SOL     OW32233   0.620   5.453   4.007
10445SOL    HW132234   0.640   5.542   4.047
10445SOL    HW232235   0.676   5.382   4.052
10446SOL     OW32236   1.012   3.360   5.818
10446SOL    HW132237   1.110   3.345   5.829
10446SOL    HW232238   0.962   3.305   5.884
10447SOL     OW32239   6.609   1.466   1.963
10447SOL    HW132240   6.677   1.474   2.035
10447SOL    HW232241   6.521   1.497   1.996
10448SOL     OW32242   4.183   2.486   1.741
10448SOL    HW132243   4.091   2.447   1.736
10448SOL    HW232244   4.181   2.581   1.712
10449SOL     OW32245   2.088   5.339   4.926
10449SOL    HW132246   2.051   5.352   4.834
10449SOL    HW232247   2.061   5.416   4.985
10450SOL     OW32248   0.487   2.078   0.748
10450SOL    HW132249   0.571   2.126   0.773
10450SOL    HW232250   0.424   2.077   0.825
10451SOL     OW32251   1.996   5.032   2.817
10451SOL    HW132252   1.991   4.990   2.907
10451SOL    HW232253   2.073   4.995   2.766
10452SOL     OW32254   6.241   3.315   3.692
10452SOL    HW132255   6.239   3.415   3.696
10452SOL    HW232256   6.328   3.282   3.730
10453SOL     OW32257   5.352   6.275   1.937
10453SOL    HW132258   5.422   6.231   1.993
10453SOL    HW232259   5.328   6.215   1.861
10454SOL     OW32260   5.112   2.873   1.344
10454SOL    HW132261   5.125   2.851   1.440
10454SOL    HW232262   5.091   2.970   1.334
10455SOL     OW32263   0.227   4.696   2.632
10455SOL    HW132264   0.228   4.601   2.600
10455SOL    HW232265   0.239   4.757   2.554
10456SOL     OW32266   3.330   6.310   1.740
10456SOL    HW132267   3.252   6.365   1.710
10456SOL    HW232268   3.399   6.308   1.668
10457SOL     OW32269   3.655   2.927   2.885
10457SOL    HW132270   3.725   2.997   2.894
10457SOL    HW232271   3.698   2.837   2.883
10458SOL     OW32272   0.238   0.252   0.214
10458SOL    HW132273   0.180   0.291   0.143
10458SOL    HW232274   0.188   0.247   0.301
10459SOL     OW32275   5.388   5.221   3.014
10459SOL    HW132276   5.418   5.128   3.031
10459SOL    HW232277   5.362   5.230   2.917
10460SOL     OW32278   2.394   5.814   1.457
10460SOL    HW132279   2.316   5.779   1.404
10460SOL    HW232280   2.404   5.912   1.442
10461SOL     OW32281   1.131   6.108   5.786
10461SOL    HW132282   1.154   6.205   5.776
10461SOL    HW232283   1.060   6.098   5.856
10462SOL     OW32284   5.619   1.579   2.420
10462SOL    HW132285   5.549   1.607   2.354
10462SOL    HW232286   5.680   1.656   2.439
10463SOL     OW32287   3.746   3.365   5.864
10463SOL    HW132288   3.715   3.449   5.818
10463SOL    HW232289   3.742   3.379   5.963
10464SOL     OW32290   5.139   6.932   0.359
10464SOL    HW132291   5.169   6.950   0.265
10464SOL    HW232292   5.220   6.927   0.419
10465SOL     OW32293   6.646   6.964   0.387
10465SOL    HW132294   6.583   6.951   0.463
10465SOL    HW232295   6.608   6.923   0.304
10466SOL     OW32296   4.822   5.388   5.041
10466SOL    HW132297   4.881   5.369   4.963
10466SOL    HW232298   4.784   5.303   5.077
10467SOL     OW32299   1.409   1.875   5.397
10467SOL    HW132300   1.418   1.964   5.354
10467SOL    HW232301   1.494   1.823   5.386
10468SOL     OW32302   3.653   5.875   3.578
10468SOL    HW132303   3.709   5.794   3.566
10468SOL    HW232304   3.680   5.945   3.512
10469SOL     OW32305   3.509   3.928   0.720
10469SOL    HW132306   3.446   3.851   0.705
10469SOL    HW232307   3.512   3.949   0.818
10470SOL     OW32308   2.197   1.916   2.817
10470SOL    HW132309   2.209   2.016   2.821
10470SOL    HW232310   2.138   1.887   2.892
10471SOL     OW32311   2.369   3.421   0.971
10471SOL    HW132312   2.424   3.408   1.054
10471SOL    HW232313   2.274   3.435   0.997
10472SOL     OW32314   3.688   6.366   1.175
10472SOL    HW132315   3.594   6.353   1.144
10472SOL    HW232316   3.715   6.290   1.233
10473SOL     OW32317   5.572   0.083   0.879
10473SOL    HW132318   5.523   0.097   0.794
10473SOL    HW232319   5.512   0.105   0.956
10474SOL     OW32320   4.922   0.571   4.658
10474SOL    HW132321   5.011   0.565   4.704
10474SOL    HW232322   4.858   0.620   4.717
10475SOL     OW32323   4.649   6.197   1.208
10475SOL    HW132324   4.607   6.141   1.137
10475SOL    HW232325   4.740   6.227   1.177
10476SOL     OW32326   0.164   5.149   6.653
10476SOL    HW132327   0.074   5.190   6.671
10476SOL    HW232328   0.212   5.202   6.584
10477SOL     OW32329   6.360   2.963   4.649
10477SOL    HW132330   6.355   3.055   4.610
10477SOL    HW232331   6.435   2.958   4.715
10478SOL     OW32332   0.846   0.035   6.928
10478SOL    HW132333   0.753   0.061   6.953
10478SOL    HW232334   0.878   0.091   6.852
10479SOL     OW32335   0.996   2.246   1.443
10479SOL    HW132336   0.965   2.157   1.407
10479SOL    HW232337   0.919   2.310   1.444
10480SOL     OW32338   5.683   0.350   0.983
10480SOL    HW132339   5.766   0.390   0.945
10480SOL    HW232340   5.658   0.269   0.931
10481SOL     OW32341   2.925   1.323   4.721
10481SOL    HW132342   2.865   1.378   4.780
10481SOL    HW232343   2.952   1.377   4.641
10482SOL     OW32344   0.652   5.996   3.945
10482SOL    HW132345   0.621   6.016   4.038
10482SOL    HW232346   0.736   6.046   3.926
10483SOL     OW32347   6.629   5.233   0.161
10483SOL    HW132348   6.618   5.300   0.234
10483SOL    HW232349   6.719   5.189   0.170
10484SOL     OW32350   6.940   0.624   0.947
10484SOL    HW132351   6.961   0.601   1.043
10484SOL    HW232352   6.849   0.591   0.924
10485SOL     OW32353   4.075   3.766   3.134
10485SOL    HW132354   4.033   3.837   3.190
10485SOL    HW232355   4.020   3.752   3.051
10486SOL     OW32356   5.602   0.486   5.987
10486SOL    HW132357   5.607   0.402   6.041
10486SOL    HW232358   5.529   0.544   6.023
10487SOL     OW32359   4.747   1.889   1.495
10487SOL    HW132360   4.791   1.840   1.570
10487SOL    HW232361   4.668   1.940   1.529
10488SOL     OW32362   0.821   1.803   6.027
10488SOL    HW132363   0.859   1.811   5.935
10488SOL    HW232364   0.895   1.789   6.093
10489SOL     OW32365   5.523   5.876   3.476
10489SOL    HW132366   5.618   5.909   3.473
10489SOL    HW232367   5.461   5.954   3.479
10490SOL     OW32368   5.773   0.185   0.438
10490SOL    HW132369   5.778   0.220   0.345
10490SOL    HW232370   5.762   0.085   0.435
10491SOL     OW32371   1.631   2.740   6.443
10491SOL    HW132372   1.689   2.811   6.483
10491SOL    HW232373   1.626   2.661   6.505
10492SOL     OW32374   3.848   6.764   0.370
10492SOL    HW132375   3.854   6.752   0.271
10492SOL    HW232376   3.865   6.677   0.416
10493SOL     OW32377   3.956   5.721   0.999
10493SOL    HW132378   3.902   5.641   1.027
10493SOL    HW232379   3.917   5.760   0.915
10494SOL     OW32380   0.953   4.661   6.014
10494SOL    HW132381   0.867   4.610   6.012
10494SOL    HW232382   0.961   4.717   5.932
10495SOL     OW32383   6.838   5.976   6.948
10495SOL    HW132384   6.763   6.034   6.917
10495SOL    HW232385   6.804   5.883   6.962
10496SOL     OW32386   6.708   4.017   5.464
10496SOL    HW132387   6.683   4.113   5.473
10496SOL    HW232388   6.777   4.006   5.392
10497SOL     OW32389   1.941   6.884   1.689
10497SOL    HW132390   1.846   6.856   1.682
10497SOL    HW232391   1.980   6.897   1.598
10498SOL     OW32392   5.361   6.009   1.007
10498SOL    HW132393   5.301   6.054   0.941
10498SOL    HW232394   5.312   5.995   1.093
10499SOL     OW32395   5.909   5.665   1.313
10499SOL    HW132396   5.910   5.594   1.384
10499SOL    HW232397   5.841   5.642   1.243
10500SOL     OW32398   5.099   3.233   4.679
10500SOL    HW132399   5.081   3.279   4.766
10500SOL    HW232400   5.134   3.141   4.697
10501SOL     OW32401   2.335   5.786   2.412
10501SOL    HW132402   2.340   5.799   2.511
10501SOL    HW232403   2.324   5.688   2.392
10502SOL     OW32404   3.076   3.015   1.428
10502SOL    HW132405   3.016   3.077   1.377
10502SOL    HW232406   3.031   2.925   1.435
10503SOL     OW32407   6.386   3.850   6.741
10503SOL    HW132408   6.324   3.843   6.663
10503SOL    HW232409   6.389   3.762   6.789
10504SOL     OW32410   1.540   2.932   5.785
10504SOL    HW132411   1.578   2.881   5.708
10504SOL    HW232412   1.449   2.965   5.762
10505SOL     OW32413   5.875   6.012   2.220
10505SOL    HW132414   5.972   6.013   2.244
10505SOL    HW232415   5.826   6.080   2.275
10506SOL     OW32416   0.678   3.385   0.119
10506SOL    HW132417   0.684   3.345   0.027
10506SOL    HW232418   0.757   3.444   0.135
10507SOL     OW32419   2.618   4.689   0.062
10507SOL    HW132420   2.559   4.759   0.103
10507SOL    HW232421   2.713   4.707   0.087
10508SOL     OW32422   0.828   5.911   4.346
10508SOL    HW132423   0.736   5.931   4.313
10508SOL    HW232424   0.886   5.884   4.269
10509SOL     OW32425   5.126   3.249   4.406
10509SOL    HW132426   5.104   3.339   4.368
10509SOL    HW232427   5.105   3.249   4.504
10510SOL     OW32428   4.950   6.529   5.479
10510SOL    HW132429   4.856   6.515   5.447
10510SOL    HW232430   5.005   6.567   5.404
10511SOL     OW32431   3.220   1.287   1.650
10511SOL    HW132432   3.146   1.253   1.707
10511SOL    HW232433   3.233   1.385   1.667
10512SOL     OW32434   4.432   6.852   5.966
10512SOL    HW132435   4.349   6.908   5.960
10512SOL    HW232436   4.501   6.887   5.903
10513SOL     OW32437   6.341   2.943   2.360
10513SOL    HW132438   6.326   2.972   2.266
10513SOL    HW232439   6.254   2.942   2.409
10514SOL     OW32440   2.194   2.084   1.149
10514SOL    HW132441   2.231   2.029   1.224
10514SOL    HW232442   2.157   2.023   1.079
10515SOL     OW32443   2.064   2.248   4.231
10515SOL    HW132444   2.164   2.248   4.234
10515SOL    HW232445   2.029   2.326   4.283
10516SOL     OW32446   2.732   1.674   0.294
10516SOL    HW132447   2.805   1.606   0.288
10516SOL    HW232448   2.659   1.651   0.230
10517SOL     OW32449   1.992   4.178   2.794
10517SOL    HW132450   2.023   4.273   2.792
10517SOL    HW232451   2.033   4.127   2.718
10518SOL     OW32452   0.584   5.157   2.270
10518SOL    HW132453   0.616   5.106   2.350
10518SOL    HW232454   0.608   5.253   2.280
10519SOL     OW32455   3.233   5.115   1.612
10519SOL    HW132456   3.253   5.136   1.708
10519SOL    HW232457   3.204   5.019   1.605
10520SOL     OW32458   6.501   1.600   6.130
10520SOL    HW132459   6.557   1.549   6.196
10520SOL    HW232460   6.409   1.611   6.167
10521SOL     OW32461   6.415   4.214   1.501
10521SOL    HW132462   6.354   4.279   1.455
10521SOL    HW232463   6.492   4.193   1.442
10522SOL     OW32464   6.769   2.393   3.128
10522SOL    HW132465   6.750   2.419   3.033
10522SOL    HW232466   6.852   2.439   3.159
10523SOL     OW32467   0.413   4.301   3.941
10523SOL    HW132468   0.459   4.231   3.995
10523SOL    HW232469   0.347   4.349   3.998
10524SOL     OW32470   0.173   4.906   3.657
10524SOL    HW132471   0.105   4.920   3.729
10524SOL    HW232472   0.161   4.815   3.617
10525SOL     OW32473   4.412   0.897   4.868
10525SOL    HW132474   4.493   0.943   4.906
10525SOL    HW232475   4.381   0.946   4.787
10526SOL     OW32476   0.190   5.967   1.190
10526SOL    HW132477   0.187   6.059   1.229
10526SOL    HW232478   0.171   5.899   1.261
10527SOL     OW32479   0.079   0.792   5.861
10527SOL    HW132480   0.046   0.865   5.801
10527SOL    HW232481   0.178   0.801   5.873
10528SOL     OW32482   0.586   4.612   0.153
10528SOL    HW132483   0.500   4.662   0.167
10528SOL    HW232484   0.577   4.520   0.190
10529SOL     OW32485   1.559   5.947   5.650
10529SOL    HW132486   1.519   5.930   5.740
10529SOL    HW232487   1.543   5.868   5.591
10530SOL     OW32488   1.276   6.703   6.373
10530SOL    HW132489   1.247   6.781   6.429
10530SOL    HW232490   1.197   6.647   6.350
10531SOL     OW32491   2.905   2.489   5.253
10531SOL    HW132492   2.910   2.571   5.309
10531SOL    HW232493   2.995   2.469   5.214
10532SOL     OW32494   6.086   6.876   6.401
10532SOL    HW132495   6.168   6.895   6.456
10532SOL    HW232496   6.024   6.819   6.454
10533SOL     OW32497   3.153   6.065   3.887
10533SOL    HW132498   3.133   6.159   3.912
10533SOL    HW232499   3.208   6.064   3.804
10534SOL     OW32500   0.174   5.627   2.644
10534SOL    HW132501   0.193   5.715   2.601
10534SOL    HW232502   0.079   5.601   2.627
10535SOL     OW32503   2.487   1.136   2.112
10535SOL    HW132504   2.560   1.067   2.108
10535SOL    HW232505   2.527   1.227   2.120
10536SOL     OW32506   4.444   0.386   3.517
10536SOL    HW132507   4.447   0.396   3.616
10536SOL    HW232508   4.463   0.291   3.492
10537SOL     OW32509   4.548   6.624   3.498
10537SOL    HW132510   4.481   6.554   3.522
10537SOL    HW232511   4.563   6.625   3.399
10538SOL     OW32512   5.853   4.018   2.693
10538SOL    HW132513   5.945   3.998   2.660
10538SOL    HW232514   5.839   3.972   2.781
10539SOL     OW32515   6.115   5.945   2.418
10539SOL    HW132516   6.102   5.877   2.346
10539SOL    HW232517   6.167   5.906   2.493
10540SOL     OW32518   2.389   3.954   5.828
10540SOL    HW132519   2.479   3.910   5.829
10540SOL    HW232520   2.400   4.052   5.812
10541SOL     OW32521   3.137   3.057   4.801
10541SOL    HW132522   3.193   2.997   4.858
10541SOL    HW232523   3.047   3.068   4.843
10542SOL     OW32524   6.203   0.239   4.425
10542SOL    HW132525   6.111   0.224   4.391
10542SOL    HW232526   6.246   0.313   4.373
10543SOL     OW32527   6.435   2.437   5.879
10543SOL    HW132528   6.453   2.342   5.906
10543SOL    HW232529   6.406   2.490   5.959
10544SOL     OW32530   1.200   0.703   3.699
10544SOL    HW132531   1.186   0.802   3.699
10544SOL    HW232532   1.257   0.677   3.622
10545SOL     OW32533   1.136   2.843   2.733
10545SOL    HW132534   1.191   2.887   2.662
10545SOL    HW232535   1.195   2.820   2.810
10546SOL     OW32536   2.886   6.539   1.102
10546SOL    HW132537   2.847   6.630   1.089
10546SOL    HW232538   2.821   6.482   1.152
10547SOL     OW32539   5.029   0.524   4.412
10547SOL    HW132540   4.983   0.540   4.499
10547SOL    HW232541   4.979   0.572   4.339
10548SOL     OW32542   0.731   4.923   4.718
10548SOL    HW132543   0.662   4.989   4.746
10548SOL    HW232544   0.810   4.929   4.779
10549SOL     OW32545   0.341   1.830   0.410
10549SOL    HW132546   0.385   1.918   0.391
10549SOL    HW232547   0.243   1.844   0.424
10550SOL     OW32548   3.889   6.520   2.854
10550SOL    HW132549   3.864   6.423   2.847
10550SOL    HW232550   3.975   6.529   2.904
10551SOL     OW32551   2.652   1.900   5.968
10551SOL    HW132552   2.583   1.929   6.034
10551SOL    HW232553   2.742   1.897   6.013
10552SOL     OW32554   3.189   1.122   4.112
10552SOL    HW132555   3.127   1.085   4.181
10552SOL    HW232556   3.207   1.053   4.043
10553SOL     OW32557   6.628   5.153   0.890
10553SOL    HW132558   6.562   5.203   0.834
10553SOL    HW232559   6.721   5.176   0.861
10554SOL     OW32560   6.241   4.547   2.751
10554SOL    HW132561   6.241   4.451   2.722
10554SOL    HW232562   6.186   4.556   2.834
10555SOL     OW32563   2.508   2.420   0.521
10555SOL    HW132564   2.563   2.368   0.587
10555SOL    HW232565   2.413   2.391   0.525
10556SOL     OW32566   2.577   1.423   3.334
10556SOL    HW132567   2.671   1.446   3.307
10556SOL    HW232568   2.519   1.421   3.253
10557SOL     OW32569   1.870   3.529   4.792
10557SOL    HW132570   1.940   3.575   4.847
10557SOL    HW232571   1.805   3.484   4.853
10558SOL     OW32572   3.680   4.602   5.555
10558SOL    HW132573   3.742   4.581   5.631
10558SOL    HW232574   3.719   4.568   5.470
10559SOL     OW32575   3.164   0.631   0.730
10559SOL    HW132576   3.159   0.707   0.794
10559SOL    HW232577   3.133   0.660   0.639
10560SOL     OW32578   4.577   6.086   1.842
10560SOL    HW132579   4.564   6.127   1.933
10560SOL    HW232580   4.515   6.129   1.777
10561SOL     OW32581   4.778   4.622   2.040
10561SOL    HW132582   4.831   4.555   2.091
10561SOL    HW232583   4.806   4.621   1.944
10562SOL     OW32584   3.294   6.737   1.043
10562SOL    HW132585   3.357   6.803   1.084
10562SOL    HW232586   3.340   6.689   0.968
10563SOL     OW32587   0.887   0.016   0.823
10563SOL    HW132588   0.924   6.981   0.893
10563SOL    HW232589   0.912   0.110   0.845
10564SOL     OW32590   6.411   5.484   3.676
10564SOL    HW132591   6.341   5.554   3.690
10564SOL    HW232592   6.457   5.498   3.589
10565SOL     OW32593   6.707   0.210   5.726
10565SOL    HW132594   6.799   0.246   5.738
10565SOL    HW232595   6.656   0.269   5.662
10566SOL     OW32596   2.744   2.485   6.952
10566SOL    HW132597   2.708   2.504   6.861
10566SOL    HW232598   2.740   2.386   6.969
10567SOL     OW32599   1.921   2.291   5.978
10567SOL    HW132600   1.984   2.366   5.956
10567SOL    HW232601   1.830   2.328   5.993
10568SOL     OW32602   5.592   3.155   6.930
10568SOL    HW132603   5.615   3.073   6.877
10568SOL    HW232604   5.518   3.133   6.994
10569SOL     OW32605   5.581   0.298   2.163
10569SOL    HW132606   5.554   0.257   2.076
10569SOL    HW232607   5.514   0.368   2.189
10570SOL     OW32608   1.506   5.018   3.916
10570SOL    HW132609   1.441   5.067   3.976
10570SOL    HW232610   1.465   4.932   3.886
10571SOL     OW32611   0.261   4.070   6.497
10571SOL    HW132612   0.189   4.000   6.504
10571SOL    HW232613   0.309   4.078   6.584
10572SOL     OW32614   6.636   4.465   1.716
10572SOL    HW132615   6.550   4.516   1.720
10572SOL    HW232616   6.618   4.367   1.718
10573SOL     OW32617   5.575   0.644   4.419
10573SOL    HW132618   5.567   0.737   4.454
10573SOL    HW232619   5.589   0.646   4.320
10574SOL     OW32620   6.315   0.257   3.834
10574SOL    HW132621   6.247   0.273   3.762
10574SOL    HW232622   6.395   0.210   3.795
10575SOL     OW32623   5.222   0.242   3.406
10575SOL    HW132624   5.217   0.251   3.307
10575SOL    HW232625   5.266   0.156   3.431
10576SOL     OW32626   1.889   4.632   2.925
10576SOL    HW132627   1.902   4.637   3.024
10576SOL    HW232628   1.792   4.618   2.905
10577SOL     OW32629   3.171   6.075   0.941
10577SOL    HW132630   3.159   6.157   0.885
10577SOL    HW232631   3.116   6.083   1.024
10578SOL     OW32632   6.006   2.411   3.771
10578SOL    HW132633   6.094   2.363   3.767
10578SOL    HW232634   5.960   2.404   3.683
10579SOL     OW32635   2.852   3.728   1.174
10579SOL    HW132636   2.904   3.643   1.170
10579SOL    HW232637   2.852   3.763   1.268
10580SOL     OW32638   6.302   6.949   6.985
10580SOL    HW132639   6.202   6.961   6.991
10580SOL    HW232640   6.322   6.859   6.948
10581SOL     OW32641   5.141   6.407   2.897
10581SOL    HW132642   5.170   6.320   2.858
10581SOL    HW232643   5.209   6.439   2.963
10582SOL     OW32644   5.518   4.838   6.684
10582SOL    HW132645   5.423   4.809   6.680
10582SOL    HW232646   5.535   4.906   6.612
10583SOL     OW32647   3.308   0.329   3.895
10583SOL    HW132648   3.325   0.264   3.821
10583SOL    HW232649   3.393   0.375   3.920
10584SOL     OW32650   6.642   0.435   6.186
10584SOL    HW132651   6.615   0.517   6.137
10584SOL    HW232652   6.616   0.354   6.133
10585SOL     OW32653   0.796   1.926   6.544
10585SOL    HW132654   0.794   1.887   6.636
10585SOL    HW232655   0.702   1.943   6.513
10586SOL     OW32656   4.622   4.814   5.773
10586SOL    HW132657   4.557   4.846   5.842
10586SOL    HW232658   4.694   4.882   5.761
10587SOL     OW32659   0.421   5.552   5.991
10587SOL    HW132660   0.512   5.520   6.019
10587SOL    HW232661   0.409   5.537   5.893
10588SOL     OW32662   1.772   2.565   4.422
10588SOL    HW132663   1.676   2.593   4.422
10588SOL    HW232664   1.830   2.646   4.429
10589SOL     OW32665   5.421   5.971   4.716
10589SOL    HW132666   5.416   5.889   4.774
10589SOL    HW232667   5.330   5.992   4.681
10590SOL     OW32668   0.251   5.770   1.686
10590SOL    HW132669   0.231   5.676   1.714
10590SOL    HW232670   0.234   5.779   1.587
10591SOL     OW32671   1.633   0.771   1.252
10591SOL    HW132672   1.581   0.696   1.293
10591SOL    HW232673   1.578   0.854   1.251
10592SOL     OW32674   6.054   2.405   4.766
10592SOL    HW132675   6.023   2.409   4.671
10592SOL    HW232676   6.131   2.343   4.773
10593SOL     OW32677   2.543   6.043   0.716
10593SOL    HW132678   2.571   5.952   0.745
10593SOL    HW232679   2.514   6.095   0.797
10594SOL     OW32680   3.830   1.078   2.839
10594SOL    HW132681   3.735   1.059   2.813
10594SOL    HW232682   3.878   0.992   2.854
10595SOL     OW32683   6.063   0.667   0.363
10595SOL    HW132684   6.145   0.723   0.356
10595SOL    HW232685   6.032   0.642   0.271
10596SOL     OW32686   4.709   1.807   0.089
10596SOL    HW132687   4.694   1.713   0.058
10596SOL    HW232688   4.714   1.809   0.189
10597SOL     OW32689   2.796   0.835   6.202
10597SOL    HW132690   2.781   0.838   6.301
10597SOL    HW232691   2.758   0.750   6.165
10598SOL     OW32692   2.437   1.865   5.792
10598SOL    HW132693   2.365   1.825   5.849
10598SOL    HW232694   2.520   1.878   5.847
10599SOL     OW32695   6.511   4.266   6.171
10599SOL    HW132696   6.466   4.291   6.257
10599SOL    HW232697   6.579   4.335   6.148
10600SOL     OW32698   3.400   1.250   1.430
10600SOL    HW132699   3.488   1.290   1.455
10600SOL    HW232700   3.338   1.254   1.508
10601SOL     OW32701   0.183   6.367   5.625
10601SOL    HW132702   0.191   6.315   5.541
10601SOL    HW232703   0.155   6.461   5.604
10602SOL     OW32704   0.541   0.421   0.224
10602SOL    HW132705   0.468   0.353   0.220
10602SOL    HW232706   0.629   0.375   0.233
10603SOL     OW32707   4.712   6.703   1.561
10603SOL    HW132708   4.673   6.651   1.484
10603SOL    HW232709   4.807   6.675   1.574
10604SOL     OW32710   0.206   6.217   4.772
10604SOL    HW132711   0.218   6.127   4.814
10604SOL    HW232712   0.226   6.288   4.839
10605SOL     OW32713   2.169   0.297   0.055
10605SOL    HW132714   2.144   0.232   0.127
10605SOL    HW232715   2.145   0.389   0.085
10606SOL     OW32716   6.206   0.739   1.513
10606SOL    HW132717   6.110   0.711   1.505
10606SOL    HW232718   6.211   0.838   1.528
10607SOL     OW32719   3.938   4.191   6.801
10607SOL    HW132720   3.980   4.120   6.858
10607SOL    HW232721   3.875   4.245   6.856
10608SOL     OW32722   6.459   2.797   3.175
10608SOL    HW132723   6.554   2.799   3.207
10608SOL    HW232724   6.446   2.717   3.116
10609SOL     OW32725   3.169   6.592   0.644
10609SOL    HW132726   3.169   6.531   0.565
10609SOL    HW232727   3.115   6.673   0.624
10610SOL     OW32728   6.710   2.225   4.215
10610SOL    HW132729   6.720   2.186   4.124
10610SOL    HW232730   6.782   2.189   4.275
10611SOL     OW32731   2.522   5.554   4.941
10611SOL    HW132732   2.596   5.494   4.911
10611SOL    HW232733   2.556   5.648   4.950
10612SOL     OW32734   5.434   1.270   4.382
10612SOL    HW132735   5.435   1.338   4.456
10612SOL    HW232736   5.482   1.188   4.412
10613SOL     OW32737   5.269   6.163   4.340
10613SOL    HW132738   5.305   6.118   4.258
10613SOL    HW232739   5.191   6.220   4.314
10614SOL     OW32740   5.004   0.820   5.669
10614SOL    HW132741   5.071   0.841   5.598
10614SOL    HW232742   4.923   0.779   5.628
10615SOL     OW32743   3.489   1.553   5.535
10615SOL    HW132744   3.404   1.512   5.506
10615SOL    HW232745   3.470   1.641   5.580
10616SOL     OW32746   2.948   6.711   6.672
10616SOL    HW132747   2.888   6.645   6.718
10616SOL    HW232748   3.037   6.669   6.655
10617SOL     OW32749   2.428   3.987   1.793
10617SOL    HW132750   2.356   4.049   1.761
10617SOL    HW232751   2.393   3.894   1.797
10618SOL     OW32752   0.755   5.421   5.520
10618SOL    HW132753   0.700   5.340   5.543
10618SOL    HW232754   0.700   5.483   5.464
10619SOL     OW32755   0.640   2.193   2.908
10619SOL    HW132756   0.732   2.195   2.946
10619SOL    HW232757   0.610   2.098   2.898
10620SOL     OW32758   1.473   0.381   4.842
10620SOL    HW132759   1.429   0.373   4.932
10620SOL    HW232760   1.486   0.478   4.819
10621SOL     OW32761   1.092   4.116   2.501
10621SOL    HW132762   1.139   4.114   2.589
10621SOL    HW232763   1.100   4.207   2.461
10622SOL     OW32764   4.135   2.593   0.789
10622SOL    HW132765   4.145   2.493   0.781
10622SOL    HW232766   4.118   2.632   0.699
10623SOL     OW32767   6.157   5.910   5.143
10623SOL    HW132768   6.234   5.889   5.203
10623SOL    HW232769   6.174   5.872   5.052
10624SOL     OW32770   0.548   2.913   4.916
10624SOL    HW132771   0.589   2.896   5.006
10624SOL    HW232772   0.619   2.905   4.846
10625SOL     OW32773   0.565   3.195   0.288
10625SOL    HW132774   0.610   3.248   0.215
10625SOL    HW232775   0.490   3.141   0.248
10626SOL     OW32776   3.599   2.997   1.530
10626SOL    HW132777   3.549   2.910   1.526
10626SOL    HW232778   3.694   2.981   1.502
10627SOL     OW32779   5.759   0.665   6.445
10627SOL    HW132780   5.792   0.579   6.485
10627SOL    HW232781   5.832   0.733   6.448
10628SOL     OW32782   4.003   0.467   0.300
10628SOL    HW132783   4.061   0.516   0.365
10628SOL    HW232784   3.949   0.398   0.349
10629SOL     OW32785   3.320   5.178   5.073
10629SOL    HW132786   3.272   5.133   4.998
10629SOL    HW232787   3.363   5.110   5.132
10630SOL     OW32788   4.986   0.678   2.388
10630SOL    HW132789   4.976   0.587   2.348
10630SOL    HW232790   5.026   0.740   2.321
10631SOL     OW32791   4.320   4.758   6.369
10631SOL    HW132792   4.355   4.664   6.364
10631SOL    HW232793   4.393   4.819   6.400
10632SOL     OW32794   4.879   6.103   3.592
10632SOL    HW132795   4.850   6.047   3.514
10632SOL    HW232796   4.952   6.054   3.642
10633SOL     OW32797   2.089   2.787   1.630
10633SOL    HW132798   2.115   2.815   1.722
10633SOL    HW232799   2.100   2.688   1.622
10634SOL     OW32800   1.327   5.957   0.268
10634SOL    HW132801   1.412   5.933   0.222
10634SOL    HW232802   1.347   6.002   0.355
10635SOL     OW32803   2.072   3.941   0.764
10635SOL    HW132804   1.986   3.958   0.715
10635SOL    HW232805   2.149   3.960   0.703
10636SOL     OW32806   6.085   1.517   0.812
10636SOL    HW132807   6.086   1.425   0.852
10636SOL    HW232808   6.112   1.512   0.716
10637SOL     OW32809   2.383   6.018   6.496
10637SOL    HW132810   2.293   6.030   6.453
10637SOL    HW232811   2.452   6.064   6.441
10638SOL     OW32812   6.948   6.571   2.149
10638SOL    HW132813   6.879   6.539   2.214
10638SOL    HW232814   6.962   6.669   2.160
10639SOL     OW32815   1.997   3.565   1.801
10639SOL    HW132816   1.984   3.469   1.779
10639SOL    HW232817   2.080   3.576   1.855
10640SOL     OW32818   4.526   1.019   3.444
10640SOL    HW132819   4.605   1.076   3.422
10640SOL    HW232820   4.528   0.936   3.388
10641SOL     OW32821   1.812   1.452   3.897
10641SOL    HW132822   1.806   1.549   3.876
10641SOL    HW232823   1.720   1.413   3.901
10642SOL     OW32824   5.933   1.875   0.643
10642SOL    HW132825   5.836   1.881   0.622
10642SOL    HW232826   5.945   1.859   0.741
10643SOL     OW32827   2.107   5.885   5.043
10643SOL    HW132828   2.194   5.836   5.053
10643SOL    HW232829   2.102   5.958   5.112
10644SOL     OW32830   6.337   3.204   1.284
10644SOL    HW132831   6.319   3.302   1.300
10644SOL    HW232832   6.406   3.172   1.348
10645SOL     OW32833   2.101   3.234   3.693
10645SOL    HW132834   2.124   3.293   3.616
10645SOL    HW232835   2.157   3.151   3.689
10646SOL     OW32836   5.654   0.862   5.827
10646SOL    HW132837   5.743   0.849   5.870
10646SOL    HW232838   5.662   0.851   5.728
10647SOL     OW32839   3.784   5.349   5.150
10647SOL    HW132840   3.842   5.427   5.127
10647SOL    HW232841   3.698   5.355   5.098
10648SOL     OW32842   6.205   5.799   6.247
10648SOL    HW132843   6.156   5.850   6.177
10648SOL    HW232844   6.246   5.862   6.313
10649SOL     OW32845   1.007   3.521   3.777
10649SOL    HW132846   0.916   3.549   3.807
10649SOL    HW232847   1.009   3.512   3.677
10650SOL     OW32848   0.185   0.217   4.365
10650SOL    HW132849   0.168   0.127   4.327
10650SOL    HW232850   0.204   0.282   4.291
10651SOL     OW32851   5.911   6.260   5.563
10651SOL    HW132852   5.837   6.210   5.519
10651SOL    HW232853   5.873   6.333   5.620
10652SOL     OW32854   2.333   6.814   6.338
10652SOL    HW132855   2.314   6.905   6.374
10652SOL    HW232856   2.298   6.807   6.244
10653SOL     OW32857   3.572   6.085   4.712
10653SOL    HW132858   3.623   6.146   4.652
10653SOL    HW232859   3.600   5.991   4.696
10654SOL     OW32860   4.792   1.669   4.773
10654SOL    HW132861   4.862   1.676   4.702
10654SOL    HW232862   4.711   1.624   4.735
10655SOL     OW32863   1.936   4.695   1.189
10655SOL    HW132864   1.963   4.754   1.113
10655SOL    HW232865   1.939   4.748   1.274
10656SOL     OW32866   6.723   1.379   2.371
10656SOL    HW132867   6.810   1.402   2.417
10656SOL    HW232868   6.742   1.352   2.277
10657SOL     OW32869   6.077   1.202   4.400
10657SOL    HW132870   6.020   1.275   4.437
10657SOL    HW232871   6.132   1.238   4.324
10658SOL     OW32872   5.805   3.675   5.023
10658SOL    HW132873   5.852   3.735   5.087
10658SOL    HW232874   5.711   3.708   5.009
10659SOL     OW32875   1.173   4.511   0.928
10659SOL    HW132876   1.259   4.555   0.954
10659SOL    HW232877   1.192   4.439   0.861
10660SOL     OW32878   6.284   3.736   5.339
10660SOL    HW132879   6.285   3.645   5.381
10660SOL    HW232880   6.353   3.739   5.267
10661SOL     OW32881   1.355   5.252   0.736
10661SOL    HW132882   1.283   5.272   0.670
10661SOL    HW232883   1.442   5.239   0.688
10662SOL     OW32884   3.782   1.107   2.082
10662SOL    HW132885   3.701   1.062   2.119
10662SOL    HW232886   3.782   1.203   2.108
10663SOL     OW32887   0.630   1.983   3.363
10663SOL    HW132888   0.558   2.045   3.332
10663SOL    HW232889   0.598   1.888   3.354
10664SOL     OW32890   0.135   5.394   4.824
10664SOL    HW132891   0.219   5.421   4.870
10664SOL    HW232892   0.134   5.294   4.812
10665SOL     OW32893   2.228   2.402   6.972
10665SOL    HW132894   2.303   2.437   0.000
10665SOL    HW232895   2.221   2.303   6.984
10666SOL     OW32896   3.226   3.783   2.303
10666SOL    HW132897   3.147   3.793   2.363
10666SOL    HW232898   3.221   3.695   2.255
10667SOL     OW32899   4.913   1.673   3.875
10667SOL    HW132900   4.963   1.752   3.909
10667SOL    HW232901   4.876   1.621   3.952
10668SOL     OW32902   3.244   1.524   5.311
10668SOL    HW132903   3.150   1.540   5.282
10668SOL    HW232904   3.303   1.596   5.274
10669SOL     OW32905   5.888   0.442   0.815
10669SOL    HW132906   5.923   0.523   0.768
10669SOL    HW232907   5.896   0.363   0.755
10670SOL     OW32908   5.474   4.441   4.584
10670SOL    HW132909   5.376   4.461   4.594
10670SOL    HW232910   5.486   4.341   4.578
10671SOL     OW32911   1.467   1.739   4.506
10671SOL    HW132912   1.567   1.743   4.496
10671SOL    HW232913   1.424   1.787   4.430
10672SOL     OW32914   6.723   3.907   1.530
10672SOL    HW132915   6.757   3.814   1.541
10672SOL    HW232916   6.770   3.951   1.453
10673SOL     OW32917   1.726   6.801   0.209
10673SOL    HW132918   1.822   6.779   0.190
10673SOL    HW232919   1.668   6.759   0.139
10674SOL     OW32920   3.918   3.803   4.233
10674SOL    HW132921   3.943   3.781   4.139
10674SOL    HW232922   3.819   3.806   4.242
10675SOL     OW32923   2.822   0.535   6.448
10675SOL    HW132924   2.765   0.493   6.377
10675SOL    HW232925   2.857   0.463   6.508
10676SOL     OW32926   6.985   6.245   4.559
10676SOL    HW132927   6.955   6.151   4.550
10676SOL    HW232928   0.058   6.248   4.564
10677SOL     OW32929   1.567   0.987   1.639
10677SOL    HW132930   1.487   1.041   1.665
10677SOL    HW232931   1.538   0.911   1.580
10678SOL     OW32932   4.380   5.041   3.769
10678SOL    HW132933   4.308   4.974   3.751
10678SOL    HW232934   4.363   5.085   3.857
10679SOL     OW32935   4.045   5.559   0.052
10679SOL    HW132936   4.025   5.534   6.984
10679SOL    HW232937   4.052   5.658   0.059
10680SOL     OW32938   3.966   1.879   3.676
10680SOL    HW132939   3.951   1.881   3.577
10680SOL    HW232940   4.061   1.856   3.695
10681SOL     OW32941   6.461   3.820   0.235
10681SOL    HW132942   6.528   3.806   0.308
10681SOL    HW232943   6.407   3.737   0.224
10682SOL     OW32944   0.272   3.286   5.221
10682SOL    HW132945   0.262   3.245   5.130
10682SOL    HW232946   0.261   3.215   5.290
10683SOL     OW32947   4.374   1.208   3.752
10683SOL    HW132948   4.369   1.227   3.849
10683SOL    HW232949   4.441   1.268   3.709
10684SOL     OW32950   4.567   5.850   1.950
10684SOL    HW132951   4.557   5.938   1.903
10684SOL    HW232952   4.660   5.842   1.986
10685SOL     OW32953   0.430   5.698   1.075
10685SOL    HW132954   0.456   5.785   1.035
10685SOL    HW232955   0.460   5.694   1.170
10686SOL     OW32956   1.638   4.192   5.925
10686SOL    HW132957   1.709   4.207   5.994
10686SOL    HW232958   1.632   4.094   5.905
10687SOL     OW32959   6.643   4.408   4.401
10687SOL    HW132960   6.629   4.378   4.306
10687SOL    HW232961   6.680   4.502   4.401
10688SOL     OW32962   5.559   2.829   3.132
10688SOL    HW132963   5.629   2.897   3.108
10688SOL    HW232964   5.474   2.875   3.157
10689SOL     OW32965   6.998   0.493   2.019
10689SOL    HW132966   0.052   0.442   1.990
10689SOL    HW232967   6.987   0.483   2.118
10690SOL     OW32968   0.337   5.329   3.346
10690SOL    HW132969   0.393   5.371   3.418
10690SOL    HW232970   0.396   5.294   3.273
10691SOL     OW32971   1.771   1.954   1.517
10691SOL    HW132972   1.827   1.961   1.435
10691SOL    HW232973   1.822   1.991   1.595
10692SOL     OW32974   2.400   0.275   3.746
10692SOL    HW132975   2.310   0.312   3.720
10692SOL    HW232976   2.419   0.298   3.841
10693SOL     OW32977   1.473   6.039   1.013
10693SOL    HW132978   1.418   6.036   0.929
10693SOL    HW232979   1.459   5.955   1.065
10694SOL     OW32980   5.549   6.157   6.083
10694SOL    HW132981   5.570   6.148   6.181
10694SOL    HW232982   5.459   6.199   6.072
10695SOL     OW32983   1.606   2.583   2.353
10695SOL    HW132984   1.641   2.524   2.426
10695SOL    HW232985   1.658   2.669   2.352
10696SOL     OW32986   6.744   3.888   4.649
10696SOL    HW132987   6.726   3.792   4.671
10696SOL    HW232988   6.763   3.896   4.551
10697SOL     OW32989   0.067   0.368   5.585
10697SOL    HW132990   0.031   0.284   5.626
10697SOL    HW232991   0.069   0.441   5.653
10698SOL     OW32992   4.579   4.435   6.879
10698SOL    HW132993   4.641   4.425   6.957
10698SOL    HW232994   4.514   4.359   6.878
10699SOL     OW32995   3.875   4.892   1.673
10699SOL    HW132996   3.869   4.987   1.643
10699SOL    HW232997   3.957   4.850   1.634
10700SOL     OW32998   5.651   6.348   0.911
10700SOL    HW132999   5.708   6.376   0.833
10700SOL    HW233000   5.614   6.429   0.956
10701SOL     OW33001   2.863   0.172   5.765
10701SOL    HW133002   2.907   0.106   5.704
10701SOL    HW233003   2.906   0.262   5.753
10702SOL     OW33004   5.413   3.457   2.341
10702SOL    HW133005   5.345   3.390   2.370
10702SOL    HW233006   5.425   3.452   2.242
10703SOL     OW33007   2.357   2.644   5.594
10703SOL    HW133008   2.412   2.721   5.625
10703SOL    HW233009   2.416   2.573   5.557
10704SOL     OW33010   6.835   5.152   2.242
10704SOL    HW133011   6.846   5.247   2.213
10704SOL    HW233012   6.840   5.092   2.162
10705SOL     OW33013   6.162   5.373   1.612
10705SOL    HW133014   6.180   5.394   1.516
10705SOL    HW233015   6.244   5.331   1.652
10706SOL     OW33016   4.007   6.984   2.399
10706SOL    HW133017   3.925   0.003   2.432
10706SOL    HW233018   4.050   0.013   2.328
10707SOL     OW33019   0.790   6.452   3.953
10707SOL    HW133020   0.707   6.495   3.915
10707SOL    HW233021   0.849   6.523   3.991
10708SOL     OW33022   3.809   1.437   1.424
10708SOL    HW133023   3.724   1.438   1.477
10708SOL    HW233024   3.791   1.404   1.332
10709SOL     OW33025   5.450   5.141   4.746
10709SOL    HW133026   5.549   5.148   4.761
10709SOL    HW233027   5.416   5.227   4.707
10710SOL     OW33028   6.535   1.252   3.987
10710SOL    HW133029   6.546   1.153   3.993
10710SOL    HW233030   6.479   1.284   4.063
10711SOL     OW33031   2.036   6.874   4.034
10711SOL    HW133032   2.052   6.845   4.128
10711SOL    HW233033   1.948   6.921   4.027
10712SOL     OW33034   3.119   0.974   2.035
10712SOL    HW133035   3.105   0.993   2.132
10712SOL    HW233036   3.214   0.991   2.011
10713SOL     OW33037   0.610   3.648   0.771
10713SOL    HW133038   0.650   3.559   0.792
10713SOL    HW233039   0.556   3.641   0.687
10714SOL     OW33040   4.855   3.852   5.722
10714SOL    HW133041   4.858   3.860   5.821
10714SOL    HW233042   4.760   3.857   5.691
10715SOL     OW33043   4.724   0.487   2.311
10715SOL    HW133044   4.704   0.404   2.364
10715SOL    HW233045   4.696   0.567   2.363
10716SOL     OW33046   5.644   2.604   3.914
10716SOL    HW133047   5.590   2.523   3.940
10716SOL    HW233048   5.617   2.682   3.970
10717SOL     OW33049   1.418   2.388   1.212
10717SOL    HW133050   1.339   2.377   1.272
10717SOL    HW233051   1.434   2.486   1.197
10718SOL     OW33052   0.999   3.983   0.104
10718SOL    HW133053   1.042   3.987   0.014
10718SOL    HW233054   0.903   4.010   0.096
10719SOL     OW33055   0.078   6.028   2.898
10719SOL    HW133056   0.152   6.064   2.842
10719SOL    HW233057   7.022   6.082   2.884
10720SOL     OW33058   6.695   4.337   5.207
10720SOL    HW133059   6.684   4.329   5.306
10720SOL    HW233060   6.697   4.434   5.181
10721SOL     OW33061   5.092   3.593   5.261
10721SOL    HW133062   5.137   3.510   5.295
10721SOL    HW233063   5.004   3.604   5.308
10722SOL     OW33064   1.339   5.449   0.141
10722SOL    HW133065   1.407   5.501   0.089
10722SOL    HW233066   1.250   5.458   0.098
10723SOL     OW33067   0.152   2.815   6.449
10723SOL    HW133068   0.125   2.751   6.378
10723SOL    HW233069   0.252   2.822   6.452
10724SOL     OW33070   6.116   0.631   6.449
10724SOL    HW133071   6.163   0.647   6.362
10724SOL    HW233072   6.161   0.684   6.521
10725SOL     OW33073   1.240   5.600   4.999
10725SOL    HW133074   1.307   5.673   4.987
10725SOL    HW233075   1.165   5.633   5.056
10726SOL     OW33076   5.807   0.386   4.506
10726SOL    HW133077   5.791   0.307   4.446
10726SOL    HW233078   5.726   0.403   4.561
10727SOL     OW33079   0.408   5.505   5.710
10727SOL    HW133080   0.385   5.584   5.653
10727SOL    HW233081   0.393   5.421   5.657
10728SOL     OW33082   1.400   5.987   6.829
10728SOL    HW133083   1.367   5.963   6.737
10728SOL    HW233084   1.357   6.073   6.858
10729SOL     OW33085   4.653   1.555   2.505
10729SOL    HW133086   4.747   1.547   2.536
10729SOL    HW233087   4.652   1.576   2.407
10730SOL     OW33088   1.742   0.722   0.998
10730SOL    HW133089   1.794   0.797   0.958
10730SOL    HW233090   1.730   0.739   1.096
10731SOL     OW33091   3.462   0.653   0.783
10731SOL    HW133092   3.363   0.642   0.775
10731SOL    HW233093   3.507   0.591   0.719
10732SOL     OW33094   6.617   4.495   4.797
10732SOL    HW133095   6.652   4.408   4.763
10732SOL    HW233096   6.670   4.570   4.757
10733SOL     OW33097   6.784   1.771   0.447
10733SOL    HW133098   6.857   1.744   0.386
10733SOL    HW233099   6.723   1.835   0.400
10734SOL     OW33100   1.097   0.560   0.146
10734SOL    HW133101   1.020   0.520   0.096
10734SOL    HW233102   1.177   0.501   0.137
10735SOL     OW33103   0.246   2.754   3.000
10735SOL    HW133104   0.269   2.847   3.027
10735SOL    HW233105   0.266   2.741   2.903
10736SOL     OW33106   0.852   0.918   3.519
10736SOL    HW133107   0.943   0.938   3.556
10736SOL    HW233108   0.794   0.998   3.531
10737SOL     OW33109   1.175   1.676   0.821
10737SOL    HW133110   1.167   1.607   0.749
10737SOL    HW233111   1.116   1.652   0.897
10738SOL     OW33112   2.307   0.724   2.870
10738SOL    HW133113   2.322   0.659   2.795
10738SOL    HW233114   2.240   0.792   2.841
10739SOL     OW33115   1.400   1.250   1.129
10739SOL    HW133116   1.338   1.302   1.070
10739SOL    HW233117   1.411   1.298   1.216
10740SOL     OW33118   0.027   4.999   5.060
10740SOL    HW133119   6.972   4.941   5.056
10740SOL    HW233120   0.007   5.082   5.112
10741SOL     OW33121   5.125   0.355   1.058
10741SOL    HW133122   5.098   0.260   1.074
10741SOL    HW233123   5.073   0.391   0.981
10742SOL     OW33124   5.903   0.271   1.233
10742SOL    HW133125   5.933   0.262   1.138
10742SOL    HW233126   5.885   0.367   1.254
10743SOL     OW33127   2.313   1.339   5.277
10743SOL    HW133128   2.383   1.282   5.234
10743SOL    HW233129   2.251   1.374   5.207
10744SOL     OW33130   3.646   1.437   0.933
10744SOL    HW133131   3.611   1.363   0.876
10744SOL    HW233132   3.712   1.491   0.882
10745SOL     OW33133   0.439   5.956   6.545
10745SOL    HW133134   0.459   5.859   6.560
10745SOL    HW233135   0.487   6.011   6.614
10746SOL     OW33136   2.440   5.031   1.676
10746SOL    HW133137   2.527   5.064   1.639
10746SOL    HW233138   2.443   5.031   1.776
10747SOL     OW33139   3.972   1.132   4.144
10747SOL    HW133140   3.887   1.122   4.092
10747SOL    HW233141   3.989   1.229   4.161
10748SOL     OW33142   5.604   0.924   0.843
10748SOL    HW133143   5.649   0.857   0.783
10748SOL    HW233144   5.543   0.981   0.788
10749SOL     OW33145   0.521   5.651   3.350
10749SOL    HW133146   0.465   5.734   3.360
10749SOL    HW233147   0.469   5.572   3.380
10750SOL     OW33148   4.281   6.261   4.158
10750SOL    HW133149   4.276   6.162   4.166
10750SOL    HW233150   4.194   6.297   4.125
10751SOL     OW33151   1.934   5.132   4.665
10751SOL    HW133152   1.906   5.102   4.756
10751SOL    HW233153   1.999   5.066   4.627
10752SOL     OW33154   6.132   4.210   5.954
10752SOL    HW133155   6.117   4.138   5.886
10752SOL    HW233156   6.220   4.195   5.999
10753SOL     OW33157   4.702   5.056   4.702
10753SOL    HW133158   4.732   5.008   4.784
10753SOL    HW233159   4.728   5.004   4.621
10754SOL     OW33160   0.535   0.616   3.114
10754SOL    HW133161   0.609   0.600   3.179
10754SOL    HW233162   0.541   0.709   3.077
10755SOL     OW33163   0.261   1.043   0.490
10755SOL    HW133164   0.217   1.132   0.496
10755SOL    HW233165   0.202   0.980   0.439
10756SOL     OW33166   6.316   4.956   6.858
10756SOL    HW133167   6.330   4.916   6.948
10756SOL    HW233168   6.247   4.904   6.808
10757SOL     OW33169   1.855   3.037   6.847
10757SOL    HW133170   1.838   3.093   6.928
10757SOL    HW233171   1.929   3.078   6.793
10758SOL     OW33172   0.997   6.164   4.096
10758SOL    HW133173   1.089   6.131   4.117
10758SOL    HW233174   0.969   6.228   4.168
10759SOL     OW33175   1.958   2.688   1.353
10759SOL    HW133176   1.935   2.785   1.366
10759SOL    HW233177   1.875   2.634   1.346
10760SOL     OW33178   5.690   0.326   2.510
10760SOL    HW133179   5.591   0.339   2.517
10760SOL    HW233180   5.711   0.229   2.509
10761SOL     OW33181   0.924   6.356   6.029
10761SOL    HW133182   0.842   6.370   5.973
10761SOL    HW233183   0.994   6.422   6.003
10762SOL     OW33184   3.317   2.138   4.116
10762SOL    HW133185   3.240   2.104   4.170
10762SOL    HW233186   3.399   2.139   4.172
10763SOL     OW33187   5.027   6.827   2.870
10763SOL    HW133188   5.127   6.833   2.872
10763SOL    HW233189   4.991   6.833   2.963
10764SOL     OW33190   4.767   2.552   6.187
10764SOL    HW133191   4.826   2.548   6.106
10764SOL    HW233192   4.800   2.624   6.248
10765SOL     OW33193   4.807   2.473   0.844
10765SOL    HW133194   4.711   2.495   0.828
10765SOL    HW233195   4.865   2.540   0.797
10766SOL     OW33196   5.365   4.458   0.540
10766SOL    HW133197   5.400   4.369   0.510
10766SOL    HW233198   5.272   4.447   0.575
10767SOL     OW33199   2.112   0.152   0.326
10767SOL    HW133200   2.136   0.165   0.423
10767SOL    HW233201   2.163   0.073   0.291
10768SOL     OW33202   4.812   5.390   1.665
10768SOL    HW133203   4.846   5.296   1.672
10768SOL    HW233204   4.718   5.389   1.632
10769SOL     OW33205   2.409   4.270   5.259
10769SOL    HW133206   2.398   4.179   5.220
10769SOL    HW233207   2.455   4.329   5.192
10770SOL     OW33208   5.465   6.948   4.969
10770SOL    HW133209   5.505   6.868   4.923
10770SOL    HW233210   5.399   6.992   4.908
10771SOL     OW33211   5.486   6.787   3.666
10771SOL    HW133212   5.544   6.830   3.597
10771SOL    HW233213   5.534   6.709   3.707
10772SOL     OW33214   6.187   0.314   4.085
10772SOL    HW133215   6.232   0.357   4.162
10772SOL    HW233216   6.254   0.294   4.014
10773SOL     OW33217   6.138   5.440   5.829
10773SOL    HW133218   6.051   5.480   5.799
10773SOL    HW233219   6.134   5.422   5.927
10774SOL     OW33220   2.504   1.619   6.059
10774SOL    HW133221   2.494   1.678   5.979
10774SOL    HW233222   2.456   1.532   6.042
10775SOL     OW33223   0.557   4.541   2.053
10775SOL    HW133224   0.631   4.548   2.121
10775SOL    HW233225   0.562   4.618   1.990
10776SOL     OW33226   0.316   1.031   6.683
10776SOL    HW133227   0.394   1.067   6.733
10776SOL    HW233228   0.341   0.943   6.641
10777SOL     OW33229   4.210   5.350   2.183
10777SOL    HW133230   4.203   5.255   2.210
10777SOL    HW233231   4.230   5.356   2.085
10778SOL     OW33232   5.215   0.022   4.248
10778SOL    HW133233   5.246   0.106   4.205
10778SOL    HW233234   5.244   0.020   4.344
10779SOL     OW33235   6.440   3.214   3.189
10779SOL    HW133236   6.358   3.239   3.241
10779SOL    HW233237   6.522   3.233   3.243
10780SOL     OW33238   1.999   0.628   3.708
10780SOL    HW133239   1.933   0.571   3.660
10780SOL    HW233240   1.954   0.673   3.785
10781SOL     OW33241   4.479   1.050   4.174
10781SOL    HW133242   4.489   0.955   4.203
10781SOL    HW233243   4.539   1.066   4.095
10782SOL     OW33244   0.029   1.677   2.601
10782SOL    HW133245   0.112   1.700   2.651
10782SOL    HW233246   0.053   1.640   2.512
10783SOL     OW33247   0.694   2.437   2.473
10783SOL    HW133248   0.625   2.425   2.544
10783SOL    HW233249   0.651   2.472   2.390
10784SOL     OW33250   3.773   6.829   4.351
10784SOL    HW133251   3.692   6.888   4.352
10784SOL    HW233252   3.823   6.843   4.265
10785SOL     OW33253   6.823   4.788   0.476
10785SOL    HW133254   6.733   4.802   0.519
10785SOL    HW233255   6.884   4.742   0.541
10786SOL     OW33256   5.937   4.694   3.214
10786SOL    HW133257   5.910   4.605   3.249
10786SOL    HW233258   5.895   4.766   3.270
10787SOL     OW33259   1.947   1.615   5.566
10787SOL    HW133260   2.007   1.693   5.544
10787SOL    HW233261   1.895   1.589   5.485
10788SOL     OW33262   1.958   4.476   6.461
10788SOL    HW133263   1.899   4.539   6.511
10788SOL    HW233264   2.029   4.529   6.413
10789SOL     OW33265   6.493   2.859   6.556
10789SOL    HW133266   6.438   2.775   6.552
10789SOL    HW233267   6.587   2.836   6.580
10790SOL     OW33268   0.492   0.410   1.756
10790SOL    HW133269   0.548   0.486   1.790
10790SOL    HW233270   0.421   0.446   1.696
10791SOL     OW33271   6.565   6.272   1.536
10791SOL    HW133272   6.616   6.308   1.614
10791SOL    HW233273   6.505   6.343   1.500
10792SOL     OW33274   3.483   3.087   4.785
10792SOL    HW133275   3.402   3.063   4.839
10792SOL    HW233276   3.565   3.061   4.835
10793SOL     OW33277   5.892   3.148   5.492
10793SOL    HW133278   5.808   3.180   5.537
10793SOL    HW233279   5.928   3.069   5.542
10794SOL     OW33280   3.923   3.131   4.168
10794SOL    HW133281   3.951   3.172   4.254
10794SOL    HW233282   3.917   3.031   4.179
10795SOL     OW33283   0.150   4.936   2.458
10795SOL    HW133284   0.065   4.988   2.454
10795SOL    HW233285   0.155   4.875   2.379
10796SOL     OW33286   6.239   7.017   5.881
10796SOL    HW133287   6.310   6.995   5.814
10796SOL    HW233288   6.190   0.072   5.852
10797SOL     OW33289   3.083   2.376   1.526
10797SOL    HW133290   3.157   2.357   1.590
10797SOL    HW233291   3.116   2.432   1.451
10798SOL     OW33292   2.768   0.730   0.350
10798SOL    HW133293   2.755   0.693   0.442
10798SOL    HW233294   2.828   0.810   0.354
10799SOL     OW33295   4.026   1.440   2.247
10799SOL    HW133296   4.038   1.371   2.319
10799SOL    HW233297   4.101   1.433   2.182
10800SOL     OW33298   0.411   6.408   5.809
10800SOL    HW133299   0.380   6.400   5.715
10800SOL    HW233300   0.335   6.392   5.871
10801SOL     OW33301   1.347   6.912   0.057
10801SOL    HW133302   1.355   6.922   6.985
10801SOL    HW233303   1.287   6.984   0.092
10802SOL     OW33304   0.526   0.473   2.254
10802SOL    HW133305   0.522   0.486   2.353
10802SOL    HW233306   0.446   0.514   2.212
10803SOL     OW33307   2.032   5.420   5.924
10803SOL    HW133308   1.933   5.407   5.931
10803SOL    HW233309   2.054   5.460   5.835
10804SOL     OW33310   5.890   3.031   2.466
10804SOL    HW133311   5.905   2.943   2.421
10804SOL    HW233312   5.972   3.087   2.457
10805SOL     OW33313   4.707   6.963   5.511
10805SOL    HW133314   4.752   6.881   5.474
10805SOL    HW233315   4.618   6.938   5.550
10806SOL     OW33316   3.850   4.342   6.117
10806SOL    HW133317   3.837   4.304   6.209
10806SOL    HW233318   3.772   4.318   6.060
10807SOL     OW33319   1.773   0.155   3.343
10807SOL    HW133320   1.749   0.064   3.378
10807SOL    HW233321   1.737   0.225   3.405
10808SOL     OW33322   0.198   3.137   6.241
10808SOL    HW133323   0.175   3.067   6.174
10808SOL    HW233324   0.203   3.095   6.332
10809SOL     OW33325   2.330   4.222   3.675
10809SOL    HW133326   2.270   4.165   3.731
10809SOL    HW233327   2.314   4.202   3.579
10810SOL     OW33328   0.530   0.763   3.850
10810SOL    HW133329   0.536   0.715   3.937
10810SOL    HW233330   0.525   0.697   3.775
10811SOL     OW33331   4.250   4.800   5.797
10811SOL    HW133332   4.164   4.849   5.783
10811SOL    HW233333   4.320   4.863   5.832
10812SOL     OW33334   6.941   4.015   0.625
10812SOL    HW133335   0.014   4.011   0.626
10812SOL    HW233336   6.904   3.927   0.597
10813SOL     OW33337   0.822   3.833   5.903
10813SOL    HW133338   0.743   3.845   5.842
10813SOL    HW233339   0.853   3.739   5.900
10814SOL     OW33340   1.731   0.203   6.409
10814SOL    HW133341   1.791   0.188   6.488
10814SOL    HW233342   1.679   0.120   6.390
10815SOL     OW33343   4.880   3.332   3.200
10815SOL    HW133344   4.830   3.256   3.241
10815SOL    HW233345   4.975   3.306   3.186
10816SOL     OW33346   3.003   3.327   2.385
10816SOL    HW133347   2.955   3.259   2.330
10816SOL    HW233348   2.947   3.410   2.392
10817SOL     OW33349   3.873   0.818   3.478
10817SOL    HW133350   3.956   0.841   3.529
10817SOL    HW233351   3.850   0.722   3.493
10818SOL     OW33352   5.120   4.238   5.535
10818SOL    HW133353   5.061   4.309   5.496
10818SOL    HW233354   5.063   4.162   5.566
10819SOL     OW33355   5.902   4.813   6.240
10819SOL    HW133356   5.904   4.713   6.234
10819SOL    HW233357   5.828   4.848   6.183
10820SOL     OW33358   0.419   5.262   4.312
10820SOL    HW133359   0.346   5.241   4.377
10820SOL    HW233360   0.507   5.256   4.359
10821SOL     OW33361   4.314   6.921   3.301
10821SOL    HW133362   4.366   7.005   3.284
10821SOL    HW233363   4.242   6.940   3.368
10822SOL     OW33364   6.050   1.905   2.695
10822SOL    HW133365   6.148   1.887   2.682
10822SOL    HW233366   5.998   1.823   2.671
10823SOL     OW33367   1.131   0.672   2.143
10823SOL    HW133368   1.155   0.668   2.239
10823SOL    HW233369   1.190   0.610   2.091
10824SOL     OW33370   0.316   0.744   2.546
10824SOL    HW133371   0.409   0.729   2.512
10824SOL    HW233372   0.320   0.799   2.630
10825SOL     OW33373   2.370   1.976   6.880
10825SOL    HW133374   2.423   1.974   6.964
10825SOL    HW233375   2.288   1.919   6.891
10826SOL     OW33376   1.237   1.718   3.056
10826SOL    HW133377   1.292   1.643   3.018
10826SOL    HW233378   1.233   1.793   2.991
10827SOL     OW33379   0.149   3.542   4.864
10827SOL    HW133380   0.142   3.629   4.814
10827SOL    HW233381   0.146   3.560   4.962
10828SOL     OW33382   1.774   4.793   0.482
10828SOL    HW133383   1.868   4.760   0.483
10828SOL    HW233384   1.712   4.719   0.509
10829SOL     OW33385   4.944   2.265   0.443
10829SOL    HW133386   4.929   2.338   0.509
10829SOL    HW233387   5.043   2.253   0.428
10830SOL     OW33388   4.552   1.766   3.084
10830SOL    HW133389   4.460   1.791   3.053
10830SOL    HW233390   4.609   1.849   3.089
10831SOL     OW33391   2.968   6.501   2.505
10831SOL    HW133392   3.054   6.520   2.553
10831SOL    HW233393   2.982   6.427   2.440
10832SOL     OW33394   0.024   3.675   6.630
10832SOL    HW133395   7.023   3.660   6.536
10832SOL    HW233396   6.972   3.666   6.691
10833SOL     OW33397   0.399   1.229   1.458
10833SOL    HW133398   0.420   1.175   1.377
10833SOL    HW233399   0.309   1.273   1.447
10834SOL     OW33400   6.153   1.478   0.544
10834SOL    HW133401   6.241   1.484   0.499
10834SOL    HW233402   6.103   1.399   0.508
10835SOL     OW33403   6.093   2.680   0.152
10835SOL    HW133404   6.017   2.615   0.157
10835SOL    HW233405   6.128   2.684   0.059
10836SOL     OW33406   0.256   2.105   3.815
10836SOL    HW133407   0.253   2.164   3.734
10836SOL    HW233408   0.343   2.057   3.818
10837SOL     OW33409   6.761   5.096   1.385
10837SOL    HW133410   6.833   5.070   1.449
10837SOL    HW233411   6.780   5.187   1.348
10838SOL     OW33412   6.519   6.444   3.793
10838SOL    HW133413   6.596   6.464   3.853
10838SOL    HW233414   6.499   6.346   3.795
10839SOL     OW33415   4.342   3.531   0.921
10839SOL    HW133416   4.414   3.490   0.864
10839SOL    HW233417   4.267   3.562   0.862
10840SOL     OW33418   2.993   6.159   2.492
10840SOL    HW133419   3.016   6.228   2.423
10840SOL    HW233420   2.946   6.082   2.447
10841SOL     OW33421   6.218   4.341   5.292
10841SOL    HW133422   6.292   4.311   5.352
10841SOL    HW233423   6.253   4.351   5.199
10842SOL     OW33424   4.595   2.661   1.168
10842SOL    HW133425   4.671   2.705   1.215
10842SOL    HW233426   4.510   2.680   1.217
10843SOL     OW33427   1.379   1.353   1.400
10843SOL    HW133428   1.341   1.275   1.450
10843SOL    HW233429   1.444   1.401   1.459
10844SOL     OW33430   0.602   5.668   2.954
10844SOL    HW133431   0.689   5.656   2.907
10844SOL    HW233432   0.576   5.582   2.998
10845SOL     OW33433   3.957   6.303   5.507
10845SOL    HW133434   3.870   6.323   5.463
10845SOL    HW233435   3.941   6.257   5.594
10846SOL     OW33436   5.158   0.365   6.445
10846SOL    HW133437   5.186   0.271   6.467
10846SOL    HW233438   5.230   0.429   6.470
10847SOL     OW33439   3.313   2.248   0.268
10847SOL    HW133440   3.261   2.314   0.322
10847SOL    HW233441   3.388   2.295   0.221
10848SOL     OW33442   1.295   4.240   1.008
10848SOL    HW133443   1.256   4.263   0.919
10848SOL    HW233444   1.365   4.170   0.996
10849SOL     OW33445   2.871   4.754   3.999
10849SOL    HW133446   2.815   4.674   3.976
10849SOL    HW233447   2.940   4.768   3.928
10850SOL     OW33448   3.655   6.348   5.926
10850SOL    HW133449   3.683   6.419   5.990
10850SOL    HW233450   3.556   6.351   5.914
10851SOL     OW33451   3.276   3.521   0.566
10851SOL    HW133452   3.194   3.539   0.512
10851SOL    HW233453   3.279   3.425   0.592
10852SOL     OW33454   1.907   0.698   6.533
10852SOL    HW133455   1.960   0.676   6.451
10852SOL    HW233456   1.915   0.796   6.553
10853SOL     OW33457   1.931   2.964   5.642
10853SOL    HW133458   1.932   2.968   5.742
10853SOL    HW233459   1.897   3.051   5.605
10854SOL     OW33460   4.323   5.331   5.650
10854SOL    HW133461   4.419   5.337   5.621
10854SOL    HW233462   4.319   5.298   5.744
10855SOL     OW33463   4.250   0.508   0.465
10855SOL    HW133464   4.340   0.527   0.504
10855SOL    HW233465   4.257   0.434   0.398
10856SOL     OW33466   5.583   1.294   0.875
10856SOL    HW133467   5.574   1.252   0.966
10856SOL    HW233468   5.618   1.387   0.884
10857SOL     OW33469   1.029   2.267   2.601
10857SOL    HW133470   1.034   2.366   2.615
10857SOL    HW233471   1.121   2.229   2.598
10858SOL     OW33472   0.969   1.094   0.880
10858SOL    HW133473   0.885   1.076   0.830
10858SOL    HW233474   1.001   1.187   0.859
10859SOL     OW33475   1.292   4.969   4.218
10859SOL    HW133476   1.386   4.995   4.197
10859SOL    HW233477   1.281   4.960   4.317
10860SOL     OW33478   0.511   3.370   5.016
10860SOL    HW133479   0.583   3.326   4.962
10860SOL    HW233480   0.448   3.301   5.052
10861SOL     OW33481   3.413   3.452   3.275
10861SOL    HW133482   3.321   3.481   3.247
10861SOL    HW233483   3.435   3.366   3.230
10862SOL     OW33484   1.615   0.918   6.032
10862SOL    HW133485   1.574   0.876   5.950
10862SOL    HW233486   1.714   0.929   6.017
10863SOL     OW33487   2.463   0.694   3.972
10863SOL    HW133488   2.381   0.636   3.977
10863SOL    HW233489   2.443   0.784   4.010
10864SOL     OW33490   2.676   6.105   0.136
10864SOL    HW133491   2.626   6.047   0.200
10864SOL    HW233492   2.759   6.140   0.180
10865SOL     OW33493   6.647   1.303   0.689
10865SOL    HW133494   6.591   1.307   0.772
10865SOL    HW233495   6.730   1.249   0.708
10866SOL     OW33496   5.219   4.012   0.588
10866SOL    HW133497   5.219   3.931   0.647
10866SOL    HW233498   5.146   4.074   0.616
10867SOL     OW33499   3.013   4.039   0.889
10867SOL    HW133500   3.090   3.977   0.899
10867SOL    HW233501   2.928   3.987   0.893
10868SOL     OW33502   5.266   1.578   3.784
10868SOL    HW133503   5.202   1.555   3.711
10868SOL    HW233504   5.319   1.659   3.759
10869NA      NA33505   6.564   2.777   5.120
10870NA      NA33506   4.512   4.536   5.173
10871NA      NA33507   1.581   2.922   1.855
10872NA      NA33508   4.868   3.825   5.080
10873NA      NA33509   4.272   2.479   5.396
10874NA      NA33510   3.679   4.780   1.731
10875NA      NA33511   6.486   5.021   6.718
10876NA      NA33512   3.548   3.427   4.471
10877NA      NA33513   4.849   5.725   7.023
10878NA      NA33514   4.075   6.499   5.135
10879NA      NA33515   6.145   5.250   2.172
10880NA      NA33516   2.201   6.854   3.637
10881NA      NA33517   4.226   5.565   2.290
10882NA      NA33518   3.579   3.965   2.137
   7.02692   7.02692   7.02692
