Generated by trjconv : CNT in water t= 520.00000
33518
    1C        C    1   2.838   2.766   4.746
    1C        C    2   2.892   2.716   4.866
    1C        C    3   2.846   2.775   4.984
    1C        C    4   2.848   2.776   4.259
    1C        C    5   2.899   2.729   4.382
    1C        C    6   2.842   2.773   4.504
    1C        C    7   3.012   2.643   4.625
    1C        C    8   2.893   2.718   4.625
    1C        C    9   3.075   2.604   4.746
    1C        C   10   3.003   2.629   4.865
    1C        C   11   3.180   2.491   4.976
    1C        C   12   3.058   2.560   4.974
    1C        C   13   2.849   2.772   3.770
    1C        C   14   2.894   2.721   3.893
    1C        C   15   2.844   2.772   4.015
    1C        C   16   3.013   2.644   4.137
    1C        C   17   2.898   2.725   4.137
    1C        C   18   3.076   2.613   4.260
    1C        C   19   3.015   2.649   4.382
    1C        C   20   3.208   2.559   4.505
    1C        C   21   3.077   2.611   4.504
    1C        C   22   3.277   2.540   4.627
    1C        C   23   3.206   2.549   4.748
    1C        C   24   3.411   2.475   4.863
    1C        C   25   3.270   2.498   4.865
    1C        C   26   3.489   2.479   4.979
    1C        C   27   2.849   2.768   3.280
    1C        C   28   2.905   2.723   3.402
    1C        C   29   2.854   2.776   3.522
    1C        C   30   3.017   2.645   3.650
    1C        C   31   2.905   2.731   3.646
    1C        C   32   3.076   2.609   3.773
    1C        C   33   3.014   2.646   3.894
    1C        C   34   3.207   2.555   4.015
    1C        C   35   3.077   2.610   4.016
    1C        C   36   3.272   2.537   4.139
    1C        C   37   3.208   2.563   4.262
    1C        C   38   3.414   2.508   4.381
    1C        C   39   3.276   2.540   4.383
    1C        C   40   3.485   2.502   4.502
    1C        C   41   3.415   2.508   4.625
    1C        C   42   3.629   2.486   4.745
    1C        C   43   3.487   2.481   4.743
    1C        C   44   3.704   2.485   4.865
    1C        C   45   3.628   2.475   4.982
    1C        C   46   2.838   2.753   2.792
    1C        C   47   2.898   2.716   2.915
    1C        C   48   2.847   2.766   3.037
    1C        C   49   3.022   2.644   3.159
    1C        C   50   2.907   2.726   3.158
    1C        C   51   3.079   2.602   3.282
    1C        C   52   3.017   2.636   3.404
    1C        C   53   3.206   2.547   3.526
    1C        C   54   3.077   2.606   3.528
    1C        C   55   3.275   2.531   3.648
    1C        C   56   3.207   2.556   3.770
    1C        C   57   3.413   2.508   3.892
    1C        C   58   3.273   2.533   3.892
    1C        C   59   3.484   2.504   4.014
    1C        C   60   3.412   2.512   4.136
    1C        C   61   3.623   2.497   4.259
    1C        C   62   3.482   2.499   4.257
    1C        C   63   3.697   2.508   4.379
    1C        C   64   3.627   2.502   4.501
    1C        C   65   3.834   2.540   4.620
    1C        C   66   3.698   2.502   4.623
    1C        C   67   3.904   2.559   4.741
    1C        C   68   3.840   2.523   4.862
    1C        C   69   4.052   2.582   4.975
    1C        C   70   3.922   2.530   4.975
    1C        C   71   2.822   2.732   2.305
    1C        C   72   2.883   2.693   2.427
    1C        C   73   2.827   2.740   2.548
    1C        C   74   3.009   2.630   2.669
    1C        C   75   2.887   2.702   2.670
    1C        C   76   3.070   2.592   2.791
    1C        C   77   3.014   2.635   2.913
    1C        C   78   3.205   2.544   3.036
    1C        C   79   3.076   2.601   3.036
    1C        C   80   3.274   2.524   3.157
    1C        C   81   3.208   2.545   3.281
    1C        C   82   3.412   2.497   3.402
    1C        C   83   3.273   2.523   3.405
    1C        C   84   3.481   2.488   3.525
    1C        C   85   3.413   2.499   3.648
    1C        C   86   3.625   2.497   3.768
    1C        C   87   3.483   2.493   3.771
    1C        C   88   3.695   2.509   3.890
    1C        C   89   3.625   2.505   4.013
    1C        C   90   3.829   2.548   4.136
    1C        C   91   3.693   2.511   4.137
    1C        C   92   3.900   2.572   4.256
    1C        C   93   3.831   2.551   4.377
    1C        C   94   4.026   2.636   4.499
    1C        C   95   3.899   2.575   4.499
    1C        C   96   4.089   2.673   4.620
    1C        C   97   4.030   2.625   4.739
    1C        C   98   4.191   2.763   4.858
    1C        C   99   4.100   2.652   4.860
    1C        C  100   4.213   2.843   4.971
    1C        C  101   2.820   2.726   2.067
    1C        C  102   2.989   2.591   2.186
    1C        C  103   2.872   2.673   2.186
    1C        C  104   3.058   2.569   2.308
    1C        C  105   3.000   2.613   2.429
    1C        C  106   3.202   2.538   2.546
    1C        C  107   3.071   2.589   2.549
    1C        C  108   3.269   2.522   2.670
    1C        C  109   3.200   2.537   2.792
    1C        C  110   3.409   2.492   2.911
    1C        C  111   3.270   2.519   2.913
    1C        C  112   3.480   2.488   3.033
    1C        C  113   3.413   2.498   3.156
    1C        C  114   3.623   2.497   3.278
    1C        C  115   3.482   2.491   3.280
    1C        C  116   3.692   2.509   3.400
    1C        C  117   3.622   2.495   3.523
    1C        C  118   3.830   2.539   3.645
    1C        C  119   3.693   2.504   3.645
    1C        C  120   3.895   2.568   3.767
    1C        C  121   3.832   2.544   3.891
    1C        C  122   4.023   2.632   4.011
    1C        C  123   3.898   2.565   4.014
    1C        C  124   4.087   2.670   4.131
    1C        C  125   4.026   2.636   4.254
    1C        C  126   4.193   2.764   4.375
    1C        C  127   4.085   2.673   4.376
    1C        C  128   4.245   2.817   4.496
    1C        C  129   4.197   2.764   4.617
    1C        C  130   4.330   2.931   4.738
    1C        C  131   4.248   2.814   4.739
    1C        C  132   4.359   3.001   4.856
    1C        C  133   4.290   2.959   4.971
    1C        C  134   3.172   2.465   2.080
    1C        C  135   3.039   2.509   2.079
    1C        C  136   3.259   2.475   2.189
    1C        C  137   3.189   2.514   2.306
    1C        C  138   3.404   2.478   2.424
    1C        C  139   3.264   2.500   2.425
    1C        C  140   3.478   2.480   2.544
    1C        C  141   3.408   2.497   2.666
    1C        C  142   3.620   2.490   2.789
    1C        C  143   3.479   2.487   2.788
    1C        C  144   3.692   2.497   2.910
    1C        C  145   3.621   2.492   3.032
    1C        C  146   3.829   2.535   3.153
    1C        C  147   3.691   2.502   3.154
    1C        C  148   3.895   2.562   3.275
    1C        C  149   3.829   2.544   3.399
    1C        C  150   4.022   2.626   3.522
    1C        C  151   3.896   2.562   3.522
    1C        C  152   4.082   2.666   3.643
    1C        C  153   4.020   2.633   3.765
    1C        C  154   4.188   2.763   3.886
    1C        C  155   4.076   2.676   3.888
    1C        C  156   4.242   2.811   4.007
    1C        C  157   4.197   2.759   4.131
    1C        C  158   4.337   2.919   4.251
    1C        C  159   4.246   2.811   4.253
    1C        C  160   4.371   2.984   4.371
    1C        C  161   4.330   2.930   4.495
    1C        C  162   4.439   3.113   4.613
    1C        C  163   4.372   2.989   4.616
    1C        C  164   4.470   3.183   4.732
    1C        C  165   4.434   3.121   4.854
    1C        C  166   4.512   3.318   4.971
    1C        C  167   4.476   3.184   4.972
    1C        C  168   3.476   2.426   2.071
    1C        C  169   3.398   2.453   2.184
    1C        C  170   3.615   2.457   2.307
    1C        C  171   3.473   2.455   2.303
    1C        C  172   3.691   2.479   2.424
    1C        C  173   3.619   2.484   2.546
    1C        C  174   3.826   2.538   2.664
    1C        C  175   3.691   2.498   2.667
    1C        C  176   3.894   2.558   2.786
    1C        C  177   3.829   2.532   2.909
    1C        C  178   4.020   2.624   3.031
    1C        C  179   3.896   2.557   3.031
    1C        C  180   4.082   2.661   3.153
    1C        C  181   4.022   2.624   3.275
    1C        C  182   4.193   2.747   3.397
    1C        C  183   4.080   2.661   3.398
    1C        C  184   4.244   2.801   3.517
    1C        C  185   4.190   2.758   3.640
    1C        C  186   4.332   2.914   3.761
    1C        C  187   4.239   2.809   3.763
    1C        C  188   4.371   2.976   3.882
    1C        C  189   4.333   2.919   4.006
    1C        C  190   4.440   3.102   4.125
    1C        C  191   4.379   2.974   4.127
    1C        C  192   4.467   3.170   4.245
    1C        C  193   4.437   3.109   4.369
    1C        C  194   4.500   3.314   4.490
    1C        C  195   4.461   3.178   4.490
    1C        C  196   4.517   3.387   4.610
    1C        C  197   4.513   3.318   4.734
    1C        C  198   4.555   3.534   4.852
    1C        C  199   4.531   3.392   4.854
    1C        C  200   4.584   3.620   4.962
    1C        C  201   3.616   2.417   2.070
    1C        C  202   3.823   2.508   2.179
    1C        C  203   3.689   2.460   2.185
    1C        C  204   3.892   2.541   2.300
    1C        C  205   3.827   2.516   2.423
    1C        C  206   4.019   2.620   2.543
    1C        C  207   3.891   2.560   2.541
    1C        C  208   4.083   2.654   2.664
    1C        C  209   4.020   2.622   2.787
    1C        C  210   4.196   2.742   2.908
    1C        C  211   4.083   2.657   2.908
    1C        C  212   4.247   2.794   3.029
    1C        C  213   4.193   2.748   3.151
    1C        C  214   4.328   2.908   3.269
    1C        C  215   4.239   2.799   3.274
    1C        C  216   4.367   2.969   3.391
    1C        C  217   4.331   2.912   3.515
    1C        C  218   4.432   3.098   3.636
    1C        C  219   4.373   2.970   3.638
    1C        C  220   4.460   3.166   3.757
    1C        C  221   4.435   3.102   3.880
    1C        C  222   4.499   3.304   4.001
    1C        C  223   4.464   3.167   4.002
    1C        C  224   4.512   3.375   4.123
    1C        C  225   4.506   3.306   4.246
    1C        C  226   4.527   3.520   4.368
    1C        C  227   4.516   3.380   4.366
    1C        C  228   4.527   3.599   4.485
    1C        C  229   4.528   3.528   4.607
    1C        C  230   4.501   3.739   4.729
    1C        C  231   4.534   3.600   4.728
    1C        C  232   4.495   3.820   4.844
    1C        C  233   4.551   3.756   4.956
    1C        C  234   4.013   2.609   2.063
    1C        C  235   3.891   2.541   2.061
    1C        C  236   4.082   2.646   2.179
    1C        C  237   4.018   2.607   2.299
    1C        C  238   4.198   2.729   2.418
    1C        C  239   4.081   2.647   2.419
    1C        C  240   4.250   2.779   2.539
    1C        C  241   4.198   2.737   2.664
    1C        C  242   4.333   2.902   2.782
    1C        C  243   4.249   2.788   2.785
    1C        C  244   4.373   2.963   2.903
    1C        C  245   4.333   2.906   3.026
    1C        C  246   4.436   3.092   3.147
    1C        C  247   4.370   2.967   3.148
    1C        C  248   4.458   3.158   3.270
    1C        C  249   4.428   3.096   3.394
    1C        C  250   4.502   3.298   3.513
    1C        C  251   4.461   3.162   3.514
    1C        C  252   4.515   3.369   3.635
    1C        C  253   4.505   3.300   3.758
    1C        C  254   4.521   3.513   3.877
    1C        C  255   4.518   3.372   3.879
    1C        C  256   4.512   3.585   3.998
    1C        C  257   4.517   3.516   4.121
    1C        C  258   4.495   3.727   4.241
    1C        C  259   4.516   3.587   4.244
    1C        C  260   4.469   3.799   4.360
    1C        C  261   4.487   3.734   4.484
    1C        C  262   4.425   3.936   4.600
    1C        C  263   4.478   3.805   4.606
    1C        C  264   4.400   4.008   4.719
    1C        C  265   4.436   3.948   4.841
    1C        C  266   4.311   4.127   4.955
    1C        C  267   4.398   4.019   4.956
    1C        C  268   4.261   2.772   2.060
    1C        C  269   4.196   2.728   2.176
    1C        C  270   4.339   2.888   2.296
    1C        C  271   4.252   2.776   2.297
    1C        C  272   4.379   2.950   2.417
    1C        C  273   4.337   2.891   2.538
    1C        C  274   4.440   3.081   2.658
    1C        C  275   4.374   2.956   2.658
    1C        C  276   4.470   3.149   2.778
    1C        C  277   4.439   3.088   2.901
    1C        C  278   4.503   3.291   3.023
    1C        C  279   4.466   3.154   3.023
    1C        C  280   4.512   3.363   3.144
    1C        C  281   4.496   3.294   3.266
    1C        C  282   4.511   3.505   3.386
    1C        C  283   4.510   3.364   3.388
    1C        C  284   4.511   3.578   3.507
    1C        C  285   4.516   3.510   3.631
    1C        C  286   4.498   3.721   3.751
    1C        C  287   4.517   3.581   3.753
    1C        C  288   4.481   3.792   3.873
    1C        C  289   4.495   3.726   3.997
    1C        C  290   4.430   3.927   4.115
    1C        C  291   4.482   3.796   4.118
    1C        C  292   4.397   3.996   4.234
    1C        C  293   4.422   3.932   4.357
    1C        C  294   4.326   4.123   4.477
    1C        C  295   4.393   3.999   4.477
    1C        C  296   4.281   4.184   4.596
    1C        C  297   4.326   4.129   4.719
    1C        C  298   4.199   4.313   4.834
    1C        C  299   4.282   4.196   4.836
    1C        C  300   4.169   4.399   4.944
    1C        C  301   4.349   2.880   2.060
    1C        C  302   4.468   3.066   2.176
    1C        C  303   4.394   2.943   2.177
    1C        C  304   4.476   3.142   2.296
    1C        C  305   4.443   3.076   2.417
    1C        C  306   4.509   3.282   2.534
    1C        C  307   4.467   3.147   2.536
    1C        C  308   4.514   3.355   2.654
    1C        C  309   4.500   3.287   2.777
    1C        C  310   4.526   3.498   2.900
    1C        C  311   4.516   3.357   2.899
    1C        C  312   4.519   3.573   3.019
    1C        C  313   4.520   3.504   3.143
    1C        C  314   4.487   3.715   3.263
    1C        C  315   4.512   3.576   3.264
    1C        C  316   4.473   3.784   3.385
    1C        C  317   4.494   3.718   3.508
    1C        C  318   4.426   3.921   3.627
    1C        C  319   4.478   3.790   3.629
    1C        C  320   4.397   3.987   3.749
    1C        C  321   4.426   3.922   3.871
    1C        C  322   4.314   4.104   3.987
    1C        C  323   4.393   3.987   3.992
    1C        C  324   4.277   4.166   4.109
    1C        C  325   4.322   4.116   4.233
    1C        C  326   4.179   4.276   4.351
    1C        C  327   4.279   4.175   4.354
    1C        C  328   4.130   4.332   4.471
    1C        C  329   4.186   4.288   4.593
    1C        C  330   4.020   4.429   4.711
    1C        C  331   4.140   4.351   4.711
    1C        C  332   3.965   4.484   4.829
    1C        C  333   4.051   4.474   4.939
    1C        C  334   4.544   3.266   2.058
    1C        C  335   4.533   3.127   2.064
    1C        C  336   4.532   3.350   2.170
    1C        C  337   4.513   3.279   2.291
    1C        C  338   4.526   3.493   2.409
    1C        C  339   4.522   3.352   2.412
    1C        C  340   4.518   3.565   2.530
    1C        C  341   4.519   3.497   2.654
    1C        C  342   4.490   3.705   2.774
    1C        C  343   4.518   3.566   2.777
    1C        C  344   4.475   3.778   2.894
    1C        C  345   4.493   3.712   3.018
    1C        C  346   4.427   3.915   3.135
    1C        C  347   4.473   3.782   3.139
    1C        C  348   4.392   3.976   3.258
    1C        C  349   4.424   3.917   3.382
    1C        C  350   4.316   4.100   3.500
    1C        C  351   4.393   3.981   3.504
    1C        C  352   4.271   4.158   3.620
    1C        C  353   4.317   4.103   3.742
    1C        C  354   4.169   4.255   3.864
    1C        C  355   4.272   4.158   3.864
    1C        C  356   4.116   4.306   3.985
    1C        C  357   4.176   4.264   4.105
    1C        C  358   4.004   4.390   4.228
    1C        C  359   4.124   4.315   4.227
    1C        C  360   3.945   4.437   4.348
    1C        C  361   4.012   4.409   4.469
    1C        C  362   3.824   4.510   4.591
    1C        C  363   3.953   4.454   4.589
    1C        C  364   3.757   4.544   4.711
    1C        C  365   3.835   4.539   4.829
    1C        C  366   3.626   4.599   4.946
    1C        C  367   3.763   4.576   4.943
    1C        C  368   4.514   3.563   2.050
    1C        C  369   4.522   3.491   2.170
    1C        C  370   4.498   3.706   2.285
    1C        C  371   4.523   3.567   2.289
    1C        C  372   4.483   3.775   2.407
    1C        C  373   4.499   3.705   2.528
    1C        C  374   4.423   3.903   2.648
    1C        C  375   4.475   3.772   2.651
    1C        C  376   4.394   3.972   2.768
    1C        C  377   4.431   3.912   2.891
    1C        C  378   4.318   4.094   3.009
    1C        C  379   4.399   3.978   3.011
    1C        C  380   4.269   4.145   3.131
    1C        C  381   4.312   4.092   3.255
    1C        C  382   4.167   4.249   3.375
    1C        C  383   4.270   4.151   3.377
    1C        C  384   4.115   4.301   3.495
    1C        C  385   4.171   4.258   3.618
    1C        C  386   4.002   4.384   3.740
    1C        C  387   4.117   4.302   3.741
    1C        C  388   3.940   4.420   3.862
    1C        C  389   4.001   4.388   3.985
    1C        C  390   3.812   4.483   4.106
    1C        C  391   3.942   4.428   4.107
    1C        C  392   3.746   4.511   4.228
    1C        C  393   3.819   4.500   4.348
    1C        C  394   3.613   4.549   4.470
    1C        C  395   3.752   4.525   4.470
    1C        C  396   3.542   4.558   4.592
    1C        C  397   3.618   4.564   4.712
    1C        C  398   3.408   4.550   4.840
    1C        C  399   3.546   4.575   4.833
    1C        C  400   3.340   4.509   4.956
    1C        C  401   4.501   3.701   2.050
    1C        C  402   4.448   3.915   2.164
    1C        C  403   4.488   3.780   2.166
    1C        C  404   4.412   3.977   2.286
    1C        C  405   4.440   3.910   2.407
    1C        C  406   4.324   4.091   2.522
    1C        C  407   4.401   3.973   2.527
    1C        C  408   4.274   4.145   2.643
    1C        C  409   4.313   4.087   2.766
    1C        C  410   4.167   4.243   2.887
    1C        C  411   4.271   4.147   2.887
    1C        C  412   4.113   4.289   3.009
    1C        C  413   4.168   4.244   3.131
    1C        C  414   3.996   4.371   3.250
    1C        C  415   4.114   4.293   3.252
    1C        C  416   3.938   4.411   3.373
    1C        C  417   3.998   4.379   3.497
    1C        C  418   3.810   4.476   3.615
    1C        C  419   3.940   4.422   3.619
    1C        C  420   3.743   4.498   3.738
    1C        C  421   3.811   4.477   3.861
    1C        C  422   3.607   4.531   3.982
    1C        C  423   3.745   4.502   3.983
    1C        C  424   3.537   4.545   4.105
    1C        C  425   3.607   4.536   4.227
    1C        C  426   3.397   4.551   4.355
    1C        C  427   3.538   4.549   4.350
    1C        C  428   3.327   4.549   4.477
    1C        C  429   3.401   4.555   4.597
    1C        C  430   3.195   4.514   4.725
    1C        C  431   3.333   4.548   4.721
    1C        C  432   3.122   4.492   4.845
    1C        C  433   3.202   4.494   4.960
    1C        C  434   4.382   4.124   2.050
    1C        C  435   4.436   3.995   2.049
    1C        C  436   4.298   4.160   2.161
    1C        C  437   4.330   4.093   2.283
    1C        C  438   4.179   4.249   2.400
    1C        C  439   4.282   4.152   2.402
    1C        C  440   4.123   4.293   2.522
    1C        C  441   4.174   4.244   2.645
    1C        C  442   3.999   4.370   2.763
    1C        C  443   4.116   4.291   2.765
    1C        C  444   3.934   4.403   2.884
    1C        C  445   3.996   4.369   3.006
    1C        C  446   3.807   4.467   3.128
    1C        C  447   3.933   4.403   3.128
    1C        C  448   3.744   4.497   3.251
    1C        C  449   3.810   4.470   3.373
    1C        C  450   3.602   4.525   3.494
    1C        C  451   3.741   4.495   3.494
    1C        C  452   3.536   4.537   3.618
    1C        C  453   3.607   4.534   3.740
    1C        C  454   3.393   4.546   3.862
    1C        C  455   3.534   4.543   3.861
    1C        C  456   3.327   4.535   3.986
    1C        C  457   3.396   4.544   4.108
    1C        C  458   3.190   4.511   4.235
    1C        C  459   3.328   4.542   4.232
    1C        C  460   3.123   4.493   4.357
    1C        C  461   3.188   4.521   4.479
    1C        C  462   2.997   4.436   4.601
    1C        C  463   3.126   4.493   4.603
    1C        C  464   2.929   4.402   4.720
    1C        C  465   2.987   4.445   4.842
    1C        C  466   2.800   4.336   4.957
    1C        C  467   2.909   4.423   4.960
    1C        C  468   4.120   4.291   2.040
    1C        C  469   4.185   4.248   2.156
    1C        C  470   4.004   4.366   2.279
    1C        C  471   4.125   4.292   2.278
    1C        C  472   3.937   4.401   2.399
    1C        C  473   4.002   4.365   2.519
    1C        C  474   3.812   4.465   2.642
    1C        C  475   3.939   4.404   2.640
    1C        C  476   3.741   4.491   2.761
    1C        C  477   3.807   4.466   2.883
    1C        C  478   3.604   4.527   3.006
    1C        C  479   3.740   4.488   3.006
    1C        C  480   3.535   4.538   3.129
    1C        C  481   3.606   4.527   3.250
    1C        C  482   3.393   4.543   3.376
    1C        C  483   3.534   4.539   3.371
    1C        C  484   3.323   4.540   3.499
    1C        C  485   3.396   4.549   3.620
    1C        C  486   3.185   4.509   3.743
    1C        C  487   3.322   4.546   3.740
    1C        C  488   3.122   4.485   3.867
    1C        C  489   3.189   4.504   3.990
    1C        C  490   3.003   4.411   4.112
    1C        C  491   3.122   4.486   4.113
    1C        C  492   2.942   4.381   4.236
    1C        C  493   2.998   4.426   4.358
    1C        C  494   2.831   4.299   4.480
    1C        C  495   2.941   4.387   4.481
    1C        C  496   2.774   4.255   4.602
    1C        C  497   2.820   4.310   4.724
    1C        C  498   2.665   4.162   4.841
    1C        C  499   2.752   4.273   4.841
    1C        C  500   2.595   4.112   4.951
    1C        C  501   3.997   4.356   2.039
    1C        C  502   3.814   4.465   2.157
    1C        C  503   3.942   4.404   2.158
    1C        C  504   3.742   4.480   2.277
    1C        C  505   3.807   4.454   2.400
    1C        C  506   3.602   4.510   2.519
    1C        C  507   3.739   4.480   2.521
    1C        C  508   3.531   4.525   2.640
    1C        C  509   3.601   4.511   2.762
    1C        C  510   3.391   4.528   2.886
    1C        C  511   3.532   4.524   2.884
    1C        C  512   3.320   4.527   3.009
    1C        C  513   3.394   4.535   3.129
    1C        C  514   3.187   4.501   3.254
    1C        C  515   3.325   4.531   3.252
    1C        C  516   3.120   4.476   3.376
    1C        C  517   3.187   4.505   3.497
    1C        C  518   2.998   4.414   3.623
    1C        C  519   3.121   4.483   3.620
    1C        C  520   2.941   4.373   3.746
    1C        C  521   2.999   4.414   3.868
    1C        C  522   2.842   4.273   3.995
    1C        C  523   2.943   4.372   3.990
    1C        C  524   2.791   4.229   4.119
    1C        C  525   2.838   4.286   4.239
    1C        C  526   2.694   4.130   4.361
    1C        C  527   2.782   4.240   4.361
    1C        C  528   2.654   4.072   4.484
    1C        C  529   2.690   4.142   4.602
    1C        C  530   2.587   3.957   4.726
    1C        C  531   2.640   4.088   4.723
    1C        C  532   2.544   3.899   4.849
    1C        C  533   2.528   3.989   4.959
    1C        C  534   3.618   4.551   2.041
    1C        C  535   3.753   4.514   2.041
    1C        C  536   3.534   4.528   2.155
    1C        C  537   3.603   4.512   2.277
    1C        C  538   3.389   4.524   2.399
    1C        C  539   3.530   4.521   2.398
    1C        C  540   3.319   4.515   2.521
    1C        C  541   3.390   4.525   2.643
    1C        C  542   3.180   4.493   2.762
    1C        C  543   3.318   4.522   2.765
    1C        C  544   3.116   4.471   2.886
    1C        C  545   3.183   4.494   3.009
    1C        C  546   2.998   4.401   3.133
    1C        C  547   3.119   4.473   3.133
    1C        C  548   2.939   4.363   3.256
    1C        C  549   2.997   4.407   3.378
    1C        C  550   2.833   4.278   3.503
    1C        C  551   2.939   4.371   3.502
    1C        C  552   2.786   4.225   3.626
    1C        C  553   2.839   4.275   3.747
    1C        C  554   2.706   4.114   3.873
    1C        C  555   2.793   4.225   3.871
    1C        C  556   2.668   4.055   3.996
    1C        C  557   2.707   4.115   4.117
    1C        C  558   2.596   3.939   4.245
    1C        C  559   2.661   4.064   4.241
    1C        C  560   2.571   3.874   4.368
    1C        C  561   2.592   3.946   4.488
    1C        C  562   2.526   3.744   4.615
    1C        C  563   2.562   3.881   4.609
    1C        C  564   2.513   3.678   4.739
    1C        C  565   2.522   3.758   4.856
    1C        C  566   2.523   3.545   4.977
    1C        C  567   2.526   3.684   4.976
    1C        C  568   3.325   4.465   2.038
    1C        C  569   3.393   4.510   2.153
    1C        C  570   3.183   4.480   2.278
    1C        C  571   3.321   4.512   2.276
    1C        C  572   3.114   4.457   2.399
    1C        C  573   3.181   4.485   2.520
    1C        C  574   2.983   4.407   2.645
    1C        C  575   3.111   4.468   2.642
    1C        C  576   2.933   4.359   2.767
    1C        C  577   2.995   4.398   2.888
    1C        C  578   2.830   4.271   3.015
    1C        C  579   2.936   4.365   3.012
    1C        C  580   2.784   4.217   3.137
    1C        C  581   2.835   4.268   3.258
    1C        C  582   2.703   4.108   3.381
    1C        C  583   2.785   4.223   3.382
    1C        C  584   2.667   4.050   3.505
    1C        C  585   2.702   4.112   3.627
    1C        C  586   2.602   3.929   3.753
    1C        C  587   2.666   4.055   3.751
    1C        C  588   2.574   3.868   3.877
    1C        C  589   2.604   3.929   4.001
    1C        C  590   2.534   3.732   4.125
    1C        C  591   2.576   3.867   4.125
    1C        C  592   2.518   3.667   4.250
    1C        C  593   2.528   3.740   4.370
    1C        C  594   2.508   3.531   4.498
    1C        C  595   2.516   3.672   4.494
    1C        C  596   2.509   3.461   4.621
    1C        C  597   2.510   3.536   4.740
    1C        C  598   2.533   3.325   4.864
    1C        C  599   2.523   3.465   4.862
    1C        C  600   2.533   3.247   4.981
    1C        C  601   3.191   4.431   2.041
    1C        C  602   2.982   4.395   2.160
    1C        C  603   3.116   4.447   2.157
    1C        C  604   2.920   4.360   2.283
    1C        C  605   2.985   4.399   2.402
    1C        C  606   2.818   4.272   2.526
    1C        C  607   2.921   4.369   2.524
    1C        C  608   2.774   4.217   2.649
    1C        C  609   2.826   4.266   2.770
    1C        C  610   2.697   4.102   2.892
    1C        C  611   2.781   4.216   2.894
    1C        C  612   2.657   4.047   3.015
    1C        C  613   2.696   4.107   3.137
    1C        C  614   2.591   3.925   3.263
    1C        C  615   2.661   4.047   3.260
    1C        C  616   2.568   3.862   3.387
    1C        C  617   2.601   3.925   3.509
    1C        C  618   2.531   3.727   3.637
    1C        C  619   2.572   3.862   3.632
    1C        C  620   2.513   3.660   3.760
    1C        C  621   2.529   3.734   3.880
    1C        C  622   2.506   3.524   4.009
    1C        C  623   2.521   3.664   4.002
    1C        C  624   2.507   3.454   4.132
    1C        C  625   2.517   3.526   4.253
    1C        C  626   2.532   3.319   4.379
    1C        C  627   2.512   3.458   4.377
    1C        C  628   2.552   3.250   4.501
    1C        C  629   2.532   3.321   4.621
    1C        C  630   2.588   3.116   4.745
    1C        C  631   2.546   3.252   4.743
    1C        C  632   2.608   3.046   4.866
    1C        C  633   2.559   3.109   4.985
    1C        C  634   2.786   4.295   2.051
    1C        C  635   2.893   4.385   2.048
    1C        C  636   2.755   4.222   2.166
    1C        C  637   2.812   4.268   2.287
    1C        C  638   2.675   4.107   2.408
    1C        C  639   2.760   4.219   2.409
    1C        C  640   2.644   4.043   2.530
    1C        C  641   2.690   4.104   2.650
    1C        C  642   2.590   3.917   2.776
    1C        C  643   2.651   4.044   2.772
    1C        C  644   2.560   3.853   2.899
    1C        C  645   2.587   3.924   3.018
    1C        C  646   2.524   3.724   3.147
    1C        C  647   2.561   3.860   3.141
    1C        C  648   2.518   3.654   3.270
    1C        C  649   2.530   3.725   3.391
    1C        C  650   2.506   3.517   3.517
    1C        C  651   2.515   3.658   3.515
    1C        C  652   2.512   3.448   3.641
    1C        C  653   2.508   3.519   3.763
    1C        C  654   2.532   3.312   3.891
    1C        C  655   2.509   3.452   3.887
    1C        C  656   2.545   3.244   4.014
    1C        C  657   2.530   3.315   4.136
    1C        C  658   2.599   3.116   4.256
    1C        C  659   2.547   3.247   4.258
    1C        C  660   2.630   3.054   4.380
    1C        C  661   2.599   3.116   4.502
    1C        C  662   2.704   2.934   4.626
    1C        C  663   2.624   3.051   4.625
    1C        C  664   2.745   2.873   4.747
    1C        C  665   2.693   2.930   4.867
    1C        C  666   2.741   2.866   4.981
    1C        C  667   2.684   4.020   2.051
    1C        C  668   2.685   4.099   2.167
    1C        C  669   2.590   3.908   2.290
    1C        C  670   2.641   4.041   2.288
    1C        C  671   2.562   3.845   2.413
    1C        C  672   2.585   3.915   2.534
    1C        C  673   2.519   3.713   2.656
    1C        C  674   2.563   3.847   2.656
    1C        C  675   2.508   3.647   2.780
    1C        C  676   2.521   3.717   2.902
    1C        C  677   2.506   3.510   3.027
    1C        C  678   2.510   3.651   3.026
    1C        C  679   2.506   3.441   3.151
    1C        C  680   2.509   3.513   3.272
    1C        C  681   2.531   3.306   3.396
    1C        C  682   2.506   3.445   3.396
    1C        C  683   2.554   3.243   3.520
    1C        C  684   2.531   3.308   3.643
    1C        C  685   2.603   3.114   3.769
    1C        C  686   2.548   3.244   3.768
    1C        C  687   2.630   3.049   3.892
    1C        C  688   2.595   3.112   4.013
    1C        C  689   2.711   2.934   4.136
    1C        C  690   2.634   3.053   4.135
    1C        C  691   2.755   2.882   4.260
    1C        C  692   2.706   2.935   4.382
    1C        C  693   2.749   2.879   4.504
    1C        C  694   2.625   3.893   2.053
    1C        C  695   2.525   3.703   2.177
    1C        C  696   2.580   3.833   2.171
    1C        C  697   2.501   3.633   2.297
    1C        C  698   2.518   3.711   2.414
    1C        C  699   2.488   3.500   2.539
    1C        C  700   2.502   3.641   2.536
    1C        C  701   2.498   3.433   2.663
    1C        C  702   2.496   3.506   2.783
    1C        C  703   2.522   3.297   2.907
    1C        C  704   2.502   3.437   2.906
    1C        C  705   2.539   3.231   3.031
    1C        C  706   2.527   3.302   3.153
    1C        C  707   2.596   3.102   3.277
    1C        C  708   2.548   3.235   3.275
    1C        C  709   2.626   3.044   3.402
    1C        C  710   2.602   3.111   3.525
    1C        C  711   2.709   2.929   3.644
    1C        C  712   2.633   3.048   3.648
    1C        C  713   2.750   2.873   3.767
    1C        C  714   2.710   2.932   3.889
    1C        C  715   2.749   2.877   4.013
    1C        C  716   2.449   3.498   2.064
    1C        C  717   2.495   3.631   2.060
    1C        C  718   2.457   3.416   2.181
    1C        C  719   2.474   3.494   2.299
    1C        C  720   2.502   3.283   2.423
    1C        C  721   2.481   3.423   2.421
    1C        C  722   2.537   3.221   2.545
    1C        C  723   2.523   3.294   2.665
    1C        C  724   2.590   3.093   2.788
    1C        C  725   2.538   3.224   2.787
    1C        C  726   2.621   3.033   2.912
    1C        C  727   2.593   3.101   3.033
    1C        C  728   2.704   2.919   3.155
    1C        C  729   2.624   3.036   3.155
    1C        C  730   2.751   2.870   3.279
    1C        C  731   2.707   2.929   3.400
    1C        C  732   2.752   2.874   3.522
    1C        C  733   2.474   3.190   2.071
    1C        C  734   2.480   3.275   2.183
    1C        C  735   2.575   3.080   2.303
    1C        C  736   2.520   3.211   2.303
    1C        C  737   2.612   3.018   2.424
    1C        C  738   2.587   3.089   2.543
    1C        C  739   2.696   2.909   2.666
    1C        C  740   2.619   3.028   2.666
    1C        C  741   2.743   2.857   2.788
    1C        C  742   2.698   2.915   2.909
    1C        C  743   2.745   2.864   3.032
    1C        C  744   2.543   3.069   2.068
    1C        C  745   2.685   2.899   2.181
    1C        C  746   2.606   3.016   2.181
    1C        C  747   2.728   2.838   2.301
    1C        C  748   2.687   2.897   2.422
    1C        C  749   2.734   2.846   2.545
    1C        C  750   2.741   2.840   2.066
    1C        C  751   3.667   2.313   1.978
    1C        O  752   3.714   2.205   2.021
    1C        O  753   3.625   2.305   1.844
    1C        C  754   4.654   3.065   2.004
    1C        O  755   4.665   3.057   1.878
    1C        O  756   4.777   3.084   2.068
    1C        C  757   4.488   4.220   2.011
    1C        O  758   4.567   4.271   2.095
    1C        O  759   4.492   4.291   1.891
    1C        C  760   3.590   4.636   1.924
    1C        O  761   3.583   4.761   1.908
    1C        O  762   3.596   4.588   1.792
    1C        C  763   2.890   4.501   1.956
    1C        O  764   2.935   4.501   1.838
    1C        O  765   2.833   4.621   2.000
    1C        C  766   2.349   3.479   1.956
    1C        O  767   2.390   3.462   1.839
    1C        O  768   2.219   3.433   1.983
    1C        C  769   4.660   3.581   5.083
    1C        O  770   4.643   3.627   5.199
    1C        O  771   4.786   3.518   5.079
    1C        C  772   4.289   4.452   5.013
    1C        O  773   4.308   4.449   5.138
    1C        O  774   4.349   4.572   4.973
    1C        C  775   4.146   2.490   5.043
    1C        O  776   4.143   2.364   5.031
    1C        O  777   4.252   2.535   5.124
    1C        C  778   2.885   4.536   5.054
    1C        O  779   2.795   4.621   5.036
    1C        O  780   2.927   4.537   5.187
    1C        C  781   2.478   3.034   5.083
    1C        O  782   2.359   3.009   5.051
    1C        O  783   2.511   3.026   5.218
    1C        C  784   2.428   3.977   5.067
    1C        O  785   2.322   4.044   5.075
    1C        O  786   2.470   3.963   5.200
    1C        C  787   2.956   2.425   1.990
    1C        O  788   2.948   2.439   1.864
    1C        O  789   2.882   2.317   2.037
    1C        C  790   3.186   2.384   5.078
    1C        O  791   3.116   2.280   5.066
    1C        O  792   3.229   2.415   5.207
    1C        H  793   4.277   3.027   5.053
    1C        H  794   4.236   2.783   5.056
    1C        H  795   4.481   3.130   5.064
    1C        H  796   4.528   3.366   5.066
    1C        H  797   4.606   3.816   5.025
    1C        H  798   4.436   3.987   5.051
    1C        H  799   4.236   4.127   5.031
    1C        H  800   4.018   4.509   5.034
    1C        H  801   3.815   4.592   5.035
    1C        H  802   3.590   4.669   5.018
    1C        H  803   3.397   4.481   5.043
    1C        H  804   3.167   4.439   5.045
    1C        H  805   3.886   2.503   5.072
    1C        H  806   3.672   2.445   5.076
    1C        H  807   2.996   2.548   5.060
    1C        H  808   3.438   2.489   5.073
    1C        H  809   2.905   2.765   5.074
    1C        H  810   2.702   2.896   5.076
    1C        H  811   2.541   3.294   5.076
    1C        H  812   2.545   3.502   5.073
    1C        H  813   2.541   3.736   5.069
    1C        H  814   2.603   4.167   5.043
    1C        H  815   2.761   4.310   5.053
    1C        H  816   2.718   2.878   1.969
    1C        H  817   2.824   2.674   1.974
    1C        H  818   3.214   2.445   1.983
    1C        H  819   3.430   2.448   1.977
    1C        H  820   3.842   2.526   1.968
    1C        H  821   4.053   2.632   1.967
    1C        H  822   4.268   2.702   1.980
    1C        H  823   4.381   2.917   1.965
    1C        H  824   4.563   3.304   1.960
    1C        H  825   4.560   3.525   1.962
    1C        H  826   4.482   3.748   1.956
    1C        H  827   3.809   4.518   1.950
    1C        H  828   3.926   4.325   1.964
    1C        H  829   4.176   4.301   1.950
    1C        H  830   4.497   3.965   1.966
    1C        H  831   2.616   3.845   1.958
    1C        H  832   2.777   4.019   1.999
    1C        H  833   2.705   4.302   1.981
    1C        H  834   3.361   4.495   1.942
    1C        H  835   3.161   4.364   1.963
    1C        H  836   2.540   3.015   1.975
    1C        H  837   2.410   3.210   1.988
    1C        H  838   2.520   3.673   1.965
    2V3OU   H29  839   2.792   3.547   5.716
    2V3OU   C27  840   2.776   3.501   5.817
    2V3OU   H27  841   2.721   3.570   5.886
    2V3OU   H28  842   2.731   3.400   5.805
    2V3OU   O11  843   2.902   3.469   5.877
    2V3OU   C15  844   2.919   3.392   5.991
    2V3OU   C13  845   3.048   3.378   6.046
    2V3OU   C14  846   3.072   3.270   6.132
    2V3OU   C16  847   2.968   3.188   6.174
    2V3OU    H6  848   2.993   3.098   6.232
    2V3OU   C12  849   3.211   3.233   6.169
    2V3OU    O2  850   3.233   3.131   6.237
    2V3OU   C10  851   3.323   3.310   6.112
    2V3OU    C8  852   3.454   3.270   6.130
    2V3OU   O10  853   3.487   3.146   6.177
    2V3OU   H26  854   3.398   3.111   6.190
    2V3OU    C6  855   3.565   3.345   6.078
    2V3OU    C5  856   3.536   3.464   6.012
    2V3OU    C4  857   3.702   3.287   6.079
    2V3OU    H4  858   3.721   3.222   6.169
    2V3OU    H5  859   3.710   3.225   5.986
    2V3OU    C2  860   3.811   3.394   6.071
    2V3OU    O6  861   3.805   3.473   6.191
    2V3OU   H21  862   3.759   3.553   6.160
    2V3OU    C3  863   3.779   3.492   5.958
    2V3OU    H2  864   3.859   3.570   5.951
    2V3OU    H3  865   3.773   3.442   5.858
    2V3OU   C25  866   3.948   3.328   6.057
    2V3OU    O7  867   4.003   3.288   5.954
    2V3OU   C26  868   4.027   3.288   6.180
    2V3OU   H22  869   4.065   3.383   6.227
    2V3OU   H23  870   4.118   3.230   6.152
    2V3OU    O8  871   3.963   3.208   6.276
    2V3OU   H24  872   3.921   3.262   6.345
    2V3OU    C1  873   3.646   3.562   5.982
    2V3OU    H1  874   3.621   3.623   5.890
    2V3OU    O3  875   3.657   3.655   6.089
    2V3OU   C19  876   3.614   3.789   6.063
    2V3OU    H9  877   3.517   3.795   6.005
    2V3OU    O4  878   3.715   3.848   5.986
    2V3OU   C20  879   3.847   3.872   6.036
    2V3OU   H10  880   3.901   3.776   6.058
    2V3OU   C24  881   3.608   3.850   6.204
    2V3OU   H16  882   3.549   3.784   6.272
    2V3OU   H17  883   3.563   3.953   6.202
    2V3OU   C23  884   3.747   3.872   6.262
    2V3OU   H15  885   3.790   3.768   6.283
    2V3OU    N1  886   3.739   3.956   6.380
    2V3OU   H19  887   3.808   3.914   6.438
    2V3OU   H20  888   3.651   3.935   6.423
    2V3OU   C21  889   3.849   3.947   6.170
    2V3OU   H11  890   3.947   3.923   6.221
    2V3OU    O5  891   3.828   4.087   6.178
    2V3OU   H18  892   3.781   4.093   6.263
    2V3OU   C22  893   3.911   3.949   5.922
    2V3OU   H12  894   3.865   4.051   5.914
    2V3OU   H13  895   3.905   3.891   5.827
    2V3OU   H14  896   4.022   3.952   5.936
    2V3OU   C11  897   3.158   3.471   6.020
    2V3OU    O1  898   3.131   3.585   5.976
    2V3OU    C9  899   3.299   3.431   6.042
    2V3OU    C7  900   3.402   3.505   5.985
    2V3OU    O9  901   3.384   3.616   5.904
    2V3OU   H25  902   3.288   3.624   5.907
    2V3OU   C17  903   2.815   3.310   6.039
    2V3OU    H7  904   2.710   3.337   6.028
    2V3OU   C18  905   2.837   3.210   6.133
    2V3OU    H8  906   2.755   3.145   6.165
    3SOL     OW  907   3.613   3.228   4.012
    3SOL    HW1  908   3.608   3.128   4.013
    3SOL    HW2  909   3.702   3.258   4.045
    4SOL     OW  910   6.566   6.148   1.023
    4SOL    HW1  911   6.649   6.203   1.022
    4SOL    HW2  912   6.584   6.061   1.068
    5SOL     OW  913   4.848   2.570   0.414
    5SOL    HW1  914   4.942   2.553   0.444
    5SOL    HW2  915   4.818   2.658   0.450
    6SOL     OW  916   4.537   1.450   2.031
    6SOL    HW1  917   4.541   1.478   2.127
    6SOL    HW2  918   4.617   1.395   2.008
    7SOL     OW  919   2.117   3.354   4.471
    7SOL    HW1  920   2.087   3.421   4.539
    7SOL    HW2  921   2.137   3.267   4.515
    8SOL     OW  922   1.120   1.820   5.050
    8SOL    HW1  923   1.112   1.774   5.138
    8SOL    HW2  924   1.076   1.910   5.055
    9SOL     OW  925   0.021   1.704   5.599
    9SOL    HW1  926   0.113   1.668   5.611
    9SOL    HW2  927   6.973   1.634   5.621
   10SOL     OW  928   5.264   4.652   1.805
   10SOL    HW1  929   5.243   4.689   1.714
   10SOL    HW2  930   5.244   4.720   1.875
   11SOL     OW  931   2.534   2.535   1.140
   11SOL    HW1  932   2.552   2.529   1.238
   11SOL    HW2  933   2.465   2.467   1.115
   12SOL     OW  934   4.894   5.055   2.135
   12SOL    HW1  935   4.832   5.129   2.162
   12SOL    HW2  936   4.873   4.973   2.188
   13SOL     OW  937   5.821   6.154   1.281
   13SOL    HW1  938   5.801   6.240   1.327
   13SOL    HW2  939   5.873   6.172   1.197
   14SOL     OW  940   4.505   6.730   6.897
   14SOL    HW1  941   4.460   6.711   6.810
   14SOL    HW2  942   4.550   6.819   6.893
   15SOL     OW  943   0.894   5.982   6.301
   15SOL    HW1  944   0.870   6.045   6.375
   15SOL    HW2  945   0.844   5.897   6.313
   16SOL     OW  946   2.283   5.358   5.026
   16SOL    HW1  947   2.297   5.379   4.929
   16SOL    HW2  948   2.317   5.265   5.045
   17SOL     OW  949   6.790   0.926   4.973
   17SOL    HW1  950   6.713   0.881   4.927
   17SOL    HW2  951   6.759   0.962   5.061
   18SOL     OW  952   2.747   1.082   5.820
   18SOL    HW1  953   2.711   1.176   5.818
   18SOL    HW2  954   2.821   1.074   5.754
   19SOL     OW  955   3.183   6.325   2.430
   19SOL    HW1  956   3.173   6.421   2.403
   19SOL    HW2  957   3.203   6.270   2.349
   20SOL     OW  958   6.786   2.017   5.573
   20SOL    HW1  959   6.784   2.057   5.482
   20SOL    HW2  960   6.829   1.927   5.569
   21SOL     OW  961   2.115   3.801   2.378
   21SOL    HW1  962   2.065   3.724   2.418
   21SOL    HW2  963   2.110   3.795   2.278
   22SOL     OW  964   0.746   1.127   0.286
   22SOL    HW1  965   0.840   1.106   0.261
   22SOL    HW2  966   0.684   1.089   0.218
   23SOL     OW  967   6.253   4.986   0.504
   23SOL    HW1  968   6.314   4.990   0.583
   23SOL    HW2  969   6.267   4.899   0.456
   24SOL     OW  970   5.260   1.571   0.158
   24SOL    HW1  971   5.207   1.647   0.195
   24SOL    HW2  972   5.206   1.523   0.088
   25SOL     OW  973   1.550   0.833   4.148
   25SOL    HW1  974   1.503   0.919   4.129
   25SOL    HW2  975   1.484   0.763   4.173
   26SOL     OW  976   1.605   1.865   5.908
   26SOL    HW1  977   1.686   1.903   5.953
   26SOL    HW2  978   1.634   1.798   5.839
   27SOL     OW  979   0.927   0.022   2.675
   27SOL    HW1  980   0.840   0.041   2.720
   27SOL    HW2  981   0.997   0.005   2.745
   28SOL     OW  982   1.673   0.630   6.042
   28SOL    HW1  983   1.656   0.644   6.140
   28SOL    HW2  984   1.682   0.719   5.997
   29SOL     OW  985   5.840   0.337   1.292
   29SOL    HW1  986   5.793   0.273   1.353
   29SOL    HW2  987   5.848   0.297   1.201
   30SOL     OW  988   4.860   0.415   5.254
   30SOL    HW1  989   4.806   0.369   5.325
   30SOL    HW2  990   4.897   0.348   5.191
   31SOL     OW  991   0.038   4.790   4.175
   31SOL    HW1  992   7.002   4.825   4.251
   31SOL    HW2  993   0.061   4.694   4.193
   32SOL     OW  994   2.817   0.697   0.709
   32SOL    HW1  995   2.726   0.685   0.670
   32SOL    HW2  996   2.812   0.763   0.784
   33SOL     OW  997   2.108   5.123   5.467
   33SOL    HW1  998   2.084   5.139   5.562
   33SOL    HW2  999   2.161   5.201   5.432
   34SOL     OW 1000   2.414   5.695   5.610
   34SOL    HW1 1001   2.444   5.790   5.603
   34SOL    HW2 1002   2.320   5.692   5.643
   35SOL     OW 1003   0.931   3.327   5.639
   35SOL    HW1 1004   0.895   3.400   5.697
   35SOL    HW2 1005   1.030   3.336   5.632
   36SOL     OW 1006   5.980   0.782   3.585
   36SOL    HW1 1007   5.986   0.801   3.683
   36SOL    HW2 1008   6.065   0.739   3.554
   37SOL     OW 1009   2.369   6.068   4.319
   37SOL    HW1 1010   2.444   6.012   4.354
   37SOL    HW2 1011   2.291   6.009   4.298
   38SOL     OW 1012   1.490   4.332   2.620
   38SOL    HW1 1013   1.443   4.410   2.660
   38SOL    HW2 1014   1.588   4.349   2.618
   39SOL     OW 1015   6.721   4.927   1.206
   39SOL    HW1 1016   6.733   4.948   1.109
   39SOL    HW2 1017   6.808   4.936   1.254
   40SOL     OW 1018   4.222   1.381   0.436
   40SOL    HW1 1019   4.132   1.421   0.420
   40SOL    HW2 1020   4.212   1.290   0.475
   41SOL     OW 1021   5.143   3.769   1.877
   41SOL    HW1 1022   5.129   3.726   1.966
   41SOL    HW2 1023   5.126   3.702   1.805
   42SOL     OW 1024   2.785   4.703   6.521
   42SOL    HW1 1025   2.743   4.781   6.474
   42SOL    HW2 1026   2.866   4.673   6.469
   43SOL     OW 1027   5.689   6.938   4.640
   43SOL    HW1 1028   5.613   6.894   4.592
   43SOL    HW2 1029   5.776   6.906   4.601
   44SOL     OW 1030   0.023   1.133   6.362
   44SOL    HW1 1031   6.974   1.061   6.376
   44SOL    HW2 1032   0.062   1.159   6.450
   45SOL     OW 1033   2.007   4.820   5.948
   45SOL    HW1 1034   2.104   4.840   5.937
   45SOL    HW2 1035   1.995   4.724   5.973
   46SOL     OW 1036   1.522   4.324   4.774
   46SOL    HW1 1037   1.430   4.358   4.796
   46SOL    HW2 1038   1.552   4.261   4.845
   47SOL     OW 1039   5.960   3.611   0.324
   47SOL    HW1 1040   5.996   3.648   0.410
   47SOL    HW2 1041   5.879   3.662   0.297
   48SOL     OW 1042   6.656   4.105   0.667
   48SOL    HW1 1043   6.600   4.140   0.592
   48SOL    HW2 1044   6.749   4.089   0.634
   49SOL     OW 1045   3.050   2.811   6.292
   49SOL    HW1 1046   3.025   2.714   6.289
   49SOL    HW2 1047   3.149   2.819   6.299
   50SOL     OW 1048   5.018   2.237   6.842
   50SOL    HW1 1049   4.985   2.215   6.934
   50SOL    HW2 1050   5.026   2.153   6.789
   51SOL     OW 1051   1.067   6.203   1.982
   51SOL    HW1 1052   1.167   6.199   1.983
   51SOL    HW2 1053   1.037   6.295   1.958
   52SOL     OW 1054   5.734   2.261   2.131
   52SOL    HW1 1055   5.699   2.246   2.223
   52SOL    HW2 1056   5.670   2.225   2.064
   53SOL     OW 1057   3.589   0.809   1.058
   53SOL    HW1 1058   3.666   0.819   0.996
   53SOL    HW2 1059   3.505   0.838   1.012
   54SOL     OW 1060   6.418   0.370   6.271
   54SOL    HW1 1061   6.489   0.300   6.270
   54SOL    HW2 1062   6.432   0.432   6.193
   55SOL     OW 1063   1.635   3.710   6.250
   55SOL    HW1 1064   1.635   3.743   6.344
   55SOL    HW2 1065   1.689   3.626   6.244
   56SOL     OW 1066   0.833   2.404   6.421
   56SOL    HW1 1067   0.922   2.419   6.462
   56SOL    HW2 1068   0.775   2.352   6.484
   57SOL     OW 1069   4.141   6.286   0.485
   57SOL    HW1 1070   4.232   6.325   0.470
   57SOL    HW2 1071   4.149   6.188   0.503
   58SOL     OW 1072   1.526   1.069   6.805
   58SOL    HW1 1073   1.440   1.062   6.754
   58SOL    HW2 1074   1.591   1.125   6.753
   59SOL     OW 1075   4.197   2.771   6.081
   59SOL    HW1 1076   4.115   2.809   6.124
   59SOL    HW2 1077   4.228   2.692   6.133
   60SOL     OW 1078   6.467   2.991   2.525
   60SOL    HW1 1079   6.426   3.078   2.498
   60SOL    HW2 1080   6.557   3.007   2.565
   61SOL     OW 1081   1.170   5.866   3.121
   61SOL    HW1 1082   1.244   5.911   3.071
   61SOL    HW2 1083   1.114   5.812   3.057
   62SOL     OW 1084   6.136   2.395   3.064
   62SOL    HW1 1085   6.092   2.390   3.153
   62SOL    HW2 1086   6.087   2.336   2.999
   63SOL     OW 1087   3.805   6.720   5.878
   63SOL    HW1 1088   3.775   6.798   5.823
   63SOL    HW2 1089   3.786   6.635   5.828
   64SOL     OW 1090   1.268   1.806   5.787
   64SOL    HW1 1091   1.230   1.714   5.782
   64SOL    HW2 1092   1.286   1.830   5.882
   65SOL     OW 1093   0.815   5.117   4.603
   65SOL    HW1 1094   0.722   5.152   4.607
   65SOL    HW2 1095   0.818   5.024   4.640
   66SOL     OW 1096   4.457   1.732   1.578
   66SOL    HW1 1097   4.380   1.672   1.599
   66SOL    HW2 1098   4.446   1.770   1.486
   67SOL     OW 1099   7.019   3.692   1.495
   67SOL    HW1 1100   6.959   3.667   1.418
   67SOL    HW2 1101   7.006   3.626   1.569
   68SOL     OW 1102   0.245   1.181   6.825
   68SOL    HW1 1103   0.253   1.090   6.867
   68SOL    HW2 1104   0.310   1.243   6.868
   69SOL     OW 1105   1.516   5.680   6.803
   69SOL    HW1 1106   1.553   5.773   6.799
   69SOL    HW2 1107   1.587   5.615   6.777
   70SOL     OW 1108   4.487   4.873   3.669
   70SOL    HW1 1109   4.484   4.973   3.663
   70SOL    HW2 1110   4.557   4.839   3.606
   71SOL     OW 1111   4.926   1.391   5.279
   71SOL    HW1 1112   4.912   1.313   5.218
   71SOL    HW2 1113   5.016   1.385   5.321
   72SOL     OW 1114   6.886   0.552   2.891
   72SOL    HW1 1115   6.874   0.558   2.791
   72SOL    HW2 1116   6.917   0.641   2.926
   73SOL     OW 1117   2.572   0.929   1.397
   73SOL    HW1 1118   2.562   0.872   1.478
   73SOL    HW2 1119   2.570   1.026   1.424
   74SOL     OW 1120   2.937   1.878   0.116
   74SOL    HW1 1121   2.937   1.834   0.206
   74SOL    HW2 1122   2.963   1.811   0.046
   75SOL     OW 1123   2.297   3.118   0.345
   75SOL    HW1 1124   2.374   3.146   0.402
   75SOL    HW2 1125   2.316   3.141   0.250
   76SOL     OW 1126   3.972   4.761   5.830
   76SOL    HW1 1127   3.902   4.699   5.795
   76SOL    HW2 1128   3.929   4.836   5.880
   77SOL     OW 1129   0.963   5.698   4.722
   77SOL    HW1 1130   1.017   5.686   4.639
   77SOL    HW2 1131   1.000   5.773   4.776
   78SOL     OW 1132   5.064   1.912   1.463
   78SOL    HW1 1133   5.063   1.840   1.533
   78SOL    HW2 1134   5.118   1.989   1.495
   79SOL     OW 1135   1.483   4.265   4.008
   79SOL    HW1 1136   1.484   4.188   4.071
   79SOL    HW2 1137   1.572   4.272   3.962
   80SOL     OW 1138   3.526   2.116   5.146
   80SOL    HW1 1139   3.448   2.071   5.103
   80SOL    HW2 1140   3.598   2.130   5.078
   81SOL     OW 1141   3.208   5.108   2.436
   81SOL    HW1 1142   3.178   5.086   2.344
   81SOL    HW2 1143   3.167   5.194   2.465
   82SOL     OW 1144   3.053   0.218   2.112
   82SOL    HW1 1145   3.019   0.222   2.018
   82SOL    HW2 1146   3.123   0.289   2.125
   83SOL     OW 1147   5.470   1.211   4.351
   83SOL    HW1 1148   5.397   1.269   4.388
   83SOL    HW2 1149   5.432   1.149   4.283
   84SOL     OW 1150   5.890   2.997   3.017
   84SOL    HW1 1151   5.989   2.998   3.007
   84SOL    HW2 1152   5.863   3.064   3.086
   85SOL     OW 1153   2.411   5.924   3.123
   85SOL    HW1 1154   2.502   5.965   3.114
   85SOL    HW2 1155   2.388   5.875   3.039
   86SOL     OW 1156   5.015   0.504   0.976
   86SOL    HW1 1157   5.098   0.491   1.029
   86SOL    HW2 1158   4.938   0.520   1.038
   87SOL     OW 1159   2.859   3.268   6.502
   87SOL    HW1 1160   2.778   3.216   6.474
   87SOL    HW2 1161   2.830   3.351   6.550
   88SOL     OW 1162   2.132   3.024   1.362
   88SOL    HW1 1163   2.224   2.998   1.333
   88SOL    HW2 1164   2.110   3.115   1.327
   89SOL     OW 1165   3.256   3.397   5.034
   89SOL    HW1 1166   3.340   3.405   4.979
   89SOL    HW2 1167   3.219   3.488   5.051
   90SOL     OW 1168   6.131   4.131   2.442
   90SOL    HW1 1169   6.157   4.199   2.510
   90SOL    HW2 1170   6.108   4.177   2.356
   91SOL     OW 1171   4.556   5.921   0.390
   91SOL    HW1 1172   4.654   5.933   0.370
   91SOL    HW2 1173   4.537   5.825   0.409
   92SOL     OW 1174   5.913   4.976   7.006
   92SOL    HW1 1175   5.941   5.069   6.981
   92SOL    HW2 1176   5.966   4.945   0.065
   93SOL     OW 1177   2.893   3.893   1.630
   93SOL    HW1 1178   2.949   3.814   1.606
   93SOL    HW2 1179   2.807   3.862   1.670
   94SOL     OW 1180   3.428   1.689   4.178
   94SOL    HW1 1181   3.445   1.734   4.090
   94SOL    HW2 1182   3.354   1.736   4.226
   95SOL     OW 1183   0.752   6.803   4.330
   95SOL    HW1 1184   0.720   6.887   4.285
   95SOL    HW2 1185   0.842   6.819   4.370
   96SOL     OW 1186   0.319   5.327   6.733
   96SOL    HW1 1187   0.245   5.331   6.801
   96SOL    HW2 1188   0.407   5.329   6.780
   97SOL     OW 1189   3.142   4.329   5.532
   97SOL    HW1 1190   3.086   4.284   5.463
   97SOL    HW2 1191   3.087   4.395   5.583
   98SOL     OW 1192   0.331   2.011   4.875
   98SOL    HW1 1193   0.403   1.942   4.879
   98SOL    HW2 1194   0.244   1.967   4.852
   99SOL     OW 1195   4.141   4.320   5.311
   99SOL    HW1 1196   4.193   4.389   5.260
   99SOL    HW2 1197   4.098   4.257   5.247
  100SOL     OW 1198   1.009   0.798   5.303
  100SOL    HW1 1199   1.036   0.708   5.266
  100SOL    HW2 1200   0.928   0.787   5.360
  101SOL     OW 1201   5.141   3.447   2.646
  101SOL    HW1 1202   5.043   3.435   2.632
  101SOL    HW2 1203   5.191   3.402   2.571
  102SOL     OW 1204   3.602   0.478   6.952
  102SOL    HW1 1205   3.646   0.533   0.003
  102SOL    HW2 1206   3.503   0.480   6.966
  103SOL     OW 1207   1.104   1.304   1.754
  103SOL    HW1 1208   1.032   1.258   1.806
  103SOL    HW2 1209   1.152   1.237   1.697
  104SOL     OW 1210   6.165   4.528   2.158
  104SOL    HW1 1211   6.214   4.560   2.077
  104SOL    HW2 1212   6.076   4.572   2.162
  105SOL     OW 1213   0.417   0.254   4.783
  105SOL    HW1 1214   0.435   0.327   4.849
  105SOL    HW2 1215   0.323   0.260   4.750
  106SOL     OW 1216   4.485   3.100   1.691
  106SOL    HW1 1217   4.529   3.062   1.610
  106SOL    HW2 1218   4.546   3.087   1.770
  107SOL     OW 1219   5.159   6.920   1.262
  107SOL    HW1 1220   5.232   6.962   1.316
  107SOL    HW2 1221   5.073   6.969   1.278
  108SOL     OW 1222   3.623   1.853   4.865
  108SOL    HW1 1223   3.625   1.764   4.910
  108SOL    HW2 1224   3.654   1.923   4.929
  109SOL     OW 1225   1.945   1.018   5.639
  109SOL    HW1 1226   1.849   1.041   5.623
  109SOL    HW2 1227   1.963   0.926   5.605
  110SOL     OW 1228   4.050   4.213   5.722
  110SOL    HW1 1229   3.957   4.226   5.756
  110SOL    HW2 1230   4.108   4.179   5.795
  111SOL     OW 1231   5.784   3.369   1.215
  111SOL    HW1 1232   5.868   3.422   1.209
  111SOL    HW2 1233   5.749   3.372   1.309
  112SOL     OW 1234   4.708   6.742   5.319
  112SOL    HW1 1235   4.718   6.642   5.316
  112SOL    HW2 1236   4.784   6.785   5.270
  113SOL     OW 1237   0.413   4.654   2.890
  113SOL    HW1 1238   0.427   4.555   2.880
  113SOL    HW2 1239   0.362   4.672   2.974
  114SOL     OW 1240   0.056   2.200   1.851
  114SOL    HW1 1241   0.013   2.122   1.805
  114SOL    HW2 1242   0.151   2.208   1.822
  115SOL     OW 1243   4.341   0.392   2.565
  115SOL    HW1 1244   4.293   0.401   2.653
  115SOL    HW2 1245   4.436   0.368   2.581
  116SOL     OW 1246   6.688   5.339   1.191
  116SOL    HW1 1247   6.774   5.289   1.179
  116SOL    HW2 1248   6.636   5.298   1.266
  117SOL     OW 1249   3.190   2.350   0.123
  117SOL    HW1 1250   3.239   2.263   0.133
  117SOL    HW2 1251   3.115   2.355   0.189
  118SOL     OW 1252   6.865   1.931   2.168
  118SOL    HW1 1253   6.810   1.968   2.243
  118SOL    HW2 1254   6.936   1.996   2.142
  119SOL     OW 1255   6.363   6.817   5.405
  119SOL    HW1 1256   6.374   6.717   5.412
  119SOL    HW2 1257   6.318   6.839   5.318
  120SOL     OW 1258   4.551   1.180   4.541
  120SOL    HW1 1259   4.612   1.108   4.507
  120SOL    HW2 1260   4.564   1.190   4.640
  121SOL     OW 1261   0.394   5.525   6.525
  121SOL    HW1 1262   0.356   5.510   6.434
  121SOL    HW2 1263   0.360   5.454   6.588
  122SOL     OW 1264   6.573   4.960   6.067
  122SOL    HW1 1265   6.510   5.007   6.006
  122SOL    HW2 1266   6.645   4.916   6.014
  123SOL     OW 1267   0.425   2.492   2.024
  123SOL    HW1 1268   0.365   2.518   1.949
  123SOL    HW2 1269   0.389   2.528   2.110
  124SOL     OW 1270   1.298   3.746   0.762
  124SOL    HW1 1271   1.287   3.817   0.833
  124SOL    HW2 1272   1.277   3.657   0.801
  125SOL     OW 1273   4.315   2.404   0.785
  125SOL    HW1 1274   4.303   2.485   0.727
  125SOL    HW2 1275   4.280   2.324   0.737
  126SOL     OW 1276   3.719   3.032   4.270
  126SOL    HW1 1277   3.672   3.018   4.183
  126SOL    HW2 1278   3.816   3.045   4.254
  127SOL     OW 1279   0.230   4.878   5.717
  127SOL    HW1 1280   0.311   4.826   5.745
  127SOL    HW2 1281   0.256   4.947   5.649
  128SOL     OW 1282   4.450   3.768   5.967
  128SOL    HW1 1283   4.404   3.815   6.042
  128SOL    HW2 1284   4.436   3.819   5.882
  129SOL     OW 1285   0.592   5.510   2.497
  129SOL    HW1 1286   0.547   5.554   2.575
  129SOL    HW2 1287   0.678   5.468   2.527
  130SOL     OW 1288   6.214   3.309   4.497
  130SOL    HW1 1289   6.181   3.247   4.569
  130SOL    HW2 1290   6.235   3.255   4.415
  131SOL     OW 1291   0.428   3.326   3.456
  131SOL    HW1 1292   0.502   3.325   3.389
  131SOL    HW2 1293   0.367   3.249   3.439
  132SOL     OW 1294   4.622   2.364   1.133
  132SOL    HW1 1295   4.701   2.325   1.180
  132SOL    HW2 1296   4.611   2.460   1.159
  133SOL     OW 1297   4.373   4.869   6.147
  133SOL    HW1 1298   4.296   4.915   6.102
  133SOL    HW2 1299   4.445   4.850   6.080
  134SOL     OW 1300   5.736   2.097   1.082
  134SOL    HW1 1301   5.675   2.068   1.155
  134SOL    HW2 1302   5.827   2.059   1.098
  135SOL     OW 1303   4.625   4.741   3.918
  135SOL    HW1 1304   4.630   4.826   3.865
  135SOL    HW2 1305   4.689   4.745   3.995
  136SOL     OW 1306   3.740   6.921   6.074
  136SOL    HW1 1307   3.827   6.970   6.078
  136SOL    HW2 1308   3.749   6.842   6.014
  137SOL     OW 1309   2.366   4.153   6.169
  137SOL    HW1 1310   2.345   4.082   6.236
  137SOL    HW2 1311   2.293   4.221   6.168
  138SOL     OW 1312   0.847   5.575   6.642
  138SOL    HW1 1313   0.781   5.542   6.574
  138SOL    HW2 1314   0.880   5.498   6.697
  139SOL     OW 1315   0.511   0.196   1.549
  139SOL    HW1 1316   0.513   0.284   1.595
  139SOL    HW2 1317   0.417   0.172   1.525
  140SOL     OW 1318   4.044   1.104   1.472
  140SOL    HW1 1319   4.109   1.045   1.427
  140SOL    HW2 1320   4.092   1.167   1.533
  141SOL     OW 1321   0.384   1.914   6.980
  141SOL    HW1 1322   0.397   1.860   0.043
  141SOL    HW2 1323   0.453   1.887   6.912
  142SOL     OW 1324   2.124   4.134   0.592
  142SOL    HW1 1325   2.166   4.100   0.676
  142SOL    HW2 1326   2.026   4.148   0.607
  143SOL     OW 1327   4.955   5.991   1.614
  143SOL    HW1 1328   4.956   5.892   1.630
  143SOL    HW2 1329   4.938   6.038   1.700
  144SOL     OW 1330   3.660   5.333   2.986
  144SOL    HW1 1331   3.689   5.421   2.946
  144SOL    HW2 1332   3.732   5.265   2.970
  145SOL     OW 1333   7.007   5.334   4.030
  145SOL    HW1 1334   6.920   5.338   3.980
  145SOL    HW2 1335   0.060   5.301   3.970
  146SOL     OW 1336   6.608   0.621   6.181
  146SOL    HW1 1337   6.707   0.605   6.190
  146SOL    HW2 1338   6.593   0.710   6.138
  147SOL     OW 1339   6.142   1.493   5.479
  147SOL    HW1 1340   6.115   1.575   5.427
  147SOL    HW2 1341   6.211   1.518   5.547
  148SOL     OW 1342   2.151   6.422   1.956
  148SOL    HW1 1343   2.138   6.465   1.867
  148SOL    HW2 1344   2.230   6.462   2.002
  149SOL     OW 1345   1.523   3.182   5.058
  149SOL    HW1 1346   1.489   3.247   5.126
  149SOL    HW2 1347   1.575   3.110   5.104
  150SOL     OW 1348   4.080   1.805   5.542
  150SOL    HW1 1349   4.118   1.761   5.623
  150SOL    HW2 1350   4.087   1.905   5.551
  151SOL     OW 1351   6.278   2.897   1.148
  151SOL    HW1 1352   6.346   2.930   1.214
  151SOL    HW2 1353   6.243   2.974   1.095
  152SOL     OW 1354   0.339   2.718   1.187
  152SOL    HW1 1355   0.384   2.802   1.216
  152SOL    HW2 1356   0.252   2.708   1.235
  153SOL     OW 1357   2.072   1.840   3.674
  153SOL    HW1 1358   2.093   1.928   3.632
  153SOL    HW2 1359   2.130   1.769   3.633
  154SOL     OW 1360   6.769   1.682   3.009
  154SOL    HW1 1361   6.852   1.665   3.063
  154SOL    HW2 1362   6.789   1.748   2.936
  155SOL     OW 1363   6.230   4.347   3.936
  155SOL    HW1 1364   6.151   4.383   3.986
  155SOL    HW2 1365   6.314   4.380   3.979
  156SOL     OW 1366   5.140   1.696   0.806
  156SOL    HW1 1367   5.210   1.625   0.807
  156SOL    HW2 1368   5.069   1.672   0.740
  157SOL     OW 1369   4.993   0.292   1.301
  157SOL    HW1 1370   5.053   0.371   1.313
  157SOL    HW2 1371   4.898   0.323   1.303
  158SOL     OW 1372   0.530   2.971   4.623
  158SOL    HW1 1373   0.432   2.969   4.601
  158SOL    HW2 1374   0.549   2.901   4.693
  159SOL     OW 1375   6.065   5.251   0.287
  159SOL    HW1 1376   6.008   5.330   0.266
  159SOL    HW2 1377   6.127   5.273   0.363
  160SOL     OW 1378   5.143   0.980   0.761
  160SOL    HW1 1379   5.134   1.066   0.711
  160SOL    HW2 1380   5.096   0.988   0.849
  161SOL     OW 1381   6.705   6.185   0.739
  161SOL    HW1 1382   6.656   6.110   0.695
  161SOL    HW2 1383   6.707   6.171   0.838
  162SOL     OW 1384   4.365   6.868   5.852
  162SOL    HW1 1385   4.376   6.781   5.900
  162SOL    HW2 1386   4.269   6.897   5.856
  163SOL     OW 1387   0.549   3.086   2.811
  163SOL    HW1 1388   0.615   3.035   2.865
  163SOL    HW2 1389   0.593   3.120   2.727
  164SOL     OW 1390   2.109   2.342   2.895
  164SOL    HW1 1391   2.013   2.327   2.871
  164SOL    HW2 1392   2.120   2.434   2.931
  165SOL     OW 1393   0.275   6.900   3.723
  165SOL    HW1 1394   0.263   6.911   3.624
  165SOL    HW2 1395   0.189   6.873   3.764
  166SOL     OW 1396   0.147   4.561   4.286
  166SOL    HW1 1397   0.110   4.491   4.225
  166SOL    HW2 1398   0.174   4.518   4.373
  167SOL     OW 1399   1.588   0.989   4.625
  167SOL    HW1 1400   1.684   0.963   4.615
  167SOL    HW2 1401   1.580   1.088   4.615
  168SOL     OW 1402   3.356   3.806   2.551
  168SOL    HW1 1403   3.324   3.886   2.499
  168SOL    HW2 1404   3.430   3.762   2.500
  169SOL     OW 1405   5.401   2.540   0.402
  169SOL    HW1 1406   5.310   2.515   0.433
  169SOL    HW2 1407   5.452   2.457   0.379
  170SOL     OW 1408   6.356   5.263   1.511
  170SOL    HW1 1409   6.448   5.295   1.486
  170SOL    HW2 1410   6.364   5.178   1.564
  171SOL     OW 1411   3.394   3.104   1.200
  171SOL    HW1 1412   3.428   3.033   1.138
  171SOL    HW2 1413   3.396   3.069   1.294
  172SOL     OW 1414   1.347   0.945   6.622
  172SOL    HW1 1415   1.336   0.988   6.532
  172SOL    HW2 1416   1.336   0.846   6.613
  173SOL     OW 1417   5.504   1.438   4.626
  173SOL    HW1 1418   5.461   1.351   4.649
  173SOL    HW2 1419   5.441   1.493   4.570
  174SOL     OW 1420   5.560   4.043   4.295
  174SOL    HW1 1421   5.629   4.068   4.227
  174SOL    HW2 1422   5.511   4.124   4.326
  175SOL     OW 1423   0.635   6.439   2.646
  175SOL    HW1 1424   0.646   6.522   2.591
  175SOL    HW2 1425   0.537   6.421   2.661
  176SOL     OW 1426   6.574   4.033   1.573
  176SOL    HW1 1427   6.555   4.069   1.482
  176SOL    HW2 1428   6.488   4.019   1.622
  177SOL     OW 1429   6.478   1.888   3.832
  177SOL    HW1 1430   6.501   1.868   3.927
  177SOL    HW2 1431   6.530   1.968   3.801
  178SOL     OW 1432   2.375   5.388   4.128
  178SOL    HW1 1433   2.442   5.315   4.142
  178SOL    HW2 1434   2.294   5.351   4.082
  179SOL     OW 1435   3.509   4.182   1.524
  179SOL    HW1 1436   3.541   4.109   1.584
  179SOL    HW2 1437   3.409   4.178   1.516
  180SOL     OW 1438   4.603   1.140   6.448
  180SOL    HW1 1439   4.617   1.073   6.522
  180SOL    HW2 1440   4.506   1.162   6.441
  181SOL     OW 1441   3.396   1.235   6.300
  181SOL    HW1 1442   3.354   1.324   6.282
  181SOL    HW2 1443   3.373   1.171   6.227
  182SOL     OW 1444   2.765   3.177   5.580
  182SOL    HW1 1445   2.676   3.207   5.614
  182SOL    HW2 1446   2.754   3.132   5.492
  183SOL     OW 1447   3.117   0.423   2.908
  183SOL    HW1 1448   3.125   0.370   2.824
  183SOL    HW2 1449   3.072   0.510   2.889
  184SOL     OW 1450   5.408   5.708   3.272
  184SOL    HW1 1451   5.482   5.765   3.308
  184SOL    HW2 1452   5.445   5.623   3.235
  185SOL     OW 1453   0.441   6.891   5.033
  185SOL    HW1 1454   0.535   6.857   5.040
  185SOL    HW2 1455   0.386   6.853   5.107
  186SOL     OW 1456   3.321   5.954   5.322
  186SOL    HW1 1457   3.351   6.043   5.357
  186SOL    HW2 1458   3.401   5.895   5.311
  187SOL     OW 1459   4.251   5.749   0.944
  187SOL    HW1 1460   4.321   5.694   0.899
  187SOL    HW2 1461   4.161   5.728   0.905
  188SOL     OW 1462   1.202   3.466   3.120
  188SOL    HW1 1463   1.167   3.559   3.109
  188SOL    HW2 1464   1.290   3.469   3.168
  189SOL     OW 1465   5.700   4.522   5.570
  189SOL    HW1 1466   5.752   4.545   5.488
  189SOL    HW2 1467   5.762   4.513   5.648
  190SOL     OW 1468   6.469   6.593   0.528
  190SOL    HW1 1469   6.514   6.680   0.549
  190SOL    HW2 1470   6.383   6.587   0.580
  191SOL     OW 1471   2.038   2.197   4.932
  191SOL    HW1 1472   2.094   2.278   4.913
  191SOL    HW2 1473   2.028   2.144   4.847
  192SOL     OW 1474   6.783   5.976   1.606
  192SOL    HW1 1475   6.788   5.997   1.704
  192SOL    HW2 1476   6.872   5.944   1.574
  193SOL     OW 1477   2.406   0.360   1.550
  193SOL    HW1 1478   2.415   0.428   1.622
  193SOL    HW2 1479   2.417   0.268   1.589
  194SOL     OW 1480   3.896   6.126   2.910
  194SOL    HW1 1481   3.897   6.200   2.978
  194SOL    HW2 1482   3.884   6.166   2.819
  195SOL     OW 1483   3.391   0.083   0.808
  195SOL    HW1 1484   3.370   0.127   0.721
  195SOL    HW2 1485   3.474   0.122   0.847
  196SOL     OW 1486   3.858   2.779   1.013
  196SOL    HW1 1487   3.885   2.832   0.933
  196SOL    HW2 1488   3.771   2.732   0.995
  197SOL     OW 1489   2.037   6.061   0.016
  197SOL    HW1 1490   1.941   6.086   0.027
  197SOL    HW2 1491   2.092   6.144   0.008
  198SOL     OW 1492   4.382   6.959   6.666
  198SOL    HW1 1493   4.405   7.006   6.580
  198SOL    HW2 1494   4.369   6.862   6.648
  199SOL     OW 1495   1.212   0.672   2.871
  199SOL    HW1 1496   1.225   0.699   2.776
  199SOL    HW2 1497   1.128   0.712   2.906
  200SOL     OW 1498   1.283   3.420   3.586
  200SOL    HW1 1499   1.231   3.504   3.572
  200SOL    HW2 1500   1.319   3.389   3.498
  201SOL     OW 1501   4.431   1.568   6.151
  201SOL    HW1 1502   4.467   1.478   6.176
  201SOL    HW2 1503   4.434   1.579   6.052
  202SOL     OW 1504   3.928   0.777   2.424
  202SOL    HW1 1505   3.928   0.848   2.495
  202SOL    HW2 1506   3.888   0.815   2.340
  203SOL     OW 1507   6.006   2.984   0.222
  203SOL    HW1 1508   6.082   2.979   0.287
  203SOL    HW2 1509   6.029   3.048   0.149
  204SOL     OW 1510   2.025   6.943   1.050
  204SOL    HW1 1511   2.085   6.958   0.971
  204SOL    HW2 1512   1.929   6.944   1.020
  205SOL     OW 1513   6.112   0.368   1.433
  205SOL    HW1 1514   6.087   0.408   1.521
  205SOL    HW2 1515   6.044   0.392   1.364
  206SOL     OW 1516   6.911   6.245   1.496
  206SOL    HW1 1517   6.853   6.274   1.572
  206SOL    HW2 1518   6.985   6.187   1.530
  207SOL     OW 1519   5.405   1.694   5.513
  207SOL    HW1 1520   5.471   1.654   5.449
  207SOL    HW2 1521   5.389   1.790   5.489
  208SOL     OW 1522   3.953   4.309   6.641
  208SOL    HW1 1523   3.930   4.309   6.738
  208SOL    HW2 1524   4.025   4.377   6.623
  209SOL     OW 1525   6.978   5.477   4.261
  209SOL    HW1 1526   0.044   5.453   4.308
  209SOL    HW2 1527   6.981   5.442   4.168
  210SOL     OW 1528   4.116   1.877   0.579
  210SOL    HW1 1529   4.126   1.897   0.677
  210SOL    HW2 1530   4.133   1.779   0.563
  211SOL     OW 1531   0.935   2.871   1.726
  211SOL    HW1 1532   0.964   2.904   1.637
  211SOL    HW2 1533   1.014   2.833   1.775
  212SOL     OW 1534   0.103   5.183   4.500
  212SOL    HW1 1535   0.119   5.280   4.485
  212SOL    HW2 1536   0.049   5.146   4.424
  213SOL     OW 1537   3.584   2.069   6.509
  213SOL    HW1 1538   3.609   2.038   6.600
  213SOL    HW2 1539   3.485   2.083   6.504
  214SOL     OW 1540   1.836   6.830   3.459
  214SOL    HW1 1541   1.928   6.829   3.498
  214SOL    HW2 1542   1.771   6.864   3.527
  215SOL     OW 1543   3.857   3.881   2.816
  215SOL    HW1 1544   3.797   3.955   2.787
  215SOL    HW2 1545   3.900   3.906   2.903
  216SOL     OW 1546   2.152   6.941   5.939
  216SOL    HW1 1547   2.156   0.016   5.971
  216SOL    HW2 1548   2.224   6.925   5.873
  217SOL     OW 1549   6.843   2.621   4.781
  217SOL    HW1 1550   6.886   2.632   4.870
  217SOL    HW2 1551   6.763   2.681   4.775
  218SOL     OW 1552   2.113   3.812   5.428
  218SOL    HW1 1553   2.082   3.893   5.478
  218SOL    HW2 1554   2.075   3.730   5.470
  219SOL     OW 1555   3.340   5.490   6.880
  219SOL    HW1 1556   3.259   5.472   6.824
  219SOL    HW2 1557   3.316   5.553   6.955
  220SOL     OW 1558   1.464   4.554   0.709
  220SOL    HW1 1559   1.477   4.457   0.688
  220SOL    HW2 1560   1.509   4.610   0.639
  221SOL     OW 1561   5.996   2.867   4.181
  221SOL    HW1 1562   5.927   2.797   4.159
  221SOL    HW2 1563   5.961   2.957   4.154
  222SOL     OW 1564   1.378   6.247   4.435
  222SOL    HW1 1565   1.332   6.203   4.358
  222SOL    HW2 1566   1.467   6.203   4.450
  223SOL     OW 1567   6.109   4.853   2.756
  223SOL    HW1 1568   6.187   4.826   2.700
  223SOL    HW2 1569   6.121   4.819   2.849
  224SOL     OW 1570   4.083   2.148   2.279
  224SOL    HW1 1571   4.090   2.051   2.255
  224SOL    HW2 1572   4.130   2.203   2.210
  225SOL     OW 1573   5.951   6.878   1.480
  225SOL    HW1 1574   5.999   6.962   1.452
  225SOL    HW2 1575   6.011   6.800   1.468
  226SOL     OW 1576   6.883   5.668   2.013
  226SOL    HW1 1577   6.795   5.662   2.061
  226SOL    HW2 1578   6.957   5.651   2.078
  227SOL     OW 1579   0.955   3.188   2.878
  227SOL    HW1 1580   0.865   3.207   2.838
  227SOL    HW2 1581   0.961   3.231   2.968
  228SOL     OW 1582   3.852   6.180   2.636
  228SOL    HW1 1583   3.806   6.127   2.565
  228SOL    HW2 1584   3.797   6.261   2.657
  229SOL     OW 1585   6.167   5.144   3.422
  229SOL    HW1 1586   6.147   5.051   3.392
  229SOL    HW2 1587   6.131   5.158   3.514
  230SOL     OW 1588   0.950   4.214   6.241
  230SOL    HW1 1589   0.907   4.290   6.192
  230SOL    HW2 1590   0.880   4.145   6.263
  231SOL     OW 1591   0.815   1.972   6.682
  231SOL    HW1 1592   0.831   1.889   6.735
  231SOL    HW2 1593   0.890   1.984   6.617
  232SOL     OW 1594   1.130   4.148   6.972
  232SOL    HW1 1595   1.092   4.208   6.901
  232SOL    HW2 1596   1.208   4.193   7.015
  233SOL     OW 1597   3.044   6.926   6.631
  233SOL    HW1 1598   3.135   6.899   6.660
  233SOL    HW2 1599   2.990   6.845   6.608
  234SOL     OW 1600   2.963   5.058   5.760
  234SOL    HW1 1601   2.871   5.094   5.777
  234SOL    HW2 1602   2.977   5.047   5.662
  235SOL     OW 1603   3.502   3.331   5.580
  235SOL    HW1 1604   3.424   3.270   5.585
  235SOL    HW2 1605   3.531   3.340   5.484
  236SOL     OW 1606   6.985   2.664   5.907
  236SOL    HW1 1607   0.020   2.619   5.836
  236SOL    HW2 1608   6.905   2.607   5.929
  237SOL     OW 1609   6.829   6.530   1.764
  237SOL    HW1 1610   6.761   6.596   1.733
  237SOL    HW2 1611   6.803   6.438   1.732
  238SOL     OW 1612   6.751   1.532   2.474
  238SOL    HW1 1613   6.681   1.480   2.524
  238SOL    HW2 1614   6.803   1.588   2.538
  239SOL     OW 1615   6.964   5.330   1.323
  239SOL    HW1 1616   6.903   5.269   1.373
  239SOL    HW2 1617   7.018   5.276   1.258
  240SOL     OW 1618   6.842   2.712   5.243
  240SOL    HW1 1619   6.882   2.696   5.153
  240SOL    HW2 1620   6.893   2.661   5.312
  241SOL     OW 1621   6.034   1.866   4.077
  241SOL    HW1 1622   6.074   1.798   4.015
  241SOL    HW2 1623   5.936   1.873   4.059
  242SOL     OW 1624   2.949   2.202   3.950
  242SOL    HW1 1625   2.896   2.256   3.884
  242SOL    HW2 1626   2.930   2.235   4.042
  243SOL     OW 1627   4.435   1.507   6.466
  243SOL    HW1 1628   4.352   1.484   6.416
  243SOL    HW2 1629   4.411   1.563   6.546
  244SOL     OW 1630   0.177   0.997   5.883
  244SOL    HW1 1631   0.120   1.024   5.961
  244SOL    HW2 1632   0.153   1.051   5.803
  245SOL     OW 1633   4.979   2.276   3.566
  245SOL    HW1 1634   4.917   2.209   3.526
  245SOL    HW2 1635   5.011   2.243   3.655
  246SOL     OW 1636   4.851   3.045   3.455
  246SOL    HW1 1637   4.923   3.020   3.520
  246SOL    HW2 1638   4.869   3.137   3.421
  247SOL     OW 1639   2.879   0.603   3.112
  247SOL    HW1 1640   2.977   0.615   3.095
  247SOL    HW2 1641   2.859   0.627   3.207
  248SOL     OW 1642   6.782   1.521   1.975
  248SOL    HW1 1643   6.761   1.519   1.877
  248SOL    HW2 1644   6.827   1.435   2.000
  249SOL     OW 1645   2.000   6.195   5.061
  249SOL    HW1 1646   1.950   6.113   5.089
  249SOL    HW2 1647   1.937   6.273   5.061
  250SOL     OW 1648   4.771   2.791   6.863
  250SOL    HW1 1649   4.863   2.802   6.900
  250SOL    HW2 1650   4.727   2.712   6.906
  251SOL     OW 1651   2.148   2.166   0.340
  251SOL    HW1 1652   2.067   2.165   0.397
  251SOL    HW2 1653   2.228   2.188   0.396
  252SOL     OW 1654   0.262   1.580   0.383
  252SOL    HW1 1655   0.318   1.523   0.324
  252SOL    HW2 1656   0.219   1.523   0.453
  253SOL     OW 1657   1.535   4.072   6.007
  253SOL    HW1 1658   1.507   4.072   5.911
  253SOL    HW2 1659   1.525   4.163   6.046
  254SOL     OW 1660   4.888   3.898   6.245
  254SOL    HW1 1661   4.870   3.833   6.171
  254SOL    HW2 1662   4.802   3.917   6.293
  255SOL     OW 1663   3.700   1.670   2.284
  255SOL    HW1 1664   3.652   1.639   2.202
  255SOL    HW2 1665   3.649   1.744   2.327
  256SOL     OW 1666   6.267   5.394   2.070
  256SOL    HW1 1667   6.229   5.446   1.993
  256SOL    HW2 1668   6.192   5.352   2.121
  257SOL     OW 1669   2.525   5.749   6.762
  257SOL    HW1 1670   2.450   5.790   6.813
  257SOL    HW2 1671   2.581   5.821   6.721
  258SOL     OW 1672   4.700   4.691   4.224
  258SOL    HW1 1673   4.620   4.636   4.244
  258SOL    HW2 1674   4.778   4.632   4.204
  259SOL     OW 1675   1.053   2.223   2.539
  259SOL    HW1 1676   0.983   2.206   2.608
  259SOL    HW2 1677   1.075   2.138   2.492
  260SOL     OW 1678   0.032   6.707   5.593
  260SOL    HW1 1679   6.985   6.634   5.578
  260SOL    HW2 1680   0.118   6.685   5.547
  261SOL     OW 1681   0.592   1.152   3.649
  261SOL    HW1 1682   0.532   1.127   3.725
  261SOL    HW2 1683   0.649   1.229   3.676
  262SOL     OW 1684   1.592   4.956   2.623
  262SOL    HW1 1685   1.586   4.943   2.524
  262SOL    HW2 1686   1.560   5.048   2.646
  263SOL     OW 1687   0.210   3.548   4.758
  263SOL    HW1 1688   0.184   3.461   4.800
  263SOL    HW2 1689   0.310   3.555   4.755
  264SOL     OW 1690   3.180   4.337   0.014
  264SOL    HW1 1691   3.163   4.316   6.937
  264SOL    HW2 1692   3.206   4.253   0.062
  265SOL     OW 1693   5.015   5.391   4.341
  265SOL    HW1 1694   4.958   5.473   4.334
  265SOL    HW2 1695   4.995   5.329   4.265
  266SOL     OW 1696   3.790   2.791   6.705
  266SOL    HW1 1697   3.730   2.866   6.677
  266SOL    HW2 1698   3.882   2.826   6.723
  267SOL     OW 1699   2.582   1.967   5.703
  267SOL    HW1 1700   2.564   1.972   5.801
  267SOL    HW2 1701   2.536   1.887   5.665
  268SOL     OW 1702   2.782   4.739   3.928
  268SOL    HW1 1703   2.719   4.665   3.905
  268SOL    HW2 1704   2.842   4.757   3.850
  269SOL     OW 1705   1.822   1.624   4.689
  269SOL    HW1 1706   1.753   1.579   4.745
  269SOL    HW2 1707   1.818   1.723   4.704
  270SOL     OW 1708   5.055   6.541   4.876
  270SOL    HW1 1709   4.988   6.467   4.871
  270SOL    HW2 1710   5.056   6.591   4.790
  271SOL     OW 1711   1.735   1.819   0.340
  271SOL    HW1 1712   1.773   1.807   0.249
  271SOL    HW2 1713   1.798   1.782   0.408
  272SOL     OW 1714   4.567   5.806   0.822
  272SOL    HW1 1715   4.654   5.757   0.836
  272SOL    HW2 1716   4.583   5.904   0.828
  273SOL     OW 1717   2.105   6.416   4.137
  273SOL    HW1 1718   2.167   6.366   4.197
  273SOL    HW2 1719   2.040   6.352   4.095
  274SOL     OW 1720   5.441   2.259   1.018
  274SOL    HW1 1721   5.344   2.237   1.018
  274SOL    HW2 1722   5.464   2.309   0.935
  275SOL     OW 1723   5.661   5.745   5.932
  275SOL    HW1 1724   5.618   5.661   5.900
  275SOL    HW2 1725   5.720   5.725   6.010
  276SOL     OW 1726   0.367   6.559   4.550
  276SOL    HW1 1727   0.296   6.628   4.536
  276SOL    HW2 1728   0.337   6.494   4.620
  277SOL     OW 1729   4.331   2.840   5.598
  277SOL    HW1 1730   4.299   2.746   5.582
  277SOL    HW2 1731   4.358   2.850   5.693
  278SOL     OW 1732   5.606   4.113   2.975
  278SOL    HW1 1733   5.688   4.165   2.998
  278SOL    HW2 1734   5.623   4.016   2.989
  279SOL     OW 1735   6.792   3.486   3.570
  279SOL    HW1 1736   6.774   3.535   3.656
  279SOL    HW2 1737   6.848   3.543   3.511
  280SOL     OW 1738   4.569   1.467   3.737
  280SOL    HW1 1739   4.496   1.534   3.722
  280SOL    HW2 1740   4.631   1.468   3.659
  281SOL     OW 1741   5.285   6.325   5.236
  281SOL    HW1 1742   5.242   6.415   5.222
  281SOL    HW2 1743   5.324   6.293   5.150
  282SOL     OW 1744   1.108   2.758   0.484
  282SOL    HW1 1745   1.195   2.714   0.463
  282SOL    HW2 1746   1.074   2.725   0.572
  283SOL     OW 1747   6.418   4.244   4.153
  283SOL    HW1 1748   6.452   4.192   4.075
  283SOL    HW2 1749   6.434   4.342   4.138
  284SOL     OW 1750   4.919   6.283   2.582
  284SOL    HW1 1751   4.992   6.338   2.541
  284SOL    HW2 1752   4.892   6.323   2.669
  285SOL     OW 1753   3.921   6.456   5.588
  285SOL    HW1 1754   3.852   6.454   5.660
  285SOL    HW2 1755   3.878   6.434   5.500
  286SOL     OW 1756   2.803   4.735   5.306
  286SOL    HW1 1757   2.873   4.676   5.265
  286SOL    HW2 1758   2.742   4.769   5.235
  287SOL     OW 1759   3.668   6.402   6.836
  287SOL    HW1 1760   3.661   6.472   6.907
  287SOL    HW2 1761   3.614   6.430   6.756
  288SOL     OW 1762   4.733   1.600   0.262
  288SOL    HW1 1763   4.756   1.679   0.319
  288SOL    HW2 1764   4.666   1.544   0.309
  289SOL     OW 1765   5.672   4.458   4.472
  289SOL    HW1 1766   5.762   4.444   4.513
  289SOL    HW2 1767   5.621   4.373   4.474
  290SOL     OW 1768   3.459   0.402   5.901
  290SOL    HW1 1769   3.538   0.457   5.873
  290SOL    HW2 1770   3.478   0.361   5.991
  291SOL     OW 1771   4.115   0.624   5.370
  291SOL    HW1 1772   4.101   0.546   5.432
  291SOL    HW2 1773   4.213   0.643   5.363
  292SOL     OW 1774   3.488   0.177   3.785
  292SOL    HW1 1775   3.560   0.238   3.752
  292SOL    HW2 1776   3.510   0.148   3.878
  293SOL     OW 1777   5.195   6.900   2.881
  293SOL    HW1 1778   5.130   6.974   2.901
  293SOL    HW2 1779   5.242   6.874   2.965
  294SOL     OW 1780   6.892   1.269   6.931
  294SOL    HW1 1781   6.900   1.293   6.834
  294SOL    HW2 1782   6.862   1.349   6.982
  295SOL     OW 1783   1.056   0.804   4.658
  295SOL    HW1 1784   0.986   0.781   4.726
  295SOL    HW2 1785   1.011   0.838   4.575
  296SOL     OW 1786   1.066   2.243   1.682
  296SOL    HW1 1787   1.085   2.159   1.630
  296SOL    HW2 1788   0.977   2.235   1.727
  297SOL     OW 1789   5.546   3.121   3.314
  297SOL    HW1 1790   5.516   3.096   3.406
  297SOL    HW2 1791   5.465   3.134   3.256
  298SOL     OW 1792   4.239   1.152   5.650
  298SOL    HW1 1793   4.263   1.104   5.735
  298SOL    HW2 1794   4.178   1.095   5.596
  299SOL     OW 1795   0.502   1.517   6.659
  299SOL    HW1 1796   0.463   1.551   6.574
  299SOL    HW2 1797   0.518   1.594   6.721
  300SOL     OW 1798   5.025   6.767   3.459
  300SOL    HW1 1799   4.953   6.789   3.393
  300SOL    HW2 1800   5.100   6.832   3.449
  301SOL     OW 1801   6.711   5.337   6.107
  301SOL    HW1 1802   6.733   5.254   6.056
  301SOL    HW2 1803   6.785   5.403   6.097
  302SOL     OW 1804   0.493   6.683   2.876
  302SOL    HW1 1805   0.550   6.653   2.953
  302SOL    HW2 1806   0.551   6.702   2.797
  303SOL     OW 1807   5.712   6.187   2.845
  303SOL    HW1 1808   5.739   6.151   2.755
  303SOL    HW2 1809   5.624   6.234   2.837
  304SOL     OW 1810   2.042   6.624   4.712
  304SOL    HW1 1811   2.118   6.658   4.656
  304SOL    HW2 1812   1.979   6.572   4.654
  305SOL     OW 1813   0.575   2.264   1.608
  305SOL    HW1 1814   0.579   2.364   1.613
  305SOL    HW2 1815   0.613   2.233   1.521
  306SOL     OW 1816   0.943   6.710   2.969
  306SOL    HW1 1817   0.850   6.677   2.983
  306SOL    HW2 1818   0.977   6.679   2.880
  307SOL     OW 1819   3.580   3.886   3.513
  307SOL    HW1 1820   3.597   3.984   3.501
  307SOL    HW2 1821   3.499   3.873   3.570
  308SOL     OW 1822   6.606   1.751   2.386
  308SOL    HW1 1823   6.537   1.725   2.453
  308SOL    HW2 1824   6.680   1.684   2.387
  309SOL     OW 1825   1.901   5.217   7.008
  309SOL    HW1 1826   1.811   5.183   0.014
  309SOL    HW2 1827   1.967   5.142   7.008
  310SOL     OW 1828   5.498   6.510   5.086
  310SOL    HW1 1829   5.482   6.587   5.148
  310SOL    HW2 1830   5.590   6.518   5.046
  311SOL     OW 1831   1.248   5.829   1.786
  311SOL    HW1 1832   1.174   5.795   1.844
  311SOL    HW2 1833   1.282   5.916   1.822
  312SOL     OW 1834   3.503   0.385   4.163
  312SOL    HW1 1835   3.447   0.407   4.243
  312SOL    HW2 1836   3.566   0.461   4.145
  313SOL     OW 1837   3.222   3.030   2.858
  313SOL    HW1 1838   3.266   2.996   2.775
  313SOL    HW2 1839   3.292   3.046   2.928
  314SOL     OW 1840   2.601   5.439   6.488
  314SOL    HW1 1841   2.586   5.410   6.393
  314SOL    HW2 1842   2.698   5.427   6.511
  315SOL     OW 1843   5.260   0.423   4.850
  315SOL    HW1 1844   5.243   0.498   4.913
  315SOL    HW2 1845   5.182   0.413   4.788
  316SOL     OW 1846   3.306   0.939   6.995
  316SOL    HW1 1847   3.220   0.985   7.019
  316SOL    HW2 1848   3.373   1.007   6.966
  317SOL     OW 1849   0.282   2.346   1.240
  317SOL    HW1 1850   0.323   2.407   1.308
  317SOL    HW2 1851   0.192   2.315   1.272
  318SOL     OW 1852   1.138   0.274   4.614
  318SOL    HW1 1853   1.099   0.366   4.608
  318SOL    HW2 1854   1.116   0.223   4.531
  319SOL     OW 1855   0.177   0.761   3.908
  319SOL    HW1 1856   0.210   0.804   3.992
  319SOL    HW2 1857   0.182   0.828   3.833
  320SOL     OW 1858   5.375   1.892   0.113
  320SOL    HW1 1859   5.361   1.903   0.212
  320SOL    HW2 1860   5.412   1.977   0.075
  321SOL     OW 1861   4.335   3.014   0.997
  321SOL    HW1 1862   4.398   2.945   1.032
  321SOL    HW2 1863   4.300   2.985   0.907
  322SOL     OW 1864   3.397   2.874   6.514
  322SOL    HW1 1865   3.312   2.840   6.553
  322SOL    HW2 1866   3.436   2.944   6.574
  323SOL     OW 1867   1.330   3.747   2.188
  323SOL    HW1 1868   1.366   3.827   2.236
  323SOL    HW2 1869   1.393   3.670   2.199
  324SOL     OW 1870   0.783   0.084   3.449
  324SOL    HW1 1871   0.747   0.074   3.356
  324SOL    HW2 1872   0.869   0.134   3.446
  325SOL     OW 1873   6.844   3.838   0.554
  325SOL    HW1 1874   6.778   3.791   0.612
  325SOL    HW2 1875   6.847   3.793   0.464
  326SOL     OW 1876   0.431   6.202   0.275
  326SOL    HW1 1877   0.348   6.149   0.291
  326SOL    HW2 1878   0.427   6.287   0.327
  327SOL     OW 1879   3.986   5.592   5.844
  327SOL    HW1 1880   3.972   5.592   5.745
  327SOL    HW2 1881   4.049   5.666   5.869
  328SOL     OW 1882   1.500   4.679   3.301
  328SOL    HW1 1883   1.456   4.761   3.339
  328SOL    HW2 1884   1.588   4.664   3.347
  329SOL     OW 1885   3.366   3.433   1.847
  329SOL    HW1 1886   3.372   3.395   1.755
  329SOL    HW2 1887   3.419   3.377   1.911
  330SOL     OW 1888   3.080   3.710   0.352
  330SOL    HW1 1889   3.065   3.636   0.287
  330SOL    HW2 1890   3.081   3.797   0.304
  331SOL     OW 1891   5.572   5.638   4.950
  331SOL    HW1 1892   5.514   5.679   5.021
  331SOL    HW2 1893   5.600   5.546   4.979
  332SOL     OW 1894   5.414   1.959   2.788
  332SOL    HW1 1895   5.396   2.049   2.750
  332SOL    HW2 1896   5.512   1.949   2.805
  333SOL     OW 1897   3.213   6.998   4.228
  333SOL    HW1 1898   3.265   6.978   4.311
  333SOL    HW2 1899   3.237   0.070   4.195
  334SOL     OW 1900   3.623   3.846   3.178
  334SOL    HW1 1901   3.651   3.842   3.274
  334SOL    HW2 1902   3.654   3.932   3.138
  335SOL     OW 1903   3.769   1.433   1.085
  335SOL    HW1 1904   3.708   1.502   1.124
  335SOL    HW2 1905   3.718   1.352   1.060
  336SOL     OW 1906   4.212   1.758   4.498
  336SOL    HW1 1907   4.226   1.661   4.479
  336SOL    HW2 1908   4.262   1.783   4.581
  337SOL     OW 1909   0.082   0.978   5.254
  337SOL    HW1 1910   0.156   0.998   5.318
  337SOL    HW2 1911   0.001   1.032   5.278
  338SOL     OW 1912   4.226   1.585   1.581
  338SOL    HW1 1913   4.186   1.541   1.500
  338SOL    HW2 1914   4.155   1.596   1.651
  339SOL     OW 1915   4.005   5.266   5.856
  339SOL    HW1 1916   3.937   5.193   5.845
  339SOL    HW2 1917   4.051   5.281   5.768
  340SOL     OW 1918   5.996   2.621   4.512
  340SOL    HW1 1919   5.974   2.593   4.418
  340SOL    HW2 1920   5.996   2.541   4.571
  341SOL     OW 1921   0.131   0.002   2.796
  341SOL    HW1 1922   0.063   0.028   2.727
  341SOL    HW2 1923   0.197   0.076   2.807
  342SOL     OW 1924   4.904   1.939   2.457
  342SOL    HW1 1925   4.828   1.988   2.499
  342SOL    HW2 1926   4.869   1.876   2.387
  343SOL     OW 1927   6.458   6.738   1.599
  343SOL    HW1 1928   6.383   6.673   1.607
  343SOL    HW2 1929   6.440   6.800   1.522
  344SOL     OW 1930   0.111   2.977   1.274
  344SOL    HW1 1931   0.139   2.905   1.337
  344SOL    HW2 1932   0.055   2.938   1.201
  345SOL     OW 1933   6.422   2.389   4.858
  345SOL    HW1 1934   6.348   2.434   4.809
  345SOL    HW2 1935   6.460   2.451   4.926
  346SOL     OW 1936   2.587   6.140   3.263
  346SOL    HW1 1937   2.503   6.179   3.227
  346SOL    HW2 1938   2.645   6.212   3.301
  347SOL     OW 1939   2.319   4.573   0.827
  347SOL    HW1 1940   2.233   4.623   0.842
  347SOL    HW2 1941   2.355   4.542   0.915
  348SOL     OW 1942   3.840   5.202   2.064
  348SOL    HW1 1943   3.791   5.122   2.031
  348SOL    HW2 1944   3.912   5.173   2.128
  349SOL     OW 1945   5.374   4.290   0.503
  349SOL    HW1 1946   5.337   4.383   0.506
  349SOL    HW2 1947   5.300   4.226   0.485
  350SOL     OW 1948   2.847   1.900   6.738
  350SOL    HW1 1949   2.754   1.918   6.769
  350SOL    HW2 1950   2.891   1.833   6.798
  351SOL     OW 1951   3.470   4.177   0.729
  351SOL    HW1 1952   3.403   4.241   0.765
  351SOL    HW2 1953   3.440   4.083   0.746
  352SOL     OW 1954   4.319   0.267   2.333
  352SOL    HW1 1955   4.342   0.329   2.407
  352SOL    HW2 1956   4.400   0.249   2.277
  353SOL     OW 1957   1.524   0.149   0.790
  353SOL    HW1 1958   1.493   0.218   0.856
  353SOL    HW2 1959   1.622   0.160   0.774
  354SOL     OW 1960   0.909   2.836   0.326
  354SOL    HW1 1961   0.876   2.763   0.266
  354SOL    HW2 1962   0.991   2.804   0.374
  355SOL     OW 1963   0.971   2.746   2.516
  355SOL    HW1 1964   1.035   2.815   2.482
  355SOL    HW2 1965   1.012   2.699   2.594
  356SOL     OW 1966   2.798   0.189   5.553
  356SOL    HW1 1967   2.719   0.198   5.492
  356SOL    HW2 1968   2.821   0.279   5.591
  357SOL     OW 1969   6.299   0.043   4.297
  357SOL    HW1 1970   6.389   0.001   4.292
  357SOL    HW2 1971   6.308   0.139   4.321
  358SOL     OW 1972   3.300   6.214   6.109
  358SOL    HW1 1973   3.305   6.125   6.064
  358SOL    HW2 1974   3.388   6.260   6.101
  359SOL     OW 1975   1.327   1.515   2.226
  359SOL    HW1 1976   1.265   1.518   2.148
  359SOL    HW2 1977   1.300   1.442   2.288
  360SOL     OW 1978   2.050   4.496   3.662
  360SOL    HW1 1979   2.044   4.486   3.562
  360SOL    HW2 1980   2.050   4.405   3.704
  361SOL     OW 1981   6.983   1.473   2.340
  361SOL    HW1 1982   6.897   1.507   2.378
  361SOL    HW2 1983   7.006   1.525   2.258
  362SOL     OW 1984   3.469   3.704   1.494
  362SOL    HW1 1985   3.485   3.755   1.578
  362SOL    HW2 1986   3.525   3.621   1.495
  363SOL     OW 1987   4.932   5.661   2.039
  363SOL    HW1 1988   4.928   5.622   2.131
  363SOL    HW2 1989   4.860   5.620   1.982
  364SOL     OW 1990   0.973   6.741   0.044
  364SOL    HW1 1991   0.948   6.832   0.009
  364SOL    HW2 1992   1.016   6.751   0.133
  365SOL     OW 1993   5.540   1.384   3.787
  365SOL    HW1 1994   5.599   1.460   3.816
  365SOL    HW2 1995   5.483   1.414   3.710
  366SOL     OW 1996   5.804   1.732   6.869
  366SOL    HW1 1997   5.871   1.739   6.795
  366SOL    HW2 1998   5.712   1.732   6.830
  367SOL     OW 1999   5.733   1.365   6.679
  367SOL    HW1 2000   5.685   1.328   6.599
  367SOL    HW2 2001   5.733   1.465   6.675
  368SOL     OW 2002   0.664   1.663   5.681
  368SOL    HW1 2003   0.617   1.597   5.623
  368SOL    HW2 2004   0.603   1.690   5.756
  369SOL     OW 2005   6.289   4.110   0.902
  369SOL    HW1 2006   6.250   4.182   0.844
  369SOL    HW2 2007   6.350   4.152   0.970
  370SOL     OW 2008   2.187   2.598   3.590
  370SOL    HW1 2009   2.111   2.640   3.640
  370SOL    HW2 2010   2.247   2.670   3.555
  371SOL     OW 2011   0.996   5.374   6.719
  371SOL    HW1 2012   1.088   5.364   6.756
  371SOL    HW2 2013   0.929   5.341   6.786
  372SOL     OW 2014   2.800   5.763   5.777
  372SOL    HW1 2015   2.802   5.666   5.751
  372SOL    HW2 2016   2.731   5.810   5.722
  373SOL     OW 2017   6.527   4.624   3.279
  373SOL    HW1 2018   6.577   4.644   3.364
  373SOL    HW2 2019   6.462   4.550   3.295
  374SOL     OW 2020   2.845   1.642   2.562
  374SOL    HW1 2021   2.823   1.545   2.572
  374SOL    HW2 2022   2.945   1.653   2.557
  375SOL     OW 2023   1.079   5.780   4.419
  375SOL    HW1 2024   1.091   5.867   4.467
  375SOL    HW2 2025   0.982   5.765   4.402
  376SOL     OW 2026   4.087   0.850   3.661
  376SOL    HW1 2027   4.046   0.868   3.572
  376SOL    HW2 2028   4.063   0.924   3.725
  377SOL     OW 2029   1.744   2.098   6.943
  377SOL    HW1 2030   1.708   2.158   7.015
  377SOL    HW2 2031   1.839   2.076   6.963
  378SOL     OW 2032   4.152   1.562   2.843
  378SOL    HW1 2033   4.129   1.650   2.884
  378SOL    HW2 2034   4.119   1.559   2.749
  379SOL     OW 2035   4.368   1.761   5.927
  379SOL    HW1 2036   4.415   1.818   5.995
  379SOL    HW2 2037   4.374   1.805   5.838
  380SOL     OW 2038   4.273   2.497   0.488
  380SOL    HW1 2039   4.349   2.536   0.436
  380SOL    HW2 2040   4.282   2.397   0.491
  381SOL     OW 2041   2.106   3.682   2.728
  381SOL    HW1 2042   2.121   3.663   2.631
  381SOL    HW2 2043   2.117   3.597   2.780
  382SOL     OW 2044   5.808   0.700   6.301
  382SOL    HW1 2045   5.892   0.679   6.250
  382SOL    HW2 2046   5.757   0.771   6.254
  383SOL     OW 2047   5.019   2.844   0.251
  383SOL    HW1 2048   4.995   2.828   0.347
  383SOL    HW2 2049   5.007   2.760   0.199
  384SOL     OW 2050   6.396   3.913   5.049
  384SOL    HW1 2051   6.345   3.878   5.128
  384SOL    HW2 2052   6.493   3.917   5.073
  385SOL     OW 2053   4.622   3.325   0.353
  385SOL    HW1 2054   4.672   3.238   0.349
  385SOL    HW2 2055   4.677   3.397   0.311
  386SOL     OW 2056   4.100   6.632   4.332
  386SOL    HW1 2057   4.173   6.566   4.353
  386SOL    HW2 2058   4.037   6.593   4.266
  387SOL     OW 2059   2.701   5.954   4.203
  387SOL    HW1 2060   2.637   5.916   4.269
  387SOL    HW2 2061   2.656   6.026   4.150
  388SOL     OW 2062   0.841   4.371   6.712
  388SOL    HW1 2063   0.752   4.353   6.755
  388SOL    HW2 2064   0.883   4.451   6.754
  389SOL     OW 2065   3.007   2.829   1.750
  389SOL    HW1 2066   3.034   2.744   1.703
  389SOL    HW2 2067   3.089   2.877   1.781
  390SOL     OW 2068   2.529   1.076   4.469
  390SOL    HW1 2069   2.537   1.123   4.558
  390SOL    HW2 2070   2.486   0.987   4.482
  391SOL     OW 2071   1.583   2.525   6.761
  391SOL    HW1 2072   1.544   2.570   6.681
  391SOL    HW2 2073   1.606   2.430   6.738
  392SOL     OW 2074   3.330   5.661   3.748
  392SOL    HW1 2075   3.267   5.591   3.717
  392SOL    HW2 2076   3.336   5.660   3.848
  393SOL     OW 2077   6.174   3.748   4.934
  393SOL    HW1 2078   6.090   3.795   4.908
  393SOL    HW2 2079   6.250   3.813   4.936
  394SOL     OW 2080   1.996   1.205   6.544
  394SOL    HW1 2081   1.917   1.188   6.485
  394SOL    HW2 2082   1.967   1.205   6.640
  395SOL     OW 2083   6.303   3.388   1.205
  395SOL    HW1 2084   6.322   3.366   1.301
  395SOL    HW2 2085   6.317   3.486   1.189
  396SOL     OW 2086   3.511   3.054   5.045
  396SOL    HW1 2087   3.487   3.096   5.132
  396SOL    HW2 2088   3.554   2.965   5.062
  397SOL     OW 2089   3.986   2.053   6.726
  397SOL    HW1 2090   4.076   2.051   6.684
  397SOL    HW2 2091   3.947   2.145   6.719
  398SOL     OW 2092   1.174   4.932   2.897
  398SOL    HW1 2093   1.080   4.940   2.864
  398SOL    HW2 2094   1.237   4.968   2.828
  399SOL     OW 2095   5.159   4.588   2.851
  399SOL    HW1 2096   5.215   4.521   2.801
  399SOL    HW2 2097   5.190   4.593   2.945
  400SOL     OW 2098   1.720   4.715   4.549
  400SOL    HW1 2099   1.629   4.758   4.548
  400SOL    HW2 2100   1.781   4.769   4.607
  401SOL     OW 2101   5.503   1.318   6.945
  401SOL    HW1 2102   5.545   1.363   6.865
  401SOL    HW2 2103   5.409   1.291   6.922
  402SOL     OW 2104   6.407   4.565   1.425
  402SOL    HW1 2105   6.400   4.593   1.329
  402SOL    HW2 2106   6.428   4.645   1.481
  403SOL     OW 2107   5.154   3.788   0.244
  403SOL    HW1 2108   5.225   3.858   0.228
  403SOL    HW2 2109   5.098   3.816   0.321
  404SOL     OW 2110   0.349   6.839   4.733
  404SOL    HW1 2111   0.427   6.806   4.680
  404SOL    HW2 2112   0.383   6.882   4.817
  405SOL     OW 2113   1.247   2.624   0.709
  405SOL    HW1 2114   1.299   2.675   0.777
  405SOL    HW2 2115   1.295   2.626   0.621
  406SOL     OW 2116   1.418   3.204   2.626
  406SOL    HW1 2117   1.330   3.207   2.672
  406SOL    HW2 2118   1.487   3.250   2.683
  407SOL     OW 2119   2.635   1.484   3.528
  407SOL    HW1 2120   2.558   1.491   3.590
  407SOL    HW2 2121   2.720   1.507   3.577
  408SOL     OW 2122   2.217   0.736   3.344
  408SOL    HW1 2123   2.213   0.830   3.310
  408SOL    HW2 2124   2.256   0.736   3.436
  409SOL     OW 2125   6.019   3.096   3.947
  409SOL    HW1 2126   6.068   3.099   4.034
  409SOL    HW2 2127   6.035   3.180   3.896
  410SOL     OW 2128   2.942   0.612   6.499
  410SOL    HW1 2129   2.974   0.552   6.425
  410SOL    HW2 2130   2.909   0.698   6.461
  411SOL     OW 2131   0.099   3.768   5.153
  411SOL    HW1 2132   0.073   3.693   5.213
  411SOL    HW2 2133   0.192   3.799   5.176
  412SOL     OW 2134   4.273   0.367   1.999
  412SOL    HW1 2135   4.265   0.291   2.063
  412SOL    HW2 2136   4.360   0.360   1.950
  413SOL     OW 2137   2.586   0.596   2.017
  413SOL    HW1 2138   2.678   0.623   1.988
  413SOL    HW2 2139   2.581   0.597   2.117
  414SOL     OW 2140   4.359   3.741   0.078
  414SOL    HW1 2141   4.285   3.679   0.101
  414SOL    HW2 2142   4.340   3.787   7.011
  415SOL     OW 2143   3.443   6.576   2.162
  415SOL    HW1 2144   3.423   6.579   2.064
  415SOL    HW2 2145   3.374   6.522   2.209
  416SOL     OW 2146   3.494   5.682   5.988
  416SOL    HW1 2147   3.454   5.733   6.064
  416SOL    HW2 2148   3.531   5.596   6.022
  417SOL     OW 2149   4.451   5.457   0.773
  417SOL    HW1 2150   4.377   5.466   0.839
  417SOL    HW2 2151   4.538   5.479   0.816
  418SOL     OW 2152   5.737   4.568   0.513
  418SOL    HW1 2153   5.676   4.563   0.434
  418SOL    HW2 2154   5.688   4.607   0.590
  419SOL     OW 2155   6.090   6.492   1.178
  419SOL    HW1 2156   6.064   6.566   1.116
  419SOL    HW2 2157   6.077   6.404   1.132
  420SOL     OW 2158   4.524   4.220   0.100
  420SOL    HW1 2159   4.489   4.133   0.134
  420SOL    HW2 2160   4.471   4.295   0.138
  421SOL     OW 2161   1.117   5.691   6.558
  421SOL    HW1 2162   1.081   5.711   6.467
  421SOL    HW2 2163   1.042   5.670   6.620
  422SOL     OW 2164   5.807   3.181   6.380
  422SOL    HW1 2165   5.832   3.278   6.375
  422SOL    HW2 2166   5.797   3.155   6.476
  423SOL     OW 2167   0.596   3.186   5.554
  423SOL    HW1 2168   0.679   3.224   5.596
  423SOL    HW2 2169   0.594   3.087   5.569
  424SOL     OW 2170   2.452   4.096   0.307
  424SOL    HW1 2171   2.352   4.104   0.308
  424SOL    HW2 2172   2.478   4.003   0.333
  425SOL     OW 2173   3.356   0.650   1.357
  425SOL    HW1 2174   3.314   0.740   1.346
  425SOL    HW2 2175   3.316   0.587   1.289
  426SOL     OW 2176   5.764   4.065   4.983
  426SOL    HW1 2177   5.786   4.112   5.069
  426SOL    HW2 2178   5.680   4.102   4.945
  427SOL     OW 2179   4.419   3.545   1.093
  427SOL    HW1 2180   4.411   3.451   1.061
  427SOL    HW2 2181   4.402   3.549   1.191
  428SOL     OW 2182   3.600   1.293   5.357
  428SOL    HW1 2183   3.578   1.244   5.441
  428SOL    HW2 2184   3.691   1.334   5.365
  429SOL     OW 2185   2.578   5.338   0.004
  429SOL    HW1 2186   2.668   5.296   0.012
  429SOL    HW2 2187   2.558   5.389   0.088
  430SOL     OW 2188   1.758   6.780   4.897
  430SOL    HW1 2189   1.855   6.777   4.873
  430SOL    HW2 2190   1.748   6.826   4.985
  431SOL     OW 2191   3.267   1.815   6.707
  431SOL    HW1 2192   3.360   1.847   6.723
  431SOL    HW2 2193   3.269   1.731   6.654
  432SOL     OW 2194   0.173   1.510   1.291
  432SOL    HW1 2195   0.200   1.467   1.204
  432SOL    HW2 2196   0.228   1.592   1.305
  433SOL     OW 2197   2.884   5.835   4.540
  433SOL    HW1 2198   2.877   5.917   4.484
  433SOL    HW2 2199   2.807   5.831   4.604
  434SOL     OW 2200   6.841   3.699   1.278
  434SOL    HW1 2201   6.743   3.705   1.262
  434SOL    HW2 2202   6.883   3.639   1.210
  435SOL     OW 2203   3.756   3.965   0.440
  435SOL    HW1 2204   3.675   3.918   0.473
  435SOL    HW2 2205   3.836   3.905   0.449
  436SOL     OW 2206   2.759   1.177   0.300
  436SOL    HW1 2207   2.793   1.105   0.360
  436SOL    HW2 2208   2.674   1.147   0.257
  437SOL     OW 2209   6.845   6.638   6.047
  437SOL    HW1 2210   6.898   6.568   5.999
  437SOL    HW2 2211   6.776   6.675   5.985
  438SOL     OW 2212   2.152   2.980   2.014
  438SOL    HW1 2213   2.201   2.985   1.926
  438SOL    HW2 2214   2.190   2.905   2.068
  439SOL     OW 2215   5.906   4.907   2.583
  439SOL    HW1 2216   5.820   4.923   2.631
  439SOL    HW2 2217   5.977   4.880   2.648
  440SOL     OW 2218   0.823   3.073   3.488
  440SOL    HW1 2219   0.866   3.129   3.559
  440SOL    HW2 2220   0.771   2.999   3.531
  441SOL     OW 2221   1.419   0.640   3.956
  441SOL    HW1 2222   1.415   0.620   3.858
  441SOL    HW2 2223   1.398   0.736   3.971
  442SOL     OW 2224   0.262   4.617   0.148
  442SOL    HW1 2225   0.327   4.685   0.180
  442SOL    HW2 2226   0.264   4.612   0.049
  443SOL     OW 2227   0.913   4.381   5.948
  443SOL    HW1 2228   0.925   4.298   5.894
  443SOL    HW2 2229   1.000   4.430   5.955
  444SOL     OW 2230   4.481   3.077   6.018
  444SOL    HW1 2231   4.472   3.007   5.947
  444SOL    HW2 2232   4.577   3.106   6.024
  445SOL     OW 2233   1.632   4.353   3.369
  445SOL    HW1 2234   1.644   4.447   3.399
  445SOL    HW2 2235   1.680   4.291   3.431
  446SOL     OW 2236   4.297   5.091   3.915
  446SOL    HW1 2237   4.263   5.147   3.839
  446SOL    HW2 2238   4.319   4.999   3.882
  447SOL     OW 2239   0.067   6.046   0.548
  447SOL    HW1 2240   0.036   6.105   0.623
  447SOL    HW2 2241   0.080   5.953   0.582
  448SOL     OW 2242   4.503   0.621   5.562
  448SOL    HW1 2243   4.446   0.631   5.481
  448SOL    HW2 2244   4.513   0.525   5.585
  449SOL     OW 2245   6.128   0.652   4.702
  449SOL    HW1 2246   6.107   0.675   4.607
  449SOL    HW2 2247   6.043   0.638   4.753
  450SOL     OW 2248   6.871   6.451   3.481
  450SOL    HW1 2249   6.815   6.388   3.427
  450SOL    HW2 2250   6.914   6.518   3.421
  451SOL     OW 2251   0.132   2.255   3.491
  451SOL    HW1 2252   0.133   2.200   3.574
  451SOL    HW2 2253   0.077   2.337   3.506
  452SOL     OW 2254   7.000   4.609   6.392
  452SOL    HW1 2255   6.924   4.673   6.398
  452SOL    HW2 2256   0.012   4.602   6.297
  453SOL     OW 2257   2.732   0.808   5.708
  453SOL    HW1 2258   2.780   0.738   5.762
  453SOL    HW2 2259   2.723   0.891   5.762
  454SOL     OW 2260   1.061   6.351   0.281
  454SOL    HW1 2261   1.070   6.252   0.273
  454SOL    HW2 2262   0.976   6.381   0.238
  455SOL     OW 2263   5.216   1.084   5.810
  455SOL    HW1 2264   5.225   1.145   5.731
  455SOL    HW2 2265   5.146   1.014   5.790
  456SOL     OW 2266   4.646   5.803   6.727
  456SOL    HW1 2267   4.604   5.839   6.810
  456SOL    HW2 2268   4.738   5.841   6.716
  457SOL     OW 2269   1.365   5.182   2.292
  457SOL    HW1 2270   1.358   5.089   2.255
  457SOL    HW2 2271   1.275   5.227   2.289
  458SOL     OW 2272   6.142   6.334   6.571
  458SOL    HW1 2273   6.150   6.331   6.471
  458SOL    HW2 2274   6.208   6.399   6.609
  459SOL     OW 2275   2.333   0.567   2.747
  459SOL    HW1 2276   2.235   0.563   2.766
  459SOL    HW2 2277   2.383   0.575   2.833
  460SOL     OW 2278   6.700   1.855   3.450
  460SOL    HW1 2279   6.731   1.949   3.437
  460SOL    HW2 2280   6.636   1.830   3.377
  461SOL     OW 2281   4.873   6.057   5.725
  461SOL    HW1 2282   4.788   6.097   5.760
  461SOL    HW2 2283   4.875   5.959   5.748
  462SOL     OW 2284   3.060   3.442   6.942
  462SOL    HW1 2285   3.055   3.469   6.846
  462SOL    HW2 2286   3.049   3.343   6.950
  463SOL     OW 2287   6.603   5.408   1.485
  463SOL    HW1 2288   6.581   5.467   1.563
  463SOL    HW2 2289   6.657   5.460   1.418
  464SOL     OW 2290   1.546   1.108   5.870
  464SOL    HW1 2291   1.458   1.148   5.845
  464SOL    HW2 2292   1.548   1.012   5.843
  465SOL     OW 2293   6.642   2.788   4.717
  465SOL    HW1 2294   6.543   2.784   4.728
  465SOL    HW2 2295   6.667   2.873   4.670
  466SOL     OW 2296   1.961   0.260   3.326
  466SOL    HW1 2297   2.022   0.213   3.262
  466SOL    HW2 2298   2.003   0.345   3.356
  467SOL     OW 2299   2.169   0.715   4.943
  467SOL    HW1 2300   2.195   0.811   4.937
  467SOL    HW2 2301   2.230   0.660   4.885
  468SOL     OW 2302   3.311   4.369   0.849
  468SOL    HW1 2303   3.261   4.293   0.890
  468SOL    HW2 2304   3.303   4.449   0.908
  469SOL     OW 2305   2.255   5.002   0.267
  469SOL    HW1 2306   2.339   4.992   0.213
  469SOL    HW2 2307   2.191   4.929   0.244
  470SOL     OW 2308   3.483   1.297   2.525
  470SOL    HW1 2309   3.575   1.269   2.550
  470SOL    HW2 2310   3.469   1.282   2.427
  471SOL     OW 2311   2.806   2.188   4.766
  471SOL    HW1 2312   2.904   2.184   4.786
  471SOL    HW2 2313   2.781   2.110   4.709
  472SOL     OW 2314   3.692   4.009   5.604
  472SOL    HW1 2315   3.639   4.058   5.535
  472SOL    HW2 2316   3.732   4.074   5.668
  473SOL     OW 2317   1.078   4.218   2.791
  473SOL    HW1 2318   1.130   4.285   2.844
  473SOL    HW2 2319   1.072   4.248   2.696
  474SOL     OW 2320   4.228   5.084   5.035
  474SOL    HW1 2321   4.257   5.145   4.961
  474SOL    HW2 2322   4.132   5.060   5.023
  475SOL     OW 2323   0.450   6.559   6.059
  475SOL    HW1 2324   0.458   6.506   5.974
  475SOL    HW2 2325   0.412   6.502   6.131
  476SOL     OW 2326   6.860   4.676   2.395
  476SOL    HW1 2327   6.926   4.680   2.320
  476SOL    HW2 2328   6.767   4.679   2.357
  477SOL     OW 2329   1.255   5.079   4.501
  477SOL    HW1 2330   1.290   5.059   4.592
  477SOL    HW2 2331   1.165   5.038   4.490
  478SOL     OW 2332   2.076   4.764   3.254
  478SOL    HW1 2333   2.098   4.699   3.181
  478SOL    HW2 2334   1.991   4.813   3.231
  479SOL     OW 2335   3.867   1.969   0.996
  479SOL    HW1 2336   3.815   1.887   0.973
  479SOL    HW2 2337   3.894   1.967   1.092
  480SOL     OW 2338   1.919   0.060   2.672
  480SOL    HW1 2339   1.822   0.068   2.651
  480SOL    HW2 2340   1.963   7.018   2.607
  481SOL     OW 2341   3.562   6.963   1.540
  481SOL    HW1 2342   3.552   6.954   1.441
  481SOL    HW2 2343   3.486   6.917   1.586
  482SOL     OW 2344   5.774   4.569   1.734
  482SOL    HW1 2345   5.777   4.660   1.777
  482SOL    HW2 2346   5.753   4.500   1.804
  483SOL     OW 2347   5.694   1.698   1.253
  483SOL    HW1 2348   5.605   1.743   1.244
  483SOL    HW2 2349   5.742   1.701   1.165
  484SOL     OW 2350   6.580   2.326   5.207
  484SOL    HW1 2351   6.514   2.400   5.195
  484SOL    HW2 2352   6.671   2.358   5.183
  485SOL     OW 2353   3.659   5.304   2.379
  485SOL    HW1 2354   3.700   5.254   2.303
  485SOL    HW2 2355   3.651   5.243   2.458
  486SOL     OW 2356   0.439   0.324   0.750
  486SOL    HW1 2357   0.420   0.352   0.656
  486SOL    HW2 2358   0.518   0.375   0.784
  487SOL     OW 2359   6.318   2.711   6.345
  487SOL    HW1 2360   6.301   2.789   6.285
  487SOL    HW2 2361   6.320   2.742   6.440
  488SOL     OW 2362   0.495   2.341   2.707
  488SOL    HW1 2363   0.524   2.434   2.730
  488SOL    HW2 2364   0.427   2.345   2.634
  489SOL     OW 2365   3.232   6.039   6.394
  489SOL    HW1 2366   3.290   5.964   6.362
  489SOL    HW2 2367   3.268   6.126   6.358
  490SOL     OW 2368   5.085   6.336   4.351
  490SOL    HW1 2369   5.179   6.367   4.338
  490SOL    HW2 2370   5.085   6.238   4.373
  491SOL     OW 2371   6.993   2.788   3.181
  491SOL    HW1 2372   6.979   2.822   3.274
  491SOL    HW2 2373   6.991   2.688   3.181
  492SOL     OW 2374   2.062   0.739   5.284
  492SOL    HW1 2375   2.001   0.771   5.211
  492SOL    HW2 2376   2.142   0.799   5.289
  493SOL     OW 2377   6.756   4.170   4.232
  493SOL    HW1 2378   6.664   4.149   4.198
  493SOL    HW2 2379   6.768   4.130   4.323
  494SOL     OW 2380   6.633   0.544   0.863
  494SOL    HW1 2381   6.697   0.616   0.837
  494SOL    HW2 2382   6.616   0.484   0.784
  495SOL     OW 2383   4.561   4.666   1.526
  495SOL    HW1 2384   4.550   4.600   1.600
  495SOL    HW2 2385   4.569   4.618   1.439
  496SOL     OW 2386   5.811   2.958   3.805
  496SOL    HW1 2387   5.824   2.861   3.784
  496SOL    HW2 2388   5.874   2.985   3.877
  497SOL     OW 2389   4.413   0.849   4.292
  497SOL    HW1 2390   4.439   0.929   4.238
  497SOL    HW2 2391   4.415   0.768   4.234
  498SOL     OW 2392   1.781   3.217   2.450
  498SOL    HW1 2393   1.706   3.152   2.439
  498SOL    HW2 2394   1.762   3.299   2.396
  499SOL     OW 2395   3.370   1.625   5.187
  499SOL    HW1 2396   3.283   1.649   5.143
  499SOL    HW2 2397   3.357   1.617   5.285
  500SOL     OW 2398   0.849   4.073   2.533
  500SOL    HW1 2399   0.784   4.062   2.458
  500SOL    HW2 2400   0.890   3.985   2.555
  501SOL     OW 2401   0.288   4.463   5.867
  501SOL    HW1 2402   0.374   4.433   5.826
  501SOL    HW2 2403   0.211   4.421   5.820
  502SOL     OW 2404   3.132   5.543   6.687
  502SOL    HW1 2405   3.176   5.630   6.665
  502SOL    HW2 2406   3.074   5.515   6.610
  503SOL     OW 2407   5.432   5.362   4.807
  503SOL    HW1 2408   5.487   5.374   4.889
  503SOL    HW2 2409   5.434   5.266   4.779
  504SOL     OW 2410   2.105   5.941   4.274
  504SOL    HW1 2411   2.033   5.885   4.315
  504SOL    HW2 2412   2.151   5.888   4.202
  505SOL     OW 2413   4.081   6.713   5.789
  505SOL    HW1 2414   3.985   6.685   5.801
  505SOL    HW2 2415   4.087   6.812   5.791
  506SOL     OW 2416   2.089   4.101   6.453
  506SOL    HW1 2417   2.012   4.110   6.516
  506SOL    HW2 2418   2.167   4.061   6.501
  507SOL     OW 2419   3.390   1.440   4.035
  507SOL    HW1 2420   3.385   1.507   4.109
  507SOL    HW2 2421   3.403   1.488   3.948
  508SOL     OW 2422   6.314   3.907   3.721
  508SOL    HW1 2423   6.257   3.852   3.659
  508SOL    HW2 2424   6.278   4.000   3.726
  509SOL     OW 2425   4.611   2.350   1.957
  509SOL    HW1 2426   4.644   2.439   1.989
  509SOL    HW2 2427   4.630   2.280   2.026
  510SOL     OW 2428   0.679   3.862   3.971
  510SOL    HW1 2429   0.719   3.877   3.881
  510SOL    HW2 2430   0.750   3.870   4.041
  511SOL     OW 2431   0.182   6.597   0.724
  511SOL    HW1 2432   0.237   6.658   0.666
  511SOL    HW2 2433   0.197   6.621   0.820
  512SOL     OW 2434   0.462   3.739   6.727
  512SOL    HW1 2435   0.536   3.699   6.674
  512SOL    HW2 2436   0.486   3.739   6.824
  513SOL     OW 2437   6.484   5.847   4.457
  513SOL    HW1 2438   6.443   5.825   4.546
  513SOL    HW2 2439   6.419   5.899   4.402
  514SOL     OW 2440   5.585   1.945   3.539
  514SOL    HW1 2441   5.575   1.990   3.628
  514SOL    HW2 2442   5.651   1.996   3.484
  515SOL     OW 2443   1.775   5.969   7.019
  515SOL    HW1 2444   1.745   6.035   0.068
  515SOL    HW2 2445   1.753   6.004   6.928
  516SOL     OW 2446   2.004   4.893   1.993
  516SOL    HW1 2447   1.918   4.875   2.041
  516SOL    HW2 2448   2.078   4.847   2.042
  517SOL     OW 2449   5.088   0.800   0.553
  517SOL    HW1 2450   5.095   0.867   0.627
  517SOL    HW2 2451   5.096   0.707   0.591
  518SOL     OW 2452   2.572   2.537   0.604
  518SOL    HW1 2453   2.516   2.471   0.654
  518SOL    HW2 2454   2.636   2.581   0.667
  519SOL     OW 2455   0.759   6.401   0.695
  519SOL    HW1 2456   0.746   6.393   0.793
  519SOL    HW2 2457   0.796   6.316   0.658
  520SOL     OW 2458   5.585   4.841   5.065
  520SOL    HW1 2459   5.629   4.923   5.030
  520SOL    HW2 2460   5.602   4.765   5.002
  521SOL     OW 2461   6.674   1.424   1.074
  521SOL    HW1 2462   6.598   1.450   1.133
  521SOL    HW2 2463   6.754   1.401   1.131
  522SOL     OW 2464   4.075   3.262   4.855
  522SOL    HW1 2465   4.119   3.345   4.887
  522SOL    HW2 2466   4.056   3.270   4.757
  523SOL     OW 2467   6.711   6.764   5.428
  523SOL    HW1 2468   6.652   6.695   5.471
  523SOL    HW2 2469   6.666   6.854   5.434
  524SOL     OW 2470   2.924   1.047   5.619
  524SOL    HW1 2471   3.009   1.006   5.650
  524SOL    HW2 2472   2.905   1.016   5.526
  525SOL     OW 2473   2.302   3.509   6.874
  525SOL    HW1 2474   2.352   3.471   6.796
  525SOL    HW2 2475   2.342   3.474   6.959
  526SOL     OW 2476   3.813   5.791   4.726
  526SOL    HW1 2477   3.883   5.837   4.672
  526SOL    HW2 2478   3.725   5.796   4.678
  527SOL     OW 2479   0.610   1.774   6.046
  527SOL    HW1 2480   0.700   1.754   6.084
  527SOL    HW2 2481   0.545   1.789   6.121
  528SOL     OW 2482   2.622   0.261   5.359
  528SOL    HW1 2483   2.663   0.279   5.270
  528SOL    HW2 2484   2.522   0.262   5.351
  529SOL     OW 2485   0.236   4.981   4.111
  529SOL    HW1 2486   0.221   4.889   4.146
  529SOL    HW2 2487   0.193   4.990   4.021
  530SOL     OW 2488   1.829   2.880   5.750
  530SOL    HW1 2489   1.838   2.792   5.702
  530SOL    HW2 2490   1.916   2.903   5.793
  531SOL     OW 2491   6.833   0.137   0.986
  531SOL    HW1 2492   6.897   0.205   0.951
  531SOL    HW2 2493   6.805   0.076   0.911
  532SOL     OW 2494   1.690   0.788   5.413
  532SOL    HW1 2495   1.745   0.871   5.414
  532SOL    HW2 2496   1.595   0.811   5.394
  533SOL     OW 2497   5.481   6.924   4.158
  533SOL    HW1 2498   5.466   6.826   4.152
  533SOL    HW2 2499   5.436   6.960   4.239
  534SOL     OW 2500   4.000   5.986   1.594
  534SOL    HW1 2501   4.004   5.976   1.495
  534SOL    HW2 2502   4.078   5.940   1.636
  535SOL     OW 2503   0.217   3.486   3.279
  535SOL    HW1 2504   0.227   3.426   3.358
  535SOL    HW2 2505   0.299   3.482   3.223
  536SOL     OW 2506   0.761   5.607   0.646
  536SOL    HW1 2507   0.751   5.518   0.601
  536SOL    HW2 2508   0.670   5.644   0.667
  537SOL     OW 2509   2.479   0.454   2.341
  537SOL    HW1 2510   2.576   0.477   2.345
  537SOL    HW2 2511   2.444   0.437   2.434
  538SOL     OW 2512   1.228   5.421   3.660
  538SOL    HW1 2513   1.322   5.418   3.626
  538SOL    HW2 2514   1.165   5.433   3.583
  539SOL     OW 2515   1.662   4.678   1.710
  539SOL    HW1 2516   1.727   4.753   1.724
  539SOL    HW2 2517   1.690   4.624   1.632
  540SOL     OW 2518   1.350   2.013   2.143
  540SOL    HW1 2519   1.367   2.013   2.045
  540SOL    HW2 2520   1.253   2.031   2.160
  541SOL     OW 2521   3.354   5.571   5.175
  541SOL    HW1 2522   3.280   5.596   5.238
  541SOL    HW2 2523   3.342   5.476   5.146
  542SOL     OW 2524   6.236   5.341   0.015
  542SOL    HW1 2525   6.305   5.411   7.018
  542SOL    HW2 2526   6.173   5.372   0.087
  543SOL     OW 2527   7.017   6.049   0.051
  543SOL    HW1 2528   0.033   6.086   6.985
  543SOL    HW2 2529   6.917   6.055   0.052
  544SOL     OW 2530   0.804   5.374   0.470
  544SOL    HW1 2531   0.795   5.426   0.385
  544SOL    HW2 2532   0.727   5.311   0.480
  545SOL     OW 2533   3.675   2.097   3.512
  545SOL    HW1 2534   3.588   2.145   3.525
  545SOL    HW2 2535   3.694   2.041   3.593
  546SOL     OW 2536   0.902   3.815   0.548
  546SOL    HW1 2537   0.860   3.747   0.488
  546SOL    HW2 2538   0.838   3.891   0.562
  547SOL     OW 2539   2.777   3.207   0.218
  547SOL    HW1 2540   2.761   3.109   0.231
  547SOL    HW2 2541   2.842   3.220   0.143
  548SOL     OW 2542   3.585   3.271   4.375
  548SOL    HW1 2543   3.652   3.199   4.390
  548SOL    HW2 2544   3.572   3.323   4.460
  549SOL     OW 2545   6.653   3.164   1.728
  549SOL    HW1 2546   6.740   3.176   1.776
  549SOL    HW2 2547   6.653   3.076   1.681
  550SOL     OW 2548   6.880   3.823   1.780
  550SOL    HW1 2549   6.828   3.817   1.695
  550SOL    HW2 2550   6.859   3.910   1.826
  551SOL     OW 2551   6.575   1.636   6.829
  551SOL    HW1 2552   6.608   1.636   6.924
  551SOL    HW2 2553   6.511   1.712   6.817
  552SOL     OW 2554   4.876   5.792   0.776
  552SOL    HW1 2555   4.865   5.730   0.698
  552SOL    HW2 2556   4.933   5.749   0.846
  553SOL     OW 2557   1.431   1.603   1.802
  553SOL    HW1 2558   1.351   1.633   1.854
  553SOL    HW2 2559   1.514   1.617   1.855
  554SOL     OW 2560   5.386   5.922   5.172
  554SOL    HW1 2561   5.439   5.977   5.108
  554SOL    HW2 2562   5.406   5.825   5.158
  555SOL     OW 2563   1.785   4.280   4.323
  555SOL    HW1 2564   1.695   4.322   4.337
  555SOL    HW2 2565   1.808   4.224   4.403
  556SOL     OW 2566   5.344   3.540   2.941
  556SOL    HW1 2567   5.347   3.640   2.935
  556SOL    HW2 2568   5.410   3.501   2.876
  557SOL     OW 2569   0.122   5.984   6.177
  557SOL    HW1 2570   0.216   6.016   6.170
  557SOL    HW2 2571   0.075   6.032   6.251
  558SOL     OW 2572   4.339   4.034   5.334
  558SOL    HW1 2573   4.268   4.057   5.400
  558SOL    HW2 2574   4.370   3.940   5.349
  559SOL     OW 2575   6.254   5.902   6.472
  559SOL    HW1 2576   6.173   5.855   6.435
  559SOL    HW2 2577   6.234   5.937   6.563
  560SOL     OW 2578   4.137   6.712   6.825
  560SOL    HW1 2579   4.177   6.647   6.891
  560SOL    HW2 2580   4.210   6.765   6.782
  561SOL     OW 2581   5.633   6.836   1.051
  561SOL    HW1 2582   5.546   6.882   1.064
  561SOL    HW2 2583   5.645   6.766   1.122
  562SOL     OW 2584   6.577   1.238   5.718
  562SOL    HW1 2585   6.595   1.309   5.649
  562SOL    HW2 2586   6.652   1.172   5.719
  563SOL     OW 2587   3.332   5.946   4.786
  563SOL    HW1 2588   3.378   5.887   4.851
  563SOL    HW2 2589   3.244   5.906   4.761
  564SOL     OW 2590   0.557   1.761   6.810
  564SOL    HW1 2591   0.593   1.800   6.725
  564SOL    HW2 2592   0.632   1.750   6.875
  565SOL     OW 2593   4.795   4.074   5.092
  565SOL    HW1 2594   4.803   4.053   4.995
  565SOL    HW2 2595   4.745   4.160   5.103
  566SOL     OW 2596   5.384   5.031   3.073
  566SOL    HW1 2597   5.302   4.975   3.085
  566SOL    HW2 2598   5.377   5.083   2.988
  567SOL     OW 2599   4.159   3.536   4.891
  567SOL    HW1 2600   4.070   3.563   4.854
  567SOL    HW2 2601   4.230   3.592   4.849
  568SOL     OW 2602   2.008   1.731   6.426
  568SOL    HW1 2603   2.067   1.658   6.392
  568SOL    HW2 2604   1.983   1.712   6.521
  569SOL     OW 2605   2.535   3.813   0.395
  569SOL    HW1 2606   2.495   3.768   0.475
  569SOL    HW2 2607   2.627   3.846   0.418
  570SOL     OW 2608   0.225   6.355   1.009
  570SOL    HW1 2609   0.252   6.449   0.991
  570SOL    HW2 2610   0.186   6.347   1.100
  571SOL     OW 2611   4.299   5.561   3.039
  571SOL    HW1 2612   4.287   5.650   3.083
  571SOL    HW2 2613   4.210   5.525   3.014
  572SOL     OW 2614   1.647   4.110   4.882
  572SOL    HW1 2615   1.689   4.097   4.793
  572SOL    HW2 2616   1.715   4.144   4.947
  573SOL     OW 2617   3.885   2.294   6.148
  573SOL    HW1 2618   3.961   2.297   6.212
  573SOL    HW2 2619   3.813   2.234   6.184
  574SOL     OW 2620   2.807   1.537   4.630
  574SOL    HW1 2621   2.773   1.527   4.536
  574SOL    HW2 2622   2.782   1.628   4.664
  575SOL     OW 2623   4.971   2.416   6.588
  575SOL    HW1 2624   5.010   2.494   6.540
  575SOL    HW2 2625   5.024   2.397   6.670
  576SOL     OW 2626   0.509   2.016   2.333
  576SOL    HW1 2627   0.565   1.937   2.311
  576SOL    HW2 2628   0.418   2.005   2.292
  577SOL     OW 2629   3.488   2.075   3.792
  577SOL    HW1 2630   3.407   2.120   3.753
  577SOL    HW2 2631   3.536   2.139   3.852
  578SOL     OW 2632   0.478   3.307   4.343
  578SOL    HW1 2633   0.487   3.246   4.264
  578SOL    HW2 2634   0.551   3.376   4.341
  579SOL     OW 2635   3.803   3.338   0.212
  579SOL    HW1 2636   3.890   3.354   0.258
  579SOL    HW2 2637   3.801   3.389   0.126
  580SOL     OW 2638   0.201   6.071   0.313
  580SOL    HW1 2639   0.157   6.072   0.402
  580SOL    HW2 2640   0.134   6.094   0.242
  581SOL     OW 2641   4.030   3.658   2.931
  581SOL    HW1 2642   3.999   3.718   2.857
  581SOL    HW2 2643   3.980   3.680   3.015
  582SOL     OW 2644   6.173   3.765   2.828
  582SOL    HW1 2645   6.129   3.844   2.785
  582SOL    HW2 2646   6.229   3.796   2.905
  583SOL     OW 2647   2.168   5.271   6.833
  583SOL    HW1 2648   2.198   5.336   6.763
  583SOL    HW2 2649   2.154   5.319   6.919
  584SOL     OW 2650   0.996   5.157   4.387
  584SOL    HW1 2651   0.940   5.155   4.470
  584SOL    HW2 2652   1.019   5.064   4.360
  585SOL     OW 2653   0.012   1.388   5.733
  585SOL    HW1 2654   0.029   1.409   5.830
  585SOL    HW2 2655   0.061   1.304   5.709
  586SOL     OW 2656   2.125   6.119   0.305
  586SOL    HW1 2657   2.223   6.125   0.325
  586SOL    HW2 2658   2.112   6.077   0.215
  587SOL     OW 2659   1.085   3.598   5.422
  587SOL    HW1 2660   1.117   3.506   5.402
  587SOL    HW2 2661   1.154   3.664   5.394
  588SOL     OW 2662   2.655   7.018   1.295
  588SOL    HW1 2663   2.730   0.049   1.252
  588SOL    HW2 2664   2.629   0.045   1.380
  589SOL     OW 2665   4.445   5.496   2.533
  589SOL    HW1 2666   4.418   5.502   2.629
  589SOL    HW2 2667   4.509   5.569   2.511
  590SOL     OW 2668   6.653   2.105   1.519
  590SOL    HW1 2669   6.606   2.177   1.469
  590SOL    HW2 2670   6.683   2.140   1.608
  591SOL     OW 2671   3.480   6.739   3.009
  591SOL    HW1 2672   3.456   6.748   2.912
  591SOL    HW2 2673   3.465   6.645   3.038
  592SOL     OW 2674   5.260   1.158   6.938
  592SOL    HW1 2675   5.285   1.098   6.862
  592SOL    HW2 2676   5.256   1.105   0.004
  593SOL     OW 2677   5.932   1.853   3.700
  593SOL    HW1 2678   6.016   1.834   3.649
  593SOL    HW2 2679   5.853   1.825   3.646
  594SOL     OW 2680   5.201   3.263   1.700
  594SOL    HW1 2681   5.194   3.174   1.655
  594SOL    HW2 2682   5.154   3.259   1.789
  595SOL     OW 2683   3.783   0.095   4.347
  595SOL    HW1 2684   3.871   0.049   4.336
  595SOL    HW2 2685   3.733   0.093   4.260
  596SOL     OW 2686   1.076   4.420   2.497
  596SOL    HW1 2687   0.977   4.421   2.511
  596SOL    HW2 2688   1.102   4.340   2.442
  597SOL     OW 2689   3.882   2.020   5.727
  597SOL    HW1 2690   3.906   2.055   5.636
  597SOL    HW2 2691   3.897   2.092   5.795
  598SOL     OW 2692   3.427   3.916   0.834
  598SOL    HW1 2693   3.344   3.881   0.877
  598SOL    HW2 2694   3.508   3.879   0.880
  599SOL     OW 2695   6.959   6.584   2.955
  599SOL    HW1 2696   0.016   6.648   2.949
  599SOL    HW2 2697   6.985   6.507   3.014
  600SOL     OW 2698   2.482   0.706   0.841
  600SOL    HW1 2699   2.497   0.802   0.865
  600SOL    HW2 2700   2.499   0.649   0.922
  601SOL     OW 2701   3.072   4.919   3.953
  601SOL    HW1 2702   3.058   5.018   3.958
  601SOL    HW2 2703   3.086   4.892   3.859
  602SOL     OW 2704   0.621   0.515   1.394
  602SOL    HW1 2705   0.656   0.565   1.315
  602SOL    HW2 2706   0.607   0.577   1.470
  603SOL     OW 2707   4.069   2.217   3.152
  603SOL    HW1 2708   3.984   2.179   3.188
  603SOL    HW2 2709   4.081   2.187   3.057
  604SOL     OW 2710   0.685   4.236   5.641
  604SOL    HW1 2711   0.728   4.206   5.726
  604SOL    HW2 2712   0.633   4.320   5.657
  605SOL     OW 2713   6.038   0.326   4.737
  605SOL    HW1 2714   5.943   0.333   4.768
  605SOL    HW2 2715   6.050   0.377   4.652
  606SOL     OW 2716   3.842   0.079   3.097
  606SOL    HW1 2717   3.833   0.020   3.016
  606SOL    HW2 2718   3.878   0.025   3.173
  607SOL     OW 2719   4.979   0.993   3.462
  607SOL    HW1 2720   4.983   0.996   3.363
  607SOL    HW2 2721   4.943   1.080   3.497
  608SOL     OW 2722   4.494   1.987   1.665
  608SOL    HW1 2723   4.500   1.891   1.635
  608SOL    HW2 2724   4.399   2.018   1.658
  609SOL     OW 2725   3.053   3.603   3.999
  609SOL    HW1 2726   3.095   3.581   4.087
  609SOL    HW2 2727   3.008   3.522   3.962
  610SOL     OW 2728   5.254   1.851   4.209
  610SOL    HW1 2729   5.320   1.926   4.200
  610SOL    HW2 2730   5.257   1.793   4.128
  611SOL     OW 2731   6.518   0.284   0.723
  611SOL    HW1 2732   6.550   0.212   0.785
  611SOL    HW2 2733   6.455   0.244   0.656
  612SOL     OW 2734   2.909   5.489   5.848
  612SOL    HW1 2735   2.879   5.484   5.752
  612SOL    HW2 2736   3.001   5.528   5.852
  613SOL     OW 2737   3.305   2.412   6.920
  613SOL    HW1 2738   3.277   2.380   7.011
  613SOL    HW2 2739   3.387   2.468   6.928
  614SOL     OW 2740   5.148   3.857   0.900
  614SOL    HW1 2741   5.101   3.804   0.971
  614SOL    HW2 2742   5.098   3.942   0.884
  615SOL     OW 2743   5.979   6.398   1.541
  615SOL    HW1 2744   5.952   6.472   1.479
  615SOL    HW2 2745   6.047   6.432   1.606
  616SOL     OW 2746   6.035   0.660   5.185
  616SOL    HW1 2747   6.027   0.716   5.103
  616SOL    HW2 2748   6.028   0.563   5.161
  617SOL     OW 2749   6.822   5.630   5.808
  617SOL    HW1 2750   6.894   5.635   5.738
  617SOL    HW2 2751   6.864   5.616   5.897
  618SOL     OW 2752   5.950   4.155   0.242
  618SOL    HW1 2753   5.924   4.246   0.210
  618SOL    HW2 2754   5.995   4.164   0.331
  619SOL     OW 2755   2.451   6.844   6.459
  619SOL    HW1 2756   2.468   6.777   6.387
  619SOL    HW2 2757   2.525   6.840   6.526
  620SOL     OW 2758   5.504   1.580   2.082
  620SOL    HW1 2759   5.453   1.562   1.998
  620SOL    HW2 2760   5.526   1.678   2.088
  621SOL     OW 2761   3.046   0.395   6.729
  621SOL    HW1 2762   3.063   0.494   6.733
  621SOL    HW2 2763   2.948   0.378   6.735
  622SOL     OW 2764   0.851   2.530   5.133
  622SOL    HW1 2765   0.875   2.575   5.047
  622SOL    HW2 2766   0.758   2.557   5.160
  623SOL     OW 2767   5.941   0.372   3.963
  623SOL    HW1 2768   6.014   0.440   3.970
  623SOL    HW2 2769   5.957   0.299   4.029
  624SOL     OW 2770   6.872   0.226   6.430
  624SOL    HW1 2771   6.806   0.300   6.416
  624SOL    HW2 2772   6.899   0.188   6.341
  625SOL     OW 2773   3.421   1.546   0.963
  625SOL    HW1 2774   3.335   1.537   1.012
  625SOL    HW2 2775   3.480   1.610   1.011
  626SOL     OW 2776   6.740   6.113   3.853
  626SOL    HW1 2777   6.827   6.153   3.824
  626SOL    HW2 2778   6.739   6.102   3.952
  627SOL     OW 2779   6.305   6.809   0.243
  627SOL    HW1 2780   6.276   6.730   0.188
  627SOL    HW2 2781   6.270   6.893   0.202
  628SOL     OW 2782   4.361   4.379   6.336
  628SOL    HW1 2783   4.278   4.432   6.350
  628SOL    HW2 2784   4.372   4.362   6.238
  629SOL     OW 2785   1.688   6.893   6.989
  629SOL    HW1 2786   1.647   6.960   6.927
  629SOL    HW2 2787   1.685   6.802   6.947
  630SOL     OW 2788   6.094   1.403   0.917
  630SOL    HW1 2789   6.094   1.384   0.819
  630SOL    HW2 2790   6.002   1.391   0.954
  631SOL     OW 2791   1.431   2.360   3.944
  631SOL    HW1 2792   1.420   2.306   3.860
  631SOL    HW2 2793   1.515   2.332   3.991
  632SOL     OW 2794   3.049   4.115   0.352
  632SOL    HW1 2795   3.127   4.078   0.403
  632SOL    HW2 2796   3.053   4.083   0.257
  633SOL     OW 2797   1.421   5.443   0.840
  633SOL    HW1 2798   1.362   5.380   0.788
  633SOL    HW2 2799   1.382   5.460   0.930
  634SOL     OW 2800   3.139   3.425   4.603
  634SOL    HW1 2801   3.040   3.409   4.603
  634SOL    HW2 2802   3.186   3.338   4.587
  635SOL     OW 2803   6.120   0.231   6.495
  635SOL    HW1 2804   6.132   0.311   6.553
  635SOL    HW2 2805   6.079   0.157   6.548
  636SOL     OW 2806   2.821   0.717   5.452
  636SOL    HW1 2807   2.780   0.765   5.530
  636SOL    HW2 2808   2.855   0.783   5.386
  637SOL     OW 2809   0.050   0.972   2.672
  637SOL    HW1 2810   0.110   1.011   2.603
  637SOL    HW2 2811   6.981   0.950   2.630
  638SOL     OW 2812   6.829   2.982   5.035
  638SOL    HW1 2813   6.734   2.955   5.019
  638SOL    HW2 2814   6.831   3.068   5.086
  639SOL     OW 2815   5.670   4.433   2.064
  639SOL    HW1 2816   5.652   4.424   2.162
  639SOL    HW2 2817   5.600   4.491   2.022
  640SOL     OW 2818   0.374   2.422   2.310
  640SOL    HW1 2819   0.469   2.439   2.335
  640SOL    HW2 2820   0.318   2.420   2.393
  641SOL     OW 2821   2.106   4.995   4.107
  641SOL    HW1 2822   2.152   5.026   4.190
  641SOL    HW2 2823   2.165   5.011   4.028
  642SOL     OW 2824   1.034   4.609   4.745
  642SOL    HW1 2825   0.943   4.646   4.728
  642SOL    HW2 2826   1.044   4.587   4.842
  643SOL     OW 2827   4.047   5.088   0.710
  643SOL    HW1 2828   4.064   5.128   0.801
  643SOL    HW2 2829   4.070   5.156   0.640
  644SOL     OW 2830   0.094   6.675   5.229
  644SOL    HW1 2831   0.067   6.771   5.240
  644SOL    HW2 2832   0.193   6.667   5.246
  645SOL     OW 2833   4.100   5.544   2.539
  645SOL    HW1 2834   4.185   5.508   2.501
  645SOL    HW2 2835   4.027   5.535   2.471
  646SOL     OW 2836   3.799   2.044   4.423
  646SOL    HW1 2837   3.819   1.948   4.445
  646SOL    HW2 2838   3.862   2.104   4.472
  647SOL     OW 2839   3.535   2.372   6.119
  647SOL    HW1 2840   3.527   2.426   6.036
  647SOL    HW2 2841   3.498   2.424   6.196
  648SOL     OW 2842   5.872   1.072   3.064
  648SOL    HW1 2843   5.944   1.003   3.065
  648SOL    HW2 2844   5.913   1.163   3.064
  649SOL     OW 2845   2.154   5.064   0.504
  649SOL    HW1 2846   2.132   5.158   0.477
  649SOL    HW2 2847   2.187   5.013   0.424
  650SOL     OW 2848   6.946   3.515   1.100
  650SOL    HW1 2849   7.017   3.491   1.167
  650SOL    HW2 2850   6.939   3.443   1.031
  651SOL     OW 2851   0.981   0.549   4.254
  651SOL    HW1 2852   1.032   0.479   4.205
  651SOL    HW2 2853   0.973   0.523   4.351
  652SOL     OW 2854   4.292   6.057   1.332
  652SOL    HW1 2855   4.218   6.115   1.367
  652SOL    HW2 2856   4.371   6.064   1.392
  653SOL     OW 2857   2.034   6.976   2.440
  653SOL    HW1 2858   2.020   6.879   2.423
  653SOL    HW2 2859   2.121   6.990   2.487
  654SOL     OW 2860   1.205   0.017   6.038
  654SOL    HW1 2861   1.271   0.091   6.044
  654SOL    HW2 2862   1.247   6.957   5.994
  655SOL     OW 2863   0.491   3.698   1.539
  655SOL    HW1 2864   0.497   3.784   1.591
  655SOL    HW2 2865   0.510   3.716   1.442
  656SOL     OW 2866   3.108   6.081   0.211
  656SOL    HW1 2867   3.078   6.152   0.275
  656SOL    HW2 2868   3.035   6.012   0.202
  657SOL     OW 2869   4.034   3.659   3.448
  657SOL    HW1 2870   4.092   3.630   3.524
  657SOL    HW2 2871   3.946   3.690   3.484
  658SOL     OW 2872   1.254   1.747   4.367
  658SOL    HW1 2873   1.338   1.788   4.401
  658SOL    HW2 2874   1.199   1.714   4.444
  659SOL     OW 2875   1.856   5.463   6.315
  659SOL    HW1 2876   1.864   5.515   6.230
  659SOL    HW2 2877   1.782   5.500   6.370
  660SOL     OW 2878   4.624   4.785   3.142
  660SOL    HW1 2879   4.689   4.711   3.161
  660SOL    HW2 2880   4.674   4.871   3.136
  661SOL     OW 2881   4.361   5.127   4.177
  661SOL    HW1 2882   4.336   5.139   4.081
  661SOL    HW2 2883   4.425   5.050   4.185
  662SOL     OW 2884   4.736   3.521   0.166
  662SOL    HW1 2885   4.806   3.490   0.102
  662SOL    HW2 2886   4.718   3.618   0.151
  663SOL     OW 2887   6.865   4.539   6.845
  663SOL    HW1 2888   6.885   4.504   6.937
  663SOL    HW2 2889   6.944   4.526   6.786
  664SOL     OW 2890   1.853   0.022   6.257
  664SOL    HW1 2891   1.852   6.995   6.169
  664SOL    HW2 2892   1.868   6.973   6.330
  665SOL     OW 2893   3.716   4.900   2.488
  665SOL    HW1 2894   3.777   4.911   2.410
  665SOL    HW2 2895   3.632   4.952   2.473
  666SOL     OW 2896   3.048   0.963   0.179
  666SOL    HW1 2897   2.987   1.022   0.126
  666SOL    HW2 2898   3.028   0.973   0.276
  667SOL     OW 2899   0.986   3.568   2.344
  667SOL    HW1 2900   1.037   3.537   2.264
  667SOL    HW2 2901   1.050   3.586   2.419
  668SOL     OW 2902   5.263   6.634   0.237
  668SOL    HW1 2903   5.221   6.698   0.173
  668SOL    HW2 2904   5.323   6.684   0.299
  669SOL     OW 2905   1.754   5.797   2.516
  669SOL    HW1 2906   1.793   5.707   2.496
  669SOL    HW2 2907   1.805   5.840   2.591
  670SOL     OW 2908   3.369   3.513   3.140
  670SOL    HW1 2909   3.281   3.465   3.139
  670SOL    HW2 2910   3.354   3.611   3.151
  671SOL     OW 2911   1.927   0.489   6.647
  671SOL    HW1 2912   2.005   0.469   6.588
  671SOL    HW2 2913   1.951   0.468   6.742
  672SOL     OW 2914   1.177   2.038   2.860
  672SOL    HW1 2915   1.125   2.099   2.920
  672SOL    HW2 2916   1.242   2.091   2.806
  673SOL     OW 2917   4.818   0.129   0.292
  673SOL    HW1 2918   4.812   0.073   0.375
  673SOL    HW2 2919   4.892   0.195   0.301
  674SOL     OW 2920   6.925   1.691   4.372
  674SOL    HW1 2921   6.863   1.657   4.301
  674SOL    HW2 2922   7.004   1.735   4.329
  675SOL     OW 2923   5.818   0.361   4.326
  675SOL    HW1 2924   5.816   0.455   4.292
  675SOL    HW2 2925   5.848   0.300   4.253
  676SOL     OW 2926   2.185   4.551   3.986
  676SOL    HW1 2927   2.157   4.617   4.056
  676SOL    HW2 2928   2.182   4.595   3.896
  677SOL     OW 2929   5.323   0.306   0.787
  677SOL    HW1 2930   5.250   0.369   0.812
  677SOL    HW2 2931   5.341   0.244   0.864
  678SOL     OW 2932   2.504   1.351   5.809
  678SOL    HW1 2933   2.603   1.371   5.810
  678SOL    HW2 2934   2.474   1.328   5.901
  679SOL     OW 2935   6.633   0.871   2.199
  679SOL    HW1 2936   6.639   0.963   2.236
  679SOL    HW2 2937   6.642   0.873   2.100
  680SOL     OW 2938   5.542   4.283   5.075
  680SOL    HW1 2939   5.616   4.347   5.096
  680SOL    HW2 2940   5.469   4.292   5.143
  681SOL     OW 2941   1.551   6.859   2.065
  681SOL    HW1 2942   1.570   6.895   1.973
  681SOL    HW2 2943   1.568   6.760   2.065
  682SOL     OW 2944   0.413   6.608   6.526
  682SOL    HW1 2945   0.359   6.624   6.610
  682SOL    HW2 2946   0.483   6.679   6.518
  683SOL     OW 2947   5.449   2.138   0.050
  683SOL    HW1 2948   5.483   2.197   0.123
  683SOL    HW2 2949   5.507   2.148   6.988
  684SOL     OW 2950   0.308   6.044   6.459
  684SOL    HW1 2951   0.393   6.082   6.495
  684SOL    HW2 2952   0.307   6.056   6.359
  685SOL     OW 2953   5.805   1.248   6.258
  685SOL    HW1 2954   5.743   1.238   6.181
  685SOL    HW2 2955   5.889   1.198   6.240
  686SOL     OW 2956   5.357   4.657   3.326
  686SOL    HW1 2957   5.355   4.689   3.421
  686SOL    HW2 2958   5.446   4.615   3.307
  687SOL     OW 2959   6.252   2.380   5.252
  687SOL    HW1 2960   6.294   2.318   5.319
  687SOL    HW2 2961   6.212   2.326   5.178
  688SOL     OW 2962   0.495   3.259   4.603
  688SOL    HW1 2963   0.486   3.159   4.604
  688SOL    HW2 2964   0.482   3.292   4.510
  689SOL     OW 2965   5.866   4.196   4.753
  689SOL    HW1 2966   5.771   4.219   4.734
  689SOL    HW2 2967   5.873   4.156   4.844
  690SOL     OW 2968   0.581   2.936   3.971
  690SOL    HW1 2969   0.569   2.876   4.050
  690SOL    HW2 2970   0.518   2.909   3.899
  691SOL     OW 2971   6.716   3.116   6.959
  691SOL    HW1 2972   6.629   3.069   6.972
  691SOL    HW2 2973   6.709   3.210   6.992
  692SOL     OW 2974   2.518   0.121   3.017
  692SOL    HW1 2975   2.583   0.047   3.001
  692SOL    HW2 2976   2.533   0.161   3.107
  693SOL     OW 2977   6.489   1.507   2.741
  693SOL    HW1 2978   6.540   1.500   2.827
  693SOL    HW2 2979   6.518   1.433   2.679
  694SOL     OW 2980   1.708   0.568   2.324
  694SOL    HW1 2981   1.741   0.614   2.241
  694SOL    HW2 2982   1.624   0.517   2.303
  695SOL     OW 2983   4.387   5.574   6.581
  695SOL    HW1 2984   4.460   5.510   6.605
  695SOL    HW2 2985   4.423   5.668   6.582
  696SOL     OW 2986   4.898   6.126   2.811
  696SOL    HW1 2987   4.968   6.070   2.854
  696SOL    HW2 2988   4.929   6.154   2.720
  697SOL     OW 2989   1.508   3.930   3.666
  697SOL    HW1 2990   1.587   3.949   3.724
  697SOL    HW2 2991   1.434   3.993   3.690
  698SOL     OW 2992   4.610   6.421   4.040
  698SOL    HW1 2993   4.669   6.449   3.965
  698SOL    HW2 2994   4.621   6.484   4.117
  699SOL     OW 2995   0.974   4.329   0.138
  699SOL    HW1 2996   0.981   4.249   0.079
  699SOL    HW2 2997   0.889   4.325   0.189
  700SOL     OW 2998   2.300   1.383   4.179
  700SOL    HW1 2999   2.233   1.362   4.250
  700SOL    HW2 3000   2.360   1.303   4.165
  701SOL     OW 3001   1.070   4.743   5.884
  701SOL    HW1 3002   1.024   4.719   5.799
  701SOL    HW2 3003   1.130   4.668   5.912
  702SOL     OW 3004   5.436   5.778   4.679
  702SOL    HW1 3005   5.422   5.679   4.671
  702SOL    HW2 3006   5.350   5.826   4.662
  703SOL     OW 3007   4.326   3.914   6.890
  703SOL    HW1 3008   4.275   3.999   6.895
  703SOL    HW2 3009   4.375   3.908   6.803
  704SOL     OW 3010   2.762   0.290   1.341
  704SOL    HW1 3011   2.684   0.350   1.325
  704SOL    HW2 3012   2.782   0.239   1.257
  705SOL     OW 3013   6.916   1.988   3.698
  705SOL    HW1 3014   6.947   1.957   3.608
  705SOL    HW2 3015   6.817   1.999   3.697
  706SOL     OW 3016   4.669   2.087   3.973
  706SOL    HW1 3017   4.696   2.009   3.917
  706SOL    HW2 3018   4.611   2.056   4.049
  707SOL     OW 3019   4.672   2.203   1.723
  707SOL    HW1 3020   4.607   2.134   1.691
  707SOL    HW2 3021   4.628   2.260   1.792
  708SOL     OW 3022   4.148   0.607   1.686
  708SOL    HW1 3023   4.159   0.690   1.741
  708SOL    HW2 3024   4.097   0.629   1.603
  709SOL     OW 3025   0.438   5.214   0.103
  709SOL    HW1 3026   0.467   5.309   0.089
  709SOL    HW2 3027   0.362   5.193   0.042
  710SOL     OW 3028   3.254   3.238   2.542
  710SOL    HW1 3029   3.172   3.196   2.580
  710SOL    HW2 3030   3.238   3.262   2.447
  711SOL     OW 3031   1.768   0.344   4.432
  711SOL    HW1 3032   1.704   0.321   4.359
  711SOL    HW2 3033   1.743   0.433   4.471
  712SOL     OW 3034   1.079   4.004   1.563
  712SOL    HW1 3035   1.152   4.012   1.494
  712SOL    HW2 3036   1.107   4.051   1.646
  713SOL     OW 3037   3.956   3.932   3.320
  713SOL    HW1 3038   3.966   4.021   3.365
  713SOL    HW2 3039   4.013   3.865   3.368
  714SOL     OW 3040   4.868   4.848   5.699
  714SOL    HW1 3041   4.775   4.813   5.710
  714SOL    HW2 3042   4.902   4.881   5.787
  715SOL     OW 3043   4.326   1.129   6.506
  715SOL    HW1 3044   4.347   1.091   6.596
  715SOL    HW2 3045   4.247   1.190   6.514
  716SOL     OW 3046   6.822   5.030   2.203
  716SOL    HW1 3047   6.748   4.967   2.184
  716SOL    HW2 3048   6.790   5.124   2.194
  717SOL     OW 3049   5.617   3.255   0.397
  717SOL    HW1 3050   5.631   3.352   0.418
  717SOL    HW2 3051   5.623   3.202   0.481
  718SOL     OW 3052   3.240   3.756   6.800
  718SOL    HW1 3053   3.307   3.698   6.754
  718SOL    HW2 3054   3.152   3.709   6.807
  719SOL     OW 3055   5.298   5.029   0.106
  719SOL    HW1 3056   5.387   5.071   0.120
  719SOL    HW2 3057   5.287   5.007   0.009
  720SOL     OW 3058   2.285   0.632   6.471
  720SOL    HW1 3059   2.226   0.558   6.503
  720SOL    HW2 3060   2.350   0.597   6.404
  721SOL     OW 3061   1.508   6.586   5.602
  721SOL    HW1 3062   1.566   6.657   5.643
  721SOL    HW2 3063   1.482   6.614   5.509
  722SOL     OW 3064   4.567   6.493   6.211
  722SOL    HW1 3065   4.539   6.486   6.306
  722SOL    HW2 3066   4.666   6.504   6.205
  723SOL     OW 3067   1.905   3.401   1.741
  723SOL    HW1 3068   1.808   3.422   1.729
  723SOL    HW2 3069   1.919   3.302   1.730
  724SOL     OW 3070   6.666   0.685   4.685
  724SOL    HW1 3071   6.753   0.732   4.675
  724SOL    HW2 3072   6.671   0.620   4.760
  725SOL     OW 3073   2.668   4.543   0.977
  725SOL    HW1 3074   2.757   4.563   0.936
  725SOL    HW2 3075   2.630   4.460   0.935
  726SOL     OW 3076   4.195   6.880   6.129
  726SOL    HW1 3077   4.243   6.801   6.167
  726SOL    HW2 3078   4.129   6.849   6.060
  727SOL     OW 3079   2.619   4.537   3.885
  727SOL    HW1 3080   2.565   4.519   3.967
  727SOL    HW2 3081   2.561   4.524   3.804
  728SOL     OW 3082   0.083   2.870   5.228
  728SOL    HW1 3083   0.001   2.818   5.203
  728SOL    HW2 3084   0.128   2.903   5.146
  729SOL     OW 3085   2.863   0.464   0.495
  729SOL    HW1 3086   2.819   0.518   0.423
  729SOL    HW2 3087   2.826   0.491   0.584
  730SOL     OW 3088   6.059   0.481   5.456
  730SOL    HW1 3089   6.033   0.573   5.486
  730SOL    HW2 3090   5.978   0.422   5.455
  731SOL     OW 3091   6.359   3.224   3.932
  731SOL    HW1 3092   6.271   3.268   3.915
  731SOL    HW2 3093   6.371   3.211   4.030
  732SOL     OW 3094   6.457   2.844   2.304
  732SOL    HW1 3095   6.517   2.764   2.301
  732SOL    HW2 3096   6.448   2.875   2.399
  733SOL     OW 3097   4.315   4.766   3.874
  733SOL    HW1 3098   4.361   4.709   3.942
  733SOL    HW2 3099   4.376   4.779   3.795
  734SOL     OW 3100   7.015   4.722   0.884
  734SOL    HW1 3101   0.003   4.637   0.832
  734SOL    HW2 3102   6.921   4.756   0.879
  735SOL     OW 3103   2.140   4.828   6.458
  735SOL    HW1 3104   2.217   4.843   6.396
  735SOL    HW2 3105   2.173   4.831   6.553
  736SOL     OW 3106   6.107   0.937   3.027
  736SOL    HW1 3107   6.105   0.839   3.006
  736SOL    HW2 3108   6.118   0.989   2.942
  737SOL     OW 3109   5.783   4.135   0.617
  737SOL    HW1 3110   5.738   4.126   0.529
  737SOL    HW2 3111   5.828   4.049   0.641
  738SOL     OW 3112   1.244   4.404   2.918
  738SOL    HW1 3113   1.213   4.486   2.967
  738SOL    HW2 3114   1.288   4.430   2.832
  739SOL     OW 3115   4.381   6.108   6.733
  739SOL    HW1 3116   4.472   6.146   6.719
  739SOL    HW2 3117   4.351   6.063   6.649
  740SOL     OW 3118   5.497   0.309   1.075
  740SOL    HW1 3119   5.558   0.325   0.997
  740SOL    HW2 3120   5.526   0.366   1.152
  741SOL     OW 3121   2.828   0.666   3.699
  741SOL    HW1 3122   2.783   0.743   3.653
  741SOL    HW2 3123   2.826   0.681   3.798
  742SOL     OW 3124   2.002   0.276   2.832
  742SOL    HW1 3125   1.984   0.206   2.762
  742SOL    HW2 3126   1.924   0.281   2.894
  743SOL     OW 3127   2.131   3.519   4.036
  743SOL    HW1 3128   2.216   3.474   4.008
  743SOL    HW2 3129   2.128   3.523   4.136
  744SOL     OW 3130   0.221   6.525   1.255
  744SOL    HW1 3131   0.292   6.455   1.266
  744SOL    HW2 3132   0.131   6.485   1.274
  745SOL     OW 3133   1.655   6.428   2.980
  745SOL    HW1 3134   1.699   6.359   3.038
  745SOL    HW2 3135   1.671   6.519   3.017
  746SOL     OW 3136   3.160   0.672   4.718
  746SOL    HW1 3137   3.170   0.589   4.663
  746SOL    HW2 3138   3.150   0.751   4.657
  747SOL     OW 3139   5.803   5.006   2.189
  747SOL    HW1 3140   5.717   5.012   2.138
  747SOL    HW2 3141   5.790   5.042   2.281
  748SOL     OW 3142   3.865   3.031   1.892
  748SOL    HW1 3143   3.921   3.063   1.969
  748SOL    HW2 3144   3.920   2.971   1.833
  749SOL     OW 3145   7.014   1.350   5.112
  749SOL    HW1 3146   0.053   1.409   5.056
  749SOL    HW2 3147   6.992   1.267   5.062
  750SOL     OW 3148   2.787   4.332   0.711
  750SOL    HW1 3149   2.786   4.240   0.672
  750SOL    HW2 3150   2.881   4.368   0.709
  751SOL     OW 3151   4.689   1.261   0.528
  751SOL    HW1 3152   4.766   1.289   0.471
  751SOL    HW2 3153   4.678   1.327   0.603
  752SOL     OW 3154   5.058   1.150   1.354
  752SOL    HW1 3155   5.022   1.238   1.323
  752SOL    HW2 3156   5.156   1.159   1.373
  753SOL     OW 3157   2.288   1.847   3.023
  753SOL    HW1 3158   2.238   1.899   3.092
  753SOL    HW2 3159   2.280   1.894   2.935
  754SOL     OW 3160   4.910   5.481   6.755
  754SOL    HW1 3161   4.995   5.429   6.756
  754SOL    HW2 3162   4.884   5.501   6.661
  755SOL     OW 3163   0.377   6.306   2.755
  755SOL    HW1 3164   0.320   6.273   2.680
  755SOL    HW2 3165   0.329   6.380   2.803
  756SOL     OW 3166   4.135   0.186   3.459
  756SOL    HW1 3167   4.087   0.265   3.419
  756SOL    HW2 3168   4.205   0.155   3.395
  757SOL     OW 3169   7.016   0.928   4.603
  757SOL    HW1 3170   0.013   0.842   4.555
  757SOL    HW2 3171   0.062   0.937   4.678
  758SOL     OW 3172   4.368   2.475   1.747
  758SOL    HW1 3173   4.419   2.429   1.674
  758SOL    HW2 3174   4.387   2.430   1.834
  759SOL     OW 3175   1.350   1.267   0.240
  759SOL    HW1 3176   1.287   1.294   0.168
  759SOL    HW2 3177   1.422   1.209   0.202
  760SOL     OW 3178   4.269   1.320   6.079
  760SOL    HW1 3179   4.239   1.239   6.027
  760SOL    HW2 3180   4.323   1.380   6.020
  761SOL     OW 3181   5.888   2.760   6.923
  761SOL    HW1 3182   5.964   2.740   6.986
  761SOL    HW2 3183   5.824   2.684   6.923
  762SOL     OW 3184   2.116   5.313   3.968
  762SOL    HW1 3185   2.061   5.366   4.033
  762SOL    HW2 3186   2.110   5.356   3.878
  763SOL     OW 3187   5.880   4.877   6.269
  763SOL    HW1 3188   5.810   4.807   6.286
  763SOL    HW2 3189   5.919   4.907   6.356
  764SOL     OW 3190   4.376   1.251   2.608
  764SOL    HW1 3191   4.472   1.238   2.585
  764SOL    HW2 3192   4.323   1.262   2.524
  765SOL     OW 3193   0.273   6.882   3.437
  765SOL    HW1 3194   0.197   6.832   3.395
  765SOL    HW2 3195   0.330   6.923   3.366
  766SOL     OW 3196   0.372   6.422   0.448
  766SOL    HW1 3197   0.292   6.473   0.418
  766SOL    HW2 3198   0.405   6.459   0.534
  767SOL     OW 3199   6.386   6.692   1.889
  767SOL    HW1 3200   6.357   6.778   1.849
  767SOL    HW2 3201   6.458   6.709   1.957
  768SOL     OW 3202   3.540   6.575   3.325
  768SOL    HW1 3203   3.633   6.599   3.351
  768SOL    HW2 3204   3.513   6.490   3.370
  769SOL     OW 3205   3.331   0.822   6.609
  769SOL    HW1 3206   3.311   0.741   6.554
  769SOL    HW2 3207   3.428   0.845   6.600
  770SOL     OW 3208   3.720   4.855   3.834
  770SOL    HW1 3209   3.722   4.768   3.883
  770SOL    HW2 3210   3.671   4.923   3.889
  771SOL     OW 3211   0.503   5.883   3.318
  771SOL    HW1 3212   0.542   5.935   3.242
  771SOL    HW2 3213   0.491   5.788   3.292
  772SOL     OW 3214   6.865   4.487   5.191
  772SOL    HW1 3215   6.894   4.500   5.096
  772SOL    HW2 3216   6.843   4.576   5.232
  773SOL     OW 3217   0.303   4.005   1.854
  773SOL    HW1 3218   0.228   4.069   1.833
  773SOL    HW2 3219   0.269   3.911   1.852
  774SOL     OW 3220   1.683   0.750   1.589
  774SOL    HW1 3221   1.653   0.844   1.605
  774SOL    HW2 3222   1.756   0.726   1.652
  775SOL     OW 3223   1.290   2.045   4.193
  775SOL    HW1 3224   1.335   2.099   4.263
  775SOL    HW2 3225   1.197   2.022   4.222
  776SOL     OW 3226   2.242   0.735   5.966
  776SOL    HW1 3227   2.190   0.699   6.044
  776SOL    HW2 3228   2.229   0.834   5.961
  777SOL     OW 3229   4.666   0.350   0.630
  777SOL    HW1 3230   4.756   0.308   0.615
  777SOL    HW2 3231   4.676   0.449   0.632
  778SOL     OW 3232   4.508   6.640   3.830
  778SOL    HW1 3233   4.497   6.715   3.895
  778SOL    HW2 3234   4.417   6.610   3.798
  779SOL     OW 3235   0.815   1.081   2.245
  779SOL    HW1 3236   0.911   1.084   2.218
  779SOL    HW2 3237   0.772   0.999   2.207
  780SOL     OW 3238   5.103   3.526   5.172
  780SOL    HW1 3239   5.195   3.526   5.132
  780SOL    HW2 3240   5.057   3.441   5.148
  781SOL     OW 3241   0.767   1.515   6.014
  781SOL    HW1 3242   0.817   1.587   5.964
  781SOL    HW2 3243   0.795   1.426   5.979
  782SOL     OW 3244   0.487   3.815   0.872
  782SOL    HW1 3245   0.468   3.835   0.776
  782SOL    HW2 3246   0.440   3.731   0.898
  783SOL     OW 3247   2.808   4.149   0.478
  783SOL    HW1 3248   2.769   4.227   0.429
  783SOL    HW2 3249   2.907   4.148   0.465
  784SOL     OW 3250   5.404   0.116   3.974
  784SOL    HW1 3251   5.397   0.052   4.051
  784SOL    HW2 3252   5.461   0.194   4.001
  785SOL     OW 3253   6.625   2.284   3.891
  785SOL    HW1 3254   6.668   2.369   3.859
  785SOL    HW2 3255   6.689   2.235   3.950
  786SOL     OW 3256   6.197   0.007   0.120
  786SOL    HW1 3257   6.145   0.062   0.055
  786SOL    HW2 3258   6.233   0.065   0.193
  787SOL     OW 3259   3.594   1.230   6.681
  787SOL    HW1 3260   3.577   1.313   6.627
  787SOL    HW2 3261   3.586   1.150   6.621
  788SOL     OW 3262   0.877   4.453   3.658
  788SOL    HW1 3263   0.856   4.550   3.649
  788SOL    HW2 3264   0.928   4.438   3.742
  789SOL     OW 3265   5.804   3.960   0.883
  789SOL    HW1 3266   5.887   4.015   0.877
  789SOL    HW2 3267   5.798   3.901   0.802
  790SOL     OW 3268   3.348   1.177   4.132
  790SOL    HW1 3269   3.348   1.274   4.106
  790SOL    HW2 3270   3.431   1.133   4.096
  791SOL     OW 3271   4.143   1.916   4.020
  791SOL    HW1 3272   4.192   1.870   4.094
  791SOL    HW2 3273   4.171   2.012   4.015
  792SOL     OW 3274   5.894   0.658   3.276
  792SOL    HW1 3275   5.977   0.626   3.230
  792SOL    HW2 3276   5.900   0.640   3.374
  793SOL     OW 3277   6.701   6.838   6.425
  793SOL    HW1 3278   6.696   6.905   6.499
  793SOL    HW2 3279   6.786   6.850   6.374
  794SOL     OW 3280   2.502   5.126   5.328
  794SOL    HW1 3281   2.553   5.103   5.411
  794SOL    HW2 3282   2.415   5.168   5.354
  795SOL     OW 3283   4.944   4.599   6.275
  795SOL    HW1 3284   4.850   4.578   6.300
  795SOL    HW2 3285   4.996   4.624   6.357
  796SOL     OW 3286   0.957   2.403   5.784
  796SOL    HW1 3287   0.945   2.325   5.846
  796SOL    HW2 3288   1.007   2.476   5.832
  797SOL     OW 3289   6.155   2.567   5.021
  797SOL    HW1 3290   6.234   2.568   5.081
  797SOL    HW2 3291   6.106   2.481   5.031
  798SOL     OW 3292   6.243   0.628   5.741
  798SOL    HW1 3293   6.296   0.551   5.706
  798SOL    HW2 3294   6.283   0.714   5.708
  799SOL     OW 3295   6.713   3.422   3.156
  799SOL    HW1 3296   6.760   3.354   3.212
  799SOL    HW2 3297   6.661   3.484   3.215
  800SOL     OW 3298   6.885   1.759   1.957
  800SOL    HW1 3299   6.857   1.818   2.033
  800SOL    HW2 3300   6.848   1.667   1.971
  801SOL     OW 3301   0.006   2.312   3.966
  801SOL    HW1 3302   6.956   2.357   4.023
  801SOL    HW2 3303   7.005   2.215   3.959
  802SOL     OW 3304   6.020   1.062   0.729
  802SOL    HW1 3305   5.942   1.069   0.790
  802SOL    HW2 3306   6.085   0.996   0.766
  803SOL     OW 3307   1.132   6.786   4.702
  803SOL    HW1 3308   1.080   6.809   4.784
  803SOL    HW2 3309   1.214   6.844   4.697
  804SOL     OW 3310   6.662   0.582   0.453
  804SOL    HW1 3311   6.707   0.508   0.503
  804SOL    HW2 3312   6.568   0.556   0.432
  805SOL     OW 3313   1.299   3.258   6.074
  805SOL    HW1 3314   1.346   3.342   6.048
  805SOL    HW2 3315   1.357   3.204   6.135
  806SOL     OW 3316   5.619   1.162   0.644
  806SOL    HW1 3317   5.681   1.169   0.566
  806SOL    HW2 3318   5.524   1.170   0.611
  807SOL     OW 3319   1.830   0.294   3.049
  807SOL    HW1 3320   1.876   0.295   3.138
  807SOL    HW2 3321   1.745   0.347   3.055
  808SOL     OW 3322   5.616   3.352   4.681
  808SOL    HW1 3323   5.611   3.339   4.582
  808SOL    HW2 3324   5.695   3.302   4.717
  809SOL     OW 3325   0.810   4.711   6.337
  809SOL    HW1 3326   0.790   4.633   6.277
  809SOL    HW2 3327   0.726   4.762   6.354
  810SOL     OW 3328   6.046   4.671   6.542
  810SOL    HW1 3329   5.990   4.611   6.483
  810SOL    HW2 3330   6.082   4.746   6.487
  811SOL     OW 3331   4.919   5.125   3.636
  811SOL    HW1 3332   4.865   5.204   3.663
  811SOL    HW2 3333   4.908   5.109   3.537
  812SOL     OW 3334   0.834   0.492   2.427
  812SOL    HW1 3335   0.883   0.472   2.512
  812SOL    HW2 3336   0.883   0.450   2.351
  813SOL     OW 3337   6.007   5.422   2.224
  813SOL    HW1 3338   6.036   5.326   2.225
  813SOL    HW2 3339   6.042   5.469   2.306
  814SOL     OW 3340   5.346   5.651   1.324
  814SOL    HW1 3341   5.329   5.709   1.244
  814SOL    HW2 3342   5.410   5.578   1.299
  815SOL     OW 3343   0.518   2.433   0.459
  815SOL    HW1 3344   0.566   2.520   0.468
  815SOL    HW2 3345   0.538   2.375   0.538
  816SOL     OW 3346   6.439   0.662   1.079
  816SOL    HW1 3347   6.477   0.596   1.144
  816SOL    HW2 3348   6.356   0.624   1.038
  817SOL     OW 3349   1.555   1.948   2.569
  817SOL    HW1 3350   1.556   1.873   2.636
  817SOL    HW2 3351   1.512   1.916   2.485
  818SOL     OW 3352   7.018   1.780   1.340
  818SOL    HW1 3353   6.932   1.731   1.323
  818SOL    HW2 3354   0.075   1.726   1.306
  819SOL     OW 3355   0.268   4.483   3.602
  819SOL    HW1 3356   0.201   4.543   3.558
  819SOL    HW2 3357   0.221   4.409   3.650
  820SOL     OW 3358   0.920   3.576   4.984
  820SOL    HW1 3359   0.923   3.561   4.885
  820SOL    HW2 3360   0.965   3.500   5.031
  821SOL     OW 3361   1.321   3.722   0.264
  821SOL    HW1 3362   1.277   3.774   0.191
  821SOL    HW2 3363   1.269   3.732   0.348
  822SOL     OW 3364   1.825   3.648   4.533
  822SOL    HW1 3365   1.899   3.608   4.588
  822SOL    HW2 3366   1.794   3.581   4.466
  823SOL     OW 3367   3.087   3.219   0.999
  823SOL    HW1 3368   3.149   3.216   0.921
  823SOL    HW2 3369   2.993   3.230   0.967
  824SOL     OW 3370   6.084   2.076   5.814
  824SOL    HW1 3371   6.174   2.048   5.781
  824SOL    HW2 3372   6.092   2.159   5.869
  825SOL     OW 3373   1.393   4.197   2.156
  825SOL    HW1 3374   1.389   4.099   2.138
  825SOL    HW2 3375   1.337   4.219   2.235
  826SOL     OW 3376   0.276   4.063   5.978
  826SOL    HW1 3377   0.257   4.157   6.005
  826SOL    HW2 3378   0.372   4.055   5.950
  827SOL     OW 3379   4.241   6.014   0.431
  827SOL    HW1 3380   4.214   5.921   0.456
  827SOL    HW2 3381   4.314   6.009   0.362
  828SOL     OW 3382   5.984   6.817   6.501
  828SOL    HW1 3383   6.016   6.725   6.520
  828SOL    HW2 3384   5.914   6.843   6.568
  829SOL     OW 3385   3.803   2.897   4.958
  829SOL    HW1 3386   3.827   2.980   5.009
  829SOL    HW2 3387   3.885   2.839   4.950
  830SOL     OW 3388   4.607   4.030   5.457
  830SOL    HW1 3389   4.607   4.050   5.555
  830SOL    HW2 3390   4.522   4.063   5.416
  831SOL     OW 3391   6.158   0.207   5.113
  831SOL    HW1 3392   6.232   0.197   5.047
  831SOL    HW2 3393   6.195   0.206   5.206
  832SOL     OW 3394   2.114   1.667   5.725
  832SOL    HW1 3395   2.037   1.615   5.688
  832SOL    HW2 3396   2.127   1.642   5.821
  833SOL     OW 3397   0.933   0.035   5.965
  833SOL    HW1 3398   1.009   0.035   6.030
  833SOL    HW2 3399   0.896   6.962   5.958
  834SOL     OW 3400   3.380   4.300   5.632
  834SOL    HW1 3401   3.368   4.338   5.724
  834SOL    HW2 3402   3.291   4.288   5.589
  835SOL     OW 3403   4.388   0.874   2.919
  835SOL    HW1 3404   4.446   0.794   2.937
  835SOL    HW2 3405   4.446   0.950   2.889
  836SOL     OW 3406   2.327   0.828   0.486
  836SOL    HW1 3407   2.396   0.896   0.508
  836SOL    HW2 3408   2.370   0.747   0.447
  837SOL     OW 3409   3.807   0.132   5.567
  837SOL    HW1 3410   3.708   0.125   5.560
  837SOL    HW2 3411   3.833   0.225   5.593
  838SOL     OW 3412   1.814   4.385   2.571
  838SOL    HW1 3413   1.835   4.420   2.479
  838SOL    HW2 3414   1.897   4.389   2.628
  839SOL     OW 3415   3.348   1.106   1.716
  839SOL    HW1 3416   3.422   1.167   1.686
  839SOL    HW2 3417   3.356   1.019   1.668
  840SOL     OW 3418   0.806   1.761   6.254
  840SOL    HW1 3419   0.842   1.854   6.242
  840SOL    HW2 3420   0.781   1.747   6.349
  841SOL     OW 3421   0.111   3.979   0.296
  841SOL    HW1 3422   0.017   3.998   0.270
  841SOL    HW2 3423   0.115   3.893   0.347
  842SOL     OW 3424   3.637   5.343   3.973
  842SOL    HW1 3425   3.687   5.259   3.994
  842SOL    HW2 3426   3.702   5.419   3.968
  843SOL     OW 3427   6.760   3.492   2.532
  843SOL    HW1 3428   6.825   3.567   2.525
  843SOL    HW2 3429   6.771   3.445   2.619
  844SOL     OW 3430   5.336   5.820   1.052
  844SOL    HW1 3431   5.365   5.753   0.983
  844SOL    HW2 3432   5.415   5.872   1.084
  845SOL     OW 3433   1.136   4.881   4.753
  845SOL    HW1 3434   1.127   4.787   4.720
  845SOL    HW2 3435   1.233   4.904   4.764
  846SOL     OW 3436   5.686   2.559   0.051
  846SOL    HW1 3437   5.726   2.548   0.142
  846SOL    HW2 3438   5.635   2.645   0.047
  847SOL     OW 3439   5.490   3.554   2.165
  847SOL    HW1 3440   5.558   3.626   2.171
  847SOL    HW2 3441   5.530   3.474   2.119
  848SOL     OW 3442   6.633   0.217   5.547
  848SOL    HW1 3443   6.598   0.123   5.549
  848SOL    HW2 3444   6.609   0.263   5.633
  849SOL     OW 3445   0.853   5.374   4.306
  849SOL    HW1 3446   0.766   5.327   4.323
  849SOL    HW2 3447   0.929   5.312   4.328
  850SOL     OW 3448   3.717   0.675   2.642
  850SOL    HW1 3449   3.785   0.712   2.579
  850SOL    HW2 3450   3.690   0.746   2.707
  851SOL     OW 3451   0.996   0.143   5.402
  851SOL    HW1 3452   0.987   0.044   5.391
  851SOL    HW2 3453   0.932   0.175   5.472
  852SOL     OW 3454   2.826   4.127   6.226
  852SOL    HW1 3455   2.757   4.199   6.224
  852SOL    HW2 3456   2.864   4.114   6.134
  853SOL     OW 3457   1.337   3.302   1.235
  853SOL    HW1 3458   1.348   3.383   1.292
  853SOL    HW2 3459   1.427   3.264   1.213
  854SOL     OW 3460   5.564   4.992   1.990
  854SOL    HW1 3461   5.523   4.917   1.938
  854SOL    HW2 3462   5.613   5.053   1.928
  855SOL     OW 3463   5.562   0.436   1.300
  855SOL    HW1 3464   5.550   0.513   1.237
  855SOL    HW2 3465   5.601   0.470   1.386
  856SOL     OW 3466   2.169   0.490   4.685
  856SOL    HW1 3467   2.127   0.400   4.700
  856SOL    HW2 3468   2.250   0.480   4.628
  857SOL     OW 3469   6.688   3.539   1.686
  857SOL    HW1 3470   6.706   3.617   1.626
  857SOL    HW2 3471   6.752   3.539   1.762
  858SOL     OW 3472   3.171   4.128   0.975
  858SOL    HW1 3473   3.098   4.195   0.960
  858SOL    HW2 3474   3.135   4.049   1.025
  859SOL     OW 3475   0.018   5.121   0.697
  859SOL    HW1 3476   0.080   5.054   0.736
  859SOL    HW2 3477   0.009   5.199   0.760
  860SOL     OW 3478   1.939   5.173   1.295
  860SOL    HW1 3479   1.996   5.191   1.374
  860SOL    HW2 3480   1.955   5.080   1.263
  861SOL     OW 3481   3.909   5.213   6.202
  861SOL    HW1 3482   3.838   5.276   6.169
  861SOL    HW2 3483   3.958   5.256   6.278
  862SOL     OW 3484   4.710   4.361   4.370
  862SOL    HW1 3485   4.784   4.419   4.404
  862SOL    HW2 3486   4.634   4.418   4.340
  863SOL     OW 3487   5.797   1.177   0.856
  863SOL    HW1 3488   5.716   1.158   0.800
  863SOL    HW2 3489   5.794   1.271   0.889
  864SOL     OW 3490   6.231   4.386   2.695
  864SOL    HW1 3491   6.254   4.459   2.759
  864SOL    HW2 3492   6.221   4.300   2.745
  865SOL     OW 3493   1.710   0.594   4.143
  865SOL    HW1 3494   1.630   0.536   4.160
  865SOL    HW2 3495   1.684   0.690   4.154
  866SOL     OW 3496   3.978   1.347   1.245
  866SOL    HW1 3497   3.931   1.396   1.172
  866SOL    HW2 3498   3.926   1.264   1.267
  867SOL     OW 3499   1.786   2.194   6.322
  867SOL    HW1 3500   1.852   2.122   6.345
  867SOL    HW2 3501   1.735   2.168   6.240
  868SOL     OW 3502   5.668   2.802   3.285
  868SOL    HW1 3503   5.724   2.869   3.332
  868SOL    HW2 3504   5.725   2.753   3.218
  869SOL     OW 3505   6.413   4.157   2.309
  869SOL    HW1 3506   6.440   4.178   2.403
  869SOL    HW2 3507   6.314   4.140   2.306
  870SOL     OW 3508   0.170   2.742   0.347
  870SOL    HW1 3509   0.153   2.679   0.423
  870SOL    HW2 3510   0.083   2.781   0.316
  871SOL     OW 3511   5.822   4.237   1.056
  871SOL    HW1 3512   5.799   4.258   0.961
  871SOL    HW2 3513   5.739   4.213   1.106
  872SOL     OW 3514   5.710   2.527   2.672
  872SOL    HW1 3515   5.691   2.557   2.579
  872SOL    HW2 3516   5.635   2.556   2.732
  873SOL     OW 3517   4.486   6.577   5.478
  873SOL    HW1 3518   4.519   6.488   5.506
  873SOL    HW2 3519   4.472   6.578   5.379
  874SOL     OW 3520   0.175   3.760   6.395
  874SOL    HW1 3521   0.154   3.815   6.314
  874SOL    HW2 3522   0.104   3.692   6.409
  875SOL     OW 3523   6.154   4.892   6.407
  875SOL    HW1 3524   6.243   4.909   6.364
  875SOL    HW2 3525   6.124   4.975   6.453
  876SOL     OW 3526   0.887   2.608   1.296
  876SOL    HW1 3527   0.808   2.668   1.291
  876SOL    HW2 3528   0.937   2.625   1.381
  877SOL     OW 3529   5.645   5.863   0.618
  877SOL    HW1 3530   5.655   5.919   0.700
  877SOL    HW2 3531   5.549   5.857   0.593
  878SOL     OW 3532   3.218   2.800   0.466
  878SOL    HW1 3533   3.294   2.737   0.453
  878SOL    HW2 3534   3.243   2.890   0.429
  879SOL     OW 3535   3.827   1.899   2.627
  879SOL    HW1 3536   3.837   1.980   2.570
  879SOL    HW2 3537   3.839   1.817   2.571
  880SOL     OW 3538   3.863   5.177   1.001
  880SOL    HW1 3539   3.907   5.190   1.090
  880SOL    HW2 3540   3.825   5.084   0.996
  881SOL     OW 3541   4.299   5.386   4.116
  881SOL    HW1 3542   4.291   5.304   4.173
  881SOL    HW2 3543   4.259   5.368   4.026
  882SOL     OW 3544   0.919   1.747   4.233
  882SOL    HW1 3545   0.828   1.737   4.191
  882SOL    HW2 3546   0.979   1.675   4.200
  883SOL     OW 3547   3.290   4.555   0.098
  883SOL    HW1 3548   3.380   4.579   0.062
  883SOL    HW2 3549   3.262   4.466   0.062
  884SOL     OW 3550   4.235   3.636   1.863
  884SOL    HW1 3551   4.160   3.575   1.887
  884SOL    HW2 3552   4.304   3.585   1.810
  885SOL     OW 3553   4.400   6.453   6.718
  885SOL    HW1 3554   4.309   6.418   6.739
  885SOL    HW2 3555   4.461   6.437   6.796
  886SOL     OW 3556   4.134   1.458   6.301
  886SOL    HW1 3557   4.076   1.511   6.239
  886SOL    HW2 3558   4.167   1.377   6.255
  887SOL     OW 3559   5.688   0.104   6.396
  887SOL    HW1 3560   5.589   0.099   6.381
  887SOL    HW2 3561   5.733   0.125   6.309
  888SOL     OW 3562   6.807   6.481   3.904
  888SOL    HW1 3563   6.833   6.404   3.845
  888SOL    HW2 3564   6.775   6.446   3.991
  889SOL     OW 3565   1.353   6.967   4.731
  889SOL    HW1 3566   1.335   0.042   4.760
  889SOL    HW2 3567   1.390   6.914   4.807
  890SOL     OW 3568   2.029   4.639   2.658
  890SOL    HW1 3569   2.066   4.715   2.605
  890SOL    HW2 3570   1.993   4.674   2.745
  891SOL     OW 3571   5.458   3.372   6.064
  891SOL    HW1 3572   5.502   3.462   6.066
  891SOL    HW2 3573   5.483   3.325   5.979
  892SOL     OW 3574   2.514   5.664   1.591
  892SOL    HW1 3575   2.484   5.625   1.504
  892SOL    HW2 3576   2.434   5.697   1.641
  893SOL     OW 3577   1.921   6.661   0.665
  893SOL    HW1 3578   1.993   6.644   0.732
  893SOL    HW2 3579   1.960   6.664   0.573
  894SOL     OW 3580   0.988   5.029   3.909
  894SOL    HW1 3581   1.076   5.076   3.917
  894SOL    HW2 3582   1.004   4.930   3.904
  895SOL     OW 3583   2.389   0.557   4.844
  895SOL    HW1 3584   2.463   0.571   4.778
  895SOL    HW2 3585   2.309   0.519   4.798
  896SOL     OW 3586   5.395   6.721   3.566
  896SOL    HW1 3587   5.353   6.738   3.656
  896SOL    HW2 3588   5.494   6.733   3.573
  897SOL     OW 3589   5.159   1.741   5.947
  897SOL    HW1 3590   5.227   1.729   5.874
  897SOL    HW2 3591   5.193   1.701   6.032
  898SOL     OW 3592   6.395   5.924   3.909
  898SOL    HW1 3593   6.427   6.005   3.860
  898SOL    HW2 3594   6.463   5.898   3.978
  899SOL     OW 3595   1.602   4.438   6.802
  899SOL    HW1 3596   1.504   4.447   6.817
  899SOL    HW2 3597   1.618   4.365   6.736
  900SOL     OW 3598   0.359   5.692   3.935
  900SOL    HW1 3599   0.307   5.712   3.852
  900SOL    HW2 3600   0.384   5.777   3.981
  901SOL     OW 3601   5.800   2.085   3.381
  901SOL    HW1 3602   5.882   2.030   3.361
  901SOL    HW2 3603   5.825   2.181   3.386
  902SOL     OW 3604   0.731   6.267   0.388
  902SOL    HW1 3605   0.705   6.204   0.315
  902SOL    HW2 3606   0.768   6.215   0.465
  903SOL     OW 3607   0.342   4.738   6.809
  903SOL    HW1 3608   0.282   4.660   6.827
  903SOL    HW2 3609   0.346   4.755   6.710
  904SOL     OW 3610   1.758   1.247   3.609
  904SOL    HW1 3611   1.737   1.302   3.528
  904SOL    HW2 3612   1.768   1.308   3.688
  905SOL     OW 3613   6.592   1.906   5.720
  905SOL    HW1 3614   6.644   1.969   5.662
  905SOL    HW2 3615   6.521   1.861   5.666
  906SOL     OW 3616   6.421   3.594   5.248
  906SOL    HW1 3617   6.340   3.554   5.206
  906SOL    HW2 3618   6.397   3.633   5.337
  907SOL     OW 3619   0.340   3.310   1.542
  907SOL    HW1 3620   0.334   3.357   1.630
  907SOL    HW2 3621   0.425   3.257   1.538
  908SOL     OW 3622   2.151   0.976   3.211
  908SOL    HW1 3623   2.136   0.978   3.112
  908SOL    HW2 3624   2.155   1.070   3.246
  909SOL     OW 3625   4.115   0.524   1.174
  909SOL    HW1 3626   4.210   0.533   1.143
  909SOL    HW2 3627   4.111   0.456   1.248
  910SOL     OW 3628   1.638   1.695   1.941
  910SOL    HW1 3629   1.706   1.663   2.007
  910SOL    HW2 3630   1.681   1.755   1.874
  911SOL     OW 3631   0.264   3.906   1.349
  911SOL    HW1 3632   0.192   3.912   1.280
  911SOL    HW2 3633   0.227   3.935   1.437
  912SOL     OW 3634   0.970   0.506   6.311
  912SOL    HW1 3635   1.067   0.492   6.289
  912SOL    HW2 3636   0.935   0.584   6.258
  913SOL     OW 3637   1.889   1.171   1.820
  913SOL    HW1 3638   1.850   1.177   1.728
  913SOL    HW2 3639   1.822   1.201   1.888
  914SOL     OW 3640   2.622   5.685   2.516
  914SOL    HW1 3641   2.674   5.599   2.505
  914SOL    HW2 3642   2.571   5.682   2.601
  915SOL     OW 3643   1.234   2.885   0.255
  915SOL    HW1 3644   1.175   2.841   0.322
  915SOL    HW2 3645   1.183   2.900   0.170
  916SOL     OW 3646   1.306   3.324   2.388
  916SOL    HW1 3647   1.403   3.316   2.411
  916SOL    HW2 3648   1.267   3.402   2.436
  917SOL     OW 3649   3.431   2.106   6.894
  917SOL    HW1 3650   3.419   2.092   6.992
  917SOL    HW2 3651   3.342   2.110   6.849
  918SOL     OW 3652   1.066   0.847   5.641
  918SOL    HW1 3653   1.066   0.772   5.709
  918SOL    HW2 3654   0.974   0.885   5.634
  919SOL     OW 3655   1.947   0.372   0.912
  919SOL    HW1 3656   1.960   0.292   0.971
  919SOL    HW2 3657   1.883   0.435   0.956
  920SOL     OW 3658   2.215   0.702   3.823
  920SOL    HW1 3659   2.136   0.762   3.807
  920SOL    HW2 3660   2.281   0.749   3.881
  921SOL     OW 3661   4.432   4.509   6.921
  921SOL    HW1 3662   4.402   4.605   6.926
  921SOL    HW2 3663   4.416   4.465   7.010
  922SOL     OW 3664   1.861   3.927   6.386
  922SOL    HW1 3665   1.825   3.941   6.294
  922SOL    HW2 3666   1.952   3.967   6.393
  923SOL     OW 3667   3.646   1.498   6.539
  923SOL    HW1 3668   3.722   1.501   6.604
  923SOL    HW2 3669   3.667   1.554   6.459
  924SOL     OW 3670   6.544   4.718   3.020
  924SOL    HW1 3671   6.535   4.705   3.118
  924SOL    HW2 3672   6.603   4.647   2.982
  925SOL     OW 3673   6.845   2.130   3.031
  925SOL    HW1 3674   6.902   2.050   3.013
  925SOL    HW2 3675   6.782   2.110   3.105
  926SOL     OW 3676   5.478   6.475   0.743
  926SOL    HW1 3677   5.409   6.485   0.815
  926SOL    HW2 3678   5.507   6.380   0.738
  927SOL     OW 3679   5.048   5.159   5.030
  927SOL    HW1 3680   5.034   5.095   5.105
  927SOL    HW2 3681   5.122   5.222   5.053
  928SOL     OW 3682   0.529   1.487   1.299
  928SOL    HW1 3683   0.495   1.579   1.285
  928SOL    HW2 3684   0.623   1.490   1.332
  929SOL     OW 3685   0.656   2.519   2.490
  929SOL    HW1 3686   0.654   2.530   2.589
  929SOL    HW2 3687   0.654   2.422   2.467
  930SOL     OW 3688   5.261   5.422   2.782
  930SOL    HW1 3689   5.177   5.473   2.800
  930SOL    HW2 3690   5.260   5.337   2.836
  931SOL     OW 3691   1.812   2.924   2.231
  931SOL    HW1 3692   1.728   2.873   2.251
  931SOL    HW2 3693   1.857   2.885   2.150
  932SOL     OW 3694   4.742   6.543   1.170
  932SOL    HW1 3695   4.769   6.624   1.221
  932SOL    HW2 3696   4.764   6.461   1.224
  933SOL     OW 3697   1.585   5.687   4.004
  933SOL    HW1 3698   1.575   5.680   4.103
  933SOL    HW2 3699   1.524   5.758   3.969
  934SOL     OW 3700   3.238   0.549   5.858
  934SOL    HW1 3701   3.330   0.537   5.894
  934SOL    HW2 3702   3.242   0.606   5.775
  935SOL     OW 3703   2.008   3.371   6.107
  935SOL    HW1 3704   2.048   3.284   6.137
  935SOL    HW2 3705   1.964   3.358   6.018
  936SOL     OW 3706   0.330   1.982   1.899
  936SOL    HW1 3707   0.253   1.918   1.901
  936SOL    HW2 3708   0.305   2.063   1.845
  937SOL     OW 3709   5.001   2.030   3.407
  937SOL    HW1 3710   5.098   2.016   3.389
  937SOL    HW2 3711   4.956   2.061   3.323
  938SOL     OW 3712   6.324   1.786   0.363
  938SOL    HW1 3713   6.384   1.843   0.307
  938SOL    HW2 3714   6.378   1.715   0.409
  939SOL     OW 3715   6.529   0.584   5.484
  939SOL    HW1 3716   6.510   0.663   5.426
  939SOL    HW2 3717   6.627   0.582   5.507
  940SOL     OW 3718   0.551   0.449   4.182
  940SOL    HW1 3719   0.556   0.418   4.277
  940SOL    HW2 3720   0.463   0.494   4.167
  941SOL     OW 3721   5.785   2.964   5.140
  941SOL    HW1 3722   5.780   2.870   5.174
  941SOL    HW2 3723   5.814   2.964   5.044
  942SOL     OW 3724   4.411   0.653   5.296
  942SOL    HW1 3725   4.449   0.745   5.287
  942SOL    HW2 3726   4.465   0.589   5.241
  943SOL     OW 3727   5.610   2.128   6.866
  943SOL    HW1 3728   5.691   2.104   6.919
  943SOL    HW2 3729   5.618   2.223   6.834
  944SOL     OW 3730   5.434   3.723   4.776
  944SOL    HW1 3731   5.356   3.767   4.821
  944SOL    HW2 3732   5.489   3.791   4.730
  945SOL     OW 3733   5.379   3.510   5.080
  945SOL    HW1 3734   5.385   3.610   5.086
  945SOL    HW2 3735   5.412   3.480   4.990
  946SOL     OW 3736   5.538   3.151   6.213
  946SOL    HW1 3737   5.503   3.228   6.160
  946SOL    HW2 3738   5.604   3.184   6.281
  947SOL     OW 3739   1.323   2.341   5.166
  947SOL    HW1 3740   1.307   2.328   5.068
  947SOL    HW2 3741   1.419   2.325   5.187
  948SOL     OW 3742   4.037   1.587   0.659
  948SOL    HW1 3743   3.978   1.643   0.600
  948SOL    HW2 3744   4.013   1.602   0.755
  949SOL     OW 3745   5.552   5.769   6.813
  949SOL    HW1 3746   5.554   5.859   6.769
  949SOL    HW2 3747   5.522   5.700   6.747
  950SOL     OW 3748   3.490   5.559   0.659
  950SOL    HW1 3749   3.543   5.478   0.634
  950SOL    HW2 3750   3.523   5.595   0.746
  951SOL     OW 3751   0.459   2.575   3.725
  951SOL    HW1 3752   0.380   2.554   3.784
  951SOL    HW2 3753   0.535   2.513   3.748
  952SOL     OW 3754   5.006   0.864   1.357
  952SOL    HW1 3755   4.922   0.841   1.405
  952SOL    HW2 3756   5.011   0.963   1.343
  953SOL     OW 3757   3.463   6.637   5.953
  953SOL    HW1 3758   3.503   6.654   5.863
  953SOL    HW2 3759   3.363   6.645   5.947
  954SOL     OW 3760   0.041   7.004   1.532
  954SOL    HW1 3761   0.091   6.918   1.542
  954SOL    HW2 3762   6.981   6.989   1.472
  955SOL     OW 3763   6.992   0.055   2.572
  955SOL    HW1 3764   6.953   0.114   2.501
  955SOL    HW2 3765   6.943   6.988   2.576
  956SOL     OW 3766   1.011   2.623   0.130
  956SOL    HW1 3767   0.989   2.535   0.088
  956SOL    HW2 3768   1.016   2.693   0.059
  957SOL     OW 3769   2.349   6.450   4.976
  957SOL    HW1 3770   2.417   6.407   4.917
  957SOL    HW2 3771   2.307   6.528   4.929
  958SOL     OW 3772   5.021   2.143   0.424
  958SOL    HW1 3773   5.043   2.058   0.377
  958SOL    HW2 3774   5.010   2.126   0.522
  959SOL     OW 3775   1.576   3.895   1.996
  959SOL    HW1 3776   1.665   3.933   2.021
  959SOL    HW2 3777   1.549   3.826   2.063
  960SOL     OW 3778   1.584   5.598   5.730
  960SOL    HW1 3779   1.519   5.574   5.658
  960SOL    HW2 3780   1.566   5.543   5.812
  961SOL     OW 3781   3.630   6.916   1.022
  961SOL    HW1 3782   3.618   6.817   1.028
  961SOL    HW2 3783   3.601   6.958   1.108
  962SOL     OW 3784   1.395   5.872   3.928
  962SOL    HW1 3785   1.336   5.843   4.003
  962SOL    HW2 3786   1.369   5.963   3.898
  963SOL     OW 3787   6.045   0.030   2.425
  963SOL    HW1 3788   6.132   0.034   2.473
  963SOL    HW2 3789   5.987   6.979   2.467
  964SOL     OW 3790   5.308   3.482   0.831
  964SOL    HW1 3791   5.373   3.428   0.778
  964SOL    HW2 3792   5.267   3.552   0.773
  965SOL     OW 3793   1.319   2.151   0.457
  965SOL    HW1 3794   1.398   2.089   0.464
  965SOL    HW2 3795   1.262   2.124   0.380
  966SOL     OW 3796   6.832   2.453   1.717
  966SOL    HW1 3797   6.821   2.530   1.780
  966SOL    HW2 3798   6.824   2.367   1.767
  967SOL     OW 3799   1.029   6.091   2.315
  967SOL    HW1 3800   1.106   6.136   2.270
  967SOL    HW2 3801   0.981   6.157   2.373
  968SOL     OW 3802   6.730   4.277   1.666
  968SOL    HW1 3803   6.727   4.294   1.765
  968SOL    HW2 3804   6.665   4.204   1.643
  969SOL     OW 3805   3.728   6.159   6.740
  969SOL    HW1 3806   3.742   6.093   6.814
  969SOL    HW2 3807   3.702   6.247   6.779
  970SOL     OW 3808   4.489   2.190   5.242
  970SOL    HW1 3809   4.489   2.091   5.251
  970SOL    HW2 3810   4.574   2.220   5.198
  971SOL     OW 3811   0.360   2.898   0.510
  971SOL    HW1 3812   0.309   2.839   0.447
  971SOL    HW2 3813   0.374   2.987   0.467
  972SOL     OW 3814   6.240   5.786   1.216
  972SOL    HW1 3815   6.230   5.688   1.202
  972SOL    HW2 3816   6.165   5.834   1.170
  973SOL     OW 3817   5.614   3.850   5.044
  973SOL    HW1 3818   5.654   3.776   4.992
  973SOL    HW2 3819   5.668   3.934   5.031
  974SOL     OW 3820   3.128   1.538   4.649
  974SOL    HW1 3821   3.030   1.537   4.670
  974SOL    HW2 3822   3.150   1.619   4.596
  975SOL     OW 3823   3.399   6.381   5.505
  975SOL    HW1 3824   3.443   6.365   5.416
  975SOL    HW2 3825   3.306   6.415   5.491
  976SOL     OW 3826   6.908   6.305   3.728
  976SOL    HW1 3827   6.983   6.240   3.716
  976SOL    HW2 3828   6.899   6.361   3.645
  977SOL     OW 3829   1.748   2.525   2.099
  977SOL    HW1 3830   1.671   2.471   2.063
  977SOL    HW2 3831   1.718   2.576   2.179
  978SOL     OW 3832   5.557   3.286   4.390
  978SOL    HW1 3833   5.506   3.216   4.340
  978SOL    HW2 3834   5.655   3.276   4.372
  979SOL     OW 3835   6.002   1.551   3.289
  979SOL    HW1 3836   6.009   1.617   3.214
  979SOL    HW2 3837   6.093   1.533   3.327
  980SOL     OW 3838   6.558   0.577   4.325
  980SOL    HW1 3839   6.557   0.524   4.410
  980SOL    HW2 3840   6.648   0.620   4.313
  981SOL     OW 3841   6.737   3.724   4.983
  981SOL    HW1 3842   6.779   3.674   4.907
  981SOL    HW2 3843   6.706   3.659   5.052
  982SOL     OW 3844   1.758   2.656   1.298
  982SOL    HW1 3845   1.778   2.638   1.394
  982SOL    HW2 3846   1.844   2.665   1.247
  983SOL     OW 3847   6.019   1.896   2.678
  983SOL    HW1 3848   6.083   1.884   2.754
  983SOL    HW2 3849   6.023   1.815   2.618
  984SOL     OW 3850   4.857   1.831   4.948
  984SOL    HW1 3851   4.898   1.801   4.862
  984SOL    HW2 3852   4.913   1.800   5.025
  985SOL     OW 3853   2.876   5.147   1.076
  985SOL    HW1 3854   2.934   5.128   1.154
  985SOL    HW2 3855   2.805   5.077   1.069
  986SOL     OW 3856   3.979   4.887   6.542
  986SOL    HW1 3857   3.881   4.902   6.527
  986SOL    HW2 3858   4.028   4.973   6.528
  987SOL     OW 3859   3.478   6.820   2.360
  987SOL    HW1 3860   3.526   6.823   2.272
  987SOL    HW2 3861   3.436   6.909   2.377
  988SOL     OW 3862   3.183   3.837   2.054
  988SOL    HW1 3863   3.275   3.835   2.092
  988SOL    HW2 3864   3.155   3.745   2.027
  989SOL     OW 3865   0.575   6.711   4.620
  989SOL    HW1 3866   0.508   6.653   4.574
  989SOL    HW2 3867   0.645   6.655   4.664
  990SOL     OW 3868   5.135   6.073   3.015
  990SOL    HW1 3869   5.122   5.978   3.043
  990SOL    HW2 3870   5.232   6.090   2.999
  991SOL     OW 3871   6.689   1.562   5.061
  991SOL    HW1 3872   6.691   1.463   5.043
  991SOL    HW2 3873   6.754   1.584   5.134
  992SOL     OW 3874   0.287   3.152   1.129
  992SOL    HW1 3875   0.384   3.125   1.130
  992SOL    HW2 3876   0.234   3.089   1.184
  993SOL     OW 3877   3.613   5.356   4.333
  993SOL    HW1 3878   3.625   5.346   4.432
  993SOL    HW2 3879   3.702   5.352   4.288
  994SOL     OW 3880   2.909   3.595   1.973
  994SOL    HW1 3881   2.878   3.527   1.907
  994SOL    HW2 3882   3.009   3.595   1.977
  995SOL     OW 3883   0.207   1.065   4.745
  995SOL    HW1 3884   0.238   1.058   4.840
  995SOL    HW2 3885   0.157   1.151   4.733
  996SOL     OW 3886   1.163   3.717   1.149
  996SOL    HW1 3887   1.078   3.692   1.196
  996SOL    HW2 3888   1.241   3.694   1.206
  997SOL     OW 3889   0.444   0.803   1.089
  997SOL    HW1 3890   0.407   0.883   1.136
  997SOL    HW2 3891   0.376   0.766   1.026
  998SOL     OW 3892   4.857   0.252   3.513
  998SOL    HW1 3893   4.803   0.205   3.444
  998SOL    HW2 3894   4.953   0.256   3.484
  999SOL     OW 3895   6.786   5.464   1.846
  999SOL    HW1 3896   6.692   5.478   1.877
  999SOL    HW2 3897   6.840   5.547   1.862
 1000SOL     OW 3898   4.271   2.214   4.300
 1000SOL    HW1 3899   4.337   2.225   4.226
 1000SOL    HW2 3900   4.178   2.215   4.263
 1001SOL     OW 3901   4.038   0.642   5.718
 1001SOL    HW1 3902   4.132   0.638   5.750
 1001SOL    HW2 3903   3.976   0.651   5.796
 1002SOL     OW 3904   6.983   1.119   0.440
 1002SOL    HW1 3905   6.934   1.100   0.525
 1002SOL    HW2 3906   7.009   1.216   0.437
 1003SOL     OW 3907   4.848   4.495   3.064
 1003SOL    HW1 3908   4.761   4.446   3.076
 1003SOL    HW2 3909   4.854   4.529   2.971
 1004SOL     OW 3910   5.684   5.599   0.500
 1004SOL    HW1 3911   5.651   5.693   0.513
 1004SOL    HW2 3912   5.663   5.545   0.581
 1005SOL     OW 3913   6.751   5.887   3.715
 1005SOL    HW1 3914   6.798   5.825   3.778
 1005SOL    HW2 3915   6.737   5.975   3.760
 1006SOL     OW 3916   2.409   4.443   1.107
 1006SOL    HW1 3917   2.465   4.372   1.065
 1006SOL    HW2 3918   2.317   4.408   1.124
 1007SOL     OW 3919   1.314   0.490   3.408
 1007SOL    HW1 3920   1.393   0.537   3.449
 1007SOL    HW2 3921   1.328   0.484   3.309
 1008SOL     OW 3922   2.864   2.268   4.218
 1008SOL    HW1 3923   2.902   2.296   4.306
 1008SOL    HW2 3924   2.766   2.291   4.215
 1009SOL     OW 3925   2.166   5.599   5.083
 1009SOL    HW1 3926   2.224   5.518   5.071
 1009SOL    HW2 3927   2.095   5.580   5.150
 1010SOL     OW 3928   3.896   0.883   6.551
 1010SOL    HW1 3929   3.965   0.841   6.611
 1010SOL    HW2 3930   3.942   0.943   6.485
 1011SOL     OW 3931   3.224   5.917   4.042
 1011SOL    HW1 3932   3.125   5.931   4.046
 1011SOL    HW2 3933   3.243   5.824   4.009
 1012SOL     OW 3934   4.221   5.823   0.041
 1012SOL    HW1 3935   4.199   5.916   0.010
 1012SOL    HW2 3936   4.142   5.784   0.088
 1013SOL     OW 3937   6.985   1.184   1.215
 1013SOL    HW1 3938   0.018   1.247   1.157
 1013SOL    HW2 3939   0.027   1.141   1.280
 1014SOL     OW 3940   5.061   0.739   6.557
 1014SOL    HW1 3941   5.058   0.771   6.463
 1014SOL    HW2 3942   5.081   0.641   6.559
 1015SOL     OW 3943   3.176   6.333   4.310
 1015SOL    HW1 3944   3.179   6.277   4.392
 1015SOL    HW2 3945   3.253   6.397   4.310
 1016SOL     OW 3946   4.872   2.590   1.724
 1016SOL    HW1 3947   4.787   2.634   1.752
 1016SOL    HW2 3948   4.898   2.621   1.633
 1017SOL     OW 3949   4.844   1.770   6.906
 1017SOL    HW1 3950   4.777   1.730   6.969
 1017SOL    HW2 3951   4.798   1.832   6.842
 1018SOL     OW 3952   1.596   2.876   1.971
 1018SOL    HW1 3953   1.576   2.956   2.027
 1018SOL    HW2 3954   1.692   2.851   1.981
 1019SOL     OW 3955   6.068   0.718   0.424
 1019SOL    HW1 3956   6.039   0.813   0.419
 1019SOL    HW2 3957   6.101   0.698   0.517
 1020SOL     OW 3958   3.583   2.050   1.248
 1020SOL    HW1 3959   3.649   2.080   1.316
 1020SOL    HW2 3960   3.550   1.958   1.271
 1021SOL     OW 3961   6.577   1.758   0.930
 1021SOL    HW1 3962   6.670   1.791   0.949
 1021SOL    HW2 3963   6.571   1.661   0.952
 1022SOL     OW 3964   3.516   2.574   7.015
 1022SOL    HW1 3965   3.544   2.615   0.082
 1022SOL    HW2 3966   3.598   2.553   6.961
 1023SOL     OW 3967   5.677   1.310   4.156
 1023SOL    HW1 3968   5.631   1.326   4.243
 1023SOL    HW2 3969   5.645   1.377   4.089
 1024SOL     OW 3970   6.196   1.501   3.519
 1024SOL    HW1 3971   6.289   1.468   3.532
 1024SOL    HW2 3972   6.142   1.483   3.602
 1025SOL     OW 3973   3.202   4.603   1.002
 1025SOL    HW1 3974   3.291   4.649   0.996
 1025SOL    HW2 3975   3.135   4.667   1.041
 1026SOL     OW 3976   0.619   3.125   6.592
 1026SOL    HW1 3977   0.610   3.214   6.548
 1026SOL    HW2 3978   0.684   3.131   6.668
 1027SOL     OW 3979   2.588   5.288   2.197
 1027SOL    HW1 3980   2.561   5.384   2.188
 1027SOL    HW2 3981   2.521   5.230   2.151
 1028SOL     OW 3982   1.281   6.063   1.079
 1028SOL    HW1 3983   1.236   6.068   0.990
 1028SOL    HW2 3984   1.323   5.973   1.091
 1029SOL     OW 3985   3.251   0.020   5.475
 1029SOL    HW1 3986   3.338   0.069   5.462
 1029SOL    HW2 3987   3.197   0.065   5.546
 1030SOL     OW 3988   3.396   4.256   5.165
 1030SOL    HW1 3989   3.302   4.229   5.143
 1030SOL    HW2 3990   3.453   4.174   5.175
 1031SOL     OW 3991   2.002   5.219   1.658
 1031SOL    HW1 3992   2.030   5.269   1.741
 1031SOL    HW2 3993   2.048   5.131   1.656
 1032SOL     OW 3994   1.883   1.010   4.574
 1032SOL    HW1 3995   1.941   0.930   4.592
 1032SOL    HW2 3996   1.874   1.022   4.475
 1033SOL     OW 3997   2.408   5.795   3.460
 1033SOL    HW1 3998   2.319   5.800   3.414
 1033SOL    HW2 3999   2.396   5.757   3.552
 1034SOL     OW 4000   1.547   6.601   2.773
 1034SOL    HW1 4001   1.608   6.523   2.788
 1034SOL    HW2 4002   1.457   6.580   2.810
 1035SOL     OW 4003   2.952   0.715   4.015
 1035SOL    HW1 4004   2.872   0.655   4.012
 1035SOL    HW2 4005   2.968   0.745   4.109
 1036SOL     OW 4006   4.051   6.951   6.352
 1036SOL    HW1 4007   4.097   6.930   6.266
 1036SOL    HW2 4008   3.966   6.898   6.359
 1037SOL     OW 4009   2.836   1.670   6.265
 1037SOL    HW1 4010   2.766   1.621   6.317
 1037SOL    HW2 4011   2.899   1.716   6.327
 1038SOL     OW 4012   3.113   1.418   5.100
 1038SOL    HW1 4013   3.114   1.506   5.052
 1038SOL    HW2 4014   3.056   1.426   5.182
 1039SOL     OW 4015   4.356   1.591   3.666
 1039SOL    HW1 4016   4.322   1.664   3.725
 1039SOL    HW2 4017   4.283   1.559   3.606
 1040SOL     OW 4018   6.070   3.215   4.188
 1040SOL    HW1 4019   6.068   3.313   4.167
 1040SOL    HW2 4020   6.163   3.181   4.178
 1041SOL     OW 4021   1.495   6.892   4.165
 1041SOL    HW1 4022   1.478   6.971   4.224
 1041SOL    HW2 4023   1.593   6.876   4.158
 1042SOL     OW 4024   4.633   3.823   1.081
 1042SOL    HW1 4025   4.729   3.807   1.102
 1042SOL    HW2 4026   4.596   3.893   1.141
 1043SOL     OW 4027   3.313   0.015   6.698
 1043SOL    HW1 4028   3.386   0.027   6.631
 1043SOL    HW2 4029   3.290   0.103   6.739
 1044SOL     OW 4030   3.474   4.150   1.949
 1044SOL    HW1 4031   3.438   4.201   2.027
 1044SOL    HW2 4032   3.507   4.214   1.880
 1045SOL     OW 4033   3.906   1.604   3.408
 1045SOL    HW1 4034   3.833   1.670   3.421
 1045SOL    HW2 4035   3.870   1.511   3.418
 1046SOL     OW 4036   4.047   1.075   2.128
 1046SOL    HW1 4037   4.124   1.075   2.063
 1046SOL    HW2 4038   3.999   1.163   2.123
 1047SOL     OW 4039   0.057   5.341   2.102
 1047SOL    HW1 4040   0.052   5.424   2.046
 1047SOL    HW2 4041   0.068   5.262   2.042
 1048SOL     OW 4042   6.268   4.691   5.315
 1048SOL    HW1 4043   6.190   4.629   5.307
 1048SOL    HW2 4044   6.236   4.785   5.316
 1049SOL     OW 4045   0.439   3.474   4.976
 1049SOL    HW1 4046   0.505   3.430   5.037
 1049SOL    HW2 4047   0.389   3.544   5.026
 1050SOL     OW 4048   3.278   0.432   0.031
 1050SOL    HW1 4049   3.295   0.531   0.040
 1050SOL    HW2 4050   3.288   0.388   0.120
 1051SOL     OW 4051   4.784   5.235   2.334
 1051SOL    HW1 4052   4.707   5.282   2.291
 1051SOL    HW2 4053   4.798   5.271   2.426
 1052SOL     OW 4054   3.497   6.929   4.124
 1052SOL    HW1 4055   3.553   7.003   4.087
 1052SOL    HW2 4056   3.405   6.963   4.143
 1053SOL     OW 4057   3.978   4.899   3.272
 1053SOL    HW1 4058   3.955   4.964   3.344
 1053SOL    HW2 4059   3.899   4.885   3.212
 1054SOL     OW 4060   3.511   6.212   4.261
 1054SOL    HW1 4061   3.432   6.152   4.274
 1054SOL    HW2 4062   3.595   6.162   4.285
 1055SOL     OW 4063   4.534   5.513   4.070
 1055SOL    HW1 4064   4.445   5.468   4.070
 1055SOL    HW2 4065   4.606   5.446   4.086
 1056SOL     OW 4066   1.590   5.848   5.629
 1056SOL    HW1 4067   1.599   5.754   5.662
 1056SOL    HW2 4068   1.680   5.881   5.599
 1057SOL     OW 4069   3.758   4.218   1.158
 1057SOL    HW1 4070   3.772   4.167   1.242
 1057SOL    HW2 4071   3.826   4.291   1.150
 1058SOL     OW 4072   3.530   0.208   1.651
 1058SOL    HW1 4073   3.496   0.274   1.585
 1058SOL    HW2 4074   3.593   0.144   1.606
 1059SOL     OW 4075   3.347   1.085   0.865
 1059SOL    HW1 4076   3.286   1.152   0.823
 1059SOL    HW2 4077   3.293   1.015   0.911
 1060SOL     OW 4078   2.498   2.209   4.469
 1060SOL    HW1 4079   2.472   2.167   4.383
 1060SOL    HW2 4080   2.419   2.209   4.531
 1061SOL     OW 4081   3.009   6.152   1.514
 1061SOL    HW1 4082   2.923   6.196   1.539
 1061SOL    HW2 4083   2.995   6.092   1.435
 1062SOL     OW 4084   4.889   4.314   5.359
 1062SOL    HW1 4085   4.824   4.368   5.306
 1062SOL    HW2 4086   4.926   4.370   5.433
 1063SOL     OW 4087   1.738   3.222   5.507
 1063SOL    HW1 4088   1.717   3.208   5.604
 1063SOL    HW2 4089   1.821   3.277   5.498
 1064SOL     OW 4090   0.305   3.683   1.739
 1064SOL    HW1 4091   0.386   3.669   1.682
 1064SOL    HW2 4092   0.248   3.755   1.699
 1065SOL     OW 4093   4.654   5.336   5.453
 1065SOL    HW1 4094   4.728   5.342   5.387
 1065SOL    HW2 4095   4.656   5.247   5.499
 1066SOL     OW 4096   4.208   0.389   3.725
 1066SOL    HW1 4097   4.215   0.324   3.650
 1066SOL    HW2 4098   4.299   0.422   3.750
 1067SOL     OW 4099   2.166   3.619   1.124
 1067SOL    HW1 4100   2.083   3.565   1.138
 1067SOL    HW2 4101   2.229   3.568   1.066
 1068SOL     OW 4102   0.578   4.350   0.627
 1068SOL    HW1 4103   0.544   4.367   0.719
 1068SOL    HW2 4104   0.676   4.329   0.631
 1069SOL     OW 4105   3.809   4.093   1.639
 1069SOL    HW1 4106   3.726   4.059   1.684
 1069SOL    HW2 4107   3.801   4.082   1.540
 1070SOL     OW 4108   2.161   0.310   0.523
 1070SOL    HW1 4109   2.157   0.216   0.555
 1070SOL    HW2 4110   2.205   0.367   0.592
 1071SOL     OW 4111   4.360   6.136   3.694
 1071SOL    HW1 4112   4.329   6.096   3.608
 1071SOL    HW2 4113   4.282   6.148   3.756
 1072SOL     OW 4114   3.768   5.556   2.885
 1072SOL    HW1 4115   3.792   5.534   2.790
 1072SOL    HW2 4116   3.771   5.655   2.899
 1073SOL     OW 4117   3.177   5.226   3.318
 1073SOL    HW1 4118   3.154   5.323   3.316
 1073SOL    HW2 4119   3.194   5.194   3.224
 1074SOL     OW 4120   1.604   5.198   2.058
 1074SOL    HW1 4121   1.550   5.113   2.065
 1074SOL    HW2 4122   1.655   5.197   1.972
 1075SOL     OW 4123   0.607   4.061   2.950
 1075SOL    HW1 4124   0.698   4.082   2.914
 1075SOL    HW2 4125   0.601   3.963   2.971
 1076SOL     OW 4126   0.190   4.255   2.659
 1076SOL    HW1 4127   0.164   4.198   2.737
 1076SOL    HW2 4128   0.121   4.246   2.587
 1077SOL     OW 4129   5.192   1.318   1.092
 1077SOL    HW1 4130   5.125   1.288   1.024
 1077SOL    HW2 4131   5.232   1.237   1.136
 1078SOL     OW 4132   1.045   3.316   1.196
 1078SOL    HW1 4133   1.145   3.316   1.193
 1078SOL    HW2 4134   1.013   3.408   1.219
 1079SOL     OW 4135   2.506   5.482   3.011
 1079SOL    HW1 4136   2.498   5.531   3.098
 1079SOL    HW2 4137   2.415   5.469   2.972
 1080SOL     OW 4138   1.450   5.658   4.258
 1080SOL    HW1 4139   1.520   5.668   4.329
 1080SOL    HW2 4140   1.368   5.710   4.285
 1081SOL     OW 4141   1.192   1.644   0.543
 1081SOL    HW1 4142   1.140   1.727   0.564
 1081SOL    HW2 4143   1.220   1.646   0.447
 1082SOL     OW 4144   2.362   6.476   0.408
 1082SOL    HW1 4145   2.346   6.573   0.428
 1082SOL    HW2 4146   2.279   6.437   0.368
 1083SOL     OW 4147   3.861   2.348   1.728
 1083SOL    HW1 4148   3.769   2.316   1.753
 1083SOL    HW2 4149   3.855   2.437   1.684
 1084SOL     OW 4150   6.535   3.568   0.294
 1084SOL    HW1 4151   6.616   3.518   0.265
 1084SOL    HW2 4152   6.503   3.533   0.381
 1085SOL     OW 4153   1.519   4.305   2.944
 1085SOL    HW1 4154   1.477   4.317   3.034
 1085SOL    HW2 4155   1.541   4.208   2.931
 1086SOL     OW 4156   4.521   5.086   2.488
 1086SOL    HW1 4157   4.431   5.042   2.488
 1086SOL    HW2 4158   4.580   5.042   2.421
 1087SOL     OW 4159   3.900   3.523   5.136
 1087SOL    HW1 4160   3.819   3.562   5.180
 1087SOL    HW2 4161   3.946   3.462   5.200
 1088SOL     OW 4162   6.033   4.592   3.265
 1088SOL    HW1 4163   6.074   4.542   3.189
 1088SOL    HW2 4164   5.952   4.641   3.233
 1089SOL     OW 4165   5.991   0.102   3.315
 1089SOL    HW1 4166   5.934   0.067   3.240
 1089SOL    HW2 4167   5.937   0.165   3.371
 1090SOL     OW 4168   1.455   1.910   5.605
 1090SOL    HW1 4169   1.393   1.879   5.678
 1090SOL    HW2 4170   1.502   1.993   5.636
 1091SOL     OW 4171   1.029   2.689   5.482
 1091SOL    HW1 4172   1.040   2.610   5.422
 1091SOL    HW2 4173   0.931   2.712   5.488
 1092SOL     OW 4174   1.942   4.495   1.173
 1092SOL    HW1 4175   1.908   4.406   1.142
 1092SOL    HW2 4176   1.869   4.544   1.221
 1093SOL     OW 4177   0.199   2.154   2.397
 1093SOL    HW1 4178   0.144   2.070   2.393
 1093SOL    HW2 4179   0.227   2.181   2.305
 1094SOL     OW 4180   0.812   6.310   2.153
 1094SOL    HW1 4181   0.909   6.299   2.135
 1094SOL    HW2 4182   0.793   6.284   2.248
 1095SOL     OW 4183   5.941   3.597   5.782
 1095SOL    HW1 4184   5.953   3.515   5.838
 1095SOL    HW2 4185   5.899   3.572   5.695
 1096SOL     OW 4186   3.571   3.987   1.740
 1096SOL    HW1 4187   3.546   3.893   1.764
 1096SOL    HW2 4188   3.559   4.045   1.820
 1097SOL     OW 4189   1.858   4.634   5.184
 1097SOL    HW1 4190   1.947   4.638   5.230
 1097SOL    HW2 4191   1.839   4.723   5.142
 1098SOL     OW 4192   4.278   1.190   3.068
 1098SOL    HW1 4193   4.303   1.160   3.160
 1098SOL    HW2 4194   4.361   1.212   3.017
 1099SOL     OW 4195   3.725   1.176   2.588
 1099SOL    HW1 4196   3.813   1.204   2.550
 1099SOL    HW2 4197   3.724   1.194   2.686
 1100SOL     OW 4198   0.139   0.733   0.278
 1100SOL    HW1 4199   0.186   0.796   0.340
 1100SOL    HW2 4200   0.198   0.654   0.260
 1101SOL     OW 4201   5.790   3.091   0.904
 1101SOL    HW1 4202   5.765   3.187   0.890
 1101SOL    HW2 4203   5.861   3.085   0.973
 1102SOL     OW 4204   0.333   4.137   3.782
 1102SOL    HW1 4205   0.323   4.199   3.860
 1102SOL    HW2 4206   0.243   4.107   3.751
 1103SOL     OW 4207   0.681   3.442   0.958
 1103SOL    HW1 4208   0.604   3.378   0.959
 1103SOL    HW2 4209   0.734   3.427   0.874
 1104SOL     OW 4210   2.539   5.278   5.962
 1104SOL    HW1 4211   2.524   5.292   6.059
 1104SOL    HW2 4212   2.485   5.343   5.909
 1105SOL     OW 4213   4.256   5.169   0.438
 1105SOL    HW1 4214   4.350   5.151   0.465
 1105SOL    HW2 4215   4.216   5.236   0.501
 1106SOL     OW 4216   1.409   0.704   5.624
 1106SOL    HW1 4217   1.353   0.622   5.638
 1106SOL    HW2 4218   1.471   0.689   5.547
 1107SOL     OW 4219   0.820   6.643   1.521
 1107SOL    HW1 4220   0.858   6.728   1.484
 1107SOL    HW2 4221   0.722   6.655   1.537
 1108SOL     OW 4222   1.203   1.024   6.389
 1108SOL    HW1 4223   1.226   1.085   6.314
 1108SOL    HW2 4224   1.128   1.063   6.443
 1109SOL     OW 4225   4.993   1.390   3.714
 1109SOL    HW1 4226   4.959   1.316   3.655
 1109SOL    HW2 4227   5.066   1.354   3.772
 1110SOL     OW 4228   3.371   2.816   1.785
 1110SOL    HW1 4229   3.356   2.717   1.785
 1110SOL    HW2 4230   3.469   2.834   1.786
 1111SOL     OW 4231   5.415   7.008   6.743
 1111SOL    HW1 4232   5.379   6.917   6.763
 1111SOL    HW2 4233   5.379   0.020   6.655
 1112SOL     OW 4234   0.758   1.193   3.074
 1112SOL    HW1 4235   0.715   1.120   3.128
 1112SOL    HW2 4236   0.830   1.237   3.128
 1113SOL     OW 4237   5.978   3.991   2.128
 1113SOL    HW1 4238   5.987   3.893   2.144
 1113SOL    HW2 4239   5.890   4.022   2.164
 1114SOL     OW 4240   6.320   1.575   5.709
 1114SOL    HW1 4241   6.258   1.632   5.762
 1114SOL    HW2 4242   6.400   1.551   5.764
 1115SOL     OW 4243   3.195   4.002   0.586
 1115SOL    HW1 4244   3.187   3.927   0.652
 1115SOL    HW2 4245   3.275   3.987   0.528
 1116SOL     OW 4246   3.786   6.224   5.934
 1116SOL    HW1 4247   3.737   6.138   5.952
 1116SOL    HW2 4248   3.883   6.213   5.960
 1117SOL     OW 4249   2.552   3.137   0.595
 1117SOL    HW1 4250   2.520   3.163   0.686
 1117SOL    HW2 4251   2.639   3.183   0.575
 1118SOL     OW 4252   1.550   3.332   2.832
 1118SOL    HW1 4253   1.526   3.260   2.897
 1118SOL    HW2 4254   1.638   3.311   2.790
 1119SOL     OW 4255   2.935   3.232   2.444
 1119SOL    HW1 4256   2.920   3.229   2.345
 1119SOL    HW2 4257   2.873   3.299   2.485
 1120SOL     OW 4258   5.121   0.758   4.862
 1120SOL    HW1 4259   5.178   0.823   4.913
 1120SOL    HW2 4260   5.174   0.720   4.786
 1121SOL     OW 4261   5.012   3.172   2.440
 1121SOL    HW1 4262   4.926   3.182   2.490
 1121SOL    HW2 4263   5.030   3.256   2.388
 1122SOL     OW 4264   4.746   5.121   0.580
 1122SOL    HW1 4265   4.677   5.121   0.508
 1122SOL    HW2 4266   4.703   5.099   0.667
 1123SOL     OW 4267   3.951   0.676   2.095
 1123SOL    HW1 4268   3.927   0.580   2.109
 1123SOL    HW2 4269   3.930   0.703   2.002
 1124SOL     OW 4270   0.697   4.855   4.855
 1124SOL    HW1 4271   0.658   4.767   4.883
 1124SOL    HW2 4272   0.773   4.839   4.792
 1125SOL     OW 4273   3.500   3.459   4.914
 1125SOL    HW1 4274   3.492   3.429   4.819
 1125SOL    HW2 4275   3.574   3.410   4.959
 1126SOL     OW 4276   6.312   0.044   2.530
 1126SOL    HW1 4277   6.384   0.028   2.463
 1126SOL    HW2 4278   6.322   7.000   2.606
 1127SOL     OW 4279   1.244   5.248   6.422
 1127SOL    HW1 4280   1.176   5.181   6.451
 1127SOL    HW2 4281   1.328   5.201   6.395
 1128SOL     OW 4282   2.622   1.728   3.913
 1128SOL    HW1 4283   2.606   1.646   3.968
 1128SOL    HW2 4284   2.654   1.802   3.971
 1129SOL     OW 4285   4.824   7.009   6.649
 1129SOL    HW1 4286   4.859   0.082   6.665
 1129SOL    HW2 4287   4.888   6.942   6.687
 1130SOL     OW 4288   6.872   5.075   5.956
 1130SOL    HW1 4289   6.857   5.011   6.031
 1130SOL    HW2 4290   6.924   5.154   5.989
 1131SOL     OW 4291   0.505   5.222   5.665
 1131SOL    HW1 4292   0.574   5.238   5.595
 1131SOL    HW2 4293   0.418   5.200   5.622
 1132SOL     OW 4294   4.874   0.629   4.895
 1132SOL    HW1 4295   4.969   0.662   4.899
 1132SOL    HW2 4296   4.863   0.550   4.956
 1133SOL     OW 4297   6.982   2.612   0.577
 1133SOL    HW1 4298   6.990   2.526   0.629
 1133SOL    HW2 4299   0.029   2.678   0.611
 1134SOL     OW 4300   6.549   2.307   6.184
 1134SOL    HW1 4301   6.625   2.249   6.153
 1134SOL    HW2 4302   6.575   2.353   6.269
 1135SOL     OW 4303   5.719   1.727   3.577
 1135SOL    HW1 4304   5.657   1.801   3.550
 1135SOL    HW2 4305   5.693   1.693   3.667
 1136SOL     OW 4306   3.871   5.444   4.244
 1136SOL    HW1 4307   3.929   5.464   4.323
 1136SOL    HW2 4308   3.898   5.356   4.204
 1137SOL     OW 4309   1.536   0.838   5.809
 1137SOL    HW1 4310   1.473   0.821   5.885
 1137SOL    HW2 4311   1.501   0.795   5.726
 1138SOL     OW 4312   0.377   4.443   5.546
 1138SOL    HW1 4313   0.279   4.462   5.536
 1138SOL    HW2 4314   0.428   4.495   5.477
 1139SOL     OW 4315   0.909   5.998   1.436
 1139SOL    HW1 4316   0.818   6.022   1.402
 1139SOL    HW2 4317   0.976   6.063   1.400
 1140SOL     OW 4318   3.662   1.510   3.679
 1140SOL    HW1 4319   3.734   1.532   3.744
 1140SOL    HW2 4320   3.666   1.574   3.602
 1141SOL     OW 4321   6.488   5.799   5.837
 1141SOL    HW1 4322   6.528   5.792   5.745
 1141SOL    HW2 4323   6.523   5.882   5.882
 1142SOL     OW 4324   5.828   1.055   4.131
 1142SOL    HW1 4325   5.764   1.020   4.063
 1142SOL    HW2 4326   5.843   1.153   4.117
 1143SOL     OW 4327   4.054   1.663   2.420
 1143SOL    HW1 4328   3.968   1.641   2.466
 1143SOL    HW2 4329   4.039   1.737   2.355
 1144SOL     OW 4330   1.694   0.005   5.744
 1144SOL    HW1 4331   1.701   0.102   5.766
 1144SOL    HW2 4332   1.786   6.985   5.735
 1145SOL     OW 4333   1.665   4.945   5.158
 1145SOL    HW1 4334   1.580   4.902   5.127
 1145SOL    HW2 4335   1.743   4.900   5.113
 1146SOL     OW 4336   6.212   2.207   0.869
 1146SOL    HW1 4337   6.183   2.128   0.815
 1146SOL    HW2 4338   6.312   2.207   0.877
 1147SOL     OW 4339   6.618   2.857   1.772
 1147SOL    HW1 4340   6.612   2.811   1.683
 1147SOL    HW2 4341   6.529   2.897   1.794
 1148SOL     OW 4342   4.631   0.698   6.989
 1148SOL    HW1 4343   4.731   0.707   6.980
 1148SOL    HW2 4344   4.589   0.699   6.898
 1149SOL     OW 4345   6.817   2.859   2.980
 1149SOL    HW1 4346   6.884   2.808   3.034
 1149SOL    HW2 4347   6.865   2.916   2.913
 1150SOL     OW 4348   0.991   4.983   5.790
 1150SOL    HW1 4349   1.026   4.899   5.831
 1150SOL    HW2 4350   0.891   4.981   5.791
 1151SOL     OW 4351   4.379   5.597   0.035
 1151SOL    HW1 4352   4.436   5.568   6.978
 1151SOL    HW2 4353   4.335   5.684   0.013
 1152SOL     OW 4354   0.236   1.086   4.444
 1152SOL    HW1 4355   0.336   1.097   4.447
 1152SOL    HW2 4356   0.201   1.077   4.537
 1153SOL     OW 4357   2.595   4.950   2.471
 1153SOL    HW1 4358   2.653   5.001   2.534
 1153SOL    HW2 4359   2.614   4.852   2.480
 1154SOL     OW 4360   1.753   4.237   1.684
 1154SOL    HW1 4361   1.659   4.232   1.717
 1154SOL    HW2 4362   1.753   4.271   1.590
 1155SOL     OW 4363   3.962   6.245   2.133
 1155SOL    HW1 4364   4.019   6.215   2.056
 1155SOL    HW2 4365   3.943   6.167   2.193
 1156SOL     OW 4366   1.583   1.158   4.304
 1156SOL    HW1 4367   1.605   1.223   4.232
 1156SOL    HW2 4368   1.498   1.110   4.280
 1157SOL     OW 4369   0.698   3.020   4.393
 1157SOL    HW1 4370   0.654   3.067   4.316
 1157SOL    HW2 4371   0.629   2.969   4.445
 1158SOL     OW 4372   4.485   5.845   6.508
 1158SOL    HW1 4373   4.554   5.838   6.580
 1158SOL    HW2 4374   4.530   5.864   6.421
 1159SOL     OW 4375   5.006   5.304   2.985
 1159SOL    HW1 4376   5.051   5.343   3.065
 1159SOL    HW2 4377   4.988   5.376   2.918
 1160SOL     OW 4378   2.480   2.728   0.418
 1160SOL    HW1 4379   2.491   2.804   0.482
 1160SOL    HW2 4380   2.508   2.643   0.462
 1161SOL     OW 4381   4.219   0.390   4.533
 1161SOL    HW1 4382   4.191   0.359   4.442
 1161SOL    HW2 4383   4.146   0.371   4.599
 1162SOL     OW 4384   3.936   4.689   1.752
 1162SOL    HW1 4385   3.992   4.617   1.711
 1162SOL    HW2 4386   3.973   4.713   1.841
 1163SOL     OW 4387   4.807   1.824   2.231
 1163SOL    HW1 4388   4.721   1.808   2.278
 1163SOL    HW2 4389   4.803   1.911   2.181
 1164SOL     OW 4390   5.474   3.374   4.092
 1164SOL    HW1 4391   5.471   3.473   4.075
 1164SOL    HW2 4392   5.551   3.353   4.151
 1165SOL     OW 4393   1.584   4.564   1.972
 1165SOL    HW1 4394   1.545   4.650   2.004
 1165SOL    HW2 4395   1.634   4.580   1.887
 1166SOL     OW 4396   3.669   2.549   6.787
 1166SOL    HW1 4397   3.752   2.495   6.778
 1166SOL    HW2 4398   3.685   2.641   6.750
 1167SOL     OW 4399   4.452   2.022   4.972
 1167SOL    HW1 4400   4.476   2.003   5.067
 1167SOL    HW2 4401   4.453   2.121   4.955
 1168SOL     OW 4402   6.437   6.431   3.860
 1168SOL    HW1 4403   6.507   6.482   3.809
 1168SOL    HW2 4404   6.360   6.492   3.881
 1169SOL     OW 4405   0.884   4.235   1.314
 1169SOL    HW1 4406   0.964   4.270   1.362
 1169SOL    HW2 4407   0.866   4.141   1.343
 1170SOL     OW 4408   2.848   0.848   0.924
 1170SOL    HW1 4409   2.844   0.932   0.870
 1170SOL    HW2 4410   2.843   0.870   1.021
 1171SOL     OW 4411   2.621   0.185   0.475
 1171SOL    HW1 4412   2.681   0.129   0.532
 1171SOL    HW2 4413   2.652   0.182   0.380
 1172SOL     OW 4414   3.054   3.187   4.881
 1172SOL    HW1 4415   3.074   3.090   4.894
 1172SOL    HW2 4416   3.123   3.241   4.930
 1173SOL     OW 4417   5.273   0.728   6.052
 1173SOL    HW1 4418   5.363   0.702   6.085
 1173SOL    HW2 4419   5.261   0.696   5.958
 1174SOL     OW 4420   3.481   6.370   0.765
 1174SOL    HW1 4421   3.434   6.458   0.778
 1174SOL    HW2 4422   3.463   6.312   0.844
 1175SOL     OW 4423   6.728   5.218   4.935
 1175SOL    HW1 4424   6.688   5.303   4.969
 1175SOL    HW2 4425   6.663   5.172   4.876
 1176SOL     OW 4426   6.348   3.871   0.715
 1176SOL    HW1 4427   6.364   3.954   0.768
 1176SOL    HW2 4428   6.280   3.814   0.761
 1177SOL     OW 4429   6.151   3.244   0.119
 1177SOL    HW1 4430   6.231   3.296   0.149
 1177SOL    HW2 4431   6.069   3.284   0.159
 1178SOL     OW 4432   5.451   4.091   1.641
 1178SOL    HW1 4433   5.461   4.030   1.720
 1178SOL    HW2 4434   5.361   4.076   1.599
 1179SOL     OW 4435   2.404   5.576   6.153
 1179SOL    HW1 4436   2.451   5.492   6.181
 1179SOL    HW2 4437   2.407   5.642   6.228
 1180SOL     OW 4438   2.178   1.148   3.764
 1180SOL    HW1 4439   2.138   1.240   3.759
 1180SOL    HW2 4440   2.159   1.109   3.854
 1181SOL     OW 4441   1.803   3.990   2.740
 1181SOL    HW1 4442   1.884   3.991   2.680
 1181SOL    HW2 4443   1.731   4.046   2.699
 1182SOL     OW 4444   1.044   3.689   3.017
 1182SOL    HW1 4445   1.064   3.659   2.924
 1182SOL    HW2 4446   0.946   3.677   3.036
 1183SOL     OW 4447   4.111   5.359   0.601
 1183SOL    HW1 4448   4.105   5.424   0.676
 1183SOL    HW2 4449   4.071   5.399   0.519
 1184SOL     OW 4450   2.940   3.065   5.778
 1184SOL    HW1 4451   2.896   3.092   5.693
 1184SOL    HW2 4452   2.956   3.146   5.835
 1185SOL     OW 4453   2.525   1.579   0.253
 1185SOL    HW1 4454   2.606   1.538   0.296
 1185SOL    HW2 4455   2.467   1.619   0.324
 1186SOL     OW 4456   3.857   1.366   5.417
 1186SOL    HW1 4457   3.814   1.421   5.489
 1186SOL    HW2 4458   3.890   1.280   5.457
 1187SOL     OW 4459   0.743   0.716   5.357
 1187SOL    HW1 4460   0.676   0.762   5.414
 1187SOL    HW2 4461   0.733   0.617   5.366
 1188SOL     OW 4462   1.585   0.048   5.042
 1188SOL    HW1 4463   1.645   0.009   5.111
 1188SOL    HW2 4464   1.599   0.148   5.039
 1189SOL     OW 4465   6.833   0.618   1.068
 1189SOL    HW1 4466   6.743   0.606   1.025
 1189SOL    HW2 4467   6.903   0.624   0.997
 1190SOL     OW 4468   4.316   4.662   2.914
 1190SOL    HW1 4469   4.363   4.592   2.859
 1190SOL    HW2 4470   4.221   4.670   2.883
 1191SOL     OW 4471   2.876   5.100   0.811
 1191SOL    HW1 4472   2.905   5.126   0.903
 1191SOL    HW2 4473   2.954   5.062   0.762
 1192SOL     OW 4474   4.608   5.445   2.119
 1192SOL    HW1 4475   4.552   5.517   2.078
 1192SOL    HW2 4476   4.549   5.368   2.145
 1193SOL     OW 4477   3.824   0.119   3.865
 1193SOL    HW1 4478   3.846   0.027   3.897
 1193SOL    HW2 4479   3.905   0.177   3.873
 1194SOL     OW 4480   6.454   0.981   1.450
 1194SOL    HW1 4481   6.533   1.029   1.411
 1194SOL    HW2 4482   6.426   0.908   1.388
 1195SOL     OW 4483   3.244   6.606   0.135
 1195SOL    HW1 4484   3.287   6.546   0.068
 1195SOL    HW2 4485   3.194   6.679   0.087
 1196SOL     OW 4486   0.383   5.401   2.938
 1196SOL    HW1 4487   0.452   5.434   3.002
 1196SOL    HW2 4488   0.309   5.468   2.930
 1197SOL     OW 4489   3.075   5.226   6.384
 1197SOL    HW1 4490   3.038   5.147   6.432
 1197SOL    HW2 4491   3.175   5.220   6.382
 1198SOL     OW 4492   3.366   1.527   2.618
 1198SOL    HW1 4493   3.345   1.592   2.545
 1198SOL    HW2 4494   3.433   1.460   2.585
 1199SOL     OW 4495   2.933   3.696   3.143
 1199SOL    HW1 4496   2.902   3.778   3.096
 1199SOL    HW2 4497   2.994   3.644   3.083
 1200SOL     OW 4498   3.777   3.243   0.699
 1200SOL    HW1 4499   3.775   3.343   0.695
 1200SOL    HW2 4500   3.856   3.209   0.649
 1201SOL     OW 4501   1.251   0.755   4.474
 1201SOL    HW1 4502   1.188   0.762   4.551
 1201SOL    HW2 4503   1.323   0.689   4.496
 1202SOL     OW 4504   5.651   0.242   4.696
 1202SOL    HW1 4505   5.674   0.145   4.686
 1202SOL    HW2 4506   5.717   0.286   4.757
 1203SOL     OW 4507   6.281   6.542   1.660
 1203SOL    HW1 4508   6.288   6.577   1.753
 1203SOL    HW2 4509   6.317   6.449   1.656
 1204SOL     OW 4510   2.163   6.565   6.899
 1204SOL    HW1 4511   2.185   6.622   6.820
 1204SOL    HW2 4512   2.064   6.568   6.916
 1205SOL     OW 4513   0.926   2.003   5.143
 1205SOL    HW1 4514   0.828   2.007   5.124
 1205SOL    HW2 4515   0.959   2.093   5.170
 1206SOL     OW 4516   0.604   1.529   4.469
 1206SOL    HW1 4517   0.604   1.629   4.475
 1206SOL    HW2 4518   0.531   1.492   4.526
 1207SOL     OW 4519   5.867   6.205   6.482
 1207SOL    HW1 4520   5.953   6.179   6.438
 1207SOL    HW2 4521   5.886   6.236   6.575
 1208SOL     OW 4522   3.331   4.083   3.431
 1208SOL    HW1 4523   3.330   4.018   3.355
 1208SOL    HW2 4524   3.255   4.063   3.493
 1209SOL     OW 4525   6.636   4.222   5.011
 1209SOL    HW1 4526   6.727   4.220   4.970
 1209SOL    HW2 4527   6.570   4.178   4.950
 1210SOL     OW 4528   3.220   0.022   2.181
 1210SOL    HW1 4529   3.301   0.062   2.138
 1210SOL    HW2 4530   3.142   0.084   2.171
 1211SOL     OW 4531   1.735   3.032   3.424
 1211SOL    HW1 4532   1.687   3.107   3.469
 1211SOL    HW2 4533   1.824   3.018   3.468
 1212SOL     OW 4534   1.758   3.515   3.830
 1212SOL    HW1 4535   1.757   3.435   3.889
 1212SOL    HW2 4536   1.794   3.490   3.740
 1213SOL     OW 4537   5.808   2.361   5.312
 1213SOL    HW1 4538   5.816   2.395   5.406
 1213SOL    HW2 4539   5.880   2.402   5.256
 1214SOL     OW 4540   1.683   2.344   2.468
 1214SOL    HW1 4541   1.769   2.339   2.418
 1214SOL    HW2 4542   1.620   2.273   2.434
 1215SOL     OW 4543   0.040   4.994   2.322
 1215SOL    HW1 4544   6.984   5.015   2.260
 1215SOL    HW2 4545   0.021   5.034   2.412
 1216SOL     OW 4546   2.557   0.820   1.643
 1216SOL    HW1 4547   2.613   0.740   1.665
 1216SOL    HW2 4548   2.482   0.828   1.709
 1217SOL     OW 4549   2.041   1.400   2.951
 1217SOL    HW1 4550   1.947   1.367   2.943
 1217SOL    HW2 4551   2.104   1.327   2.925
 1218SOL     OW 4552   0.406   3.404   3.705
 1218SOL    HW1 4553   0.401   3.324   3.765
 1218SOL    HW2 4554   0.409   3.373   3.610
 1219SOL     OW 4555   2.549   6.035   3.854
 1219SOL    HW1 4556   2.547   6.095   3.934
 1219SOL    HW2 4557   2.629   6.056   3.799
 1220SOL     OW 4558   5.889   4.436   2.999
 1220SOL    HW1 4559   5.845   4.407   3.084
 1220SOL    HW2 4560   5.824   4.487   2.944
 1221SOL     OW 4561   4.833   3.701   6.072
 1221SOL    HW1 4562   4.788   3.619   6.106
 1221SOL    HW2 4563   4.929   3.681   6.051
 1222SOL     OW 4564   5.401   4.935   1.738
 1222SOL    HW1 4565   5.489   4.931   1.691
 1222SOL    HW2 4566   5.374   5.030   1.750
 1223SOL     OW 4567   6.222   4.798   4.924
 1223SOL    HW1 4568   6.301   4.739   4.911
 1223SOL    HW2 4569   6.235   4.883   4.873
 1224SOL     OW 4570   4.769   5.109   1.747
 1224SOL    HW1 4571   4.865   5.114   1.776
 1224SOL    HW2 4572   4.748   5.015   1.720
 1225SOL     OW 4573   3.885   1.215   6.696
 1225SOL    HW1 4574   3.786   1.210   6.698
 1225SOL    HW2 4575   3.923   1.138   6.748
 1226SOL     OW 4576   5.491   5.171   1.080
 1226SOL    HW1 4577   5.442   5.258   1.087
 1226SOL    HW2 4578   5.427   5.095   1.090
 1227SOL     OW 4579   4.945   4.508   0.174
 1227SOL    HW1 4580   4.852   4.470   0.177
 1227SOL    HW2 4581   4.982   4.513   0.267
 1228SOL     OW 4582   3.758   4.141   4.303
 1228SOL    HW1 4583   3.780   4.075   4.231
 1228SOL    HW2 4584   3.689   4.205   4.270
 1229SOL     OW 4585   2.523   5.972   2.630
 1229SOL    HW1 4586   2.601   5.923   2.590
 1229SOL    HW2 4587   2.450   5.907   2.650
 1230SOL     OW 4588   5.637   4.916   1.596
 1230SOL    HW1 4589   5.625   4.818   1.581
 1230SOL    HW2 4590   5.694   4.955   1.524
 1231SOL     OW 4591   2.082   1.913   6.202
 1231SOL    HW1 4592   2.077   2.005   6.240
 1231SOL    HW2 4593   2.088   1.847   6.276
 1232SOL     OW 4594   3.127   1.068   5.260
 1232SOL    HW1 4595   3.144   1.147   5.318
 1232SOL    HW2 4596   3.163   1.085   5.169
 1233SOL     OW 4597   0.272   5.770   5.128
 1233SOL    HW1 4598   0.283   5.841   5.057
 1233SOL    HW2 4599   0.207   5.701   5.096
 1234SOL     OW 4600   5.935   4.310   6.824
 1234SOL    HW1 4601   5.914   4.240   6.756
 1234SOL    HW2 4602   6.000   4.375   6.785
 1235SOL     OW 4603   6.540   4.768   1.034
 1235SOL    HW1 4604   6.597   4.826   1.092
 1235SOL    HW2 4605   6.458   4.740   1.085
 1236SOL     OW 4606   1.531   1.300   2.079
 1236SOL    HW1 4607   1.447   1.324   2.030
 1236SOL    HW2 4608   1.514   1.303   2.178
 1237SOL     OW 4609   0.749   6.955   4.606
 1237SOL    HW1 4610   0.844   6.942   4.578
 1237SOL    HW2 4611   0.698   6.870   4.590
 1238SOL     OW 4612   0.845   0.842   4.835
 1238SOL    HW1 4613   0.768   0.789   4.871
 1238SOL    HW2 4614   0.810   0.918   4.780
 1239SOL     OW 4615   5.373   5.362   3.758
 1239SOL    HW1 4616   5.291   5.317   3.724
 1239SOL    HW2 4617   5.373   5.458   3.729
 1240SOL     OW 4618   0.949   3.524   1.372
 1240SOL    HW1 4619   0.951   3.450   1.439
 1240SOL    HW2 4620   0.947   3.612   1.419
 1241SOL     OW 4621   3.806   5.105   5.697
 1241SOL    HW1 4622   3.875   5.089   5.627
 1241SOL    HW2 4623   3.715   5.085   5.661
 1242SOL     OW 4624   2.482   4.699   1.123
 1242SOL    HW1 4625   2.459   4.605   1.146
 1242SOL    HW2 4626   2.547   4.701   1.047
 1243SOL     OW 4627   1.103   3.232   3.315
 1243SOL    HW1 4628   1.064   3.236   3.223
 1243SOL    HW2 4629   1.066   3.306   3.371
 1244SOL     OW 4630   6.280   0.200   5.357
 1244SOL    HW1 4631   6.305   0.268   5.426
 1244SOL    HW2 4632   6.360   0.142   5.337
 1245SOL     OW 4633   4.932   6.345   0.959
 1245SOL    HW1 4634   4.984   6.343   1.045
 1245SOL    HW2 4635   4.924   6.252   0.924
 1246SOL     OW 4636   5.059   1.649   1.046
 1246SOL    HW1 4637   5.081   1.645   0.949
 1246SOL    HW2 4638   4.976   1.596   1.064
 1247SOL     OW 4639   6.500   6.825   3.186
 1247SOL    HW1 4640   6.506   6.766   3.267
 1247SOL    HW2 4641   6.405   6.835   3.158
 1248SOL     OW 4642   1.130   6.402   4.179
 1248SOL    HW1 4643   1.054   6.340   4.162
 1248SOL    HW2 4644   1.212   6.349   4.201
 1249SOL     OW 4645   5.844   5.535   6.614
 1249SOL    HW1 4646   5.898   5.534   6.698
 1249SOL    HW2 4647   5.874   5.462   6.554
 1250SOL     OW 4648   0.341   3.846   5.249
 1250SOL    HW1 4649   0.374   3.940   5.251
 1250SOL    HW2 4650   0.387   3.792   5.320
 1251SOL     OW 4651   3.253   0.536   2.545
 1251SOL    HW1 4652   3.163   0.495   2.560
 1251SOL    HW2 4653   3.242   0.629   2.510
 1252SOL     OW 4654   2.110   5.081   6.544
 1252SOL    HW1 4655   2.063   5.000   6.511
 1252SOL    HW2 4656   2.148   5.063   6.635
 1253SOL     OW 4657   2.914   6.887   0.050
 1253SOL    HW1 4658   2.838   6.885   7.004
 1253SOL    HW2 4659   2.886   6.841   0.134
 1254SOL     OW 4660   6.235   1.470   3.036
 1254SOL    HW1 4661   6.191   1.382   3.050
 1254SOL    HW2 4662   6.300   1.488   3.110
 1255SOL     OW 4663   5.976   1.481   5.729
 1255SOL    HW1 4664   6.012   1.504   5.638
 1255SOL    HW2 4665   6.044   1.506   5.798
 1256SOL     OW 4666   0.243   5.835   4.739
 1256SOL    HW1 4667   0.326   5.872   4.782
 1256SOL    HW2 4668   0.268   5.758   4.679
 1257SOL     OW 4669   0.277   6.388   3.120
 1257SOL    HW1 4670   0.310   6.305   3.074
 1257SOL    HW2 4671   0.203   6.364   3.183
 1258SOL     OW 4672   4.756   6.162   6.233
 1258SOL    HW1 4673   4.787   6.132   6.323
 1258SOL    HW2 4674   4.805   6.245   6.207
 1259SOL     OW 4675   5.117   0.568   5.576
 1259SOL    HW1 4676   5.035   0.623   5.592
 1259SOL    HW2 4677   5.129   0.554   5.477
 1260SOL     OW 4678   2.763   1.290   1.150
 1260SOL    HW1 4679   2.778   1.213   1.212
 1260SOL    HW2 4680   2.736   1.370   1.202
 1261SOL     OW 4681   6.978   4.975   4.817
 1261SOL    HW1 4682   0.037   5.036   4.803
 1261SOL    HW2 4683   7.011   4.882   4.835
 1262SOL     OW 4684   4.192   5.640   1.414
 1262SOL    HW1 4685   4.098   5.628   1.446
 1262SOL    HW2 4686   4.191   5.701   1.334
 1263SOL     OW 4687   6.427   2.526   0.820
 1263SOL    HW1 4688   6.465   2.435   0.837
 1263SOL    HW2 4689   6.435   2.581   0.903
 1264SOL     OW 4690   6.455   2.698   4.255
 1264SOL    HW1 4691   6.405   2.703   4.342
 1264SOL    HW2 4692   6.452   2.604   4.221
 1265SOL     OW 4693   6.384   6.120   5.116
 1265SOL    HW1 4694   6.348   6.047   5.174
 1265SOL    HW2 4695   6.464   6.161   5.160
 1266SOL     OW 4696   2.657   0.841   4.190
 1266SOL    HW1 4697   2.607   0.777   4.248
 1266SOL    HW2 4698   2.735   0.879   4.240
 1267SOL     OW 4699   0.010   4.711   2.946
 1267SOL    HW1 4700   6.972   4.671   3.018
 1267SOL    HW2 4701   0.057   4.792   2.981
 1268SOL     OW 4702   5.694   3.936   6.945
 1268SOL    HW1 4703   5.733   3.951   6.855
 1268SOL    HW2 4704   5.675   4.025   6.989
 1269SOL     OW 4705   6.739   5.071   6.296
 1269SOL    HW1 4706   6.678   5.042   6.222
 1269SOL    HW2 4707   6.688   5.078   6.381
 1270SOL     OW 4708   1.753   2.062   5.011
 1270SOL    HW1 4709   1.783   2.032   4.921
 1270SOL    HW2 4710   1.653   2.066   5.013
 1271SOL     OW 4711   4.949   2.529   2.990
 1271SOL    HW1 4712   5.038   2.544   3.034
 1271SOL    HW2 4713   4.938   2.595   2.916
 1272SOL     OW 4714   6.922   6.935   1.793
 1272SOL    HW1 4715   6.828   6.900   1.796
 1272SOL    HW2 4716   6.928   7.005   1.722
 1273SOL     OW 4717   2.394   6.317   6.368
 1273SOL    HW1 4718   2.401   6.299   6.466
 1273SOL    HW2 4719   2.405   6.231   6.318
 1274SOL     OW 4720   5.609   2.606   1.113
 1274SOL    HW1 4721   5.520   2.574   1.145
 1274SOL    HW2 4722   5.678   2.536   1.132
 1275SOL     OW 4723   3.816   1.621   3.887
 1275SOL    HW1 4724   3.858   1.709   3.906
 1275SOL    HW2 4725   3.848   1.553   3.953
 1276SOL     OW 4726   5.973   0.261   3.580
 1276SOL    HW1 4727   6.019   0.349   3.595
 1276SOL    HW2 4728   6.033   0.187   3.609
 1277SOL     OW 4729   0.339   1.301   5.263
 1277SOL    HW1 4730   0.263   1.275   5.323
 1277SOL    HW2 4731   0.336   1.400   5.247
 1278SOL     OW 4732   3.028   2.054   5.442
 1278SOL    HW1 4733   3.033   2.151   5.421
 1278SOL    HW2 4734   3.054   2.038   5.537
 1279SOL     OW 4735   2.454   4.955   0.580
 1279SOL    HW1 4736   2.367   4.973   0.627
 1279SOL    HW2 4737   2.517   5.031   0.595
 1280SOL     OW 4738   1.800   6.102   3.336
 1280SOL    HW1 4739   1.781   6.183   3.280
 1280SOL    HW2 4740   1.897   6.103   3.363
 1281SOL     OW 4741   0.829   0.006   3.978
 1281SOL    HW1 4742   0.874   6.949   4.026
 1281SOL    HW2 4743   0.870   0.018   3.888
 1282SOL     OW 4744   1.279   0.164   2.116
 1282SOL    HW1 4745   1.241   0.217   2.040
 1282SOL    HW2 4746   1.249   0.069   2.110
 1283SOL     OW 4747   5.111   4.634   5.204
 1283SOL    HW1 4748   5.118   4.551   5.259
 1283SOL    HW2 4749   5.056   4.616   5.123
 1284SOL     OW 4750   2.524   1.813   3.142
 1284SOL    HW1 4751   2.462   1.789   3.068
 1284SOL    HW2 4752   2.523   1.913   3.156
 1285SOL     OW 4753   5.729   2.644   5.631
 1285SOL    HW1 4754   5.768   2.590   5.705
 1285SOL    HW2 4755   5.649   2.695   5.665
 1286SOL     OW 4756   6.014   6.121   1.580
 1286SOL    HW1 4757   6.016   6.218   1.559
 1286SOL    HW2 4758   5.962   6.072   1.510
 1287SOL     OW 4759   6.022   5.047   5.795
 1287SOL    HW1 4760   6.003   5.025   5.890
 1287SOL    HW2 4761   5.989   4.973   5.736
 1288SOL     OW 4762   6.676   2.627   2.923
 1288SOL    HW1 4763   6.731   2.549   2.952
 1288SOL    HW2 4764   6.730   2.710   2.930
 1289SOL     OW 4765   6.771   5.802   2.745
 1289SOL    HW1 4766   6.753   5.761   2.834
 1289SOL    HW2 4767   6.814   5.735   2.684
 1290SOL     OW 4768   0.533   6.568   1.502
 1290SOL    HW1 4769   0.582   6.532   1.423
 1290SOL    HW2 4770   0.442   6.527   1.507
 1291SOL     OW 4771   1.781   0.266   0.685
 1291SOL    HW1 4772   1.822   0.278   0.775
 1291SOL    HW2 4773   1.848   0.290   0.614
 1292SOL     OW 4774   1.182   6.233   6.822
 1292SOL    HW1 4775   1.189   6.152   6.765
 1292SOL    HW2 4776   1.261   6.293   6.806
 1293SOL     OW 4777   6.563   2.769   6.030
 1293SOL    HW1 4778   6.496   2.751   6.102
 1293SOL    HW2 4779   6.631   2.696   6.027
 1294SOL     OW 4780   7.017   1.911   3.060
 1294SOL    HW1 4781   0.001   1.902   3.160
 1294SOL    HW2 4782   0.071   1.855   3.020
 1295SOL     OW 4783   5.395   3.411   1.922
 1295SOL    HW1 4784   5.475   3.436   1.868
 1295SOL    HW2 4785   5.318   3.470   1.897
 1296SOL     OW 4786   3.561   2.435   6.567
 1296SOL    HW1 4787   3.646   2.410   6.521
 1296SOL    HW2 4788   3.582   2.488   6.649
 1297SOL     OW 4789   6.495   1.365   6.745
 1297SOL    HW1 4790   6.543   1.452   6.756
 1297SOL    HW2 4791   6.561   1.291   6.736
 1298SOL     OW 4792   5.925   3.012   3.446
 1298SOL    HW1 4793   5.935   3.037   3.542
 1298SOL    HW2 4794   5.941   2.914   3.435
 1299SOL     OW 4795   1.106   4.002   4.156
 1299SOL    HW1 4796   1.204   3.995   4.139
 1299SOL    HW2 4797   1.062   4.052   4.082
 1300SOL     OW 4798   2.799   3.212   1.264
 1300SOL    HW1 4799   2.898   3.209   1.281
 1300SOL    HW2 4800   2.769   3.127   1.221
 1301SOL     OW 4801   0.896   0.373   2.987
 1301SOL    HW1 4802   0.994   0.356   2.987
 1301SOL    HW2 4803   0.879   0.468   3.014
 1302SOL     OW 4804   2.597   5.639   5.367
 1302SOL    HW1 4805   2.541   5.614   5.445
 1302SOL    HW2 4806   2.589   5.569   5.296
 1303SOL     OW 4807   3.914   0.894   1.218
 1303SOL    HW1 4808   3.960   0.866   1.133
 1303SOL    HW2 4809   3.922   0.821   1.286
 1304SOL     OW 4810   3.186   0.230   6.107
 1304SOL    HW1 4811   3.248   0.170   6.157
 1304SOL    HW2 4812   3.240   0.300   6.059
 1305SOL     OW 4813   5.453   6.989   4.829
 1305SOL    HW1 4814   5.414   0.018   4.751
 1305SOL    HW2 4815   5.545   6.956   4.805
 1306SOL     OW 4816   0.653   4.504   4.057
 1306SOL    HW1 4817   0.660   4.558   3.972
 1306SOL    HW2 4818   0.576   4.537   4.110
 1307SOL     OW 4819   2.259   1.699   4.293
 1307SOL    HW1 4820   2.278   1.602   4.281
 1307SOL    HW2 4821   2.288   1.727   4.384
 1308SOL     OW 4822   4.803   5.806   2.682
 1308SOL    HW1 4823   4.858   5.859   2.617
 1308SOL    HW2 4824   4.709   5.839   2.681
 1309SOL     OW 4825   6.092   2.299   4.747
 1309SOL    HW1 4826   5.997   2.326   4.738
 1309SOL    HW2 4827   6.097   2.203   4.776
 1310SOL     OW 4828   4.956   3.569   5.449
 1310SOL    HW1 4829   4.941   3.583   5.547
 1310SOL    HW2 4830   5.053   3.583   5.427
 1311SOL     OW 4831   5.207   5.403   5.279
 1311SOL    HW1 4832   5.272   5.338   5.317
 1311SOL    HW2 4833   5.199   5.389   5.180
 1312SOL     OW 4834   6.902   6.856   2.340
 1312SOL    HW1 4835   6.824   6.911   2.371
 1312SOL    HW2 4836   6.912   6.866   2.241
 1313SOL     OW 4837   3.536   4.868   5.369
 1313SOL    HW1 4838   3.483   4.924   5.433
 1313SOL    HW2 4839   3.611   4.825   5.417
 1314SOL     OW 4840   5.712   1.204   5.013
 1314SOL    HW1 4841   5.736   1.188   5.109
 1314SOL    HW2 4842   5.743   1.295   4.986
 1315SOL     OW 4843   2.276   0.814   2.982
 1315SOL    HW1 4844   2.233   0.769   3.061
 1315SOL    HW2 4845   2.213   0.810   2.904
 1316SOL     OW 4846   3.554   6.249   2.354
 1316SOL    HW1 4847   3.606   6.190   2.417
 1316SOL    HW2 4848   3.526   6.195   2.275
 1317SOL     OW 4849   0.132   5.007   3.863
 1317SOL    HW1 4850   0.094   4.916   3.875
 1317SOL    HW2 4851   0.102   5.045   3.776
 1318SOL     OW 4852   0.362   6.241   1.272
 1318SOL    HW1 4853   0.416   6.260   1.190
 1318SOL    HW2 4854   0.345   6.142   1.278
 1319SOL     OW 4855   6.219   1.035   0.233
 1319SOL    HW1 4856   6.217   1.130   0.201
 1319SOL    HW2 4857   6.208   1.033   0.332
 1320SOL     OW 4858   5.204   5.781   5.755
 1320SOL    HW1 4859   5.222   5.874   5.789
 1320SOL    HW2 4860   5.276   5.753   5.692
 1321SOL     OW 4861   3.303   2.083   6.515
 1321SOL    HW1 4862   3.269   2.161   6.461
 1321SOL    HW2 4863   3.283   2.099   6.612
 1322SOL     OW 4864   5.622   0.986   4.826
 1322SOL    HW1 4865   5.639   1.079   4.860
 1322SOL    HW2 4866   5.639   0.984   4.727
 1323SOL     OW 4867   5.893   1.214   4.630
 1323SOL    HW1 4868   5.821   1.162   4.582
 1323SOL    HW2 4869   5.854   1.299   4.666
 1324SOL     OW 4870   1.064   3.982   0.785
 1324SOL    HW1 4871   1.031   3.996   0.879
 1324SOL    HW2 4872   1.073   3.884   0.768
 1325SOL     OW 4873   3.217   5.619   2.936
 1325SOL    HW1 4874   3.260   5.594   3.023
 1325SOL    HW2 4875   3.189   5.715   2.940
 1326SOL     OW 4876   5.008   4.212   4.425
 1326SOL    HW1 4877   4.908   4.206   4.419
 1326SOL    HW2 4878   5.047   4.120   4.416
 1327SOL     OW 4879   3.374   5.827   3.246
 1327SOL    HW1 4880   3.351   5.732   3.222
 1327SOL    HW2 4881   3.291   5.883   3.241
 1328SOL     OW 4882   1.827   2.257   6.614
 1328SOL    HW1 4883   1.794   2.268   6.520
 1328SOL    HW2 4884   1.750   2.235   6.674
 1329SOL     OW 4885   0.648   0.272   1.313
 1329SOL    HW1 4886   0.665   0.368   1.333
 1329SOL    HW2 4887   0.600   0.230   1.391
 1330SOL     OW 4888   5.816   6.795   0.871
 1330SOL    HW1 4889   5.743   6.812   0.938
 1330SOL    HW2 4890   5.786   6.729   0.803
 1331SOL     OW 4891   6.623   0.793   2.570
 1331SOL    HW1 4892   6.694   0.853   2.535
 1331SOL    HW2 4893   6.621   0.797   2.670
 1332SOL     OW 4894   4.317   1.561   1.181
 1332SOL    HW1 4895   4.287   1.503   1.256
 1332SOL    HW2 4896   4.375   1.634   1.217
 1333SOL     OW 4897   3.949   4.166   5.160
 1333SOL    HW1 4898   3.852   4.190   5.159
 1333SOL    HW2 4899   3.963   4.088   5.221
 1334SOL     OW 4900   0.832   3.908   3.261
 1334SOL    HW1 4901   0.768   3.939   3.332
 1334SOL    HW2 4902   0.846   3.981   3.195
 1335SOL     OW 4903   2.747   4.972   2.039
 1335SOL    HW1 4904   2.762   5.040   2.112
 1335SOL    HW2 4905   2.661   4.992   1.993
 1336SOL     OW 4906   0.626   0.080   4.833
 1336SOL    HW1 4907   0.659   0.035   4.749
 1336SOL    HW2 4908   0.548   0.138   4.811
 1337SOL     OW 4909   2.539   0.690   6.312
 1337SOL    HW1 4910   2.578   0.723   6.226
 1337SOL    HW2 4911   2.610   0.691   6.383
 1338SOL     OW 4912   3.176   5.787   0.799
 1338SOL    HW1 4913   3.078   5.771   0.808
 1338SOL    HW2 4914   3.199   5.801   0.703
 1339SOL     OW 4915   0.298   4.795   4.849
 1339SOL    HW1 4916   0.255   4.779   4.760
 1339SOL    HW2 4917   0.328   4.709   4.888
 1340SOL     OW 4918   2.132   1.433   6.485
 1340SOL    HW1 4919   2.104   1.455   6.392
 1340SOL    HW2 4920   2.116   1.336   6.503
 1341SOL     OW 4921   5.309   1.228   3.418
 1341SOL    HW1 4922   5.334   1.201   3.325
 1341SOL    HW2 4923   5.212   1.255   3.420
 1342SOL     OW 4924   0.526   5.931   1.543
 1342SOL    HW1 4925   0.603   5.905   1.602
 1342SOL    HW2 4926   0.475   5.849   1.517
 1343SOL     OW 4927   3.949   5.434   3.570
 1343SOL    HW1 4928   3.870   5.419   3.511
 1343SOL    HW2 4929   4.030   5.448   3.514
 1344SOL     OW 4930   5.923   1.308   2.135
 1344SOL    HW1 4931   6.007   1.348   2.100
 1344SOL    HW2 4932   5.852   1.378   2.139
 1345SOL     OW 4933   1.434   6.763   3.741
 1345SOL    HW1 4934   1.432   6.831   3.667
 1345SOL    HW2 4935   1.377   6.794   3.817
 1346SOL     OW 4936   0.261   0.502   4.136
 1346SOL    HW1 4937   0.191   0.433   4.147
 1346SOL    HW2 4938   0.270   0.526   4.039
 1347SOL     OW 4939   5.941   0.336   2.968
 1347SOL    HW1 4940   5.895   0.290   2.892
 1347SOL    HW2 4941   5.890   0.321   3.053
 1348SOL     OW 4942   3.932   5.825   4.434
 1348SOL    HW1 4943   3.907   5.791   4.343
 1348SOL    HW2 4944   3.978   5.752   4.485
 1349SOL     OW 4945   4.969   2.585   0.094
 1349SOL    HW1 4946   4.954   2.542   0.005
 1349SOL    HW2 4947   5.056   2.553   0.133
 1350SOL     OW 4948   3.089   6.660   5.410
 1350SOL    HW1 4949   3.086   6.733   5.478
 1350SOL    HW2 4950   3.049   6.693   5.324
 1351SOL     OW 4951   0.857   1.201   4.483
 1351SOL    HW1 4952   0.927   1.227   4.550
 1351SOL    HW2 4953   0.845   1.275   4.417
 1352SOL     OW 4954   0.457   6.724   3.993
 1352SOL    HW1 4955   0.546   6.699   3.954
 1352SOL    HW2 4956   0.450   6.823   3.999
 1353SOL     OW 4957   1.800   3.205   3.821
 1353SOL    HW1 4958   1.737   3.168   3.889
 1353SOL    HW2 4959   1.892   3.210   3.861
 1354SOL     OW 4960   0.110   6.930   0.899
 1354SOL    HW1 4961   0.199   6.952   0.939
 1354SOL    HW2 4962   0.054   6.884   0.968
 1355SOL     OW 4963   4.316   3.442   0.316
 1355SOL    HW1 4964   4.329   3.344   0.335
 1355SOL    HW2 4965   4.301   3.454   0.218
 1356SOL     OW 4966   3.088   3.682   1.583
 1356SOL    HW1 4967   3.136   3.656   1.667
 1356SOL    HW2 4968   3.113   3.619   1.510
 1357SOL     OW 4969   2.757   2.968   5.938
 1357SOL    HW1 4970   2.673   3.021   5.930
 1357SOL    HW2 4971   2.826   3.005   5.877
 1358SOL     OW 4972   2.391   3.358   5.967
 1358SOL    HW1 4973   2.404   3.433   5.902
 1358SOL    HW2 4974   2.314   3.300   5.937
 1359SOL     OW 4975   0.021   0.946   6.779
 1359SOL    HW1 4976   0.097   0.913   6.836
 1359SOL    HW2 4977   6.978   1.001   6.836
 1360SOL     OW 4978   3.141   3.187   3.917
 1360SOL    HW1 4979   3.124   3.123   3.992
 1360SOL    HW2 4980   3.177   3.136   3.838
 1361SOL     OW 4981   1.100   5.711   1.227
 1361SOL    HW1 4982   1.119   5.685   1.133
 1361SOL    HW2 4983   1.186   5.732   1.273
 1362SOL     OW 4984   2.900   2.408   6.531
 1362SOL    HW1 4985   2.995   2.422   6.561
 1362SOL    HW2 4986   2.872   2.315   6.553
 1363SOL     OW 4987   6.521   6.340   1.872
 1363SOL    HW1 4988   6.470   6.304   1.794
 1363SOL    HW2 4989   6.458   6.358   1.947
 1364SOL     OW 4990   0.392   3.453   0.699
 1364SOL    HW1 4991   0.485   3.421   0.685
 1364SOL    HW2 4992   0.392   3.527   0.766
 1365SOL     OW 4993   0.366   4.121   5.300
 1365SOL    HW1 4994   0.277   4.166   5.299
 1365SOL    HW2 4995   0.398   4.111   5.394
 1366SOL     OW 4996   5.077   0.543   0.668
 1366SOL    HW1 4997   4.993   0.506   0.628
 1366SOL    HW2 4998   5.082   0.518   0.765
 1367SOL     OW 4999   1.437   6.502   4.374
 1367SOL    HW1 5000   1.489   6.550   4.445
 1367SOL    HW2 5001   1.406   6.413   4.409
 1368SOL     OW 5002   1.256   6.422   5.543
 1368SOL    HW1 5003   1.343   6.471   5.543
 1368SOL    HW2 5004   1.195   6.461   5.613
 1369SOL     OW 5005   2.916   6.127   3.353
 1369SOL    HW1 5006   2.912   6.136   3.254
 1369SOL    HW2 5007   2.836   6.171   3.394
 1370SOL     OW 5008   6.818   2.434   2.688
 1370SOL    HW1 5009   6.729   2.393   2.665
 1370SOL    HW2 5010   6.835   2.424   2.786
 1371SOL     OW 5011   5.812   2.067   5.975
 1371SOL    HW1 5012   5.856   2.149   6.013
 1371SOL    HW2 5013   5.879   2.016   5.921
 1372SOL     OW 5014   6.415   2.940   0.732
 1372SOL    HW1 5015   6.504   2.977   0.704
 1372SOL    HW2 5016   6.358   3.014   0.768
 1373SOL     OW 5017   5.543   2.112   1.594
 1373SOL    HW1 5018   5.563   2.207   1.620
 1373SOL    HW2 5019   5.628   2.066   1.568
 1374SOL     OW 5020   4.327   4.263   1.231
 1374SOL    HW1 5021   4.380   4.331   1.179
 1374SOL    HW2 5022   4.316   4.294   1.325
 1375SOL     OW 5023   5.813   5.223   4.151
 1375SOL    HW1 5024   5.890   5.287   4.148
 1375SOL    HW2 5025   5.727   5.273   4.147
 1376SOL     OW 5026   2.909   4.963   5.996
 1376SOL    HW1 5027   2.933   4.999   5.906
 1376SOL    HW2 5028   2.890   5.039   6.059
 1377SOL     OW 5029   1.871   1.806   2.998
 1377SOL    HW1 5030   1.929   1.773   3.072
 1377SOL    HW2 5031   1.908   1.892   2.963
 1378SOL     OW 5032   5.194   2.664   3.948
 1378SOL    HW1 5033   5.240   2.622   3.870
 1378SOL    HW2 5034   5.141   2.743   3.917
 1379SOL     OW 5035   4.869   5.434   1.343
 1379SOL    HW1 5036   4.954   5.432   1.395
 1379SOL    HW2 5037   4.842   5.340   1.320
 1380SOL     OW 5038   0.101   6.170   2.344
 1380SOL    HW1 5039   0.075   6.252   2.293
 1380SOL    HW2 5040   0.019   6.125   2.380
 1381SOL     OW 5041   6.168   2.557   6.039
 1381SOL    HW1 5042   6.203   2.650   6.026
 1381SOL    HW2 5043   6.169   2.534   6.136
 1382SOL     OW 5044   4.535   3.160   0.131
 1382SOL    HW1 5045   4.632   3.135   0.126
 1382SOL    HW2 5046   4.520   3.247   0.085
 1383SOL     OW 5047   0.326   0.615   1.380
 1383SOL    HW1 5048   0.274   0.537   1.415
 1383SOL    HW2 5049   0.418   0.584   1.355
 1384SOL     OW 5050   6.224   1.704   1.773
 1384SOL    HW1 5051   6.252   1.790   1.730
 1384SOL    HW2 5052   6.161   1.723   1.848
 1385SOL     OW 5053   0.586   5.630   1.343
 1385SOL    HW1 5054   0.626   5.546   1.379
 1385SOL    HW2 5055   0.654   5.678   1.287
 1386SOL     OW 5056   1.959   5.569   4.468
 1386SOL    HW1 5057   1.978   5.518   4.552
 1386SOL    HW2 5058   1.991   5.517   4.389
 1387SOL     OW 5059   2.732   6.231   2.028
 1387SOL    HW1 5060   2.745   6.311   2.087
 1387SOL    HW2 5061   2.821   6.197   1.998
 1388SOL     OW 5062   6.995   0.801   1.724
 1388SOL    HW1 5063   6.927   0.803   1.650
 1388SOL    HW2 5064   7.016   0.706   1.746
 1389SOL     OW 5065   6.584   1.138   2.200
 1389SOL    HW1 5066   6.495   1.124   2.245
 1389SOL    HW2 5067   6.570   1.179   2.110
 1390SOL     OW 5068   1.254   1.532   5.337
 1390SOL    HW1 5069   1.297   1.495   5.254
 1390SOL    HW2 5070   1.307   1.611   5.369
 1391SOL     OW 5071   0.349   2.890   3.476
 1391SOL    HW1 5072   0.418   2.905   3.547
 1391SOL    HW2 5073   0.382   2.821   3.411
 1392SOL     OW 5074   4.948   4.599   5.005
 1392SOL    HW1 5075   4.938   4.512   4.956
 1392SOL    HW2 5076   4.869   4.657   4.987
 1393SOL     OW 5077   3.116   6.391   5.823
 1393SOL    HW1 5078   3.159   6.478   5.844
 1393SOL    HW2 5079   3.064   6.360   5.903
 1394SOL     OW 5080   1.668   6.224   6.507
 1394SOL    HW1 5081   1.587   6.271   6.544
 1394SOL    HW2 5082   1.642   6.175   6.424
 1395SOL     OW 5083   3.559   4.195   5.439
 1395SOL    HW1 5084   3.520   4.237   5.521
 1395SOL    HW2 5085   3.503   4.117   5.411
 1396SOL     OW 5086   5.816   5.932   3.986
 1396SOL    HW1 5087   5.774   5.980   4.062
 1396SOL    HW2 5088   5.891   5.987   3.949
 1397SOL     OW 5089   4.734   6.063   5.469
 1397SOL    HW1 5090   4.736   5.997   5.394
 1397SOL    HW2 5091   4.817   6.054   5.524
 1398SOL     OW 5092   2.095   1.250   4.323
 1398SOL    HW1 5093   2.124   1.154   4.313
 1398SOL    HW2 5094   2.026   1.271   4.253
 1399SOL     OW 5095   2.951   6.943   1.633
 1399SOL    HW1 5096   2.925   6.889   1.712
 1399SOL    HW2 5097   2.885   7.017   1.620
 1400SOL     OW 5098   1.589   6.592   1.947
 1400SOL    HW1 5099   1.668   6.531   1.954
 1400SOL    HW2 5100   1.605   6.658   1.874
 1401SOL     OW 5101   6.404   1.235   4.484
 1401SOL    HW1 5102   6.378   1.144   4.453
 1401SOL    HW2 5103   6.324   1.295   4.479
 1402SOL     OW 5104   0.100   3.137   0.486
 1402SOL    HW1 5105   0.183   3.146   0.431
 1402SOL    HW2 5106   0.110   3.191   0.570
 1403SOL     OW 5107   3.187   0.755   2.389
 1403SOL    HW1 5108   3.256   0.776   2.459
 1403SOL    HW2 5109   3.232   0.722   2.306
 1404SOL     OW 5110   5.385   1.051   0.194
 1404SOL    HW1 5111   5.353   1.145   0.195
 1404SOL    HW2 5112   5.310   0.990   0.217
 1405SOL     OW 5113   2.385   3.444   1.058
 1405SOL    HW1 5114   2.321   3.369   1.045
 1405SOL    HW2 5115   2.460   3.414   1.116
 1406SOL     OW 5116   1.310   3.896   0.995
 1406SOL    HW1 5117   1.254   3.843   1.059
 1406SOL    HW2 5118   1.282   3.992   0.999
 1407SOL     OW 5119   6.532   2.564   2.701
 1407SOL    HW1 5120   6.577   2.581   2.789
 1407SOL    HW2 5121   6.467   2.637   2.682
 1408SOL     OW 5122   6.486   0.259   6.730
 1408SOL    HW1 5123   6.513   0.350   6.761
 1408SOL    HW2 5124   6.407   0.267   6.669
 1409SOL     OW 5125   0.483   1.371   4.238
 1409SOL    HW1 5126   0.410   1.438   4.246
 1409SOL    HW2 5127   0.572   1.417   4.241
 1410SOL     OW 5128   0.487   2.599   0.108
 1410SOL    HW1 5129   0.449   2.687   0.136
 1410SOL    HW2 5130   0.435   2.525   0.151
 1411SOL     OW 5131   2.110   0.068   1.393
 1411SOL    HW1 5132   2.051   7.008   1.411
 1411SOL    HW2 5133   2.172   0.046   1.318
 1412SOL     OW 5134   0.963   3.091   0.348
 1412SOL    HW1 5135   1.032   3.101   0.420
 1412SOL    HW2 5136   0.940   2.994   0.339
 1413SOL     OW 5137   2.871   0.222   4.179
 1413SOL    HW1 5138   2.919   0.278   4.246
 1413SOL    HW2 5139   2.915   0.132   4.173
 1414SOL     OW 5140   2.018   1.448   1.561
 1414SOL    HW1 5141   1.935   1.395   1.581
 1414SOL    HW2 5142   1.993   1.531   1.511
 1415SOL     OW 5143   4.124   6.057   6.191
 1415SOL    HW1 5144   4.163   5.967   6.208
 1415SOL    HW2 5145   4.148   6.119   6.265
 1416SOL     OW 5146   4.209   5.640   2.285
 1416SOL    HW1 5147   4.118   5.676   2.266
 1416SOL    HW2 5148   4.274   5.717   2.290
 1417SOL     OW 5149   3.081   1.748   5.914
 1417SOL    HW1 5150   3.167   1.799   5.914
 1417SOL    HW2 5151   3.083   1.679   5.987
 1418SOL     OW 5152   3.730   3.762   2.499
 1418SOL    HW1 5153   3.662   3.693   2.473
 1418SOL    HW2 5154   3.772   3.736   2.586
 1419SOL     OW 5155   4.726   6.731   4.815
 1419SOL    HW1 5156   4.628   6.716   4.824
 1419SOL    HW2 5157   4.773   6.702   4.898
 1420SOL     OW 5158   0.843   5.937   2.154
 1420SOL    HW1 5159   0.927   5.986   2.178
 1420SOL    HW2 5160   0.862   5.839   2.148
 1421SOL     OW 5161   3.354   0.858   2.594
 1421SOL    HW1 5162   3.319   0.846   2.686
 1421SOL    HW2 5163   3.451   0.881   2.598
 1422SOL     OW 5164   2.750   6.297   0.213
 1422SOL    HW1 5165   2.756   6.257   0.304
 1422SOL    HW2 5166   2.807   6.379   0.208
 1423SOL     OW 5167   4.468   0.161   2.744
 1423SOL    HW1 5168   4.517   0.222   2.681
 1423SOL    HW2 5169   4.394   0.213   2.789
 1424SOL     OW 5170   6.667   4.773   4.281
 1424SOL    HW1 5171   6.599   4.832   4.325
 1424SOL    HW2 5172   6.759   4.801   4.310
 1425SOL     OW 5173   2.660   6.853   4.398
 1425SOL    HW1 5174   2.748   6.853   4.350
 1425SOL    HW2 5175   2.617   6.942   4.388
 1426SOL     OW 5176   0.954   1.647   5.633
 1426SOL    HW1 5177   0.858   1.639   5.660
 1426SOL    HW2 5178   0.963   1.623   5.536
 1427SOL     OW 5179   5.991   0.840   4.232
 1427SOL    HW1 5180   5.962   0.932   4.209
 1427SOL    HW2 5181   6.057   0.808   4.164
 1428SOL     OW 5182   5.106   1.438   6.972
 1428SOL    HW1 5183   5.153   1.354   6.946
 1428SOL    HW2 5184   5.120   1.507   6.901
 1429SOL     OW 5185   6.578   0.791   0.229
 1429SOL    HW1 5186   6.603   0.713   0.171
 1429SOL    HW2 5187   6.655   0.815   0.288
 1430SOL     OW 5188   2.255   5.081   3.905
 1430SOL    HW1 5189   2.206   5.156   3.948
 1430SOL    HW2 5190   2.256   5.094   3.806
 1431SOL     OW 5191   1.746   0.953   0.590
 1431SOL    HW1 5192   1.839   0.941   0.554
 1431SOL    HW2 5193   1.745   0.929   0.687
 1432SOL     OW 5194   1.940   0.782   2.156
 1432SOL    HW1 5195   1.992   0.761   2.238
 1432SOL    HW2 5196   1.857   0.831   2.181
 1433SOL     OW 5197   4.798   0.822   3.899
 1433SOL    HW1 5198   4.861   0.893   3.930
 1433SOL    HW2 5199   4.706   0.843   3.931
 1434SOL     OW 5200   1.175   0.535   5.434
 1434SOL    HW1 5201   1.170   0.617   5.491
 1434SOL    HW2 5202   1.260   0.536   5.382
 1435SOL     OW 5203   6.520   1.821   3.035
 1435SOL    HW1 5204   6.478   1.814   2.944
 1435SOL    HW2 5205   6.617   1.796   3.028
 1436SOL     OW 5206   3.935   3.494   0.930
 1436SOL    HW1 5207   3.998   3.553   0.879
 1436SOL    HW2 5208   3.982   3.454   1.008
 1437SOL     OW 5209   3.687   0.940   2.419
 1437SOL    HW1 5210   3.604   0.894   2.451
 1437SOL    HW2 5211   3.690   1.032   2.458
 1438SOL     OW 5212   2.345   0.235   1.078
 1438SOL    HW1 5213   2.362   0.253   0.981
 1438SOL    HW2 5214   2.347   0.136   1.094
 1439SOL     OW 5215   0.439   5.680   2.658
 1439SOL    HW1 5216   0.404   5.740   2.586
 1439SOL    HW2 5217   0.369   5.670   2.729
 1440SOL     OW 5218   2.578   3.335   1.707
 1440SOL    HW1 5219   2.510   3.376   1.768
 1440SOL    HW2 5220   2.536   3.320   1.617
 1441SOL     OW 5221   5.714   6.626   0.683
 1441SOL    HW1 5222   5.764   6.598   0.601
 1441SOL    HW2 5223   5.624   6.582   0.684
 1442SOL     OW 5224   5.791   5.468   1.067
 1442SOL    HW1 5225   5.768   5.530   0.992
 1442SOL    HW2 5226   5.759   5.376   1.045
 1443SOL     OW 5227   0.425   2.843   2.808
 1443SOL    HW1 5228   0.386   2.826   2.718
 1443SOL    HW2 5229   0.452   2.939   2.816
 1444SOL     OW 5230   6.374   4.693   6.641
 1444SOL    HW1 5231   6.395   4.601   6.673
 1444SOL    HW2 5232   6.414   4.760   6.704
 1445SOL     OW 5233   1.518   3.210   1.647
 1445SOL    HW1 5234   1.576   3.138   1.610
 1445SOL    HW2 5235   1.515   3.203   1.747
 1446SOL     OW 5236   6.754   6.948   6.938
 1446SOL    HW1 5237   6.808   0.013   6.944
 1446SOL    HW2 5238   6.659   6.971   6.917
 1447SOL     OW 5239   6.262   5.034   4.542
 1447SOL    HW1 5240   6.168   5.001   4.540
 1447SOL    HW2 5241   6.287   5.060   4.635
 1448SOL     OW 5242   1.309   2.647   5.619
 1448SOL    HW1 5243   1.331   2.552   5.641
 1448SOL    HW2 5244   1.276   2.652   5.525
 1449SOL     OW 5245   2.138   3.615   3.720
 1449SOL    HW1 5246   2.146   3.520   3.749
 1449SOL    HW2 5247   2.136   3.674   3.800
 1450SOL     OW 5248   2.323   2.810   4.126
 1450SOL    HW1 5249   2.377   2.791   4.044
 1450SOL    HW2 5250   2.357   2.752   4.201
 1451SOL     OW 5251   2.745   0.547   2.339
 1451SOL    HW1 5252   2.818   0.480   2.346
 1451SOL    HW2 5253   2.784   0.639   2.331
 1452SOL     OW 5254   5.261   2.621   6.187
 1452SOL    HW1 5255   5.337   2.654   6.132
 1452SOL    HW2 5256   5.186   2.688   6.183
 1453SOL     OW 5257   6.732   5.276   5.229
 1453SOL    HW1 5258   6.752   5.199   5.170
 1453SOL    HW2 5259   6.686   5.347   5.176
 1454SOL     OW 5260   3.694   1.927   3.728
 1454SOL    HW1 5261   3.740   1.919   3.816
 1454SOL    HW2 5262   3.608   1.976   3.739
 1455SOL     OW 5263   0.344   5.646   1.918
 1455SOL    HW1 5264   0.402   5.700   1.979
 1455SOL    HW2 5265   0.401   5.601   1.849
 1456SOL     OW 5266   6.523   4.966   4.642
 1456SOL    HW1 5267   6.552   4.874   4.666
 1456SOL    HW2 5268   6.488   4.967   4.549
 1457SOL     OW 5269   1.299   4.494   6.226
 1457SOL    HW1 5270   1.237   4.479   6.303
 1457SOL    HW2 5271   1.321   4.592   6.220
 1458SOL     OW 5272   5.004   5.058   5.568
 1458SOL    HW1 5273   4.953   4.973   5.580
 1458SOL    HW2 5274   5.086   5.040   5.513
 1459SOL     OW 5275   5.178   6.606   5.248
 1459SOL    HW1 5276   5.122   6.629   5.168
 1459SOL    HW2 5277   5.263   6.658   5.245
 1460SOL     OW 5278   1.178   6.170   5.538
 1460SOL    HW1 5279   1.220   6.261   5.537
 1460SOL    HW2 5280   1.249   6.101   5.544
 1461SOL     OW 5281   6.466   3.251   3.547
 1461SOL    HW1 5282   6.483   3.305   3.629
 1461SOL    HW2 5283   6.514   3.164   3.554
 1462SOL     OW 5284   0.309   0.494   1.879
 1462SOL    HW1 5285   0.345   0.411   1.836
 1462SOL    HW2 5286   0.380   0.534   1.938
 1463SOL     OW 5287   1.545   5.511   0.130
 1463SOL    HW1 5288   1.597   5.590   0.100
 1463SOL    HW2 5289   1.520   5.521   0.226
 1464SOL     OW 5290   1.184   4.084   3.532
 1464SOL    HW1 5291   1.206   4.105   3.627
 1464SOL    HW2 5292   1.140   4.164   3.490
 1465SOL     OW 5293   0.808   2.519   3.410
 1465SOL    HW1 5294   0.713   2.489   3.396
 1465SOL    HW2 5295   0.813   2.578   3.491
 1466SOL     OW 5296   5.075   2.522   2.156
 1466SOL    HW1 5297   5.145   2.520   2.228
 1466SOL    HW2 5298   4.992   2.563   2.191
 1467SOL     OW 5299   1.095   1.314   4.142
 1467SOL    HW1 5300   1.161   1.269   4.202
 1467SOL    HW2 5301   1.104   1.413   4.151
 1468SOL     OW 5302   2.302   5.344   2.568
 1468SOL    HW1 5303   2.278   5.277   2.637
 1468SOL    HW2 5304   2.259   5.432   2.590
 1469SOL     OW 5305   6.185   4.163   3.076
 1469SOL    HW1 5306   6.181   4.107   2.994
 1469SOL    HW2 5307   6.261   4.134   3.134
 1470SOL     OW 5308   6.466   1.472   1.249
 1470SOL    HW1 5309   6.432   1.470   1.343
 1470SOL    HW2 5310   6.390   1.488   1.187
 1471SOL     OW 5311   5.393   6.508   1.599
 1471SOL    HW1 5312   5.417   6.536   1.507
 1471SOL    HW2 5313   5.470   6.524   1.660
 1472SOL     OW 5314   1.760   0.381   6.052
 1472SOL    HW1 5315   1.740   0.339   6.141
 1472SOL    HW2 5316   1.738   0.478   6.055
 1473SOL     OW 5317   1.926   5.776   3.660
 1473SOL    HW1 5318   2.018   5.755   3.693
 1473SOL    HW2 5319   1.869   5.693   3.667
 1474SOL     OW 5320   3.060   5.218   1.571
 1474SOL    HW1 5321   3.060   5.290   1.639
 1474SOL    HW2 5322   3.128   5.149   1.594
 1475SOL     OW 5323   5.755   0.158   6.690
 1475SOL    HW1 5324   5.722   0.138   6.597
 1475SOL    HW2 5325   5.789   0.252   6.694
 1476SOL     OW 5326   4.732   0.549   1.069
 1476SOL    HW1 5327   4.709   0.646   1.080
 1476SOL    HW2 5328   4.649   0.496   1.055
 1477SOL     OW 5329   3.518   4.896   1.635
 1477SOL    HW1 5330   3.475   4.908   1.545
 1477SOL    HW2 5331   3.447   4.879   1.703
 1478SOL     OW 5332   4.903   5.253   6.520
 1478SOL    HW1 5333   4.840   5.306   6.464
 1478SOL    HW2 5334   4.995   5.258   6.480
 1479SOL     OW 5335   3.975   3.854   1.258
 1479SOL    HW1 5336   3.937   3.783   1.318
 1479SOL    HW2 5337   3.944   3.837   1.165
 1480SOL     OW 5338   3.071   0.339   5.163
 1480SOL    HW1 5339   3.055   0.284   5.245
 1480SOL    HW2 5340   3.115   0.282   5.094
 1481SOL     OW 5341   5.372   2.507   5.809
 1481SOL    HW1 5342   5.426   2.504   5.724
 1481SOL    HW2 5343   5.426   2.465   5.883
 1482SOL     OW 5344   4.744   1.356   0.966
 1482SOL    HW1 5345   4.737   1.418   1.044
 1482SOL    HW2 5346   4.682   1.278   0.980
 1483SOL     OW 5347   5.575   1.220   6.095
 1483SOL    HW1 5348   5.534   1.146   6.149
 1483SOL    HW2 5349   5.502   1.279   6.060
 1484SOL     OW 5350   3.731   5.824   4.997
 1484SOL    HW1 5351   3.743   5.807   4.899
 1484SOL    HW2 5352   3.784   5.757   5.049
 1485SOL     OW 5353   5.226   2.573   3.071
 1485SOL    HW1 5354   5.271   2.650   3.117
 1485SOL    HW2 5355   5.250   2.488   3.118
 1486SOL     OW 5356   4.848   6.815   3.692
 1486SOL    HW1 5357   4.940   6.811   3.652
 1486SOL    HW2 5358   4.780   6.795   3.621
 1487SOL     OW 5359   6.633   0.342   1.043
 1487SOL    HW1 5360   6.716   0.289   1.026
 1487SOL    HW2 5361   6.630   0.420   0.980
 1488SOL     OW 5362   6.499   1.862   2.718
 1488SOL    HW1 5363   6.447   1.796   2.663
 1488SOL    HW2 5364   6.474   1.955   2.692
 1489SOL     OW 5365   3.459   4.284   0.467
 1489SOL    HW1 5366   3.464   4.383   0.477
 1489SOL    HW2 5367   3.490   4.240   0.551
 1490SOL     OW 5368   6.758   2.650   2.277
 1490SOL    HW1 5369   6.807   2.565   2.299
 1490SOL    HW2 5370   6.682   2.629   2.215
 1491SOL     OW 5371   6.109   2.492   3.783
 1491SOL    HW1 5372   6.085   2.579   3.826
 1491SOL    HW2 5373   6.204   2.469   3.805
 1492SOL     OW 5374   6.195   1.262   3.308
 1492SOL    HW1 5375   6.226   1.168   3.297
 1492SOL    HW2 5376   6.181   1.282   3.406
 1493SOL     OW 5377   4.746   2.583   6.120
 1493SOL    HW1 5378   4.648   2.603   6.127
 1493SOL    HW2 5379   4.774   2.530   6.199
 1494SOL     OW 5380   6.395   4.473   5.601
 1494SOL    HW1 5381   6.361   4.443   5.511
 1494SOL    HW2 5382   6.325   4.457   5.670
 1495SOL     OW 5383   6.693   4.465   4.483
 1495SOL    HW1 5384   6.618   4.498   4.427
 1495SOL    HW2 5385   6.664   4.460   4.578
 1496SOL     OW 5386   6.442   5.334   6.072
 1496SOL    HW1 5387   6.540   5.328   6.090
 1496SOL    HW2 5388   6.416   5.430   6.061
 1497SOL     OW 5389   5.948   2.800   2.686
 1497SOL    HW1 5390   5.982   2.732   2.751
 1497SOL    HW2 5391   5.855   2.826   2.711
 1498SOL     OW 5392   3.557   3.837   0.587
 1498SOL    HW1 5393   3.520   3.867   0.675
 1498SOL    HW2 5394   3.483   3.799   0.531
 1499SOL     OW 5395   0.815   4.106   5.127
 1499SOL    HW1 5396   0.833   4.070   5.036
 1499SOL    HW2 5397   0.719   4.091   5.151
 1500SOL     OW 5398   0.815   5.709   1.740
 1500SOL    HW1 5399   0.882   5.716   1.666
 1500SOL    HW2 5400   0.783   5.801   1.766
 1501SOL     OW 5401   6.060   2.482   0.424
 1501SOL    HW1 5402   6.040   2.485   0.522
 1501SOL    HW2 5403   6.096   2.571   0.395
 1502SOL     OW 5404   6.595   0.154   6.181
 1502SOL    HW1 5405   6.592   0.059   6.210
 1502SOL    HW2 5406   6.666   0.165   6.111
 1503SOL     OW 5407   6.600   4.657   1.823
 1503SOL    HW1 5408   6.685   4.707   1.804
 1503SOL    HW2 5409   6.609   4.607   1.909
 1504SOL     OW 5410   1.699   6.795   2.371
 1504SOL    HW1 5411   1.768   6.734   2.409
 1504SOL    HW2 5412   1.721   6.816   2.276
 1505SOL     OW 5413   5.268   6.086   4.920
 1505SOL    HW1 5414   5.181   6.132   4.935
 1505SOL    HW2 5415   5.338   6.126   4.981
 1506SOL     OW 5416   0.301   1.882   1.086
 1506SOL    HW1 5417   0.365   1.899   1.012
 1506SOL    HW2 5418   0.207   1.884   1.051
 1507SOL     OW 5419   1.170   2.752   4.169
 1507SOL    HW1 5420   1.248   2.771   4.228
 1507SOL    HW2 5421   1.199   2.693   4.093
 1508SOL     OW 5422   1.235   0.435   0.863
 1508SOL    HW1 5423   1.261   0.341   0.885
 1508SOL    HW2 5424   1.181   0.472   0.938
 1509SOL     OW 5425   5.058   0.299   4.360
 1509SOL    HW1 5426   5.063   0.298   4.460
 1509SOL    HW2 5427   4.974   0.344   4.331
 1510SOL     OW 5428   3.522   5.803   4.345
 1510SOL    HW1 5429   3.433   5.763   4.370
 1510SOL    HW2 5430   3.587   5.730   4.326
 1511SOL     OW 5431   2.958   3.836   4.635
 1511SOL    HW1 5432   2.868   3.834   4.591
 1511SOL    HW2 5433   2.972   3.751   4.686
 1512SOL     OW 5434   5.771   6.401   0.942
 1512SOL    HW1 5435   5.846   6.384   0.878
 1512SOL    HW2 5436   5.710   6.470   0.904
 1513SOL     OW 5437   2.781   0.007   6.389
 1513SOL    HW1 5438   2.712   0.063   6.344
 1513SOL    HW2 5439   2.739   6.942   6.422
 1514SOL     OW 5440   3.040   2.573   5.959
 1514SOL    HW1 5441   3.036   2.672   5.943
 1514SOL    HW2 5442   3.089   2.555   6.044
 1515SOL     OW 5443   5.146   1.616   1.634
 1515SOL    HW1 5444   5.146   1.551   1.709
 1515SOL    HW2 5445   5.238   1.623   1.596
 1516SOL     OW 5446   6.032   0.127   5.470
 1516SOL    HW1 5447   6.111   0.162   5.419
 1516SOL    HW2 5448   6.060   0.108   5.565
 1517SOL     OW 5449   3.775   6.083   3.948
 1517SOL    HW1 5450   3.697   6.040   3.902
 1517SOL    HW2 5451   3.836   6.013   3.983
 1518SOL     OW 5452   0.831   3.018   0.069
 1518SOL    HW1 5453   0.806   2.966   7.007
 1518SOL    HW2 5454   0.914   2.979   0.110
 1519SOL     OW 5455   0.293   4.469   6.584
 1519SOL    HW1 5456   0.296   4.377   6.622
 1519SOL    HW2 5457   0.206   4.512   6.607
 1520SOL     OW 5458   0.429   6.074   2.445
 1520SOL    HW1 5459   0.518   6.062   2.402
 1520SOL    HW2 5460   0.358   6.081   2.374
 1521SOL     OW 5461   2.278   4.876   5.878
 1521SOL    HW1 5462   2.331   4.826   5.946
 1521SOL    HW2 5463   2.266   4.820   5.797
 1522SOL     OW 5464   5.272   6.090   3.813
 1522SOL    HW1 5465   5.330   6.027   3.761
 1522SOL    HW2 5466   5.310   6.182   3.806
 1523SOL     OW 5467   3.715   6.633   0.743
 1523SOL    HW1 5468   3.647   6.705   0.730
 1523SOL    HW2 5469   3.698   6.558   0.680
 1524SOL     OW 5470   2.312   1.571   2.946
 1524SOL    HW1 5471   2.220   1.534   2.936
 1524SOL    HW2 5472   2.307   1.669   2.967
 1525SOL     OW 5473   5.324   3.162   6.912
 1525SOL    HW1 5474   5.416   3.123   6.909
 1525SOL    HW2 5475   5.272   3.130   6.833
 1526SOL     OW 5476   1.020   1.077   0.274
 1526SOL    HW1 5477   1.049   0.988   0.308
 1526SOL    HW2 5478   1.053   1.090   0.181
 1527SOL     OW 5479   3.896   1.552   4.187
 1527SOL    HW1 5480   3.908   1.482   4.117
 1527SOL    HW2 5481   3.986   1.591   4.210
 1528SOL     OW 5482   4.069   4.053   1.713
 1528SOL    HW1 5483   4.061   4.008   1.802
 1528SOL    HW2 5484   3.978   4.074   1.677
 1529SOL     OW 5485   4.556   1.207   5.986
 1529SOL    HW1 5486   4.512   1.118   5.998
 1529SOL    HW2 5487   4.522   1.250   5.903
 1530SOL     OW 5488   3.310   6.035   1.381
 1530SOL    HW1 5489   3.218   6.001   1.365
 1530SOL    HW2 5490   3.318   6.128   1.345
 1531SOL     OW 5491   3.841   6.866   3.953
 1531SOL    HW1 5492   3.768   6.819   4.003
 1531SOL    HW2 5493   3.926   6.813   3.959
 1532SOL     OW 5494   3.240   5.774   6.594
 1532SOL    HW1 5495   3.311   5.772   6.524
 1532SOL    HW2 5496   3.220   5.868   6.619
 1533SOL     OW 5497   6.102   5.058   1.613
 1533SOL    HW1 5498   6.059   4.969   1.603
 1533SOL    HW2 5499   6.112   5.101   1.524
 1534SOL     OW 5500   3.851   5.462   6.389
 1534SOL    HW1 5501   3.865   5.524   6.312
 1534SOL    HW2 5502   3.772   5.492   6.442
 1535SOL     OW 5503   5.903   5.662   4.204
 1535SOL    HW1 5504   5.913   5.610   4.289
 1535SOL    HW2 5505   5.982   5.721   4.190
 1536SOL     OW 5506   4.741   3.174   6.005
 1536SOL    HW1 5507   4.776   3.261   6.039
 1536SOL    HW2 5508   4.809   3.102   6.019
 1537SOL     OW 5509   3.466   5.336   3.160
 1537SOL    HW1 5510   3.551   5.331   3.108
 1537SOL    HW2 5511   3.455   5.252   3.214
 1538SOL     OW 5512   2.774   1.506   6.745
 1538SOL    HW1 5513   2.700   1.574   6.755
 1538SOL    HW2 5514   2.859   1.553   6.720
 1539SOL     OW 5515   5.917   3.117   0.521
 1539SOL    HW1 5516   5.977   3.074   0.454
 1539SOL    HW2 5517   5.883   3.048   0.584
 1540SOL     OW 5518   3.624   6.809   4.513
 1540SOL    HW1 5519   3.562   6.763   4.577
 1540SOL    HW2 5520   3.590   6.798   4.420
 1541SOL     OW 5521   3.696   3.242   4.999
 1541SOL    HW1 5522   3.788   3.227   5.033
 1541SOL    HW2 5523   3.638   3.163   5.021
 1542SOL     OW 5524   0.649   0.114   2.710
 1542SOL    HW1 5525   0.620   0.120   2.614
 1542SOL    HW2 5526   0.572   0.134   2.770
 1543SOL     OW 5527   2.886   4.627   0.104
 1543SOL    HW1 5528   2.951   4.672   0.166
 1543SOL    HW2 5529   2.924   4.626   0.011
 1544SOL     OW 5530   3.702   3.557   4.368
 1544SOL    HW1 5531   3.610   3.530   4.341
 1544SOL    HW2 5532   3.756   3.476   4.389
 1545SOL     OW 5533   5.896   5.983   2.235
 1545SOL    HW1 5534   5.877   5.888   2.212
 1545SOL    HW2 5535   5.905   5.992   2.334
 1546SOL     OW 5536   5.343   6.796   5.846
 1546SOL    HW1 5537   5.259   6.842   5.818
 1546SOL    HW2 5538   5.357   6.808   5.944
 1547SOL     OW 5539   1.704   3.486   6.767
 1547SOL    HW1 5540   1.759   3.534   6.836
 1547SOL    HW2 5541   1.607   3.510   6.779
 1548SOL     OW 5542   6.258   1.999   6.671
 1548SOL    HW1 5543   6.235   2.095   6.656
 1548SOL    HW2 5544   6.206   1.965   6.749
 1549SOL     OW 5545   4.548   0.660   4.956
 1549SOL    HW1 5546   4.588   0.598   5.024
 1549SOL    HW2 5547   4.516   0.607   4.877
 1550SOL     OW 5548   3.910   3.065   3.610
 1550SOL    HW1 5549   3.875   3.049   3.518
 1550SOL    HW2 5550   3.834   3.086   3.672
 1551SOL     OW 5551   6.307   4.716   5.875
 1551SOL    HW1 5552   6.348   4.636   5.919
 1551SOL    HW2 5553   6.213   4.727   5.907
 1552SOL     OW 5554   1.434   4.227   1.702
 1552SOL    HW1 5555   1.462   4.208   1.796
 1552SOL    HW2 5556   1.355   4.288   1.703
 1553SOL     OW 5557   1.386   1.510   5.647
 1553SOL    HW1 5558   1.363   1.588   5.588
 1553SOL    HW2 5559   1.466   1.463   5.609
 1554SOL     OW 5560   2.999   1.336   4.104
 1554SOL    HW1 5561   3.053   1.279   4.042
 1554SOL    HW2 5562   2.941   1.397   4.050
 1555SOL     OW 5563   6.536   4.155   6.047
 1555SOL    HW1 5564   6.574   4.066   6.024
 1555SOL    HW2 5565   6.591   4.227   6.004
 1556SOL     OW 5566   2.179   1.231   6.140
 1556SOL    HW1 5567   2.245   1.215   6.214
 1556SOL    HW2 5568   2.220   1.290   6.071
 1557SOL     OW 5569   0.219   2.588   6.757
 1557SOL    HW1 5570   0.197   2.583   6.855
 1557SOL    HW2 5571   0.251   2.499   6.726
 1558SOL     OW 5572   0.288   0.073   4.951
 1558SOL    HW1 5573   0.349   0.000   4.982
 1558SOL    HW2 5574   0.339   0.138   4.894
 1559SOL     OW 5575   1.130   1.912   6.144
 1559SOL    HW1 5576   1.121   1.831   6.202
 1559SOL    HW2 5577   1.197   1.893   6.072
 1560SOL     OW 5578   6.658   0.032   6.648
 1560SOL    HW1 5579   6.635   0.122   6.685
 1560SOL    HW2 5580   6.749   0.034   6.608
 1561SOL     OW 5581   5.604   5.821   2.901
 1561SOL    HW1 5582   5.557   5.753   2.959
 1561SOL    HW2 5583   5.638   5.895   2.958
 1562SOL     OW 5584   5.826   1.196   3.796
 1562SOL    HW1 5585   5.786   1.190   3.705
 1562SOL    HW2 5586   5.753   1.188   3.865
 1563SOL     OW 5587   4.235   6.859   5.169
 1563SOL    HW1 5588   4.289   6.894   5.245
 1563SOL    HW2 5589   4.245   6.920   5.090
 1564SOL     OW 5590   1.592   1.701   2.706
 1564SOL    HW1 5591   1.628   1.670   2.794
 1564SOL    HW2 5592   1.642   1.656   2.632
 1565SOL     OW 5593   5.308   4.145   1.984
 1565SOL    HW1 5594   5.392   4.128   1.932
 1565SOL    HW2 5595   5.267   4.232   1.955
 1566SOL     OW 5596   6.083   4.384   3.432
 1566SOL    HW1 5597   6.079   4.470   3.381
 1566SOL    HW2 5598   6.131   4.398   3.518
 1567SOL     OW 5599   6.560   5.859   5.401
 1567SOL    HW1 5600   6.568   5.795   5.478
 1567SOL    HW2 5601   6.463   5.878   5.385
 1568SOL     OW 5602   0.292   6.989   0.634
 1568SOL    HW1 5603   0.250   6.933   0.562
 1568SOL    HW2 5604   0.337   6.929   0.700
 1569SOL     OW 5605   3.568   6.257   4.842
 1569SOL    HW1 5606   3.495   6.213   4.895
 1569SOL    HW2 5607   3.655   6.249   4.891
 1570SOL     OW 5608   3.729   1.836   1.712
 1570SOL    HW1 5609   3.748   1.932   1.691
 1570SOL    HW2 5610   3.684   1.830   1.801
 1571SOL     OW 5611   6.619   4.406   1.366
 1571SOL    HW1 5612   6.668   4.365   1.442
 1571SOL    HW2 5613   6.550   4.469   1.401
 1572SOL     OW 5614   1.545   6.198   2.252
 1572SOL    HW1 5615   1.496   6.111   2.244
 1572SOL    HW2 5616   1.481   6.274   2.242
 1573SOL     OW 5617   3.824   0.452   1.167
 1573SOL    HW1 5618   3.884   0.528   1.143
 1573SOL    HW2 5619   3.732   0.487   1.185
 1574SOL     OW 5620   6.171   2.756   1.877
 1574SOL    HW1 5621   6.095   2.819   1.864
 1574SOL    HW2 5622   6.158   2.705   1.962
 1575SOL     OW 5623   2.547   2.842   0.929
 1575SOL    HW1 5624   2.463   2.799   0.960
 1575SOL    HW2 5625   2.626   2.791   0.964
 1576SOL     OW 5626   6.762   6.052   4.116
 1576SOL    HW1 5627   6.842   6.000   4.086
 1576SOL    HW2 5628   6.758   6.053   4.215
 1577SOL     OW 5629   1.673   0.689   0.130
 1577SOL    HW1 5630   1.687   0.639   0.216
 1577SOL    HW2 5631   1.754   0.745   0.111
 1578SOL     OW 5632   5.815   5.335   4.669
 1578SOL    HW1 5633   5.803   5.434   4.680
 1578SOL    HW2 5634   5.728   5.293   4.646
 1579SOL     OW 5635   1.052   0.256   3.780
 1579SOL    HW1 5636   1.115   0.252   3.858
 1579SOL    HW2 5637   1.019   0.164   3.759
 1580SOL     OW 5638   3.120   3.833   5.673
 1580SOL    HW1 5639   3.190   3.841   5.602
 1580SOL    HW2 5640   3.163   3.824   5.762
 1581SOL     OW 5641   6.806   4.047   4.496
 1581SOL    HW1 5642   6.841   4.020   4.586
 1581SOL    HW2 5643   6.722   3.998   4.477
 1582SOL     OW 5644   5.964   5.068   4.501
 1582SOL    HW1 5645   6.035   5.130   4.469
 1582SOL    HW2 5646   5.907   5.040   4.423
 1583SOL     OW 5647   1.742   2.431   3.092
 1583SOL    HW1 5648   1.762   2.519   3.135
 1583SOL    HW2 5649   1.648   2.405   3.112
 1584SOL     OW 5650   2.371   0.712   6.718
 1584SOL    HW1 5651   2.326   0.696   6.631
 1584SOL    HW2 5652   2.468   0.733   6.702
 1585SOL     OW 5653   5.898   1.914   5.706
 1585SOL    HW1 5654   5.814   1.958   5.674
 1585SOL    HW2 5655   5.949   1.979   5.763
 1586SOL     OW 5656   3.661   4.063   2.789
 1586SOL    HW1 5657   3.581   4.079   2.846
 1586SOL    HW2 5658   3.638   4.080   2.694
 1587SOL     OW 5659   2.634   6.225   6.793
 1587SOL    HW1 5660   2.732   6.242   6.794
 1587SOL    HW2 5661   2.598   6.232   6.887
 1588SOL     OW 5662   6.180   3.805   1.658
 1588SOL    HW1 5663   6.120   3.885   1.656
 1588SOL    HW2 5664   6.208   3.786   1.752
 1589SOL     OW 5665   5.431   4.027   3.961
 1589SOL    HW1 5666   5.479   4.115   3.968
 1589SOL    HW2 5667   5.353   4.026   4.023
 1590SOL     OW 5668   1.783   0.917   6.037
 1590SOL    HW1 5669   1.863   0.953   5.989
 1590SOL    HW2 5670   1.702   0.971   6.012
 1591SOL     OW 5671   0.448   4.406   1.633
 1591SOL    HW1 5672   0.494   4.338   1.576
 1591SOL    HW2 5673   0.447   4.374   1.728
 1592SOL     OW 5674   3.012   3.238   2.759
 1592SOL    HW1 5675   3.036   3.199   2.847
 1592SOL    HW2 5676   2.987   3.165   2.695
 1593SOL     OW 5677   0.648   5.531   5.382
 1593SOL    HW1 5678   0.741   5.555   5.410
 1593SOL    HW2 5679   0.610   5.463   5.445
 1594SOL     OW 5680   6.908   5.187   3.410
 1594SOL    HW1 5681   6.996   5.188   3.363
 1594SOL    HW2 5682   6.883   5.280   3.437
 1595SOL     OW 5683   0.784   4.889   6.068
 1595SOL    HW1 5684   0.809   4.793   6.081
 1595SOL    HW2 5685   0.725   4.898   5.989
 1596SOL     OW 5686   2.433   5.162   6.860
 1596SOL    HW1 5687   2.341   5.191   6.833
 1596SOL    HW2 5688   2.475   5.234   6.915
 1597SOL     OW 5689   2.485   6.916   0.952
 1597SOL    HW1 5690   2.398   6.930   1.001
 1597SOL    HW2 5691   2.489   6.978   0.874
 1598SOL     OW 5692   0.054   5.641   1.572
 1598SOL    HW1 5693   0.037   5.618   1.668
 1598SOL    HW2 5694   0.128   5.583   1.537
 1599SOL     OW 5695   3.594   5.149   6.882
 1599SOL    HW1 5696   3.653   5.098   6.945
 1599SOL    HW2 5697   3.507   5.170   6.926
 1600SOL     OW 5698   3.958   1.618   4.961
 1600SOL    HW1 5699   3.931   1.607   5.057
 1600SOL    HW2 5700   3.895   1.565   4.904
 1601SOL     OW 5701   1.074   4.904   4.335
 1601SOL    HW1 5702   1.005   4.864   4.274
 1601SOL    HW2 5703   1.164   4.870   4.310
 1602SOL     OW 5704   0.937   4.619   3.373
 1602SOL    HW1 5705   0.982   4.621   3.462
 1602SOL    HW2 5706   0.966   4.538   3.322
 1603SOL     OW 5707   6.477   6.984   1.367
 1603SOL    HW1 5708   6.483   0.024   1.286
 1603SOL    HW2 5709   6.516   0.013   1.446
 1604SOL     OW 5710   0.516   5.849   5.609
 1604SOL    HW1 5711   0.480   5.808   5.525
 1604SOL    HW2 5712   0.575   5.926   5.587
 1605SOL     OW 5713   5.187   6.400   3.090
 1605SOL    HW1 5714   5.168   6.465   3.017
 1605SOL    HW2 5715   5.135   6.426   3.172
 1606SOL     OW 5716   4.902   6.786   6.044
 1606SOL    HW1 5717   4.822   6.750   5.997
 1606SOL    HW2 5718   4.980   6.726   6.027
 1607SOL     OW 5719   4.181   2.166   1.007
 1607SOL    HW1 5720   4.224   2.255   0.991
 1607SOL    HW2 5721   4.128   2.140   0.926
 1608SOL     OW 5722   2.470   0.033   0.702
 1608SOL    HW1 5723   2.429   0.005   0.615
 1608SOL    HW2 5724   2.516   0.121   0.690
 1609SOL     OW 5725   4.636   1.760   5.108
 1609SOL    HW1 5726   4.661   1.665   5.128
 1609SOL    HW2 5727   4.706   1.802   5.050
 1610SOL     OW 5728   5.428   5.687   4.342
 1610SOL    HW1 5729   5.522   5.711   4.319
 1610SOL    HW2 5730   5.425   5.643   4.432
 1611SOL     OW 5731   2.985   3.539   1.141
 1611SOL    HW1 5732   2.907   3.518   1.081
 1611SOL    HW2 5733   2.975   3.632   1.177
 1612SOL     OW 5734   3.615   1.125   4.470
 1612SOL    HW1 5735   3.697   1.154   4.519
 1612SOL    HW2 5736   3.576   1.203   4.420
 1613SOL     OW 5737   1.560   5.890   0.680
 1613SOL    HW1 5738   1.501   5.963   0.645
 1613SOL    HW2 5739   1.624   5.928   0.746
 1614SOL     OW 5740   6.926   2.552   6.567
 1614SOL    HW1 5741   6.882   2.641   6.555
 1614SOL    HW2 5742   6.984   2.533   6.487
 1615SOL     OW 5743   6.414   4.949   6.275
 1615SOL    HW1 5744   6.481   4.947   6.201
 1615SOL    HW2 5745   6.419   5.038   6.322
 1616SOL     OW 5746   2.760   1.613   5.467
 1616SOL    HW1 5747   2.835   1.644   5.526
 1616SOL    HW2 5748   2.673   1.636   5.510
 1617SOL     OW 5749   4.957   0.509   4.073
 1617SOL    HW1 5750   4.880   0.517   4.011
 1617SOL    HW2 5751   5.020   0.439   4.040
 1618SOL     OW 5752   5.522   2.355   0.762
 1618SOL    HW1 5753   5.613   2.338   0.801
 1618SOL    HW2 5754   5.512   2.302   0.678
 1619SOL     OW 5755   1.660   3.274   4.585
 1619SOL    HW1 5756   1.708   3.281   4.672
 1619SOL    HW2 5757   1.562   3.265   4.601
 1620SOL     OW 5758   3.600   5.225   1.670
 1620SOL    HW1 5759   3.519   5.256   1.620
 1620SOL    HW2 5760   3.663   5.302   1.683
 1621SOL     OW 5761   1.803   1.075   1.446
 1621SOL    HW1 5762   1.733   1.033   1.503
 1621SOL    HW2 5763   1.790   1.046   1.351
 1622SOL     OW 5764   2.217   2.348   4.232
 1622SOL    HW1 5765   2.204   2.368   4.134
 1622SOL    HW2 5766   2.223   2.434   4.283
 1623SOL     OW 5767   2.774   2.053   5.337
 1623SOL    HW1 5768   2.865   2.069   5.374
 1623SOL    HW2 5769   2.758   2.115   5.260
 1624SOL     OW 5770   2.563   0.656   0.597
 1624SOL    HW1 5771   2.527   0.678   0.688
 1624SOL    HW2 5772   2.542   0.561   0.575
 1625SOL     OW 5773   6.725   5.295   2.092
 1625SOL    HW1 5774   6.657   5.252   2.033
 1625SOL    HW2 5775   6.799   5.332   2.035
 1626SOL     OW 5776   2.002   2.975   6.280
 1626SOL    HW1 5777   2.052   2.938   6.358
 1626SOL    HW2 5778   2.055   3.049   6.238
 1627SOL     OW 5779   5.230   3.345   3.695
 1627SOL    HW1 5780   5.133   3.319   3.688
 1627SOL    HW2 5781   5.258   3.339   3.791
 1628SOL     OW 5782   2.755   3.314   0.501
 1628SOL    HW1 5783   2.777   3.258   0.422
 1628SOL    HW2 5784   2.839   3.339   0.550
 1629SOL     OW 5785   4.591   2.064   3.409
 1629SOL    HW1 5786   4.588   2.083   3.507
 1629SOL    HW2 5787   4.511   2.010   3.383
 1630SOL     OW 5788   0.270   4.970   4.415
 1630SOL    HW1 5789   0.209   5.028   4.469
 1630SOL    HW2 5790   0.283   5.011   4.325
 1631SOL     OW 5791   0.503   6.729   5.722
 1631SOL    HW1 5792   0.471   6.812   5.767
 1631SOL    HW2 5793   0.571   6.684   5.780
 1632SOL     OW 5794   6.066   0.196   1.802
 1632SOL    HW1 5795   6.060   0.279   1.746
 1632SOL    HW2 5796   6.138   0.136   1.766
 1633SOL     OW 5797   5.553   2.785   3.624
 1633SOL    HW1 5798   5.548   2.877   3.587
 1633SOL    HW2 5799   5.466   2.762   3.668
 1634SOL     OW 5800   3.398   0.690   0.044
 1634SOL    HW1 5801   3.495   0.698   0.025
 1634SOL    HW2 5802   3.349   0.766   0.001
 1635SOL     OW 5803   0.848   5.367   3.341
 1635SOL    HW1 5804   0.906   5.419   3.278
 1635SOL    HW2 5805   0.827   5.424   3.421
 1636SOL     OW 5806   2.358   6.349   1.710
 1636SOL    HW1 5807   2.297   6.294   1.767
 1636SOL    HW2 5808   2.390   6.295   1.633
 1637SOL     OW 5809   0.112   3.660   2.284
 1637SOL    HW1 5810   0.065   3.580   2.248
 1637SOL    HW2 5811   0.181   3.691   2.219
 1638SOL     OW 5812   1.987   2.924   5.064
 1638SOL    HW1 5813   1.933   2.840   5.072
 1638SOL    HW2 5814   2.066   2.907   5.005
 1639SOL     OW 5815   4.652   4.578   2.553
 1639SOL    HW1 5816   4.731   4.543   2.502
 1639SOL    HW2 5817   4.678   4.662   2.600
 1640SOL     OW 5818   6.283   0.345   1.221
 1640SOL    HW1 5819   6.214   0.348   1.294
 1640SOL    HW2 5820   6.363   0.398   1.248
 1641SOL     OW 5821   6.311   2.549   5.794
 1641SOL    HW1 5822   6.268   2.613   5.857
 1641SOL    HW2 5823   6.374   2.598   5.734
 1642SOL     OW 5824   0.686   2.223   1.359
 1642SOL    HW1 5825   0.599   2.208   1.312
 1642SOL    HW2 5826   0.744   2.284   1.304
 1643SOL     OW 5827   3.843   0.661   5.915
 1643SOL    HW1 5828   3.767   0.720   5.942
 1643SOL    HW2 5829   3.858   0.592   5.986
 1644SOL     OW 5830   3.480   1.148   1.336
 1644SOL    HW1 5831   3.392   1.118   1.373
 1644SOL    HW2 5832   3.539   1.069   1.323
 1645SOL     OW 5833   2.026   6.585   6.096
 1645SOL    HW1 5834   2.092   6.574   6.171
 1645SOL    HW2 5835   2.064   6.545   6.013
 1646SOL     OW 5836   0.769   3.761   0.952
 1646SOL    HW1 5837   0.677   3.770   0.915
 1646SOL    HW2 5838   0.772   3.689   1.021
 1647SOL     OW 5839   5.969   2.744   3.474
 1647SOL    HW1 5840   6.062   2.722   3.501
 1647SOL    HW2 5841   5.905   2.709   3.543
 1648SOL     OW 5842   4.562   6.944   2.235
 1648SOL    HW1 5843   4.540   6.886   2.314
 1648SOL    HW2 5844   4.612   6.889   2.167
 1649SOL     OW 5845   3.619   0.258   3.202
 1649SOL    HW1 5846   3.613   0.282   3.299
 1649SOL    HW2 5847   3.715   0.242   3.178
 1650SOL     OW 5848   2.842   6.463   3.955
 1650SOL    HW1 5849   2.872   6.372   3.926
 1650SOL    HW2 5850   2.919   6.512   3.997
 1651SOL     OW 5851   1.482   6.436   0.717
 1651SOL    HW1 5852   1.484   6.363   0.785
 1651SOL    HW2 5853   1.506   6.523   0.760
 1652SOL     OW 5854   2.497   2.675   1.585
 1652SOL    HW1 5855   2.407   2.698   1.548
 1652SOL    HW2 5856   2.491   2.667   1.685
 1653SOL     OW 5857   1.003   5.117   0.492
 1653SOL    HW1 5858   0.923   5.174   0.510
 1653SOL    HW2 5859   0.982   5.052   0.418
 1654SOL     OW 5860   0.302   2.686   3.269
 1654SOL    HW1 5861   0.294   2.587   3.281
 1654SOL    HW2 5862   0.284   2.710   3.173
 1655SOL     OW 5863   4.989   4.794   6.052
 1655SOL    HW1 5864   5.003   4.869   6.117
 1655SOL    HW2 5865   4.977   4.709   6.103
 1656SOL     OW 5866   0.646   4.264   3.178
 1656SOL    HW1 5867   0.585   4.186   3.165
 1656SOL    HW2 5868   0.739   4.238   3.150
 1657SOL     OW 5869   1.278   0.012   5.410
 1657SOL    HW1 5870   1.198   0.072   5.404
 1657SOL    HW2 5871   1.344   0.038   5.340
 1658SOL     OW 5872   6.218   6.053   2.721
 1658SOL    HW1 5873   6.137   6.053   2.779
 1658SOL    HW2 5874   6.229   5.963   2.679
 1659SOL     OW 5875   4.379   2.237   5.601
 1659SOL    HW1 5876   4.388   2.297   5.522
 1659SOL    HW2 5877   4.395   2.290   5.685
 1660SOL     OW 5878   1.808   5.625   3.237
 1660SOL    HW1 5879   1.752   5.542   3.239
 1660SOL    HW2 5880   1.767   5.695   3.295
 1661SOL     OW 5881   2.922   6.889   2.444
 1661SOL    HW1 5882   3.012   6.886   2.400
 1661SOL    HW2 5883   2.924   6.837   2.529
 1662SOL     OW 5884   0.832   0.392   3.689
 1662SOL    HW1 5885   0.765   0.334   3.735
 1662SOL    HW2 5886   0.924   0.363   3.714
 1663SOL     OW 5887   2.945   7.017   3.230
 1663SOL    HW1 5888   3.040   7.012   3.263
 1663SOL    HW2 5889   2.914   6.926   3.203
 1664SOL     OW 5890   2.368   5.683   4.447
 1664SOL    HW1 5891   2.316   5.749   4.501
 1664SOL    HW2 5892   2.319   5.664   4.362
 1665SOL     OW 5893   0.688   6.672   5.074
 1665SOL    HW1 5894   0.756   6.601   5.053
 1665SOL    HW2 5895   0.728   6.762   5.056
 1666SOL     OW 5896   5.839   2.903   6.166
 1666SOL    HW1 5897   5.894   2.863   6.239
 1666SOL    HW2 5898   5.794   2.986   6.200
 1667SOL     OW 5899   6.879   0.596   6.206
 1667SOL    HW1 5900   6.862   0.561   6.114
 1667SOL    HW2 5901   6.945   0.671   6.201
 1668SOL     OW 5902   3.219   1.301   5.354
 1668SOL    HW1 5903   3.162   1.379   5.380
 1668SOL    HW2 5904   3.263   1.320   5.265
 1669SOL     OW 5905   5.600   6.651   6.443
 1669SOL    HW1 5906   5.646   6.666   6.355
 1669SOL    HW2 5907   5.644   6.706   6.513
 1670SOL     OW 5908   5.628   4.131   5.579
 1670SOL    HW1 5909   5.622   4.120   5.679
 1670SOL    HW2 5910   5.592   4.220   5.553
 1671SOL     OW 5911   5.336   4.569   6.968
 1671SOL    HW1 5912   5.314   4.503   0.020
 1671SOL    HW2 5913   5.386   4.646   7.008
 1672SOL     OW 5914   2.205   5.195   2.771
 1672SOL    HW1 5915   2.223   5.107   2.814
 1672SOL    HW2 5916   2.107   5.205   2.753
 1673SOL     OW 5917   0.068   1.832   3.996
 1673SOL    HW1 5918   0.105   1.870   3.911
 1673SOL    HW2 5919   0.035   1.739   3.980
 1674SOL     OW 5920   1.079   5.015   6.405
 1674SOL    HW1 5921   1.116   5.020   6.312
 1674SOL    HW2 5922   1.083   4.920   6.436
 1675SOL     OW 5923   4.539   2.676   0.006
 1675SOL    HW1 5924   4.495   2.738   0.071
 1675SOL    HW2 5925   4.555   2.587   0.050
 1676SOL     OW 5926   2.579   0.748   3.423
 1676SOL    HW1 5927   2.508   0.713   3.485
 1676SOL    HW2 5928   2.541   0.822   3.368
 1677SOL     OW 5929   6.370   0.956   5.267
 1677SOL    HW1 5930   6.378   1.054   5.286
 1677SOL    HW2 5931   6.384   0.941   5.169
 1678SOL     OW 5932   5.178   0.058   0.985
 1678SOL    HW1 5933   5.148   0.128   1.050
 1678SOL    HW2 5934   5.262   0.015   1.018
 1679SOL     OW 5935   6.642   4.179   0.038
 1679SOL    HW1 5936   6.742   4.175   0.034
 1679SOL    HW2 5937   6.608   4.105   0.097
 1680SOL     OW 5938   1.022   1.673   4.838
 1680SOL    HW1 5939   0.952   1.610   4.873
 1680SOL    HW2 5940   1.074   1.711   4.914
 1681SOL     OW 5941   6.150   5.174   1.369
 1681SOL    HW1 5942   6.094   5.254   1.349
 1681SOL    HW2 5943   6.234   5.203   1.415
 1682SOL     OW 5944   6.448   3.425   5.517
 1682SOL    HW1 5945   6.471   3.509   5.566
 1682SOL    HW2 5946   6.471   3.436   5.420
 1683SOL     OW 5947   5.932   5.817   0.159
 1683SOL    HW1 5948   5.941   5.867   0.072
 1683SOL    HW2 5949   5.835   5.809   0.182
 1684SOL     OW 5950   0.721   5.835   4.639
 1684SOL    HW1 5951   0.776   5.763   4.680
 1684SOL    HW2 5952   0.750   5.848   4.543
 1685SOL     OW 5953   1.274   1.736   6.989
 1685SOL    HW1 5954   1.297   1.783   6.904
 1685SOL    HW2 5955   1.275   1.637   6.975
 1686SOL     OW 5956   1.818   5.794   6.327
 1686SOL    HW1 5957   1.760   5.733   6.273
 1686SOL    HW2 5958   1.761   5.850   6.388
 1687SOL     OW 5959   1.536   0.093   1.639
 1687SOL    HW1 5960   1.590   0.177   1.648
 1687SOL    HW2 5961   1.581   0.019   1.688
 1688SOL     OW 5962   0.382   1.785   3.520
 1688SOL    HW1 5963   0.330   1.800   3.436
 1688SOL    HW2 5964   0.470   1.743   3.497
 1689SOL     OW 5965   2.912   1.117   2.475
 1689SOL    HW1 5966   2.864   1.074   2.551
 1689SOL    HW2 5967   2.908   1.058   2.394
 1690SOL     OW 5968   0.506   2.228   0.997
 1690SOL    HW1 5969   0.493   2.147   1.054
 1690SOL    HW2 5970   0.493   2.311   1.053
 1691SOL     OW 5971   4.663   5.056   2.723
 1691SOL    HW1 5972   4.628   5.083   2.633
 1691SOL    HW2 5973   4.595   5.077   2.793
 1692SOL     OW 5974   1.727   0.711   3.812
 1692SOL    HW1 5975   1.706   0.809   3.804
 1692SOL    HW2 5976   1.674   0.671   3.886
 1693SOL     OW 5977   2.793   2.308   3.730
 1693SOL    HW1 5978   2.711   2.257   3.702
 1693SOL    HW2 5979   2.862   2.300   3.658
 1694SOL     OW 5980   4.682   6.184   5.961
 1694SOL    HW1 5981   4.588   6.163   5.935
 1694SOL    HW2 5982   4.698   6.153   6.055
 1695SOL     OW 5983   2.458   1.713   6.044
 1695SOL    HW1 5984   2.478   1.810   6.028
 1695SOL    HW2 5985   2.542   1.660   6.037
 1696SOL     OW 5986   3.362   5.597   1.302
 1696SOL    HW1 5987   3.263   5.610   1.293
 1696SOL    HW2 5988   3.406   5.685   1.317
 1697SOL     OW 5989   1.288   1.132   1.582
 1697SOL    HW1 5990   1.215   1.097   1.523
 1697SOL    HW2 5991   1.326   1.215   1.542
 1698SOL     OW 5992   5.120   2.137   0.699
 1698SOL    HW1 5993   5.157   2.230   0.696
 1698SOL    HW2 5994   5.129   2.101   0.792
 1699SOL     OW 5995   2.413   4.110   1.081
 1699SOL    HW1 5996   2.347   4.112   1.156
 1699SOL    HW2 5997   2.506   4.117   1.117
 1700SOL     OW 5998   6.477   2.902   4.445
 1700SOL    HW1 5999   6.557   2.956   4.475
 1700SOL    HW2 6000   6.508   2.812   4.414
 1701SOL     OW 6001   5.978   3.557   4.815
 1701SOL    HW1 6002   5.991   3.594   4.723
 1701SOL    HW2 6003   6.067   3.542   4.858
 1702SOL     OW 6004   4.649   2.556   1.393
 1702SOL    HW1 6005   4.737   2.598   1.415
 1702SOL    HW2 6006   4.586   2.626   1.361
 1703SOL     OW 6007   1.869   4.441   0.379
 1703SOL    HW1 6008   1.874   4.369   0.310
 1703SOL    HW2 6009   1.954   4.494   0.378
 1704SOL     OW 6010   1.032   0.964   2.092
 1704SOL    HW1 6011   1.062   0.912   2.012
 1704SOL    HW2 6012   1.015   0.902   2.168
 1705SOL     OW 6013   3.834   3.279   1.804
 1705SOL    HW1 6014   3.913   3.336   1.785
 1705SOL    HW2 6015   3.864   3.186   1.825
 1706SOL     OW 6016   2.733   0.938   6.602
 1706SOL    HW1 6017   2.794   0.942   6.522
 1706SOL    HW2 6018   2.638   0.943   6.571
 1707SOL     OW 6019   6.340   1.658   2.891
 1707SOL    HW1 6020   6.296   1.579   2.935
 1707SOL    HW2 6021   6.402   1.625   2.820
 1708SOL     OW 6022   0.112   4.751   2.285
 1708SOL    HW1 6023   0.100   4.849   2.300
 1708SOL    HW2 6024   0.172   4.737   2.206
 1709SOL     OW 6025   3.660   5.633   4.002
 1709SOL    HW1 6026   3.655   5.666   3.908
 1709SOL    HW2 6027   3.582   5.573   4.021
 1710SOL     OW 6028   0.197   6.012   4.171
 1710SOL    HW1 6029   0.136   5.972   4.103
 1710SOL    HW2 6030   0.169   6.106   4.189
 1711SOL     OW 6031   1.507   4.563   5.482
 1711SOL    HW1 6032   1.567   4.510   5.422
 1711SOL    HW2 6033   1.512   4.659   5.458
 1712SOL     OW 6034   1.133   4.806   1.001
 1712SOL    HW1 6035   1.139   4.737   0.929
 1712SOL    HW2 6036   1.195   4.782   1.075
 1713SOL     OW 6037   1.536   3.561   0.294
 1713SOL    HW1 6038   1.503   3.468   0.313
 1713SOL    HW2 6039   1.459   3.619   0.271
 1714SOL     OW 6040   3.326   1.651   0.379
 1714SOL    HW1 6041   3.328   1.554   0.355
 1714SOL    HW2 6042   3.240   1.673   0.424
 1715SOL     OW 6043   0.445   3.217   3.909
 1715SOL    HW1 6044   0.474   3.122   3.925
 1715SOL    HW2 6045   0.355   3.231   3.950
 1716SOL     OW 6046   0.210   6.680   0.037
 1716SOL    HW1 6047   0.168   6.605   7.004
 1716SOL    HW2 6048   0.139   6.730   0.085
 1717SOL     OW 6049   3.476   0.302   0.259
 1717SOL    HW1 6050   3.475   0.402   0.265
 1717SOL    HW2 6051   3.382   0.268   0.261
 1718SOL     OW 6052   0.975   4.814   5.269
 1718SOL    HW1 6053   0.930   4.882   5.326
 1718SOL    HW2 6054   0.990   4.852   5.178
 1719SOL     OW 6055   2.382   3.594   1.377
 1719SOL    HW1 6056   2.299   3.607   1.322
 1719SOL    HW2 6057   2.412   3.499   1.370
 1720SOL     OW 6058   6.681   1.764   1.665
 1720SOL    HW1 6059   6.663   1.779   1.568
 1720SOL    HW2 6060   6.722   1.674   1.678
 1721SOL     OW 6061   2.006   6.395   3.411
 1721SOL    HW1 6062   1.949   6.422   3.488
 1721SOL    HW2 6063   2.095   6.362   3.445
 1722SOL     OW 6064   5.606   6.701   2.072
 1722SOL    HW1 6065   5.546   6.623   2.057
 1722SOL    HW2 6066   5.701   6.673   2.059
 1723SOL     OW 6067   6.239   1.398   2.002
 1723SOL    HW1 6068   6.293   1.412   1.919
 1723SOL    HW2 6069   6.170   1.470   2.010
 1724SOL     OW 6070   4.923   0.593   6.941
 1724SOL    HW1 6071   4.887   0.620   6.852
 1724SOL    HW2 6072   5.020   0.619   6.947
 1725SOL     OW 6073   4.275   5.008   2.177
 1725SOL    HW1 6074   4.274   4.917   2.135
 1725SOL    HW2 6075   4.367   5.046   2.171
 1726SOL     OW 6076   0.479   5.098   4.583
 1726SOL    HW1 6077   0.468   5.077   4.680
 1726SOL    HW2 6078   0.407   5.052   4.531
 1727SOL     OW 6079   3.684   3.613   5.258
 1727SOL    HW1 6080   3.708   3.587   5.351
 1727SOL    HW2 6081   3.607   3.558   5.226
 1728SOL     OW 6082   4.775   4.194   3.612
 1728SOL    HW1 6083   4.830   4.162   3.535
 1728SOL    HW2 6084   4.824   4.178   3.697
 1729SOL     OW 6085   1.787   3.269   2.740
 1729SOL    HW1 6086   1.790   3.236   2.646
 1729SOL    HW2 6087   1.879   3.269   2.778
 1730SOL     OW 6088   5.864   1.866   4.739
 1730SOL    HW1 6089   5.849   1.806   4.660
 1730SOL    HW2 6090   5.836   1.819   4.822
 1731SOL     OW 6091   1.114   5.468   0.170
 1731SOL    HW1 6092   1.160   5.514   0.246
 1731SOL    HW2 6093   1.099   5.372   0.193
 1732SOL     OW 6094   0.420   4.857   0.155
 1732SOL    HW1 6095   0.446   4.904   0.071
 1732SOL    HW2 6096   0.500   4.812   0.195
 1733SOL     OW 6097   1.274   4.164   0.750
 1733SOL    HW1 6098   1.212   4.088   0.730
 1733SOL    HW2 6099   1.247   4.208   0.835
 1734SOL     OW 6100   4.795   3.281   0.957
 1734SOL    HW1 6101   4.811   3.346   1.032
 1734SOL    HW2 6102   4.746   3.327   0.883
 1735SOL     OW 6103   5.804   5.484   1.917
 1735SOL    HW1 6104   5.812   5.473   2.016
 1735SOL    HW2 6105   5.710   5.466   1.888
 1736SOL     OW 6106   2.985   3.753   0.636
 1736SOL    HW1 6107   3.036   3.755   0.551
 1736SOL    HW2 6108   3.005   3.669   0.685
 1737SOL     OW 6109   1.770   5.964   3.777
 1737SOL    HW1 6110   1.689   5.972   3.719
 1737SOL    HW2 6111   1.824   5.885   3.748
 1738SOL     OW 6112   1.133   2.023   1.575
 1738SOL    HW1 6113   1.119   1.926   1.555
 1738SOL    HW2 6114   1.200   2.061   1.510
 1739SOL     OW 6115   4.166   2.071   5.606
 1739SOL    HW1 6116   4.240   2.136   5.588
 1739SOL    HW2 6117   4.082   2.102   5.562
 1740SOL     OW 6118   0.836   1.264   5.894
 1740SOL    HW1 6119   0.750   1.219   5.870
 1740SOL    HW2 6120   0.893   1.271   5.812
 1741SOL     OW 6121   1.762   0.445   2.624
 1741SOL    HW1 6122   1.728   0.351   2.614
 1741SOL    HW2 6123   1.768   0.488   2.534
 1742SOL     OW 6124   6.041   0.415   4.465
 1742SOL    HW1 6125   6.022   0.513   4.467
 1742SOL    HW2 6126   5.970   0.369   4.412
 1743SOL     OW 6127   4.731   1.122   0.779
 1743SOL    HW1 6128   4.757   1.030   0.752
 1743SOL    HW2 6129   4.739   1.184   0.701
 1744SOL     OW 6130   3.061   0.893   1.565
 1744SOL    HW1 6131   2.966   0.880   1.536
 1744SOL    HW2 6132   3.084   0.825   1.634
 1745SOL     OW 6133   6.933   3.081   4.381
 1745SOL    HW1 6134   6.970   2.990   4.396
 1745SOL    HW2 6135   6.957   3.112   4.289
 1746SOL     OW 6136   2.731   0.582   6.003
 1746SOL    HW1 6137   2.811   0.621   5.957
 1746SOL    HW2 6138   2.761   0.541   6.090
 1747SOL     OW 6139   4.437   0.700   0.587
 1747SOL    HW1 6140   4.357   0.645   0.562
 1747SOL    HW2 6141   4.438   0.784   0.533
 1748SOL     OW 6142   5.939   1.804   1.693
 1748SOL    HW1 6143   5.918   1.778   1.599
 1748SOL    HW2 6144   5.886   1.747   1.756
 1749SOL     OW 6145   4.418   0.035   6.149
 1749SOL    HW1 6146   4.425   0.093   6.068
 1749SOL    HW2 6147   4.352   6.981   6.131
 1750SOL     OW 6148   5.281   0.641   3.535
 1750SOL    HW1 6149   5.344   0.602   3.602
 1750SOL    HW2 6150   5.240   0.725   3.572
 1751SOL     OW 6151   2.164   5.807   3.821
 1751SOL    HW1 6152   2.109   5.807   3.905
 1751SOL    HW2 6153   2.259   5.825   3.844
 1752SOL     OW 6154   6.509   2.472   0.347
 1752SOL    HW1 6155   6.560   2.518   0.421
 1752SOL    HW2 6156   6.437   2.415   0.387
 1753SOL     OW 6157   2.693   0.149   2.043
 1753SOL    HW1 6158   2.758   0.225   2.031
 1753SOL    HW2 6159   2.663   0.117   1.953
 1754SOL     OW 6160   3.504   2.590   0.763
 1754SOL    HW1 6161   3.418   2.596   0.814
 1754SOL    HW2 6162   3.551   2.504   0.787
 1755SOL     OW 6163   4.872   3.463   0.441
 1755SOL    HW1 6164   4.920   3.424   0.363
 1755SOL    HW2 6165   4.936   3.471   0.518
 1756SOL     OW 6166   6.074   5.315   4.441
 1756SOL    HW1 6167   6.009   5.387   4.462
 1756SOL    HW2 6168   6.167   5.349   4.457
 1757SOL     OW 6169   3.294   6.949   5.008
 1757SOL    HW1 6170   3.209   6.898   5.001
 1757SOL    HW2 6171   3.372   6.886   5.004
 1758SOL     OW 6172   2.681   1.266   3.336
 1758SOL    HW1 6173   2.670   1.357   3.376
 1758SOL    HW2 6174   2.765   1.224   3.371
 1759SOL     OW 6175   0.329   5.486   6.256
 1759SOL    HW1 6176   0.364   5.577   6.233
 1759SOL    HW2 6177   0.373   5.418   6.197
 1760SOL     OW 6178   5.835   0.480   2.493
 1760SOL    HW1 6179   5.898   0.403   2.479
 1760SOL    HW2 6180   5.852   0.550   2.424
 1761SOL     OW 6181   6.436   2.708   1.021
 1761SOL    HW1 6182   6.475   2.669   1.104
 1761SOL    HW2 6183   6.370   2.779   1.045
 1762SOL     OW 6184   5.910   2.235   6.750
 1762SOL    HW1 6185   5.897   2.150   6.699
 1762SOL    HW2 6186   5.835   2.298   6.732
 1763SOL     OW 6187   2.036   3.708   3.495
 1763SOL    HW1 6188   1.988   3.793   3.518
 1763SOL    HW2 6189   2.085   3.675   3.576
 1764SOL     OW 6190   6.607   2.917   4.144
 1764SOL    HW1 6191   6.562   2.837   4.186
 1764SOL    HW2 6192   6.593   2.997   4.202
 1765SOL     OW 6193   2.487   2.585   6.343
 1765SOL    HW1 6194   2.560   2.600   6.276
 1765SOL    HW2 6195   2.423   2.517   6.308
 1766SOL     OW 6196   5.580   3.054   5.299
 1766SOL    HW1 6197   5.657   3.053   5.235
 1766SOL    HW2 6198   5.504   3.106   5.258
 1767SOL     OW 6199   5.684   3.753   2.115
 1767SOL    HW1 6200   5.664   3.731   2.020
 1767SOL    HW2 6201   5.783   3.750   2.130
 1768SOL     OW 6202   5.696   6.118   3.797
 1768SOL    HW1 6203   5.698   6.039   3.859
 1768SOL    HW2 6204   5.633   6.187   3.834
 1769SOL     OW 6205   5.737   1.425   3.164
 1769SOL    HW1 6206   5.713   1.516   3.198
 1769SOL    HW2 6207   5.744   1.361   3.241
 1770SOL     OW 6208   2.753   5.181   5.185
 1770SOL    HW1 6209   2.664   5.148   5.217
 1770SOL    HW2 6210   2.821   5.107   5.195
 1771SOL     OW 6211   4.867   6.050   6.460
 1771SOL    HW1 6212   4.937   6.119   6.441
 1771SOL    HW2 6213   4.847   6.048   6.558
 1772SOL     OW 6214   3.438   6.262   2.757
 1772SOL    HW1 6215   3.467   6.192   2.692
 1772SOL    HW2 6216   3.429   6.221   2.848
 1773SOL     OW 6217   0.829   5.298   6.940
 1773SOL    HW1 6218   0.812   5.203   6.967
 1773SOL    HW2 6219   0.744   5.339   6.906
 1774SOL     OW 6220   3.491   5.204   2.089
 1774SOL    HW1 6221   3.562   5.156   2.036
 1774SOL    HW2 6222   3.431   5.138   2.132
 1775SOL     OW 6223   0.511   4.669   1.597
 1775SOL    HW1 6224   0.503   4.574   1.566
 1775SOL    HW2 6225   0.561   4.672   1.684
 1776SOL     OW 6226   3.167   5.621   5.372
 1776SOL    HW1 6227   3.149   5.698   5.433
 1776SOL    HW2 6228   3.118   5.540   5.405
 1777SOL     OW 6229   3.533   5.832   0.312
 1777SOL    HW1 6230   3.474   5.766   0.358
 1777SOL    HW2 6231   3.478   5.887   0.249
 1778SOL     OW 6232   5.793   3.277   5.290
 1778SOL    HW1 6233   5.840   3.328   5.361
 1778SOL    HW2 6234   5.735   3.206   5.331
 1779SOL     OW 6235   3.354   6.698   5.266
 1779SOL    HW1 6236   3.410   6.730   5.342
 1779SOL    HW2 6237   3.267   6.664   5.301
 1780SOL     OW 6238   3.293   3.218   6.476
 1780SOL    HW1 6239   3.280   3.159   6.396
 1780SOL    HW2 6240   3.251   3.307   6.458
 1781SOL     OW 6241   3.727   5.630   3.229
 1781SOL    HW1 6242   3.700   5.724   3.208
 1781SOL    HW2 6243   3.668   5.593   3.300
 1782SOL     OW 6244   3.545   1.749   3.908
 1782SOL    HW1 6245   3.637   1.710   3.914
 1782SOL    HW2 6246   3.483   1.681   3.869
 1783SOL     OW 6247   1.450   5.338   0.381
 1783SOL    HW1 6248   1.367   5.315   0.432
 1783SOL    HW2 6249   1.511   5.258   0.380
 1784SOL     OW 6250   3.475   6.740   5.024
 1784SOL    HW1 6251   3.422   6.717   5.106
 1784SOL    HW2 6252   3.545   6.671   5.008
 1785SOL     OW 6253   6.356   4.512   2.903
 1785SOL    HW1 6254   6.439   4.473   2.942
 1785SOL    HW2 6255   6.281   4.503   2.968
 1786SOL     OW 6256   3.164   2.592   1.261
 1786SOL    HW1 6257   3.188   2.610   1.357
 1786SOL    HW2 6258   3.210   2.657   1.202
 1787SOL     OW 6259   3.538   0.258   6.148
 1787SOL    HW1 6260   3.593   0.197   6.091
 1787SOL    HW2 6261   3.480   0.203   6.209
 1788SOL     OW 6262   1.907   4.871   5.031
 1788SOL    HW1 6263   1.969   4.794   5.042
 1788SOL    HW2 6264   1.959   4.954   5.009
 1789SOL     OW 6265   6.253   1.323   6.931
 1789SOL    HW1 6266   6.171   1.329   6.874
 1789SOL    HW2 6267   6.334   1.327   6.873
 1790SOL     OW 6268   4.080   6.751   3.044
 1790SOL    HW1 6269   3.993   6.705   3.062
 1790SOL    HW2 6270   4.127   6.705   2.968
 1791SOL     OW 6271   0.323   6.866   2.665
 1791SOL    HW1 6272   0.401   6.867   2.728
 1791SOL    HW2 6273   0.281   6.957   2.663
 1792SOL     OW 6274   1.323   3.093   5.292
 1792SOL    HW1 6275   1.415   3.077   5.327
 1792SOL    HW2 6276   1.257   3.041   5.345
 1793SOL     OW 6277   0.318   0.489   3.850
 1793SOL    HW1 6278   0.412   0.506   3.881
 1793SOL    HW2 6279   0.295   0.551   3.775
 1794SOL     OW 6280   4.290   5.815   6.183
 1794SOL    HW1 6281   4.327   5.732   6.225
 1794SOL    HW2 6282   4.364   5.881   6.170
 1795SOL     OW 6283   0.693   3.217   0.402
 1795SOL    HW1 6284   0.772   3.171   0.441
 1795SOL    HW2 6285   0.696   3.211   0.302
 1796SOL     OW 6286   3.209   0.325   6.499
 1796SOL    HW1 6287   3.190   0.344   6.595
 1796SOL    HW2 6288   3.129   0.283   6.456
 1797SOL     OW 6289   0.770   0.125   1.095
 1797SOL    HW1 6290   0.733   0.173   1.174
 1797SOL    HW2 6291   0.788   0.190   1.021
 1798SOL     OW 6292   5.256   2.438   2.806
 1798SOL    HW1 6293   5.242   2.487   2.892
 1798SOL    HW2 6294   5.207   2.485   2.733
 1799SOL     OW 6295   1.624   1.890   6.325
 1799SOL    HW1 6296   1.649   1.907   6.420
 1799SOL    HW2 6297   1.544   1.945   6.301
 1800SOL     OW 6298   4.005   5.149   2.289
 1800SOL    HW1 6299   4.104   5.140   2.277
 1800SOL    HW2 6300   3.986   5.211   2.366
 1801SOL     OW 6301   6.273   6.717   0.816
 1801SOL    HW1 6302   6.249   6.814   0.813
 1801SOL    HW2 6303   6.325   6.699   0.900
 1802SOL     OW 6304   5.407   5.697   3.821
 1802SOL    HW1 6305   5.361   5.719   3.907
 1802SOL    HW2 6306   5.421   5.780   3.768
 1803SOL     OW 6307   6.339   5.260   1.122
 1803SOL    HW1 6308   6.407   5.213   1.178
 1803SOL    HW2 6309   6.319   5.350   1.162
 1804SOL     OW 6310   3.181   2.947   4.928
 1804SOL    HW1 6311   3.171   2.922   5.024
 1804SOL    HW2 6312   3.189   2.864   4.872
 1805SOL     OW 6313   4.756   3.370   6.785
 1805SOL    HW1 6314   4.676   3.346   6.840
 1805SOL    HW2 6315   4.751   3.466   6.758
 1806SOL     OW 6316   0.490   6.802   1.650
 1806SOL    HW1 6317   0.407   6.797   1.707
 1806SOL    HW2 6318   0.490   6.726   1.585
 1807SOL     OW 6319   5.823   1.281   5.413
 1807SOL    HW1 6320   5.846   1.208   5.348
 1807SOL    HW2 6321   5.843   1.251   5.506
 1808SOL     OW 6322   1.375   4.924   3.955
 1808SOL    HW1 6323   1.380   5.020   3.927
 1808SOL    HW2 6324   1.457   4.876   3.923
 1809SOL     OW 6325   3.517   0.066   6.537
 1809SOL    HW1 6326   3.610   0.095   6.560
 1809SOL    HW2 6327   3.516   0.023   6.446
 1810SOL     OW 6328   3.413   6.133   2.990
 1810SOL    HW1 6329   3.429   6.035   3.000
 1810SOL    HW2 6330   3.338   6.161   3.050
 1811SOL     OW 6331   5.773   5.133   3.552
 1811SOL    HW1 6332   5.721   5.210   3.588
 1811SOL    HW2 6333   5.852   5.116   3.611
 1812SOL     OW 6334   4.138   5.397   6.338
 1812SOL    HW1 6335   4.219   5.440   6.301
 1812SOL    HW2 6336   4.056   5.438   6.297
 1813SOL     OW 6337   6.024   4.759   5.968
 1813SOL    HW1 6338   5.939   4.708   5.982
 1813SOL    HW2 6339   6.071   4.771   6.056
 1814SOL     OW 6340   4.722   6.818   2.005
 1814SOL    HW1 6341   4.756   6.912   2.008
 1814SOL    HW2 6342   4.775   6.762   2.068
 1815SOL     OW 6343   0.613   0.675   3.573
 1815SOL    HW1 6344   0.670   0.593   3.575
 1815SOL    HW2 6345   0.670   0.756   3.584
 1816SOL     OW 6346   0.665   4.391   0.181
 1816SOL    HW1 6347   0.726   4.421   0.254
 1816SOL    HW2 6348   0.570   4.410   0.205
 1817SOL     OW 6349   2.122   5.929   2.091
 1817SOL    HW1 6350   2.063   5.912   2.013
 1817SOL    HW2 6351   2.148   6.025   2.093
 1818SOL     OW 6352   2.723   1.305   3.078
 1818SOL    HW1 6353   2.669   1.389   3.076
 1818SOL    HW2 6354   2.706   1.256   3.163
 1819SOL     OW 6355   1.902   4.568   2.076
 1819SOL    HW1 6356   1.861   4.526   1.995
 1819SOL    HW2 6357   1.982   4.516   2.104
 1820SOL     OW 6358   5.063   0.258   2.332
 1820SOL    HW1 6359   5.003   0.304   2.267
 1820SOL    HW2 6360   5.158   0.271   2.304
 1821SOL     OW 6361   2.964   2.179   2.945
 1821SOL    HW1 6362   2.943   2.236   3.024
 1821SOL    HW2 6363   2.921   2.217   2.864
 1822SOL     OW 6364   3.448   3.099   1.485
 1822SOL    HW1 6365   3.542   3.072   1.465
 1822SOL    HW2 6366   3.449   3.182   1.541
 1823SOL     OW 6367   3.996   6.596   2.465
 1823SOL    HW1 6368   4.082   6.556   2.435
 1823SOL    HW2 6369   3.920   6.542   2.429
 1824SOL     OW 6370   5.133   2.731   1.329
 1824SOL    HW1 6371   5.153   2.639   1.361
 1824SOL    HW2 6372   5.117   2.729   1.230
 1825SOL     OW 6373   1.365   0.691   1.598
 1825SOL    HW1 6374   1.364   0.598   1.563
 1825SOL    HW2 6375   1.442   0.741   1.557
 1826SOL     OW 6376   3.151   6.566   6.741
 1826SOL    HW1 6377   3.203   6.519   6.812
 1826SOL    HW2 6378   3.210   6.629   6.692
 1827SOL     OW 6379   6.665   6.601   1.533
 1827SOL    HW1 6380   6.581   6.643   1.567
 1827SOL    HW2 6381   6.643   6.525   1.472
 1828SOL     OW 6382   1.581   2.219   6.730
 1828SOL    HW1 6383   1.536   2.163   6.660
 1828SOL    HW2 6384   1.608   2.162   6.807
 1829SOL     OW 6385   5.933   5.465   1.685
 1829SOL    HW1 6386   5.983   5.391   1.730
 1829SOL    HW2 6387   5.897   5.527   1.754
 1830SOL     OW 6388   4.898   6.447   3.815
 1830SOL    HW1 6389   4.844   6.518   3.860
 1830SOL    HW2 6390   4.946   6.393   3.884
 1831SOL     OW 6391   4.874   0.269   2.549
 1831SOL    HW1 6392   4.937   0.267   2.471
 1831SOL    HW2 6393   4.866   0.363   2.582
 1832SOL     OW 6394   5.089   3.012   0.783
 1832SOL    HW1 6395   5.156   2.939   0.794
 1832SOL    HW2 6396   5.117   3.091   0.838
 1833SOL     OW 6397   5.784   1.684   5.804
 1833SOL    HW1 6398   5.864   1.623   5.808
 1833SOL    HW2 6399   5.811   1.772   5.765
 1834SOL     OW 6400   2.704   3.582   0.592
 1834SOL    HW1 6401   2.708   3.498   0.537
 1834SOL    HW2 6402   2.776   3.645   0.562
 1835SOL     OW 6403   1.437   4.670   0.066
 1835SOL    HW1 6404   1.522   4.718   0.085
 1835SOL    HW2 6405   1.433   4.587   0.121
 1836SOL     OW 6406   0.347   5.986   0.934
 1836SOL    HW1 6407   0.390   6.072   0.907
 1836SOL    HW2 6408   0.250   5.989   0.911
 1837SOL     OW 6409   1.250   2.730   4.854
 1837SOL    HW1 6410   1.274   2.825   4.872
 1837SOL    HW2 6411   1.322   2.687   4.799
 1838SOL     OW 6412   6.455   2.429   4.168
 1838SOL    HW1 6413   6.399   2.371   4.226
 1838SOL    HW2 6414   6.422   2.424   4.074
 1839SOL     OW 6415   0.081   2.110   5.845
 1839SOL    HW1 6416   7.002   2.089   5.842
 1839SOL    HW2 6417   0.111   2.115   5.940
 1840SOL     OW 6418   1.355   4.969   1.132
 1840SOL    HW1 6419   1.420   4.990   1.205
 1840SOL    HW2 6420   1.404   4.942   1.049
 1841SOL     OW 6421   1.672   2.404   3.745
 1841SOL    HW1 6422   1.736   2.348   3.692
 1841SOL    HW2 6423   1.703   2.410   3.840
 1842SOL     OW 6424   0.948   4.623   0.243
 1842SOL    HW1 6425   0.920   4.531   0.272
 1842SOL    HW2 6426   1.033   4.617   0.191
 1843SOL     OW 6427   3.172   1.785   4.564
 1843SOL    HW1 6428   3.077   1.805   4.544
 1843SOL    HW2 6429   3.194   1.815   4.657
 1844SOL     OW 6430   4.812   3.109   3.741
 1844SOL    HW1 6431   4.730   3.100   3.685
 1844SOL    HW2 6432   4.869   3.182   3.704
 1845SOL     OW 6433   4.289   0.292   7.011
 1845SOL    HW1 6434   4.225   0.233   0.042
 1845SOL    HW2 6435   4.307   0.374   0.045
 1846SOL     OW 6436   3.478   1.211   5.913
 1846SOL    HW1 6437   3.388   1.175   5.940
 1846SOL    HW2 6438   3.548   1.171   5.972
 1847SOL     OW 6439   0.618   6.914   0.558
 1847SOL    HW1 6440   0.598   6.996   0.612
 1847SOL    HW2 6441   0.698   6.930   0.500
 1848SOL     OW 6442   3.178   6.817   2.341
 1848SOL    HW1 6443   3.269   6.790   2.372
 1848SOL    HW2 6444   3.185   6.894   2.277
 1849SOL     OW 6445   2.380   1.511   6.639
 1849SOL    HW1 6446   2.318   1.523   6.562
 1849SOL    HW2 6447   2.456   1.452   6.611
 1850SOL     OW 6448   5.654   1.782   1.865
 1850SOL    HW1 6449   5.671   1.684   1.855
 1850SOL    HW2 6450   5.566   1.804   1.822
 1851SOL     OW 6451   6.919   2.928   2.667
 1851SOL    HW1 6452   6.997   2.894   2.719
 1851SOL    HW2 6453   6.862   2.851   2.637
 1852SOL     OW 6454   5.289   3.327   0.147
 1852SOL    HW1 6455   5.284   3.249   0.210
 1852SOL    HW2 6456   5.293   3.294   0.053
 1853SOL     OW 6457   1.873   4.708   0.702
 1853SOL    HW1 6458   1.942   4.739   0.636
 1853SOL    HW2 6459   1.788   4.758   0.688
 1854SOL     OW 6460   2.555   5.873   4.430
 1854SOL    HW1 6461   2.495   5.793   4.431
 1854SOL    HW2 6462   2.555   5.917   4.520
 1855SOL     OW 6463   5.005   4.624   2.024
 1855SOL    HW1 6464   4.981   4.613   2.121
 1855SOL    HW2 6465   5.046   4.714   2.010
 1856SOL     OW 6466   4.941   2.093   5.323
 1856SOL    HW1 6467   5.021   2.076   5.265
 1856SOL    HW2 6468   4.946   2.037   5.405
 1857SOL     OW 6469   5.023   1.232   2.819
 1857SOL    HW1 6470   5.067   1.286   2.891
 1857SOL    HW2 6471   4.944   1.283   2.784
 1858SOL     OW 6472   5.111   3.878   3.542
 1858SOL    HW1 6473   5.152   3.913   3.627
 1858SOL    HW2 6474   5.031   3.822   3.564
 1859SOL     OW 6475   5.163   1.575   2.638
 1859SOL    HW1 6476   5.223   1.501   2.608
 1859SOL    HW2 6477   5.183   1.598   2.733
 1860SOL     OW 6478   4.867   1.212   4.625
 1860SOL    HW1 6479   4.875   1.169   4.715
 1860SOL    HW2 6480   4.818   1.150   4.563
 1861SOL     OW 6481   5.732   6.517   2.668
 1861SOL    HW1 6482   5.632   6.518   2.656
 1861SOL    HW2 6483   5.756   6.569   2.749
 1862SOL     OW 6484   2.009   1.758   0.247
 1862SOL    HW1 6485   2.098   1.797   0.270
 1862SOL    HW2 6486   2.021   1.667   0.208
 1863SOL     OW 6487   2.821   3.162   1.532
 1863SOL    HW1 6488   2.848   3.066   1.543
 1863SOL    HW2 6489   2.811   3.183   1.435
 1864SOL     OW 6490   1.293   6.122   3.853
 1864SOL    HW1 6491   1.361   6.193   3.864
 1864SOL    HW2 6492   1.242   6.137   3.768
 1865SOL     OW 6493   4.340   2.377   6.557
 1865SOL    HW1 6494   4.299   2.468   6.558
 1865SOL    HW2 6495   4.308   2.325   6.636
 1866SOL     OW 6496   4.474   5.472   2.817
 1866SOL    HW1 6497   4.416   5.549   2.843
 1866SOL    HW2 6498   4.433   5.387   2.848
 1867SOL     OW 6499   0.823   4.022   6.797
 1867SOL    HW1 6500   0.749   4.086   6.820
 1867SOL    HW2 6501   0.898   4.072   6.753
 1868SOL     OW 6502   5.727   3.708   4.645
 1868SOL    HW1 6503   5.821   3.740   4.636
 1868SOL    HW2 6504   5.712   3.671   4.737
 1869SOL     OW 6505   6.108   1.293   5.296
 1869SOL    HW1 6506   6.121   1.371   5.357
 1869SOL    HW2 6507   6.017   1.253   5.312
 1870SOL     OW 6508   1.701   5.408   4.587
 1870SOL    HW1 6509   1.655   5.463   4.656
 1870SOL    HW2 6510   1.797   5.397   4.613
 1871SOL     OW 6511   1.405   6.981   0.629
 1871SOL    HW1 6512   1.469   6.941   0.564
 1871SOL    HW2 6513   1.455   0.022   0.692
 1872SOL     OW 6514   2.606   4.675   0.226
 1872SOL    HW1 6515   2.692   4.653   0.180
 1872SOL    HW2 6516   2.587   4.607   0.296
 1873SOL     OW 6517   4.568   1.957   0.053
 1873SOL    HW1 6518   4.607   1.991   6.986
 1873SOL    HW2 6519   4.575   1.858   0.055
 1874SOL     OW 6520   1.127   2.201   2.162
 1874SOL    HW1 6521   1.189   2.237   2.231
 1874SOL    HW2 6522   1.062   2.272   2.136
 1875SOL     OW 6523   0.438   6.952   0.327
 1875SOL    HW1 6524   0.450   6.870   0.271
 1875SOL    HW2 6525   0.502   6.949   0.404
 1876SOL     OW 6526   2.270   6.869   4.724
 1876SOL    HW1 6527   2.312   6.911   4.805
 1876SOL    HW2 6528   2.298   6.918   4.642
 1877SOL     OW 6529   0.899   7.018   3.702
 1877SOL    HW1 6530   0.860   0.007   3.610
 1877SOL    HW2 6531   0.993   6.984   3.696
 1878SOL     OW 6532   5.990   2.480   5.762
 1878SOL    HW1 6533   6.043   2.537   5.824
 1878SOL    HW2 6534   6.047   2.454   5.684
 1879SOL     OW 6535   1.412   4.108   5.043
 1879SOL    HW1 6536   1.505   4.106   5.006
 1879SOL    HW2 6537   1.346   4.105   4.968
 1880SOL     OW 6538   5.937   0.451   5.783
 1880SOL    HW1 6539   6.027   0.487   5.756
 1880SOL    HW2 6540   5.879   0.442   5.703
 1881SOL     OW 6541   6.748   2.370   0.125
 1881SOL    HW1 6542   6.787   2.451   0.169
 1881SOL    HW2 6543   6.697   2.317   0.192
 1882SOL     OW 6544   0.682   5.501   6.160
 1882SOL    HW1 6545   0.603   5.442   6.146
 1882SOL    HW2 6546   0.654   5.585   6.206
 1883SOL     OW 6547   0.107   1.874   4.253
 1883SOL    HW1 6548   0.071   1.864   4.160
 1883SOL    HW2 6549   0.198   1.833   4.258
 1884SOL     OW 6550   6.905   2.801   1.567
 1884SOL    HW1 6551   6.984   2.745   1.541
 1884SOL    HW2 6552   6.858   2.833   1.485
 1885SOL     OW 6553   2.255   1.797   4.026
 1885SOL    HW1 6554   2.269   1.775   4.123
 1885SOL    HW2 6555   2.158   1.795   4.005
 1886SOL     OW 6556   1.633   6.948   3.193
 1886SOL    HW1 6557   1.609   0.018   3.153
 1886SOL    HW2 6558   1.650   6.959   3.291
 1887SOL     OW 6559   1.980   5.886   6.133
 1887SOL    HW1 6560   1.946   5.980   6.135
 1887SOL    HW2 6561   1.922   5.828   6.191
 1888SOL     OW 6562   2.921   0.933   1.887
 1888SOL    HW1 6563   2.874   0.984   1.960
 1888SOL    HW2 6564   2.885   0.962   1.799
 1889SOL     OW 6565   0.246   3.104   3.352
 1889SOL    HW1 6566   0.252   3.022   3.408
 1889SOL    HW2 6567   0.290   3.087   3.264
 1890SOL     OW 6568   0.464   5.942   4.092
 1890SOL    HW1 6569   0.381   5.985   4.128
 1890SOL    HW2 6570   0.475   5.968   3.996
 1891SOL     OW 6571   3.604   3.377   3.234
 1891SOL    HW1 6572   3.559   3.467   3.230
 1891SOL    HW2 6573   3.535   3.305   3.237
 1892SOL     OW 6574   0.739   0.729   2.694
 1892SOL    HW1 6575   0.721   0.769   2.783
 1892SOL    HW2 6576   0.701   0.636   2.691
 1893SOL     OW 6577   3.533   2.921   4.445
 1893SOL    HW1 6578   3.602   2.964   4.387
 1893SOL    HW2 6579   3.573   2.903   4.535
 1894SOL     OW 6580   2.929   3.355   3.964
 1894SOL    HW1 6581   2.910   3.313   4.053
 1894SOL    HW2 6582   3.003   3.304   3.919
 1895SOL     OW 6583   2.068   5.855   6.846
 1895SOL    HW1 6584   2.020   5.915   6.910
 1895SOL    HW2 6585   2.041   5.760   6.862
 1896SOL     OW 6586   5.406   2.912   0.557
 1896SOL    HW1 6587   5.341   2.879   0.488
 1896SOL    HW2 6588   5.439   2.835   0.611
 1897SOL     OW 6589   1.696   4.624   4.282
 1897SOL    HW1 6590   1.728   4.618   4.377
 1897SOL    HW2 6591   1.708   4.717   4.248
 1898SOL     OW 6592   1.570   6.237   3.445
 1898SOL    HW1 6593   1.592   6.332   3.469
 1898SOL    HW2 6594   1.653   6.190   3.414
 1899SOL     OW 6595   0.380   0.579   2.498
 1899SOL    HW1 6596   0.408   0.542   2.587
 1899SOL    HW2 6597   0.286   0.552   2.478
 1900SOL     OW 6598   2.446   6.858   0.212
 1900SOL    HW1 6599   2.365   6.805   0.185
 1900SOL    HW2 6600   2.516   6.796   0.247
 1901SOL     OW 6601   2.862   3.765   1.234
 1901SOL    HW1 6602   2.897   3.838   1.293
 1901SOL    HW2 6603   2.822   3.804   1.151
 1902SOL     OW 6604   1.432   6.616   4.119
 1902SOL    HW1 6605   1.451   6.567   4.204
 1902SOL    HW2 6606   1.443   6.714   4.133
 1903SOL     OW 6607   0.776   2.498   4.449
 1903SOL    HW1 6608   0.858   2.545   4.416
 1903SOL    HW2 6609   0.764   2.515   4.546
 1904SOL     OW 6610   5.521   5.512   1.868
 1904SOL    HW1 6611   5.509   5.503   1.967
 1904SOL    HW2 6612   5.431   5.525   1.825
 1905SOL     OW 6613   6.897   0.993   3.890
 1905SOL    HW1 6614   6.933   0.928   3.824
 1905SOL    HW2 6615   6.958   1.072   3.895
 1906SOL     OW 6616   1.686   0.079   5.396
 1906SOL    HW1 6617   1.695   7.015   5.341
 1906SOL    HW2 6618   1.709   0.058   5.491
 1907SOL     OW 6619   5.779   2.515   0.310
 1907SOL    HW1 6620   5.728   2.583   0.361
 1907SOL    HW2 6621   5.851   2.476   0.369
 1908SOL     OW 6622   3.174   1.595   1.119
 1908SOL    HW1 6623   3.141   1.681   1.157
 1908SOL    HW2 6624   3.233   1.549   1.186
 1909SOL     OW 6625   6.423   4.542   5.033
 1909SOL    HW1 6626   6.486   4.507   5.103
 1909SOL    HW2 6627   6.351   4.595   5.076
 1910SOL     OW 6628   6.989   6.229   5.479
 1910SOL    HW1 6629   6.921   6.187   5.538
 1910SOL    HW2 6630   6.944   6.270   5.400
 1911SOL     OW 6631   0.012   5.127   4.234
 1911SOL    HW1 6632   0.066   5.048   4.205
 1911SOL    HW2 6633   0.027   5.203   4.170
 1912SOL     OW 6634   2.954   5.220   2.199
 1912SOL    HW1 6635   2.874   5.180   2.243
 1912SOL    HW2 6636   2.949   5.320   2.205
 1913SOL     OW 6637   3.475   4.227   6.541
 1913SOL    HW1 6638   3.544   4.267   6.480
 1913SOL    HW2 6639   3.385   4.233   6.498
 1914SOL     OW 6640   2.406   4.758   6.097
 1914SOL    HW1 6641   2.408   4.658   6.103
 1914SOL    HW2 6642   2.392   4.797   6.188
 1915SOL     OW 6643   4.398   2.466   5.375
 1915SOL    HW1 6644   4.387   2.546   5.315
 1915SOL    HW2 6645   4.485   2.473   5.424
 1916SOL     OW 6646   4.211   1.025   2.396
 1916SOL    HW1 6647   4.281   0.954   2.403
 1916SOL    HW2 6648   4.139   0.995   2.333
 1917SOL     OW 6649   2.481   4.225   1.459
 1917SOL    HW1 6650   2.391   4.268   1.451
 1917SOL    HW2 6651   2.551   4.292   1.435
 1918SOL     OW 6652   5.477   2.490   3.803
 1918SOL    HW1 6653   5.508   2.541   3.883
 1918SOL    HW2 6654   5.383   2.516   3.782
 1919SOL     OW 6655   6.712   2.604   0.538
 1919SOL    HW1 6656   6.807   2.606   0.570
 1919SOL    HW2 6657   6.653   2.578   0.615
 1920SOL     OW 6658   4.822   3.008   0.913
 1920SOL    HW1 6659   4.908   2.997   0.865
 1920SOL    HW2 6660   4.808   3.104   0.937
 1921SOL     OW 6661   2.033   2.777   6.961
 1921SOL    HW1 6662   2.078   2.794   6.874
 1921SOL    HW2 6663   1.995   2.685   6.962
 1922SOL     OW 6664   3.223   2.981   2.355
 1922SOL    HW1 6665   3.315   2.998   2.391
 1922SOL    HW2 6666   3.230   2.933   2.267
 1923SOL     OW 6667   3.553   0.749   4.702
 1923SOL    HW1 6668   3.476   0.811   4.685
 1923SOL    HW2 6669   3.625   0.768   4.635
 1924SOL     OW 6670   4.497   0.668   6.703
 1924SOL    HW1 6671   4.437   0.588   6.707
 1924SOL    HW2 6672   4.444   0.751   6.724
 1925SOL     OW 6673   1.664   4.095   0.653
 1925SOL    HW1 6674   1.688   4.059   0.743
 1925SOL    HW2 6675   1.739   4.077   0.589
 1926SOL     OW 6676   3.859   0.257   1.607
 1926SOL    HW1 6677   3.953   0.279   1.633
 1926SOL    HW2 6678   3.850   0.263   1.507
 1927SOL     OW 6679   2.252   5.227   1.414
 1927SOL    HW1 6680   2.286   5.159   1.478
 1927SOL    HW2 6681   2.318   5.240   1.340
 1928SOL     OW 6682   5.236   4.720   3.577
 1928SOL    HW1 6683   5.204   4.626   3.577
 1928SOL    HW2 6684   5.191   4.771   3.504
 1929SOL     OW 6685   3.389   0.184   2.744
 1929SOL    HW1 6686   3.425   0.246   2.814
 1929SOL    HW2 6687   3.289   0.186   2.747
 1930SOL     OW 6688   4.252   3.312   6.779
 1930SOL    HW1 6689   4.304   3.397   6.770
 1930SOL    HW2 6690   4.238   3.271   6.689
 1931SOL     OW 6691   6.742   2.115   4.717
 1931SOL    HW1 6692   6.777   2.103   4.810
 1931SOL    HW2 6693   6.816   2.101   4.652
 1932SOL     OW 6694   4.287   2.041   2.000
 1932SOL    HW1 6695   4.233   2.120   1.972
 1932SOL    HW2 6696   4.238   1.957   1.977
 1933SOL     OW 6697   0.955   0.604   1.511
 1933SOL    HW1 6698   1.028   0.672   1.523
 1933SOL    HW2 6699   0.948   0.579   1.415
 1934SOL     OW 6700   6.983   0.680   0.077
 1934SOL    HW1 6701   6.945   0.588   0.090
 1934SOL    HW2 6702   0.039   0.694   0.140
 1935SOL     OW 6703   6.728   5.380   4.062
 1935SOL    HW1 6704   6.764   5.349   4.150
 1935SOL    HW2 6705   6.707   5.478   4.068
 1936SOL     OW 6706   4.752   2.624   5.837
 1936SOL    HW1 6707   4.755   2.605   5.935
 1936SOL    HW2 6708   4.662   2.597   5.801
 1937SOL     OW 6709   5.688   5.166   6.740
 1937SOL    HW1 6710   5.619   5.209   6.683
 1937SOL    HW2 6711   5.644   5.119   6.816
 1938SOL     OW 6712   6.832   2.945   6.735
 1938SOL    HW1 6713   6.785   3.016   6.787
 1938SOL    HW2 6714   6.921   2.926   6.777
 1939SOL     OW 6715   1.427   0.632   4.641
 1939SOL    HW1 6716   1.481   0.694   4.699
 1939SOL    HW2 6717   1.373   0.571   4.699
 1940SOL     OW 6718   6.771   5.148   0.654
 1940SOL    HW1 6719   6.870   5.139   0.659
 1940SOL    HW2 6720   6.742   5.228   0.707
 1941SOL     OW 6721   5.037   1.713   4.354
 1941SOL    HW1 6722   5.023   1.615   4.339
 1941SOL    HW2 6723   5.125   1.741   4.316
 1942SOL     OW 6724   6.205   4.112   2.767
 1942SOL    HW1 6725   6.126   4.054   2.749
 1942SOL    HW2 6726   6.282   4.055   2.797
 1943SOL     OW 6727   0.825   2.206   2.714
 1943SOL    HW1 6728   0.828   2.127   2.775
 1943SOL    HW2 6729   0.844   2.289   2.766
 1944SOL     OW 6730   0.142   2.948   3.789
 1944SOL    HW1 6731   0.073   2.992   3.732
 1944SOL    HW2 6732   0.098   2.902   3.866
 1945SOL     OW 6733   4.681   1.432   1.767
 1945SOL    HW1 6734   4.611   1.501   1.783
 1945SOL    HW2 6735   4.641   1.341   1.777
 1946SOL     OW 6736   6.770   5.574   1.101
 1946SOL    HW1 6737   6.737   5.483   1.126
 1946SOL    HW2 6738   6.861   5.588   1.139
 1947SOL     OW 6739   6.410   4.847   3.468
 1947SOL    HW1 6740   6.453   4.937   3.475
 1947SOL    HW2 6741   6.316   4.858   3.435
 1948SOL     OW 6742   5.389   3.325   3.116
 1948SOL    HW1 6743   5.421   3.258   3.049
 1948SOL    HW2 6744   5.372   3.412   3.070
 1949SOL     OW 6745   3.351   5.226   6.987
 1949SOL    HW1 6746   3.367   5.322   6.964
 1949SOL    HW2 6747   3.254   5.213   7.008
 1950SOL     OW 6748   3.339   3.761   3.166
 1950SOL    HW1 6749   3.432   3.799   3.166
 1950SOL    HW2 6750   3.273   3.835   3.175
 1951SOL     OW 6751   5.788   5.177   5.341
 1951SOL    HW1 6752   5.796   5.249   5.272
 1951SOL    HW2 6753   5.767   5.217   5.430
 1952SOL     OW 6754   5.972   5.412   0.543
 1952SOL    HW1 6755   5.913   5.449   0.471
 1952SOL    HW2 6756   6.066   5.442   0.528
 1953SOL     OW 6757   0.455   1.346   6.869
 1953SOL    HW1 6758   0.492   1.406   6.798
 1953SOL    HW2 6759   0.513   1.352   6.951
 1954SOL     OW 6760   3.924   0.097   1.931
 1954SOL    HW1 6761   3.868   0.020   1.900
 1954SOL    HW2 6762   3.960   0.078   2.022
 1955SOL     OW 6763   6.831   2.095   4.020
 1955SOL    HW1 6764   6.889   2.025   3.977
 1955SOL    HW2 6765   6.820   2.074   4.117
 1956SOL     OW 6766   5.799   0.521   1.799
 1956SOL    HW1 6767   5.713   0.472   1.815
 1956SOL    HW2 6768   5.835   0.555   1.886
 1957SOL     OW 6769   6.105   2.006   4.753
 1957SOL    HW1 6770   6.161   2.007   4.670
 1957SOL    HW2 6771   6.017   1.963   4.734
 1958SOL     OW 6772   4.285   1.456   0.702
 1958SOL    HW1 6773   4.196   1.495   0.679
 1958SOL    HW2 6774   4.318   1.400   0.625
 1959SOL     OW 6775   0.956   1.589   5.349
 1959SOL    HW1 6776   0.894   1.666   5.333
 1959SOL    HW2 6777   1.050   1.619   5.335
 1960SOL     OW 6778   5.775   4.153   4.170
 1960SOL    HW1 6779   5.771   4.098   4.087
 1960SOL    HW2 6780   5.860   4.134   4.219
 1961SOL     OW 6781   0.194   3.784   3.976
 1961SOL    HW1 6782   0.099   3.811   3.994
 1961SOL    HW2 6783   0.243   3.860   3.933
 1962SOL     OW 6784   1.050   0.489   2.687
 1962SOL    HW1 6785   1.133   0.541   2.669
 1962SOL    HW2 6786   1.042   0.472   2.786
 1963SOL     OW 6787   0.325   2.436   0.251
 1963SOL    HW1 6788   0.378   2.452   0.334
 1963SOL    HW2 6789   0.230   2.418   0.274
 1964SOL     OW 6790   5.750   3.846   0.594
 1964SOL    HW1 6791   5.711   3.886   0.511
 1964SOL    HW2 6792   5.678   3.794   0.642
 1965SOL     OW 6793   6.185   4.132   3.780
 1965SOL    HW1 6794   6.234   4.193   3.842
 1965SOL    HW2 6795   6.160   4.181   3.696
 1966SOL     OW 6796   1.177   4.706   0.022
 1966SOL    HW1 6797   1.275   4.688   0.028
 1966SOL    HW2 6798   1.156   4.793   0.066
 1967SOL     OW 6799   6.242   3.018   4.431
 1967SOL    HW1 6800   6.169   2.952   4.444
 1967SOL    HW2 6801   6.329   2.978   4.461
 1968SOL     OW 6802   2.756   1.563   4.977
 1968SOL    HW1 6803   2.703   1.545   5.060
 1968SOL    HW2 6804   2.769   1.478   4.926
 1969SOL     OW 6805   1.837   6.200   0.636
 1969SOL    HW1 6806   1.804   6.293   0.616
 1969SOL    HW2 6807   1.854   6.152   0.551
 1970SOL     OW 6808   5.902   5.542   4.453
 1970SOL    HW1 6809   5.814   5.496   4.458
 1970SOL    HW2 6810   5.920   5.590   4.539
 1971SOL     OW 6811   1.546   5.486   5.339
 1971SOL    HW1 6812   1.496   5.493   5.426
 1971SOL    HW2 6813   1.586   5.575   5.317
 1972SOL     OW 6814   5.765   2.793   2.247
 1972SOL    HW1 6815   5.784   2.775   2.151
 1972SOL    HW2 6816   5.850   2.817   2.294
 1973SOL     OW 6817   2.728   2.692   1.043
 1973SOL    HW1 6818   2.811   2.691   1.098
 1973SOL    HW2 6819   2.666   2.620   1.075
 1974SOL     OW 6820   2.562   5.454   5.163
 1974SOL    HW1 6821   2.474   5.436   5.118
 1974SOL    HW2 6822   2.619   5.510   5.104
 1975SOL     OW 6823   1.959   2.515   3.743
 1975SOL    HW1 6824   1.892   2.517   3.669
 1975SOL    HW2 6825   1.926   2.571   3.819
 1976SOL     OW 6826   0.936   0.402   5.494
 1976SOL    HW1 6827   1.014   0.447   5.452
 1976SOL    HW2 6828   0.852   0.429   5.446
 1977SOL     OW 6829   1.788   4.358   5.838
 1977SOL    HW1 6830   1.706   4.350   5.782
 1977SOL    HW2 6831   1.762   4.356   5.935
 1978SOL     OW 6832   2.956   0.192   1.866
 1978SOL    HW1 6833   2.894   0.189   1.788
 1978SOL    HW2 6834   3.043   0.148   1.842
 1979SOL     OW 6835   6.287   4.485   6.235
 1979SOL    HW1 6836   6.355   4.479   6.308
 1979SOL    HW2 6837   6.333   4.483   6.146
 1980SOL     OW 6838   3.582   1.163   1.019
 1980SOL    HW1 6839   3.526   1.135   0.941
 1980SOL    HW2 6840   3.525   1.172   1.100
 1981SOL     OW 6841   3.476   1.863   2.726
 1981SOL    HW1 6842   3.438   1.792   2.784
 1981SOL    HW2 6843   3.409   1.936   2.715
 1982SOL     OW 6844   0.906   3.099   5.450
 1982SOL    HW1 6845   0.896   3.143   5.361
 1982SOL    HW2 6846   0.894   3.166   5.523
 1983SOL     OW 6847   0.457   0.846   2.462
 1983SOL    HW1 6848   0.482   0.889   2.549
 1983SOL    HW2 6849   0.432   0.750   2.478
 1984SOL     OW 6850   4.265   3.360   5.603
 1984SOL    HW1 6851   4.292   3.342   5.509
 1984SOL    HW2 6852   4.344   3.394   5.655
 1985SOL     OW 6853   6.452   2.802   2.970
 1985SOL    HW1 6854   6.509   2.723   2.949
 1985SOL    HW2 6855   6.413   2.838   2.885
 1986SOL     OW 6856   3.547   2.780   2.066
 1986SOL    HW1 6857   3.572   2.751   1.973
 1986SOL    HW2 6858   3.603   2.730   2.132
 1987SOL     OW 6859   2.472   1.306   1.060
 1987SOL    HW1 6860   2.429   1.353   0.983
 1987SOL    HW2 6861   2.570   1.328   1.061
 1988SOL     OW 6862   0.322   2.241   1.743
 1988SOL    HW1 6863   0.272   2.223   1.659
 1988SOL    HW2 6864   0.419   2.221   1.729
 1989SOL     OW 6865   2.811   4.854   4.879
 1989SOL    HW1 6866   2.791   4.762   4.914
 1989SOL    HW2 6867   2.753   4.873   4.800
 1990SOL     OW 6868   4.081   0.168   0.126
 1990SOL    HW1 6869   4.045   0.077   0.102
 1990SOL    HW2 6870   4.140   0.159   0.206
 1991SOL     OW 6871   2.756   5.497   1.652
 1991SOL    HW1 6872   2.676   5.525   1.598
 1991SOL    HW2 6873   2.839   5.532   1.609
 1992SOL     OW 6874   1.063   6.655   2.701
 1992SOL    HW1 6875   1.109   6.736   2.663
 1992SOL    HW2 6876   1.072   6.579   2.637
 1993SOL     OW 6877   2.257   2.274   3.112
 1993SOL    HW1 6878   2.206   2.305   3.031
 1993SOL    HW2 6879   2.246   2.341   3.185
 1994SOL     OW 6880   3.575   2.747   0.979
 1994SOL    HW1 6881   3.495   2.800   1.008
 1994SOL    HW2 6882   3.558   2.710   0.888
 1995SOL     OW 6883   5.334   1.692   3.990
 1995SOL    HW1 6884   5.381   1.729   3.909
 1995SOL    HW2 6885   5.242   1.663   3.965
 1996SOL     OW 6886   4.438   0.418   1.173
 1996SOL    HW1 6887   4.461   0.355   1.247
 1996SOL    HW2 6888   4.435   0.368   1.087
 1997SOL     OW 6889   3.902   0.971   4.073
 1997SOL    HW1 6890   3.981   0.979   4.133
 1997SOL    HW2 6891   3.826   1.024   4.110
 1998SOL     OW 6892   2.014   3.696   1.668
 1998SOL    HW1 6893   2.046   3.615   1.618
 1998SOL    HW2 6894   1.998   3.673   1.764
 1999SOL     OW 6895   0.859   7.014   0.423
 1999SOL    HW1 6896   0.916   6.934   0.441
 1999SOL    HW2 6897   0.877   0.064   0.493
 2000SOL     OW 6898   4.363   4.625   5.957
 2000SOL    HW1 6899   4.445   4.674   5.925
 2000SOL    HW2 6900   4.300   4.613   5.880
 2001SOL     OW 6901   2.320   2.162   1.391
 2001SOL    HW1 6902   2.332   2.063   1.396
 2001SOL    HW2 6903   2.224   2.185   1.405
 2002SOL     OW 6904   6.870   5.660   0.396
 2002SOL    HW1 6905   6.898   5.570   0.361
 2002SOL    HW2 6906   6.908   5.673   0.488
 2003SOL     OW 6907   5.697   5.383   2.768
 2003SOL    HW1 6908   5.638   5.457   2.736
 2003SOL    HW2 6909   5.792   5.407   2.754
 2004SOL     OW 6910   4.004   6.974   3.289
 2004SOL    HW1 6911   4.006   0.027   3.357
 2004SOL    HW2 6912   4.063   6.999   3.212
 2005SOL     OW 6913   1.762   6.203   0.155
 2005SOL    HW1 6914   1.665   6.190   0.134
 2005SOL    HW2 6915   1.771   6.272   0.227
 2006SOL     OW 6916   5.493   6.444   2.063
 2006SOL    HW1 6917   5.404   6.416   2.028
 2006SOL    HW2 6918   5.510   6.400   2.151
 2007SOL     OW 6919   5.076   4.623   6.805
 2007SOL    HW1 6920   5.149   4.611   6.871
 2007SOL    HW2 6921   5.032   4.712   6.819
 2008SOL     OW 6922   2.126   3.134   3.544
 2008SOL    HW1 6923   2.144   3.217   3.491
 2008SOL    HW2 6924   2.115   3.056   3.483
 2009SOL     OW 6925   6.402   6.996   2.833
 2009SOL    HW1 6926   6.317   6.987   2.886
 2009SOL    HW2 6927   6.467   6.926   2.863
 2010SOL     OW 6928   6.937   2.001   1.776
 2010SOL    HW1 6929   6.954   1.969   1.682
 2010SOL    HW2 6930   6.884   1.932   1.825
 2011SOL     OW 6931   1.027   6.901   4.935
 2011SOL    HW1 6932   1.080   6.977   4.973
 2011SOL    HW2 6933   0.930   6.915   4.955
 2012SOL     OW 6934   1.055   3.031   1.548
 2012SOL    HW1 6935   1.082   3.077   1.633
 2012SOL    HW2 6936   1.137   3.011   1.494
 2013SOL     OW 6937   0.582   2.875   1.916
 2013SOL    HW1 6938   0.493   2.915   1.895
 2013SOL    HW2 6939   0.587   2.855   2.014
 2014SOL     OW 6940   3.955   0.801   4.880
 2014SOL    HW1 6941   3.993   0.878   4.932
 2014SOL    HW2 6942   3.858   0.817   4.863
 2015SOL     OW 6943   3.967   0.019   1.313
 2015SOL    HW1 6944   4.011   0.019   1.402
 2015SOL    HW2 6945   3.914   0.103   1.301
 2016SOL     OW 6946   2.062   0.806   4.615
 2016SOL    HW1 6947   2.156   0.823   4.586
 2016SOL    HW2 6948   2.027   0.724   4.570
 2017SOL     OW 6949   4.204   6.545   3.809
 2017SOL    HW1 6950   4.156   6.630   3.785
 2017SOL    HW2 6951   4.168   6.470   3.754
 2018SOL     OW 6952   1.469   0.515   4.335
 2018SOL    HW1 6953   1.441   0.461   4.414
 2018SOL    HW2 6954   1.416   0.486   4.255
 2019SOL     OW 6955   5.416   5.406   6.142
 2019SOL    HW1 6956   5.405   5.487   6.084
 2019SOL    HW2 6957   5.356   5.413   6.221
 2020SOL     OW 6958   1.891   6.374   6.911
 2020SOL    HW1 6959   1.821   6.343   6.846
 2020SOL    HW2 6960   1.973   6.318   6.900
 2021SOL     OW 6961   6.899   6.346   4.416
 2021SOL    HW1 6962   6.808   6.319   4.447
 2021SOL    HW2 6963   6.958   6.266   4.408
 2022SOL     OW 6964   1.759   3.355   4.100
 2022SOL    HW1 6965   1.711   3.269   4.082
 2022SOL    HW2 6966   1.857   3.340   4.098
 2023SOL     OW 6967   6.764   6.116   0.074
 2023SOL    HW1 6968   6.698   6.191   0.079
 2023SOL    HW2 6969   6.722   6.039   0.025
 2024SOL     OW 6970   0.531   5.979   3.825
 2024SOL    HW1 6971   0.543   5.942   3.733
 2024SOL    HW2 6972   0.619   6.011   3.860
 2025SOL     OW 6973   1.603   5.819   4.732
 2025SOL    HW1 6974   1.565   5.911   4.741
 2025SOL    HW2 6975   1.542   5.753   4.777
 2026SOL     OW 6976   0.523   0.401   6.035
 2026SOL    HW1 6977   0.492   0.395   6.130
 2026SOL    HW2 6978   0.463   0.463   5.984
 2027SOL     OW 6979   6.662   6.145   2.193
 2027SOL    HW1 6980   6.650   6.096   2.279
 2027SOL    HW2 6981   6.591   6.215   2.183
 2028SOL     OW 6982   3.178   5.156   4.868
 2028SOL    HW1 6983   3.114   5.123   4.799
 2028SOL    HW2 6984   3.128   5.205   4.939
 2029SOL     OW 6985   6.296   2.934   6.196
 2029SOL    HW1 6986   6.225   3.000   6.219
 2029SOL    HW2 6987   6.384   2.966   6.230
 2030SOL     OW 6988   2.638   6.643   2.339
 2030SOL    HW1 6989   2.675   6.582   2.408
 2030SOL    HW2 6990   2.650   6.738   2.368
 2031SOL     OW 6991   0.771   5.936   4.305
 2031SOL    HW1 6992   0.786   5.949   4.207
 2031SOL    HW2 6993   0.812   6.011   4.356
 2032SOL     OW 6994   2.381   2.931   5.715
 2032SOL    HW1 6995   2.419   3.001   5.775
 2032SOL    HW2 6996   2.382   2.964   5.621
 2033SOL     OW 6997   2.212   1.878   0.627
 2033SOL    HW1 6998   2.296   1.906   0.580
 2033SOL    HW2 6999   2.236   1.828   0.710
 2034SOL     OW 7000   0.484   4.395   5.194
 2034SOL    HW1 7001   0.468   4.321   5.259
 2034SOL    HW2 7002   0.522   4.358   5.109
 2035SOL     OW 7003   5.213   6.956   3.388
 2035SOL    HW1 7004   5.243   7.015   3.313
 2035SOL    HW2 7005   5.247   6.992   3.475
 2036SOL     OW 7006   0.491   4.894   6.543
 2036SOL    HW1 7007   0.480   4.840   6.460
 2036SOL    HW2 7008   0.442   4.981   6.533
 2037SOL     OW 7009   0.819   2.574   6.841
 2037SOL    HW1 7010   0.793   2.479   6.828
 2037SOL    HW2 7011   0.892   2.598   6.777
 2038SOL     OW 7012   0.748   0.907   6.336
 2038SOL    HW1 7013   0.790   0.984   6.286
 2038SOL    HW2 7014   0.783   0.906   6.430
 2039SOL     OW 7015   5.241   6.182   3.334
 2039SOL    HW1 7016   5.174   6.237   3.385
 2039SOL    HW2 7017   5.232   6.201   3.236
 2040SOL     OW 7018   2.438   2.189   0.496
 2040SOL    HW1 7019   2.457   2.265   0.434
 2040SOL    HW2 7020   2.396   2.223   0.580
 2041SOL     OW 7021   2.682   0.647   6.559
 2041SOL    HW1 7022   2.690   0.742   6.587
 2041SOL    HW2 7023   2.773   0.605   6.555
 2042SOL     OW 7024   6.138   1.045   5.812
 2042SOL    HW1 7025   6.081   1.094   5.747
 2042SOL    HW2 7026   6.234   1.053   5.784
 2043SOL     OW 7027   0.605   4.002   1.050
 2043SOL    HW1 7028   0.561   4.091   1.048
 2043SOL    HW2 7029   0.549   3.936   1.000
 2044SOL     OW 7030   4.014   0.662   1.442
 2044SOL    HW1 7031   3.990   0.569   1.416
 2044SOL    HW2 7032   4.106   0.684   1.408
 2045SOL     OW 7033   1.650   6.158   4.571
 2045SOL    HW1 7034   1.715   6.177   4.497
 2045SOL    HW2 7035   1.687   6.192   4.657
 2046SOL     OW 7036   0.759   2.906   5.275
 2046SOL    HW1 7037   0.811   2.944   5.199
 2046SOL    HW2 7038   0.726   2.981   5.333
 2047SOL     OW 7039   0.001   0.326   0.710
 2047SOL    HW1 7040   0.057   0.285   0.638
 2047SOL    HW2 7041   0.059   0.347   0.789
 2048SOL     OW 7042   1.392   1.948   3.697
 2048SOL    HW1 7043   1.438   1.860   3.710
 2048SOL    HW2 7044   1.453   2.011   3.650
 2049SOL     OW 7045   4.712   2.544   5.169
 2049SOL    HW1 7046   4.787   2.485   5.143
 2049SOL    HW2 7047   4.633   2.527   5.109
 2050SOL     OW 7048   1.106   0.968   3.748
 2050SOL    HW1 7049   1.012   0.991   3.772
 2050SOL    HW2 7050   1.133   1.018   3.665
 2051SOL     OW 7051   2.751   6.213   0.466
 2051SOL    HW1 7052   2.795   6.301   0.482
 2051SOL    HW2 7053   2.656   6.217   0.498
 2052SOL     OW 7054   1.010   4.165   0.586
 2052SOL    HW1 7055   1.035   4.098   0.656
 2052SOL    HW2 7056   0.912   4.160   0.568
 2053SOL     OW 7057   6.501   5.569   2.744
 2053SOL    HW1 7058   6.539   5.584   2.653
 2053SOL    HW2 7059   6.570   5.590   2.813
 2054SOL     OW 7060   2.898   3.724   2.695
 2054SOL    HW1 7061   2.875   3.768   2.607
 2054SOL    HW2 7062   2.863   3.631   2.695
 2055SOL     OW 7063   3.829   2.744   5.393
 2055SOL    HW1 7064   3.904   2.806   5.419
 2055SOL    HW2 7065   3.813   2.679   5.468
 2056SOL     OW 7066   3.356   4.959   1.384
 2056SOL    HW1 7067   3.403   4.925   1.303
 2056SOL    HW2 7068   3.261   4.927   1.385
 2057SOL     OW 7069   5.290   3.030   3.847
 2057SOL    HW1 7070   5.291   3.007   3.944
 2057SOL    HW2 7071   5.378   3.071   3.821
 2058SOL     OW 7072   6.435   6.961   3.717
 2058SOL    HW1 7073   6.507   0.008   3.735
 2058SOL    HW2 7074   6.473   6.882   3.669
 2059SOL     OW 7075   1.781   1.353   5.364
 2059SOL    HW1 7076   1.879   1.358   5.350
 2059SOL    HW2 7077   1.736   1.324   5.279
 2060SOL     OW 7078   1.756   2.879   6.800
 2060SOL    HW1 7079   1.795   2.798   6.844
 2060SOL    HW2 7080   1.705   2.932   6.867
 2061SOL     OW 7081   1.549   2.431   2.732
 2061SOL    HW1 7082   1.513   2.356   2.787
 2061SOL    HW2 7083   1.626   2.399   2.676
 2062SOL     OW 7084   6.572   5.065   4.362
 2062SOL    HW1 7085   6.656   5.113   4.336
 2062SOL    HW2 7086   6.493   5.110   4.318
 2063SOL     OW 7087   0.678   1.790   4.138
 2063SOL    HW1 7088   0.618   1.724   4.092
 2063SOL    HW2 7089   0.682   1.875   4.086
 2064SOL     OW 7090   0.612   3.161   4.146
 2064SOL    HW1 7091   0.602   3.097   4.070
 2064SOL    HW2 7092   0.655   3.245   4.114
 2065SOL     OW 7093   3.967   3.665   5.757
 2065SOL    HW1 7094   3.889   3.700   5.706
 2065SOL    HW2 7095   3.976   3.567   5.740
 2066SOL     OW 7096   1.199   3.371   5.329
 2066SOL    HW1 7097   1.197   3.340   5.424
 2066SOL    HW2 7098   1.272   3.323   5.280
 2067SOL     OW 7099   6.370   4.731   1.692
 2067SOL    HW1 7100   6.299   4.720   1.761
 2067SOL    HW2 7101   6.456   4.694   1.726
 2068SOL     OW 7102   4.165   0.861   4.710
 2068SOL    HW1 7103   4.097   0.820   4.772
 2068SOL    HW2 7104   4.130   0.858   4.617
 2069SOL     OW 7105   0.121   1.195   3.619
 2069SOL    HW1 7106   0.048   1.198   3.550
 2069SOL    HW2 7107   0.210   1.201   3.574
 2070SOL     OW 7108   1.196   4.988   1.354
 2070SOL    HW1 7109   1.269   4.982   1.422
 2070SOL    HW2 7110   1.235   4.986   1.262
 2071SOL     OW 7111   0.341   2.010   5.761
 2071SOL    HW1 7112   0.363   2.074   5.687
 2071SOL    HW2 7113   0.259   2.042   5.808
 2072SOL     OW 7114   5.439   4.336   5.771
 2072SOL    HW1 7115   5.340   4.344   5.783
 2072SOL    HW2 7116   5.462   4.338   5.674
 2073SOL     OW 7117   3.602   5.883   6.828
 2073SOL    HW1 7118   3.686   5.883   6.882
 2073SOL    HW2 7119   3.542   5.956   6.861
 2074SOL     OW 7120   1.962   4.551   5.911
 2074SOL    HW1 7121   1.862   4.544   5.908
 2074SOL    HW2 7122   2.000   4.475   5.962
 2075SOL     OW 7123   5.871   2.805   1.234
 2075SOL    HW1 7124   5.804   2.753   1.181
 2075SOL    HW2 7125   5.961   2.761   1.226
 2076SOL     OW 7126   6.309   6.782   4.714
 2076SOL    HW1 7127   6.269   6.788   4.622
 2076SOL    HW2 7128   6.289   6.692   4.753
 2077SOL     OW 7129   6.456   4.743   0.764
 2077SOL    HW1 7130   6.487   4.741   0.859
 2077SOL    HW2 7131   6.467   4.835   0.727
 2078SOL     OW 7132   0.696   3.553   5.734
 2078SOL    HW1 7133   0.725   3.539   5.829
 2078SOL    HW2 7134   0.618   3.494   5.714
 2079SOL     OW 7135   5.383   0.830   2.613
 2079SOL    HW1 7136   5.347   0.923   2.602
 2079SOL    HW2 7137   5.481   0.834   2.630
 2080SOL     OW 7138   2.445   3.526   6.403
 2080SOL    HW1 7139   2.370   3.531   6.337
 2080SOL    HW2 7140   2.527   3.568   6.364
 2081SOL     OW 7141   6.056   5.996   1.810
 2081SOL    HW1 7142   5.991   5.920   1.823
 2081SOL    HW2 7143   6.038   6.039   1.722
 2082SOL     OW 7144   6.739   6.039   4.402
 2082SOL    HW1 7145   6.691   6.118   4.442
 2082SOL    HW2 7146   6.743   5.965   4.469
 2083SOL     OW 7147   0.243   6.554   4.013
 2083SOL    HW1 7148   0.233   6.543   4.111
 2083SOL    HW2 7149   0.310   6.627   3.994
 2084SOL     OW 7150   6.785   2.119   0.984
 2084SOL    HW1 7151   6.767   2.070   1.070
 2084SOL    HW2 7152   6.782   2.055   0.908
 2085SOL     OW 7153   6.304   6.052   0.715
 2085SOL    HW1 7154   6.237   5.983   0.742
 2085SOL    HW2 7155   6.317   6.116   0.791
 2086SOL     OW 7156   4.756   1.162   0.219
 2086SOL    HW1 7157   4.681   1.229   0.224
 2086SOL    HW2 7158   4.718   1.070   0.231
 2087SOL     OW 7159   4.007   1.683   6.766
 2087SOL    HW1 7160   4.039   1.720   6.854
 2087SOL    HW2 7161   3.966   1.756   6.712
 2088SOL     OW 7162   0.628   4.928   5.573
 2088SOL    HW1 7163   0.614   4.942   5.671
 2088SOL    HW2 7164   0.669   4.838   5.557
 2089SOL     OW 7165   2.246   3.582   6.165
 2089SOL    HW1 7166   2.159   3.605   6.209
 2089SOL    HW2 7167   2.245   3.486   6.137
 2090SOL     OW 7168   5.055   3.040   5.989
 2090SOL    HW1 7169   5.076   3.072   6.082
 2090SOL    HW2 7170   5.078   3.112   5.923
 2091SOL     OW 7171   5.518   6.198   0.728
 2091SOL    HW1 7172   5.440   6.138   0.706
 2091SOL    HW2 7173   5.587   6.191   0.657
 2092SOL     OW 7174   3.704   3.765   2.004
 2092SOL    HW1 7175   3.739   3.833   2.069
 2092SOL    HW2 7176   3.747   3.778   1.915
 2093SOL     OW 7177   4.379   1.131   1.397
 2093SOL    HW1 7178   4.358   1.098   1.489
 2093SOL    HW2 7179   4.348   1.064   1.329
 2094SOL     OW 7180   5.329   2.164   6.739
 2094SOL    HW1 7181   5.417   2.118   6.753
 2094SOL    HW2 7182   5.280   2.120   6.664
 2095SOL     OW 7183   5.619   5.531   3.892
 2095SOL    HW1 7184   5.712   5.567   3.883
 2095SOL    HW2 7185   5.553   5.606   3.881
 2096SOL     OW 7186   3.887   6.439   1.485
 2096SOL    HW1 7187   3.850   6.427   1.393
 2096SOL    HW2 7188   3.830   6.389   1.551
 2097SOL     OW 7189   0.755   5.938   5.717
 2097SOL    HW1 7190   0.722   5.844   5.705
 2097SOL    HW2 7191   0.831   5.938   5.782
 2098SOL     OW 7192   3.340   6.484   3.739
 2098SOL    HW1 7193   3.357   6.409   3.676
 2098SOL    HW2 7194   3.427   6.530   3.760
 2099SOL     OW 7195   4.646   2.099   6.847
 2099SOL    HW1 7196   4.682   2.147   6.767
 2099SOL    HW2 7197   4.603   2.165   6.909
 2100SOL     OW 7198   4.991   0.284   0.826
 2100SOL    HW1 7199   4.981   0.365   0.884
 2100SOL    HW2 7200   5.007   0.204   0.883
 2101SOL     OW 7201   1.179   0.299   2.975
 2101SOL    HW1 7202   1.248   0.291   2.903
 2101SOL    HW2 7203   1.210   0.250   3.056
 2102SOL     OW 7204   3.962   2.319   1.209
 2102SOL    HW1 7205   4.019   2.240   1.183
 2102SOL    HW2 7206   3.867   2.302   1.183
 2103SOL     OW 7207   2.080   6.267   0.777
 2103SOL    HW1 7208   2.151   6.203   0.745
 2103SOL    HW2 7209   1.995   6.250   0.727
 2104SOL     OW 7210   1.808   3.581   3.436
 2104SOL    HW1 7211   1.818   3.493   3.482
 2104SOL    HW2 7212   1.890   3.637   3.454
 2105SOL     OW 7213   5.874   0.210   5.041
 2105SOL    HW1 7214   5.967   0.210   5.077
 2105SOL    HW2 7215   5.863   0.133   4.978
 2106SOL     OW 7216   4.282   3.222   1.397
 2106SOL    HW1 7217   4.224   3.167   1.336
 2106SOL    HW2 7218   4.376   3.221   1.363
 2107SOL     OW 7219   5.257   4.956   5.022
 2107SOL    HW1 7220   5.243   4.862   4.989
 2107SOL    HW2 7221   5.169   4.994   5.052
 2108SOL     OW 7222   4.978   0.119   4.709
 2108SOL    HW1 7223   4.898   0.061   4.726
 2108SOL    HW2 7224   5.052   0.064   4.671
 2109SOL     OW 7225   3.146   6.457   2.156
 2109SOL    HW1 7226   3.149   6.394   2.079
 2109SOL    HW2 7227   3.081   6.531   2.136
 2110SOL     OW 7228   3.592   6.142   0.009
 2110SOL    HW1 7229   3.574   6.153   6.930
 2110SOL    HW2 7230   3.689   6.159   0.027
 2111SOL     OW 7231   1.153   2.594   5.850
 2111SOL    HW1 7232   1.222   2.596   5.778
 2111SOL    HW2 7233   1.082   2.662   5.831
 2112SOL     OW 7234   1.128   0.159   6.911
 2112SOL    HW1 7235   1.141   0.256   6.929
 2112SOL    HW2 7236   1.141   0.141   6.813
 2113SOL     OW 7237   6.690   1.612   4.561
 2113SOL    HW1 7238   6.778   1.612   4.515
 2113SOL    HW2 7239   6.703   1.627   4.659
 2114SOL     OW 7240   1.941   1.448   5.701
 2114SOL    HW1 7241   1.864   1.393   5.733
 2114SOL    HW2 7242   2.027   1.401   5.719
 2115SOL     OW 7243   6.517   5.716   3.552
 2115SOL    HW1 7244   6.591   5.651   3.537
 2115SOL    HW2 7245   6.552   5.794   3.604
 2116SOL     OW 7246   1.896   1.696   6.937
 2116SOL    HW1 7247   1.896   1.659   6.844
 2116SOL    HW2 7248   1.872   1.793   6.934
 2117SOL     OW 7249   6.920   1.684   2.650
 2117SOL    HW1 7250   6.876   1.750   2.711
 2117SOL    HW2 7251   7.019   1.697   2.652
 2118SOL     OW 7252   0.036   1.951   2.393
 2118SOL    HW1 7253   0.097   1.896   2.449
 2118SOL    HW2 7254   6.968   1.904   2.381
 2119SOL     OW 7255   0.650   2.517   0.701
 2119SOL    HW1 7256   0.560   2.532   0.743
 2119SOL    HW2 7257   0.673   2.594   0.643
 2120SOL     OW 7258   5.628   1.865   0.423
 2120SOL    HW1 7259   5.661   1.958   0.437
 2120SOL    HW2 7260   5.557   1.865   0.352
 2121SOL     OW 7261   1.699   6.858   0.717
 2121SOL    HW1 7262   1.650   6.887   0.634
 2121SOL    HW2 7263   1.770   6.792   0.692
 2122SOL     OW 7264   6.391   0.597   4.793
 2122SOL    HW1 7265   6.306   0.649   4.785
 2122SOL    HW2 7266   6.445   0.632   4.869
 2123SOL     OW 7267   1.550   5.340   3.075
 2123SOL    HW1 7268   1.489   5.265   3.048
 2123SOL    HW2 7269   1.618   5.353   3.003
 2124SOL     OW 7270   4.409   3.680   6.625
 2124SOL    HW1 7271   4.405   3.768   6.577
 2124SOL    HW2 7272   4.505   3.655   6.640
 2125SOL     OW 7273   1.874   5.832   4.389
 2125SOL    HW1 7274   1.912   5.740   4.398
 2125SOL    HW2 7275   1.775   5.827   4.391
 2126SOL     OW 7276   2.691   3.727   6.929
 2126SOL    HW1 7277   2.607   3.713   6.983
 2126SOL    HW2 7278   2.727   3.638   6.900
 2127SOL     OW 7279   0.904   3.325   4.206
 2127SOL    HW1 7280   0.976   3.344   4.139
 2127SOL    HW2 7281   0.945   3.297   4.293
 2128SOL     OW 7282   5.179   2.879   2.044
 2128SOL    HW1 7283   5.103   2.917   2.097
 2128SOL    HW2 7284   5.143   2.810   1.981
 2129SOL     OW 7285   4.940   4.952   4.384
 2129SOL    HW1 7286   4.947   5.026   4.450
 2129SOL    HW2 7287   4.984   4.870   4.421
 2130SOL     OW 7288   2.325   1.075   1.099
 2130SOL    HW1 7289   2.374   1.160   1.083
 2130SOL    HW2 7290   2.253   1.090   1.166
 2131SOL     OW 7291   5.518   0.570   5.750
 2131SOL    HW1 7292   5.606   0.594   5.791
 2131SOL    HW2 7293   5.530   0.550   5.653
 2132SOL     OW 7294   2.625   2.547   7.019
 2132SOL    HW1 7295   2.704   2.591   6.976
 2132SOL    HW2 7296   2.563   2.513   6.948
 2133SOL     OW 7297   3.726   2.208   1.069
 2133SOL    HW1 7298   3.660   2.164   1.130
 2133SOL    HW2 7299   3.796   2.141   1.043
 2134SOL     OW 7300   2.127   6.421   5.385
 2134SOL    HW1 7301   2.095   6.366   5.462
 2134SOL    HW2 7302   2.051   6.476   5.350
 2135SOL     OW 7303   1.151   5.850   3.676
 2135SOL    HW1 7304   1.138   5.874   3.579
 2135SOL    HW2 7305   1.247   5.828   3.692
 2136SOL     OW 7306   1.466   5.016   3.678
 2136SOL    HW1 7307   1.497   5.104   3.641
 2136SOL    HW2 7308   1.544   4.966   3.715
 2137SOL     OW 7309   0.998   1.267   4.690
 2137SOL    HW1 7310   0.970   1.279   4.785
 2137SOL    HW2 7311   1.093   1.295   4.679
 2138SOL     OW 7312   0.922   2.753   5.778
 2138SOL    HW1 7313   0.942   2.846   5.808
 2138SOL    HW2 7314   0.931   2.748   5.678
 2139SOL     OW 7315   2.852   0.135   4.530
 2139SOL    HW1 7316   2.922   0.072   4.496
 2139SOL    HW2 7317   2.769   0.084   4.552
 2140SOL     OW 7318   1.666   5.841   3.351
 2140SOL    HW1 7319   1.717   5.927   3.343
 2140SOL    HW2 7320   1.568   5.861   3.357
 2141SOL     OW 7321   6.864   1.486   0.053
 2141SOL    HW1 7322   6.930   1.531   0.113
 2141SOL    HW2 7323   6.772   1.521   0.071
 2142SOL     OW 7324   3.228   1.118   3.666
 2142SOL    HW1 7325   3.212   1.187   3.737
 2142SOL    HW2 7326   3.142   1.071   3.645
 2143SOL     OW 7327   4.325   6.207   0.132
 2143SOL    HW1 7328   4.335   6.301   0.164
 2143SOL    HW2 7329   4.405   6.154   0.158
 2144SOL     OW 7330   0.486   0.611   2.037
 2144SOL    HW1 7331   0.565   0.556   2.066
 2144SOL    HW2 7332   0.481   0.693   2.093
 2145SOL     OW 7333   3.482   5.705   2.514
 2145SOL    HW1 7334   3.569   5.739   2.549
 2145SOL    HW2 7335   3.419   5.688   2.590
 2146SOL     OW 7336   2.991   2.230   0.723
 2146SOL    HW1 7337   3.045   2.288   0.663
 2146SOL    HW2 7338   3.042   2.146   0.744
 2147SOL     OW 7339   0.288   0.627   5.269
 2147SOL    HW1 7340   0.298   0.600   5.174
 2147SOL    HW2 7341   0.255   0.550   5.323
 2148SOL     OW 7342   5.538   3.465   3.371
 2148SOL    HW1 7343   5.515   3.394   3.304
 2148SOL    HW2 7344   5.459   3.480   3.431
 2149SOL     OW 7345   3.433   0.331   2.495
 2149SOL    HW1 7346   3.431   0.296   2.588
 2149SOL    HW2 7347   3.369   0.407   2.486
 2150SOL     OW 7348   4.141   0.606   2.772
 2150SOL    HW1 7349   4.179   0.617   2.680
 2150SOL    HW2 7350   4.130   0.696   2.814
 2151SOL     OW 7351   3.333   3.742   5.514
 2151SOL    HW1 7352   3.295   3.665   5.462
 2151SOL    HW2 7353   3.419   3.715   5.556
 2152SOL     OW 7354   6.256   6.330   1.997
 2152SOL    HW1 7355   6.178   6.268   1.996
 2152SOL    HW2 7356   6.224   6.424   2.004
 2153SOL     OW 7357   4.909   2.281   2.900
 2153SOL    HW1 7358   4.921   2.368   2.946
 2153SOL    HW2 7359   4.922   2.293   2.802
 2154SOL     OW 7360   4.065   6.300   5.235
 2154SOL    HW1 7361   4.104   6.324   5.146
 2154SOL    HW2 7362   4.001   6.224   5.224
 2155SOL     OW 7363   5.669   3.835   6.450
 2155SOL    HW1 7364   5.760   3.796   6.459
 2155SOL    HW2 7365   5.674   3.935   6.459
 2156SOL     OW 7366   0.456   1.028   1.264
 2156SOL    HW1 7367   0.540   0.989   1.302
 2156SOL    HW2 7368   0.379   1.003   1.321
 2157SOL     OW 7369   6.443   1.233   4.042
 2157SOL    HW1 7370   6.349   1.217   4.072
 2157SOL    HW2 7371   6.505   1.217   4.118
 2158SOL     OW 7372   4.602   6.623   2.992
 2158SOL    HW1 7373   4.690   6.671   2.998
 2158SOL    HW2 7374   4.617   6.525   2.996
 2159SOL     OW 7375   2.592   6.944   5.341
 2159SOL    HW1 7376   2.673   6.985   5.299
 2159SOL    HW2 7377   2.510   6.995   5.312
 2160SOL     OW 7378   2.812   2.920   0.781
 2160SOL    HW1 7379   2.878   2.958   0.717
 2160SOL    HW2 7380   2.723   2.908   0.736
 2161SOL     OW 7381   5.188   2.350   3.395
 2161SOL    HW1 7382   5.254   2.306   3.455
 2161SOL    HW2 7383   5.098   2.308   3.407
 2162SOL     OW 7384   1.514   1.366   0.809
 2162SOL    HW1 7385   1.575   1.347   0.732
 2162SOL    HW2 7386   1.420   1.374   0.776
 2163SOL     OW 7387   2.276   1.671   1.157
 2163SOL    HW1 7388   2.235   1.580   1.168
 2163SOL    HW2 7389   2.213   1.741   1.190
 2164SOL     OW 7390   6.995   0.322   1.338
 2164SOL    HW1 7391   0.041   0.359   1.404
 2164SOL    HW2 7392   0.023   0.258   1.278
 2165SOL     OW 7393   3.034   6.660   1.204
 2165SOL    HW1 7394   2.939   6.679   1.229
 2165SOL    HW2 7395   3.046   6.675   1.106
 2166SOL     OW 7396   5.976   2.691   6.327
 2166SOL    HW1 7397   5.971   2.733   6.418
 2166SOL    HW2 7398   6.047   2.620   6.327
 2167SOL     OW 7399   2.752   1.060   1.688
 2167SOL    HW1 7400   2.722   1.155   1.699
 2167SOL    HW2 7401   2.672   1.000   1.690
 2168SOL     OW 7402   5.648   6.370   4.668
 2168SOL    HW1 7403   5.657   6.422   4.583
 2168SOL    HW2 7404   5.553   6.339   4.678
 2169SOL     OW 7405   6.774   1.566   5.613
 2169SOL    HW1 7406   6.787   1.518   5.700
 2169SOL    HW2 7407   6.683   1.546   5.576
 2170SOL     OW 7408   5.459   4.291   4.418
 2170SOL    HW1 7409   5.421   4.317   4.329
 2170SOL    HW2 7410   5.387   4.295   4.487
 2171SOL     OW 7411   6.837   3.482   0.314
 2171SOL    HW1 7412   6.814   3.407   0.376
 2171SOL    HW2 7413   6.831   3.449   0.219
 2172SOL     OW 7414   2.855   0.163   1.128
 2172SOL    HW1 7415   2.807   0.205   1.050
 2172SOL    HW2 7416   2.943   0.128   1.097
 2173SOL     OW 7417   4.787   2.081   4.859
 2173SOL    HW1 7418   4.844   2.119   4.786
 2173SOL    HW2 7419   4.807   1.984   4.870
 2174SOL     OW 7420   1.154   5.255   5.146
 2174SOL    HW1 7421   1.121   5.290   5.058
 2174SOL    HW2 7422   1.210   5.173   5.130
 2175SOL     OW 7423   1.628   6.157   5.961
 2175SOL    HW1 7424   1.556   6.088   5.959
 2175SOL    HW2 7425   1.595   6.241   5.917
 2176SOL     OW 7426   1.595   2.674   2.317
 2176SOL    HW1 7427   1.582   2.727   2.401
 2176SOL    HW2 7428   1.506   2.648   2.281
 2177SOL     OW 7429   0.237   1.926   2.161
 2177SOL    HW1 7430   0.314   1.960   2.107
 2177SOL    HW2 7431   0.162   1.992   2.157
 2178SOL     OW 7432   6.975   5.888   1.209
 2178SOL    HW1 7433   6.993   5.967   1.150
 2178SOL    HW2 7434   6.977   5.804   1.155
 2179SOL     OW 7435   1.278   3.717   3.932
 2179SOL    HW1 7436   1.338   3.692   3.856
 2179SOL    HW2 7437   1.185   3.731   3.897
 2180SOL     OW 7438   3.795   2.837   1.582
 2180SOL    HW1 7439   3.798   2.916   1.521
 2180SOL    HW2 7440   3.866   2.845   1.652
 2181SOL     OW 7441   4.027   6.714   1.265
 2181SOL    HW1 7442   3.977   6.794   1.232
 2181SOL    HW2 7443   4.089   6.741   1.338
 2182SOL     OW 7444   5.808   2.072   0.431
 2182SOL    HW1 7445   5.860   2.134   0.372
 2182SOL    HW2 7446   5.834   2.086   0.526
 2183SOL     OW 7447   2.778   2.898   0.089
 2183SOL    HW1 7448   2.685   2.922   0.061
 2183SOL    HW2 7449   2.816   2.829   0.027
 2184SOL     OW 7450   4.464   3.266   6.226
 2184SOL    HW1 7451   4.445   3.364   6.218
 2184SOL    HW2 7452   4.482   3.229   6.135
 2185SOL     OW 7453   0.286   6.989   2.056
 2185SOL    HW1 7454   0.224   6.981   2.134
 2185SOL    HW2 7455   0.284   6.904   2.003
 2186SOL     OW 7456   0.336   4.684   3.164
 2186SOL    HW1 7457   0.406   4.630   3.211
 2186SOL    HW2 7458   0.262   4.623   3.135
 2187SOL     OW 7459   6.344   1.402   6.502
 2187SOL    HW1 7460   6.398   1.427   6.421
 2187SOL    HW2 7461   6.406   1.383   6.579
 2188SOL     OW 7462   5.074   1.197   3.221
 2188SOL    HW1 7463   5.075   1.097   3.220
 2188SOL    HW2 7464   5.132   1.231   3.147
 2189SOL     OW 7465   2.709   0.333   6.767
 2189SOL    HW1 7466   2.758   0.247   6.757
 2189SOL    HW2 7467   2.650   0.348   6.688
 2190SOL     OW 7468   4.932   2.391   0.778
 2190SOL    HW1 7469   4.956   2.295   0.794
 2190SOL    HW2 7470   4.842   2.396   0.734
 2191SOL     OW 7471   2.597   2.019   6.851
 2191SOL    HW1 7472   2.521   2.059   6.800
 2191SOL    HW2 7473   2.629   2.083   6.921
 2192SOL     OW 7474   3.847   5.171   2.911
 2192SOL    HW1 7475   3.927   5.225   2.883
 2192SOL    HW2 7476   3.830   5.101   2.842
 2193SOL     OW 7477   6.830   5.993   5.043
 2193SOL    HW1 7478   6.788   6.002   4.953
 2193SOL    HW2 7479   6.900   6.063   5.056
 2194SOL     OW 7480   3.065   0.245   1.326
 2194SOL    HW1 7481   3.107   0.258   1.416
 2194SOL    HW2 7482   2.969   0.272   1.330
 2195SOL     OW 7483   1.018   4.998   2.247
 2195SOL    HW1 7484   1.008   4.936   2.169
 2195SOL    HW2 7485   1.043   4.946   2.328
 2196SOL     OW 7486   4.452   2.833   0.229
 2196SOL    HW1 7487   4.550   2.847   0.239
 2196SOL    HW2 7488   4.405   2.865   0.311
 2197SOL     OW 7489   4.585   4.138   6.873
 2197SOL    HW1 7490   4.661   4.187   6.831
 2197SOL    HW2 7491   4.576   4.166   6.968
 2198SOL     OW 7492   6.274   4.206   0.366
 2198SOL    HW1 7493   6.229   4.277   0.420
 2198SOL    HW2 7494   6.227   4.119   0.381
 2199SOL     OW 7495   4.150   0.875   2.811
 2199SOL    HW1 7496   4.231   0.867   2.869
 2199SOL    HW2 7497   4.162   0.949   2.746
 2200SOL     OW 7498   2.391   6.764   3.976
 2200SOL    HW1 7499   2.436   6.725   3.896
 2200SOL    HW2 7500   2.405   6.863   3.978
 2201SOL     OW 7501   4.705   4.128   4.209
 2201SOL    HW1 7502   4.636   4.134   4.136
 2201SOL    HW2 7503   4.700   4.209   4.266
 2202SOL     OW 7504   5.078   6.036   3.980
 2202SOL    HW1 7505   5.159   6.057   3.926
 2202SOL    HW2 7506   5.095   5.954   4.036
 2203SOL     OW 7507   2.916   1.923   2.929
 2203SOL    HW1 7508   2.912   1.908   2.830
 2203SOL    HW2 7509   2.908   2.021   2.948
 2204SOL     OW 7510   2.605   3.099   1.034
 2204SOL    HW1 7511   2.608   3.000   1.019
 2204SOL    HW2 7512   2.537   3.140   0.973
 2205SOL     OW 7513   2.547   1.020   1.939
 2205SOL    HW1 7514   2.507   1.112   1.942
 2205SOL    HW2 7515   2.639   1.022   1.976
 2206SOL     OW 7516   2.004   3.136   0.209
 2206SOL    HW1 7517   1.997   3.037   0.197
 2206SOL    HW2 7518   2.088   3.157   0.259
 2207SOL     OW 7519   0.617   4.629   4.987
 2207SOL    HW1 7520   0.545   4.639   5.057
 2207SOL    HW2 7521   0.686   4.564   5.020
 2208SOL     OW 7522   6.619   4.703   2.292
 2208SOL    HW1 7523   6.533   4.667   2.328
 2208SOL    HW2 7524   6.602   4.794   2.253
 2209SOL     OW 7525   0.942   6.925   1.968
 2209SOL    HW1 7526   0.904   7.000   1.913
 2209SOL    HW2 7527   1.032   6.900   1.932
 2210SOL     OW 7528   2.307   5.209   3.557
 2210SOL    HW1 7529   2.210   5.207   3.531
 2210SOL    HW2 7530   2.359   5.152   3.494
 2211SOL     OW 7531   0.074   2.047   5.288
 2211SOL    HW1 7532   0.087   2.028   5.385
 2211SOL    HW2 7533   6.998   2.071   5.271
 2212SOL     OW 7534   2.162   0.144   6.455
 2212SOL    HW1 7535   2.069   0.137   6.419
 2212SOL    HW2 7536   2.227   0.108   6.388
 2213SOL     OW 7537   3.722   0.622   3.033
 2213SOL    HW1 7538   3.778   0.540   3.048
 2213SOL    HW2 7539   3.778   0.694   2.993
 2214SOL     OW 7540   4.470   7.001   5.005
 2214SOL    HW1 7541   4.439   0.076   4.993
 2214SOL    HW2 7542   4.508   6.990   5.096
 2215SOL     OW 7543   5.748   2.371   5.847
 2215SOL    HW1 7544   5.752   2.291   5.787
 2215SOL    HW2 7545   5.839   2.410   5.856
 2216SOL     OW 7546   2.899   0.785   2.380
 2216SOL    HW1 7547   2.989   0.755   2.413
 2216SOL    HW2 7548   2.898   0.784   2.280
 2217SOL     OW 7549   4.074   0.871   1.734
 2217SOL    HW1 7550   3.984   0.913   1.729
 2217SOL    HW2 7551   4.121   0.883   1.646
 2218SOL     OW 7552   1.828   0.036   2.981
 2218SOL    HW1 7553   1.895   0.006   2.913
 2218SOL    HW2 7554   1.854   0.125   3.017
 2219SOL     OW 7555   1.394   2.560   2.562
 2219SOL    HW1 7556   1.455   2.504   2.618
 2219SOL    HW2 7557   1.441   2.584   2.477
 2220SOL     OW 7558   0.515   0.053   2.212
 2220SOL    HW1 7559   0.445   0.014   2.151
 2220SOL    HW2 7560   0.586   7.004   2.228
 2221SOL     OW 7561   0.641   1.174   6.476
 2221SOL    HW1 7562   0.643   1.248   6.408
 2221SOL    HW2 7563   0.718   1.112   6.459
 2222SOL     OW 7564   6.392   6.176   3.152
 2222SOL    HW1 7565   6.391   6.184   3.053
 2222SOL    HW2 7566   6.353   6.087   3.179
 2223SOL     OW 7567   6.295   5.964   1.662
 2223SOL    HW1 7568   6.264   5.873   1.634
 2223SOL    HW2 7569   6.227   6.005   1.722
 2224SOL     OW 7570   0.833   4.631   1.893
 2224SOL    HW1 7571   0.878   4.575   1.963
 2224SOL    HW2 7572   0.848   4.591   1.803
 2225SOL     OW 7573   0.200   4.244   1.250
 2225SOL    HW1 7574   0.139   4.165   1.245
 2225SOL    HW2 7575   0.172   4.303   1.326
 2226SOL     OW 7576   4.007   3.957   1.947
 2226SOL    HW1 7577   4.076   3.896   1.984
 2226SOL    HW2 7578   3.942   3.982   2.019
 2227SOL     OW 7579   1.035   2.740   4.662
 2227SOL    HW1 7580   0.995   2.824   4.698
 2227SOL    HW2 7581   1.087   2.695   4.734
 2228SOL     OW 7582   3.297   4.920   4.602
 2228SOL    HW1 7583   3.213   4.955   4.643
 2228SOL    HW2 7584   3.284   4.908   4.504
 2229SOL     OW 7585   5.868   6.856   3.430
 2229SOL    HW1 7586   5.947   6.891   3.479
 2229SOL    HW2 7587   5.885   6.857   3.332
 2230SOL     OW 7588   2.678   5.242   1.749
 2230SOL    HW1 7589   2.768   5.240   1.793
 2230SOL    HW2 7590   2.636   5.332   1.760
 2231SOL     OW 7591   2.629   6.269   1.213
 2231SOL    HW1 7592   2.719   6.309   1.231
 2231SOL    HW2 7593   2.576   6.269   1.298
 2232SOL     OW 7594   5.439   3.092   3.562
 2232SOL    HW1 7595   5.516   3.121   3.619
 2232SOL    HW2 7596   5.355   3.133   3.597
 2233SOL     OW 7597   2.469   1.605   6.344
 2233SOL    HW1 7598   2.465   1.655   6.258
 2233SOL    HW2 7599   2.438   1.665   6.419
 2234SOL     OW 7600   3.668   2.375   1.462
 2234SOL    HW1 7601   3.747   2.429   1.494
 2234SOL    HW2 7602   3.701   2.293   1.415
 2235SOL     OW 7603   2.489   1.928   1.456
 2235SOL    HW1 7604   2.563   1.996   1.454
 2235SOL    HW2 7605   2.489   1.880   1.544
 2236SOL     OW 7606   1.072   4.809   6.149
 2236SOL    HW1 7607   1.039   4.783   6.058
 2236SOL    HW2 7608   0.996   4.806   6.213
 2237SOL     OW 7609   6.347   3.150   4.218
 2237SOL    HW1 7610   6.323   3.077   4.282
 2237SOL    HW2 7611   6.407   3.216   4.263
 2238SOL     OW 7612   6.297   6.381   1.321
 2238SOL    HW1 7613   6.390   6.407   1.295
 2238SOL    HW2 7614   6.232   6.432   1.266
 2239SOL     OW 7615   5.736   6.150   2.562
 2239SOL    HW1 7616   5.645   6.165   2.523
 2239SOL    HW2 7617   5.778   6.070   2.519
 2240SOL     OW 7618   5.815   3.820   1.680
 2240SOL    HW1 7619   5.898   3.795   1.731
 2240SOL    HW2 7620   5.829   3.798   1.583
 2241SOL     OW 7621   1.635   6.975   2.564
 2241SOL    HW1 7622   1.583   6.926   2.634
 2241SOL    HW2 7623   1.664   6.911   2.493
 2242SOL     OW 7624   3.544   1.874   2.411
 2242SOL    HW1 7625   3.545   1.887   2.510
 2242SOL    HW2 7626   3.455   1.838   2.383
 2243SOL     OW 7627   2.512   6.683   5.255
 2243SOL    HW1 7628   2.528   6.744   5.332
 2243SOL    HW2 7629   2.455   6.606   5.283
 2244SOL     OW 7630   3.181   1.158   5.001
 2244SOL    HW1 7631   3.162   1.248   5.039
 2244SOL    HW2 7632   3.270   1.159   4.955
 2245SOL     OW 7633   0.290   2.205   2.129
 2245SOL    HW1 7634   0.303   2.214   2.031
 2245SOL    HW2 7635   0.326   2.286   2.175
 2246SOL     OW 7636   1.463   4.783   5.042
 2246SOL    HW1 7637   1.479   4.743   4.952
 2246SOL    HW2 7638   1.414   4.717   5.099
 2247SOL     OW 7639   1.819   1.514   4.446
 2247SOL    HW1 7640   1.837   1.543   4.540
 2247SOL    HW2 7641   1.861   1.425   4.430
 2248SOL     OW 7642   4.174   3.792   5.641
 2248SOL    HW1 7643   4.091   3.742   5.668
 2248SOL    HW2 7644   4.249   3.728   5.629
 2249SOL     OW 7645   3.807   4.882   5.077
 2249SOL    HW1 7646   3.809   4.929   5.165
 2249SOL    HW2 7647   3.712   4.876   5.045
 2250SOL     OW 7648   4.804   5.029   1.285
 2250SOL    HW1 7649   4.737   4.956   1.266
 2250SOL    HW2 7650   4.760   5.102   1.337
 2251SOL     OW 7651   0.715   0.063   6.211
 2251SOL    HW1 7652   0.776   0.134   6.245
 2251SOL    HW2 7653   0.749   0.029   6.123
 2252SOL     OW 7654   3.537   0.545   6.245
 2252SOL    HW1 7655   3.555   0.450   6.218
 2252SOL    HW2 7656   3.600   0.606   6.197
 2253SOL     OW 7657   1.161   2.894   6.496
 2253SOL    HW1 7658   1.084   2.836   6.521
 2253SOL    HW2 7659   1.188   2.950   6.575
 2254SOL     OW 7660   1.632   4.480   6.100
 2254SOL    HW1 7661   1.606   4.555   6.039
 2254SOL    HW2 7662   1.553   4.450   6.153
 2255SOL     OW 7663   5.397   3.548   0.063
 2255SOL    HW1 7664   5.347   3.469   0.100
 2255SOL    HW2 7665   5.480   3.563   0.117
 2256SOL     OW 7666   3.120   4.845   2.524
 2256SOL    HW1 7667   3.185   4.841   2.600
 2256SOL    HW2 7668   3.159   4.897   2.448
 2257SOL     OW 7669   1.802   3.697   4.215
 2257SOL    HW1 7670   1.724   3.638   4.237
 2257SOL    HW2 7671   1.887   3.648   4.233
 2258SOL     OW 7672   1.615   4.818   5.389
 2258SOL    HW1 7673   1.543   4.885   5.404
 2258SOL    HW2 7674   1.655   4.832   5.298
 2259SOL     OW 7675   6.271   3.492   6.452
 2259SOL    HW1 7676   6.217   3.448   6.381
 2259SOL    HW2 7677   6.278   3.432   6.532
 2260SOL     OW 7678   4.344   3.580   1.360
 2260SOL    HW1 7679   4.373   3.648   1.426
 2260SOL    HW2 7680   4.297   3.505   1.407
 2261SOL     OW 7681   2.946   6.588   5.171
 2261SOL    HW1 7682   2.985   6.506   5.128
 2261SOL    HW2 7683   2.928   6.569   5.268
 2262SOL     OW 7684   3.216   1.995   3.229
 2262SOL    HW1 7685   3.211   1.910   3.282
 2262SOL    HW2 7686   3.237   1.974   3.133
 2263SOL     OW 7687   0.444   3.803   5.830
 2263SOL    HW1 7688   0.498   3.874   5.876
 2263SOL    HW2 7689   0.503   3.724   5.811
 2264SOL     OW 7690   3.055   3.602   2.935
 2264SOL    HW1 7691   3.019   3.647   2.854
 2264SOL    HW2 7692   3.117   3.527   2.907
 2265SOL     OW 7693   1.228   6.704   3.225
 2265SOL    HW1 7694   1.149   6.758   3.254
 2265SOL    HW2 7695   1.238   6.625   3.285
 2266SOL     OW 7696   6.706   0.447   6.395
 2266SOL    HW1 7697   6.760   0.510   6.339
 2266SOL    HW2 7698   6.609   0.470   6.386
 2267SOL     OW 7699   5.825   2.056   5.326
 2267SOL    HW1 7700   5.774   2.028   5.408
 2267SOL    HW2 7701   5.843   2.154   5.329
 2268SOL     OW 7702   6.653   5.266   6.707
 2268SOL    HW1 7703   6.667   5.364   6.689
 2268SOL    HW2 7704   6.742   5.221   6.716
 2269SOL     OW 7705   0.630   6.615   3.115
 2269SOL    HW1 7706   0.547   6.641   3.165
 2269SOL    HW2 7707   0.681   6.548   3.169
 2270SOL     OW 7708   3.535   3.327   2.940
 2270SOL    HW1 7709   3.606   3.281   2.886
 2270SOL    HW2 7710   3.577   3.373   3.018
 2271SOL     OW 7711   0.714   4.433   2.819
 2271SOL    HW1 7712   0.778   4.450   2.893
 2271SOL    HW2 7713   0.624   4.410   2.857
 2272SOL     OW 7714   5.248   2.129   5.499
 2272SOL    HW1 7715   5.196   2.214   5.503
 2272SOL    HW2 7716   5.185   2.051   5.495
 2273SOL     OW 7717   0.806   0.860   3.352
 2273SOL    HW1 7718   0.808   0.890   3.447
 2273SOL    HW2 7719   0.899   0.835   3.323
 2274SOL     OW 7720   0.847   4.032   2.829
 2274SOL    HW1 7721   0.868   3.939   2.799
 2274SOL    HW2 7722   0.922   4.093   2.805
 2275SOL     OW 7723   4.827   6.283   3.619
 2275SOL    HW1 7724   4.858   6.352   3.685
 2275SOL    HW2 7725   4.834   6.192   3.660
 2276SOL     OW 7726   3.235   5.907   2.320
 2276SOL    HW1 7727   3.223   5.809   2.305
 2276SOL    HW2 7728   3.229   5.927   2.418
 2277SOL     OW 7729   3.249   3.700   0.878
 2277SOL    HW1 7730   3.243   3.659   0.969
 2277SOL    HW2 7731   3.187   3.653   0.816
 2278SOL     OW 7732   5.118   6.500   1.332
 2278SOL    HW1 7733   5.106   6.411   1.288
 2278SOL    HW2 7734   5.207   6.538   1.307
 2279SOL     OW 7735   5.898   4.079   5.928
 2279SOL    HW1 7736   5.951   4.118   6.003
 2279SOL    HW2 7737   5.929   4.117   5.841
 2280SOL     OW 7738   5.697   6.936   5.990
 2280SOL    HW1 7739   5.725   6.843   6.016
 2280SOL    HW2 7740   5.771   6.979   5.937
 2281SOL     OW 7741   2.948   1.764   0.370
 2281SOL    HW1 7742   2.926   1.671   0.401
 2281SOL    HW2 7743   3.002   1.810   0.439
 2282SOL     OW 7744   4.412   6.214   2.076
 2282SOL    HW1 7745   4.436   6.226   1.980
 2282SOL    HW2 7746   4.354   6.289   2.106
 2283SOL     OW 7747   6.807   4.035   1.963
 2283SOL    HW1 7748   6.713   4.029   1.996
 2283SOL    HW2 7749   6.853   4.113   2.007
 2284SOL     OW 7750   2.554   2.210   2.290
 2284SOL    HW1 7751   2.481   2.158   2.245
 2284SOL    HW2 7752   2.578   2.166   2.377
 2285SOL     OW 7753   1.860   3.847   6.801
 2285SOL    HW1 7754   1.823   3.769   6.851
 2285SOL    HW2 7755   1.894   3.915   6.866
 2286SOL     OW 7756   5.862   6.657   4.353
 2286SOL    HW1 7757   5.876   6.701   4.442
 2286SOL    HW2 7758   5.947   6.664   4.299
 2287SOL     OW 7759   2.157   2.285   0.801
 2287SOL    HW1 7760   2.115   2.215   0.859
 2287SOL    HW2 7761   2.087   2.326   0.742
 2288SOL     OW 7762   1.933   5.449   4.713
 2288SOL    HW1 7763   1.942   5.520   4.784
 2288SOL    HW2 7764   1.990   5.371   4.737
 2289SOL     OW 7765   4.424   1.558   6.905
 2289SOL    HW1 7766   4.368   1.542   6.986
 2289SOL    HW2 7767   4.378   1.622   6.844
 2290SOL     OW 7768   3.381   3.828   3.711
 2290SOL    HW1 7769   3.282   3.837   3.719
 2290SOL    HW2 7770   3.410   3.739   3.746
 2291SOL     OW 7771   0.905   2.287   6.200
 2291SOL    HW1 7772   0.898   2.359   6.131
 2291SOL    HW2 7773   0.898   2.326   6.291
 2292SOL     OW 7774   4.946   1.679   2.510
 2292SOL    HW1 7775   5.034   1.638   2.533
 2292SOL    HW2 7776   4.951   1.778   2.525
 2293SOL     OW 7777   0.542   0.630   0.291
 2293SOL    HW1 7778   0.571   0.583   0.208
 2293SOL    HW2 7779   0.442   0.624   0.300
 2294SOL     OW 7780   0.395   0.879   6.014
 2294SOL    HW1 7781   0.327   0.895   5.943
 2294SOL    HW2 7782   0.351   0.880   6.104
 2295SOL     OW 7783   6.010   5.603   1.442
 2295SOL    HW1 7784   6.012   5.508   1.411
 2295SOL    HW2 7785   5.915   5.630   1.458
 2296SOL     OW 7786   3.968   5.245   4.074
 2296SOL    HW1 7787   3.999   5.176   4.008
 2296SOL    HW2 7788   4.014   5.231   4.162
 2297SOL     OW 7789   5.343   3.793   5.088
 2297SOL    HW1 7790   5.313   3.883   5.120
 2297SOL    HW2 7791   5.442   3.793   5.075
 2298SOL     OW 7792   2.941   3.595   4.778
 2298SOL    HW1 7793   2.908   3.563   4.867
 2298SOL    HW2 7794   3.035   3.563   4.764
 2299SOL     OW 7795   5.493   3.042   4.279
 2299SOL    HW1 7796   5.467   2.961   4.333
 2299SOL    HW2 7797   5.546   3.012   4.200
 2300SOL     OW 7798   5.396   0.064   1.857
 2300SOL    HW1 7799   5.456   0.114   1.795
 2300SOL    HW2 7800   5.335   0.005   1.804
 2301SOL     OW 7801   3.940   3.153   5.067
 2301SOL    HW1 7802   3.978   3.182   4.979
 2301SOL    HW2 7803   4.014   3.141   5.133
 2302SOL     OW 7804   6.157   3.413   6.180
 2302SOL    HW1 7805   6.073   3.463   6.198
 2302SOL    HW2 7806   6.178   3.417   6.082
 2303SOL     OW 7807   3.093   2.619   0.061
 2303SOL    HW1 7808   3.053   2.613   0.153
 2303SOL    HW2 7809   3.133   2.530   0.037
 2304SOL     OW 7810   6.788   6.681   2.778
 2304SOL    HW1 7811   6.842   6.637   2.850
 2304SOL    HW2 7812   6.822   6.653   2.689
 2305SOL     OW 7813   2.610   6.822   5.770
 2305SOL    HW1 7814   2.529   6.765   5.784
 2305SOL    HW2 7815   2.641   6.813   5.675
 2306SOL     OW 7816   1.620   5.175   4.770
 2306SOL    HW1 7817   1.662   5.170   4.860
 2306SOL    HW2 7818   1.651   5.257   4.723
 2307SOL     OW 7819   6.417   3.300   4.900
 2307SOL    HW1 7820   6.451   3.258   4.984
 2307SOL    HW2 7821   6.353   3.373   4.923
 2308SOL     OW 7822   1.078   5.640   2.464
 2308SOL    HW1 7823   1.140   5.664   2.389
 2308SOL    HW2 7824   1.029   5.721   2.494
 2309SOL     OW 7825   2.406   0.902   4.801
 2309SOL    HW1 7826   2.327   0.959   4.777
 2309SOL    HW2 7827   2.442   0.930   4.889
 2310SOL     OW 7828   4.668   6.679   0.930
 2310SOL    HW1 7829   4.709   6.627   1.004
 2310SOL    HW2 7830   4.575   6.706   0.956
 2311SOL     OW 7831   2.216   5.530   0.904
 2311SOL    HW1 7832   2.140   5.465   0.903
 2311SOL    HW2 7833   2.284   5.502   0.835
 2312SOL     OW 7834   3.329   4.835   1.821
 2312SOL    HW1 7835   3.240   4.789   1.830
 2312SOL    HW2 7836   3.392   4.798   1.890
 2313SOL     OW 7837   5.007   4.556   1.632
 2313SOL    HW1 7838   4.921   4.532   1.678
 2313SOL    HW2 7839   4.999   4.648   1.593
 2314SOL     OW 7840   2.719   4.721   4.207
 2314SOL    HW1 7841   2.745   4.717   4.110
 2314SOL    HW2 7842   2.619   4.719   4.214
 2315SOL     OW 7843   4.753   2.340   6.734
 2315SOL    HW1 7844   4.812   2.377   6.662
 2315SOL    HW2 7845   4.799   2.350   6.823
 2316SOL     OW 7846   5.074   3.587   2.072
 2316SOL    HW1 7847   5.045   3.613   2.165
 2316SOL    HW2 7848   5.048   3.492   2.055
 2317SOL     OW 7849   0.587   6.136   2.667
 2317SOL    HW1 7850   0.578   6.228   2.704
 2317SOL    HW2 7851   0.520   6.122   2.594
 2318SOL     OW 7852   0.033   0.982   4.271
 2318SOL    HW1 7853   0.097   1.021   4.336
 2318SOL    HW2 7854   0.082   0.954   4.188
 2319SOL     OW 7855   1.411   4.916   2.182
 2319SOL    HW1 7856   1.371   4.861   2.255
 2319SOL    HW2 7857   1.349   4.916   2.103
 2320SOL     OW 7858   6.736   4.884   4.953
 2320SOL    HW1 7859   6.811   4.948   4.935
 2320SOL    HW2 7860   6.720   4.879   5.051
 2321SOL     OW 7861   3.728   4.921   4.652
 2321SOL    HW1 7862   3.682   4.991   4.706
 2321SOL    HW2 7863   3.718   4.832   4.696
 2322SOL     OW 7864   2.990   0.786   4.914
 2322SOL    HW1 7865   3.064   0.768   4.849
 2322SOL    HW2 7866   3.025   0.779   5.007
 2323SOL     OW 7867   5.016   3.670   2.342
 2323SOL    HW1 7868   5.114   3.665   2.364
 2323SOL    HW2 7869   4.970   3.725   2.411
 2324SOL     OW 7870   0.670   4.703   3.359
 2324SOL    HW1 7871   0.635   4.631   3.299
 2324SOL    HW2 7872   0.765   4.685   3.381
 2325SOL     OW 7873   0.063   2.391   0.269
 2325SOL    HW1 7874   7.017   2.465   0.281
 2325SOL    HW2 7875   0.016   2.303   0.276
 2326SOL     OW 7876   0.755   4.167   0.369
 2326SOL    HW1 7877   0.719   4.104   0.439
 2326SOL    HW2 7878   0.729   4.134   0.279
 2327SOL     OW 7879   5.324   1.680   3.531
 2327SOL    HW1 7880   5.329   1.768   3.484
 2327SOL    HW2 7881   5.230   1.645   3.528
 2328SOL     OW 7882   6.572   6.189   3.441
 2328SOL    HW1 7883   6.551   6.162   3.535
 2328SOL    HW2 7884   6.491   6.229   3.399
 2329SOL     OW 7885   6.942   5.537   2.910
 2329SOL    HW1 7886   6.908   5.609   2.969
 2329SOL    HW2 7887   0.021   5.525   2.924
 2330SOL     OW 7888   0.719   3.749   1.697
 2330SOL    HW1 7889   0.661   3.830   1.690
 2330SOL    HW2 7890   0.661   3.667   1.697
 2331SOL     OW 7891   1.339   4.289   5.830
 2331SOL    HW1 7892   1.328   4.204   5.780
 2331SOL    HW2 7893   1.417   4.340   5.794
 2332SOL     OW 7894   5.414   2.306   5.196
 2332SOL    HW1 7895   5.390   2.278   5.289
 2332SOL    HW2 7896   5.364   2.389   5.173
 2333SOL     OW 7897   2.986   4.842   4.204
 2333SOL    HW1 7898   2.905   4.788   4.183
 2333SOL    HW2 7899   3.026   4.876   4.119
 2334SOL     OW 7900   2.509   0.034   0.019
 2334SOL    HW1 7901   2.467   6.990   0.084
 2334SOL    HW2 7902   2.438   0.092   6.997
 2335SOL     OW 7903   4.770   5.103   4.671
 2335SOL    HW1 7904   4.860   5.099   4.627
 2335SOL    HW2 7905   4.703   5.055   4.614
 2336SOL     OW 7906   4.015   2.922   5.811
 2336SOL    HW1 7907   4.085   2.934   5.881
 2336SOL    HW2 7908   4.013   3.002   5.752
 2337SOL     OW 7909   6.399   0.452   4.163
 2337SOL    HW1 7910   6.459   0.433   4.086
 2337SOL    HW2 7911   6.448   0.505   4.232
 2338SOL     OW 7912   1.451   0.106   6.461
 2338SOL    HW1 7913   1.390   0.128   6.537
 2338SOL    HW2 7914   1.399   0.108   6.375
 2339SOL     OW 7915   4.331   4.831   6.942
 2339SOL    HW1 7916   4.375   4.794   6.860
 2339SOL    HW2 7917   4.337   4.931   6.941
 2340SOL     OW 7918   3.899   4.896   3.593
 2340SOL    HW1 7919   3.988   4.864   3.624
 2340SOL    HW2 7920   3.829   4.871   3.659
 2341SOL     OW 7921   5.682   4.678   6.365
 2341SOL    HW1 7922   5.721   4.631   6.444
 2341SOL    HW2 7923   5.604   4.734   6.395
 2342SOL     OW 7924   6.898   0.227   5.089
 2342SOL    HW1 7925   6.817   0.222   5.031
 2342SOL    HW2 7926   6.882   0.175   5.173
 2343SOL     OW 7927   0.883   0.284   0.921
 2343SOL    HW1 7928   0.976   0.299   0.954
 2343SOL    HW2 7929   0.886   0.259   0.825
 2344SOL     OW 7930   3.027   1.621   2.897
 2344SOL    HW1 7931   3.124   1.595   2.895
 2344SOL    HW2 7932   3.020   1.721   2.895
 2345SOL     OW 7933   1.393   1.510   2.629
 2345SOL    HW1 7934   1.341   1.581   2.581
 2345SOL    HW2 7935   1.483   1.546   2.655
 2346SOL     OW 7936   4.589   3.233   5.321
 2346SOL    HW1 7937   4.639   3.172   5.382
 2346SOL    HW2 7938   4.620   3.327   5.334
 2347SOL     OW 7939   1.321   3.262   0.854
 2347SOL    HW1 7940   1.281   3.353   0.862
 2347SOL    HW2 7941   1.417   3.270   0.827
 2348SOL     OW 7942   2.808   6.393   1.661
 2348SOL    HW1 7943   2.791   6.446   1.578
 2348SOL    HW2 7944   2.900   6.412   1.695
 2349SOL     OW 7945   4.578   4.217   6.327
 2349SOL    HW1 7946   4.490   4.262   6.341
 2349SOL    HW2 7947   4.649   4.266   6.378
 2350SOL     OW 7948   2.323   5.843   5.187
 2350SOL    HW1 7949   2.399   5.807   5.241
 2350SOL    HW2 7950   2.338   5.821   5.090
 2351SOL     OW 7951   2.266   4.806   3.451
 2351SOL    HW1 7952   2.198   4.788   3.380
 2351SOL    HW2 7953   2.334   4.870   3.416
 2352SOL     OW 7954   6.127   4.295   0.749
 2352SOL    HW1 7955   6.084   4.365   0.806
 2352SOL    HW2 7956   6.156   4.336   0.663
 2353SOL     OW 7957   2.323   3.761   6.704
 2353SOL    HW1 7958   2.281   3.770   6.613
 2353SOL    HW2 7959   2.294   3.676   6.746
 2354SOL     OW 7960   3.972   1.876   2.246
 2354SOL    HW1 7961   3.921   1.799   2.208
 2354SOL    HW2 7962   3.909   1.952   2.261
 2355SOL     OW 7963   0.129   1.795   1.895
 2355SOL    HW1 7964   0.034   1.805   1.924
 2355SOL    HW2 7965   0.138   1.714   1.838
 2356SOL     OW 7966   3.043   5.205   3.995
 2356SOL    HW1 7967   2.980   5.248   4.059
 2356SOL    HW2 7968   3.132   5.249   4.001
 2357SOL     OW 7969   0.188   4.315   0.979
 2357SOL    HW1 7970   0.233   4.295   1.066
 2357SOL    HW2 7971   0.096   4.277   0.980
 2358SOL     OW 7972   3.417   1.325   5.157
 2358SOL    HW1 7973   3.494   1.315   5.220
 2358SOL    HW2 7974   3.408   1.421   5.131
 2359SOL     OW 7975   2.296   1.491   5.320
 2359SOL    HW1 7976   2.340   1.559   5.260
 2359SOL    HW2 7977   2.351   1.480   5.403
 2360SOL     OW 7978   2.998   4.975   0.210
 2360SOL    HW1 7979   3.025   5.021   0.295
 2360SOL    HW2 7980   3.038   4.884   0.208
 2361SOL     OW 7981   3.471   5.841   1.273
 2361SOL    HW1 7982   3.421   5.927   1.282
 2361SOL    HW2 7983   3.507   5.832   1.180
 2362SOL     OW 7984   3.342   4.923   3.981
 2362SOL    HW1 7985   3.386   4.924   4.071
 2362SOL    HW2 7986   3.243   4.917   3.992
 2363SOL     OW 7987   1.462   4.021   0.349
 2363SOL    HW1 7988   1.368   4.042   0.374
 2363SOL    HW2 7989   1.501   3.958   0.415
 2364SOL     OW 7990   3.827   1.563   2.587
 2364SOL    HW1 7991   3.840   1.464   2.594
 2364SOL    HW2 7992   3.732   1.586   2.609
 2365SOL     OW 7993   4.972   4.261   2.793
 2365SOL    HW1 7994   4.948   4.358   2.792
 2365SOL    HW2 7995   4.901   4.210   2.842
 2366SOL     OW 7996   3.310   4.970   5.563
 2366SOL    HW1 7997   3.258   4.890   5.532
 2366SOL    HW2 7998   3.249   5.049   5.570
 2367SOL     OW 7999   6.036   5.303   5.881
 2367SOL    HW1 8000   6.050   5.211   5.844
 2367SOL    HW2 8001   5.979   5.298   5.963
 2368SOL     OW 8002   5.576   0.611   5.462
 2368SOL    HW1 8003   5.538   0.702   5.443
 2368SOL    HW2 8004   5.591   0.562   5.376
 2369SOL     OW 8005   3.754   2.059   4.151
 2369SOL    HW1 8006   3.773   2.003   4.232
 2369SOL    HW2 8007   3.664   2.101   4.160
 2370SOL     OW 8008   5.080   2.080   1.781
 2370SOL    HW1 8009   5.005   2.146   1.777
 2370SOL    HW2 8010   5.043   1.987   1.788
 2371SOL     OW 8011   1.092   6.488   1.831
 2371SOL    HW1 8012   1.189   6.509   1.839
 2371SOL    HW2 8013   1.070   6.468   1.735
 2372SOL     OW 8014   6.688   6.583   6.629
 2372SOL    HW1 8015   6.605   6.636   6.613
 2372SOL    HW2 8016   6.755   6.640   6.677
 2373SOL     OW 8017   5.963   4.402   6.046
 2373SOL    HW1 8018   5.913   4.427   6.130
 2373SOL    HW2 8019   6.007   4.313   6.060
 2374SOL     OW 8020   6.121   6.573   2.580
 2374SOL    HW1 8021   6.146   6.482   2.611
 2374SOL    HW2 8022   6.032   6.569   2.533
 2375SOL     OW 8023   2.239   0.588   4.335
 2375SOL    HW1 8024   2.141   0.578   4.353
 2375SOL    HW2 8025   2.290   0.529   4.396
 2376SOL     OW 8026   5.349   2.201   2.690
 2376SOL    HW1 8027   5.294   2.190   2.607
 2376SOL    HW2 8028   5.328   2.290   2.732
 2377SOL     OW 8029   4.844   3.584   5.714
 2377SOL    HW1 8030   4.916   3.644   5.748
 2377SOL    HW2 8031   4.770   3.580   5.780
 2378SOL     OW 8032   0.417   1.760   0.193
 2378SOL    HW1 8033   0.512   1.730   0.191
 2378SOL    HW2 8034   0.360   1.688   0.233
 2379SOL     OW 8035   0.108   5.363   2.355
 2379SOL    HW1 8036   0.084   5.329   2.264
 2379SOL    HW2 8037   0.203   5.394   2.355
 2380SOL     OW 8038   4.661   5.234   6.765
 2380SOL    HW1 8039   4.697   5.169   6.697
 2380SOL    HW2 8040   4.636   5.185   6.848
 2381SOL     OW 8041   2.260   3.985   3.601
 2381SOL    HW1 8042   2.306   3.896   3.600
 2381SOL    HW2 8043   2.237   4.010   3.695
 2382SOL     OW 8044   6.773   5.073   3.169
 2382SOL    HW1 8045   6.802   5.098   3.261
 2382SOL    HW2 8046   6.810   5.138   3.103
 2383SOL     OW 8047   5.368   4.155   6.282
 2383SOL    HW1 8048   5.294   4.089   6.267
 2383SOL    HW2 8049   5.399   4.189   6.193
 2384SOL     OW 8050   0.250   1.866   3.286
 2384SOL    HW1 8051   0.314   1.824   3.222
 2384SOL    HW2 8052   0.276   1.962   3.301
 2385SOL     OW 8053   0.022   1.247   0.777
 2385SOL    HW1 8054   0.061   1.289   0.859
 2385SOL    HW2 8055   6.961   1.194   0.801
 2386SOL     OW 8056   5.795   6.306   4.897
 2386SOL    HW1 8057   5.798   6.384   4.960
 2386SOL    HW2 8058   5.757   6.336   4.809
 2387SOL     OW 8059   1.054   1.415   3.862
 2387SOL    HW1 8060   1.081   1.372   3.948
 2387SOL    HW2 8061   1.080   1.512   3.863
 2388SOL     OW 8062   0.236   3.174   5.279
 2388SOL    HW1 8063   0.162   3.154   5.343
 2388SOL    HW2 8064   0.293   3.247   5.317
 2389SOL     OW 8065   4.468   5.363   3.163
 2389SOL    HW1 8066   4.413   5.434   3.120
 2389SOL    HW2 8067   4.410   5.287   3.191
 2390SOL     OW 8068   4.478   2.614   6.763
 2390SOL    HW1 8069   4.490   2.628   6.861
 2390SOL    HW2 8070   4.540   2.673   6.712
 2391SOL     OW 8071   3.488   4.730   6.453
 2391SOL    HW1 8072   3.457   4.693   6.366
 2391SOL    HW2 8073   3.425   4.703   6.525
 2392SOL     OW 8074   4.240   4.574   5.717
 2392SOL    HW1 8075   4.171   4.537   5.656
 2392SOL    HW2 8076   4.232   4.674   5.721
 2393SOL     OW 8077   4.673   4.395   0.915
 2393SOL    HW1 8078   4.606   4.408   0.988
 2393SOL    HW2 8079   4.688   4.297   0.900
 2394SOL     OW 8080   0.290   1.574   3.848
 2394SOL    HW1 8081   0.218   1.557   3.915
 2394SOL    HW2 8082   0.258   1.640   3.781
 2395SOL     OW 8083   1.005   3.211   3.810
 2395SOL    HW1 8084   0.976   3.142   3.877
 2395SOL    HW2 8085   1.102   3.199   3.790
 2396SOL     OW 8086   0.451   0.167   6.783
 2396SOL    HW1 8087   0.485   0.095   6.843
 2396SOL    HW2 8088   0.416   0.126   6.698
 2397SOL     OW 8089   0.537   3.801   4.939
 2397SOL    HW1 8090   0.520   3.886   4.988
 2397SOL    HW2 8091   0.621   3.759   4.973
 2398SOL     OW 8092   4.092   6.777   3.729
 2398SOL    HW1 8093   3.995   6.790   3.707
 2398SOL    HW2 8094   4.147   6.818   3.656
 2399SOL     OW 8095   3.383   1.951   3.000
 2399SOL    HW1 8096   3.450   2.018   3.033
 2399SOL    HW2 8097   3.338   1.985   2.918
 2400SOL     OW 8098   1.870   4.052   0.493
 2400SOL    HW1 8099   1.908   3.960   0.504
 2400SOL    HW2 8100   1.810   4.054   0.413
 2401SOL     OW 8101   2.206   6.096   6.428
 2401SOL    HW1 8102   2.228   6.142   6.514
 2401SOL    HW2 8103   2.148   6.016   6.447
 2402SOL     OW 8104   0.867   3.882   2.142
 2402SOL    HW1 8105   0.871   3.793   2.097
 2402SOL    HW2 8106   0.797   3.881   2.213
 2403SOL     OW 8107   3.365   3.849   5.026
 2403SOL    HW1 8108   3.421   3.922   5.066
 2403SOL    HW2 8109   3.384   3.841   4.928
 2404SOL     OW 8110   6.012   1.827   0.846
 2404SOL    HW1 8111   5.931   1.803   0.793
 2404SOL    HW2 8112   6.091   1.776   0.810
 2405SOL     OW 8113   1.613   3.305   0.815
 2405SOL    HW1 8114   1.661   3.393   0.812
 2405SOL    HW2 8115   1.591   3.277   0.721
 2406SOL     OW 8116   2.986   5.558   4.865
 2406SOL    HW1 8117   2.911   5.551   4.931
 2406SOL    HW2 8118   2.996   5.653   4.836
 2407SOL     OW 8119   3.036   1.292   3.385
 2407SOL    HW1 8120   3.117   1.258   3.337
 2407SOL    HW2 8121   3.027   1.391   3.370
 2408SOL     OW 8122   2.337   6.742   5.714
 2408SOL    HW1 8123   2.310   6.790   5.630
 2408SOL    HW2 8124   2.344   6.644   5.695
 2409SOL     OW 8125   0.926   3.398   0.168
 2409SOL    HW1 8126   0.834   3.433   0.150
 2409SOL    HW2 8127   0.977   3.465   0.222
 2410SOL     OW 8128   6.933   3.146   4.084
 2410SOL    HW1 8129   6.842   3.140   4.124
 2410SOL    HW2 8130   6.926   3.144   3.984
 2411SOL     OW 8131   3.191   2.268   6.352
 2411SOL    HW1 8132   3.110   2.277   6.294
 2411SOL    HW2 8133   3.255   2.341   6.331
 2412SOL     OW 8134   3.360   1.559   5.628
 2412SOL    HW1 8135   3.411   1.481   5.665
 2412SOL    HW2 8136   3.418   1.640   5.629
 2413SOL     OW 8137   0.429   3.112   6.952
 2413SOL    HW1 8138   0.456   3.015   6.949
 2413SOL    HW2 8139   0.390   3.138   6.864
 2414SOL     OW 8140   6.624   1.194   4.693
 2414SOL    HW1 8141   6.621   1.107   4.742
 2414SOL    HW2 8142   6.550   1.196   4.625
 2415SOL     OW 8143   2.635   4.965   6.456
 2415SOL    HW1 8144   2.650   5.008   6.367
 2415SOL    HW2 8145   2.663   5.028   6.528
 2416SOL     OW 8146   6.858   2.414   2.951
 2416SOL    HW1 8147   6.817   2.326   2.976
 2416SOL    HW2 8148   6.900   2.455   3.032
 2417SOL     OW 8149   2.731   2.550   1.478
 2417SOL    HW1 8150   2.665   2.618   1.509
 2417SOL    HW2 8151   2.713   2.463   1.524
 2418SOL     OW 8152   4.840   4.030   6.533
 2418SOL    HW1 8153   4.859   4.125   6.510
 2418SOL    HW2 8154   4.864   4.014   6.629
 2419SOL     OW 8155   2.831   0.605   3.363
 2419SOL    HW1 8156   2.745   0.655   3.367
 2419SOL    HW2 8157   2.891   0.637   3.437
 2420SOL     OW 8158   1.158   4.186   2.414
 2420SOL    HW1 8159   1.240   4.167   2.468
 2420SOL    HW2 8160   1.127   4.102   2.370
 2421SOL     OW 8161   3.363   6.787   3.402
 2421SOL    HW1 8162   3.432   6.737   3.351
 2421SOL    HW2 8163   3.284   6.727   3.418
 2422SOL     OW 8164   4.216   4.598   1.153
 2422SOL    HW1 8165   4.136   4.573   1.098
 2422SOL    HW2 8166   4.189   4.605   1.249
 2423SOL     OW 8167   2.519   5.635   3.253
 2423SOL    HW1 8168   2.614   5.605   3.244
 2423SOL    HW2 8169   2.510   5.695   3.333
 2424SOL     OW 8170   4.719   6.821   6.261
 2424SOL    HW1 8171   4.787   6.759   6.222
 2424SOL    HW2 8172   4.657   6.852   6.188
 2425SOL     OW 8173   4.685   5.476   5.166
 2425SOL    HW1 8174   4.733   5.418   5.100
 2425SOL    HW2 8175   4.746   5.496   5.243
 2426SOL     OW 8176   2.480   2.590   4.972
 2426SOL    HW1 8177   2.570   2.554   4.947
 2426SOL    HW2 8178   2.488   2.640   5.058
 2427SOL     OW 8179   5.625   0.776   0.304
 2427SOL    HW1 8180   5.532   0.755   0.274
 2427SOL    HW2 8181   5.654   0.864   0.266
 2428SOL     OW 8182   1.404   1.282   2.818
 2428SOL    HW1 8183   1.431   1.312   2.910
 2428SOL    HW2 8184   1.402   1.361   2.757
 2429SOL     OW 8185   6.086   5.240   1.839
 2429SOL    HW1 8186   6.155   5.312   1.832
 2429SOL    HW2 8187   6.093   5.180   1.760
 2430SOL     OW 8188   6.356   0.801   6.420
 2430SOL    HW1 8189   6.286   0.814   6.490
 2430SOL    HW2 8190   6.349   0.708   6.383
 2431SOL     OW 8191   0.628   3.292   1.531
 2431SOL    HW1 8192   0.613   3.356   1.456
 2431SOL    HW2 8193   0.592   3.330   1.616
 2432SOL     OW 8194   2.354   5.519   1.915
 2432SOL    HW1 8195   2.360   5.590   1.845
 2432SOL    HW2 8196   2.322   5.434   1.875
 2433SOL     OW 8197   0.012   4.170   5.030
 2433SOL    HW1 8198   6.970   4.211   4.962
 2433SOL    HW2 8199   7.004   4.076   5.048
 2434SOL     OW 8200   4.656   0.608   2.557
 2434SOL    HW1 8201   4.751   0.579   2.568
 2434SOL    HW2 8202   4.651   0.707   2.559
 2435SOL     OW 8203   6.038   6.814   6.820
 2435SOL    HW1 8204   6.004   6.722   6.802
 2435SOL    HW2 8205   6.016   6.840   6.914
 2436SOL     OW 8206   0.438   2.711   0.748
 2436SOL    HW1 8207   0.490   2.738   0.830
 2436SOL    HW2 8208   0.426   2.790   0.689
 2437SOL     OW 8209   0.118   3.751   1.924
 2437SOL    HW1 8210   0.194   3.705   1.878
 2437SOL    HW2 8211   0.049   3.775   1.856
 2438SOL     OW 8212   3.913   1.882   4.624
 2438SOL    HW1 8213   3.987   1.860   4.689
 2438SOL    HW2 8214   3.842   1.934   4.671
 2439SOL     OW 8215   1.833   5.382   1.497
 2439SOL    HW1 8216   1.904   5.331   1.545
 2439SOL    HW2 8217   1.876   5.448   1.435
 2440SOL     OW 8218   6.908   1.195   5.470
 2440SOL    HW1 8219   6.986   1.248   5.437
 2440SOL    HW2 8220   6.826   1.222   5.420
 2441SOL     OW 8221   5.900   0.544   0.701
 2441SOL    HW1 8222   5.877   0.569   0.795
 2441SOL    HW2 8223   5.834   0.586   0.639
 2442SOL     OW 8224   5.411   2.898   1.267
 2442SOL    HW1 8225   5.318   2.860   1.266
 2442SOL    HW2 8226   5.445   2.904   1.173
 2443SOL     OW 8227   0.901   3.136   1.346
 2443SOL    HW1 8228   0.962   3.196   1.295
 2443SOL    HW2 8229   0.949   3.100   1.426
 2444SOL     OW 8230   3.238   5.671   2.665
 2444SOL    HW1 8231   3.178   5.613   2.610
 2444SOL    HW2 8232   3.250   5.630   2.756
 2445SOL     OW 8233   0.543   1.919   1.413
 2445SOL    HW1 8234   0.502   2.004   1.381
 2445SOL    HW2 8235   0.638   1.914   1.382
 2446SOL     OW 8236   1.053   5.455   2.028
 2446SOL    HW1 8237   1.149   5.462   2.057
 2446SOL    HW2 8238   0.993   5.473   2.106
 2447SOL     OW 8239   2.163   0.049   0.061
 2447SOL    HW1 8240   2.237   0.064   7.014
 2447SOL    HW2 8241   2.171   6.978   0.102
 2448SOL     OW 8242   5.364   0.910   4.655
 2448SOL    HW1 8243   5.315   0.825   4.634
 2448SOL    HW2 8244   5.389   0.911   4.752
 2449SOL     OW 8245   1.081   4.365   1.490
 2449SOL    HW1 8246   1.144   4.380   1.566
 2449SOL    HW2 8247   1.118   4.406   1.407
 2450SOL     OW 8248   1.230   6.554   5.145
 2450SOL    HW1 8249   1.198   6.460   5.159
 2450SOL    HW2 8250   1.219   6.578   5.049
 2451SOL     OW 8251   1.432   6.484   5.316
 2451SOL    HW1 8252   1.368   6.525   5.251
 2451SOL    HW2 8253   1.412   6.386   5.325
 2452SOL     OW 8254   2.296   1.928   3.379
 2452SOL    HW1 8255   2.353   2.010   3.378
 2452SOL    HW2 8256   2.216   1.943   3.436
 2453SOL     OW 8257   1.152   1.543   5.810
 2453SOL    HW1 8258   1.239   1.520   5.765
 2453SOL    HW2 8259   1.077   1.533   5.744
 2454SOL     OW 8260   3.752   6.082   0.972
 2454SOL    HW1 8261   3.769   6.056   0.877
 2454SOL    HW2 8262   3.816   6.154   1.000
 2455SOL     OW 8263   4.001   2.679   0.650
 2455SOL    HW1 8264   4.080   2.709   0.597
 2455SOL    HW2 8265   3.928   2.748   0.644
 2456SOL     OW 8266   0.431   3.435   5.761
 2456SOL    HW1 8267   0.370   3.503   5.721
 2456SOL    HW2 8268   0.383   3.347   5.765
 2457SOL     OW 8269   4.201   1.811   5.234
 2457SOL    HW1 8270   4.105   1.833   5.250
 2457SOL    HW2 8271   4.208   1.731   5.175
 2458SOL     OW 8272   0.941   6.974   3.023
 2458SOL    HW1 8273   0.935   6.877   3.000
 2458SOL    HW2 8274   1.033   7.008   3.002
 2459SOL     OW 8275   1.922   6.727   0.148
 2459SOL    HW1 8276   1.900   6.685   0.060
 2459SOL    HW2 8277   1.856   6.801   0.166
 2460SOL     OW 8278   1.029   1.193   4.994
 2460SOL    HW1 8279   1.026   1.263   5.065
 2460SOL    HW2 8280   1.019   1.103   5.035
 2461SOL     OW 8281   4.775   0.877   3.621
 2461SOL    HW1 8282   4.849   0.931   3.582
 2461SOL    HW2 8283   4.799   0.851   3.715
 2462SOL     OW 8284   0.372   5.069   0.356
 2462SOL    HW1 8285   0.373   4.969   0.354
 2462SOL    HW2 8286   0.377   5.104   0.262
 2463SOL     OW 8287   6.537   0.431   0.111
 2463SOL    HW1 8288   6.581   0.369   0.046
 2463SOL    HW2 8289   6.511   0.516   0.064
 2464SOL     OW 8290   0.874   2.209   4.331
 2464SOL    HW1 8291   0.787   2.184   4.372
 2464SOL    HW2 8292   0.859   2.274   4.257
 2465SOL     OW 8293   0.091   6.718   6.326
 2465SOL    HW1 8294   0.143   6.698   6.243
 2465SOL    HW2 8295   7.013   6.700   6.309
 2466SOL     OW 8296   0.848   1.898   1.751
 2466SOL    HW1 8297   0.860   1.995   1.728
 2466SOL    HW2 8298   0.802   1.890   1.839
 2467SOL     OW 8299   6.107   2.700   5.463
 2467SOL    HW1 8300   6.159   2.731   5.384
 2467SOL    HW2 8301   6.152   2.621   5.504
 2468SOL     OW 8302   3.536   6.790   5.526
 2468SOL    HW1 8303   3.472   6.866   5.531
 2468SOL    HW2 8304   3.524   6.731   5.606
 2469SOL     OW 8305   3.932   2.118   5.482
 2469SOL    HW1 8306   3.944   2.040   5.421
 2469SOL    HW2 8307   3.842   2.159   5.465
 2470SOL     OW 8308   2.669   5.079   6.194
 2470SOL    HW1 8309   2.763   5.113   6.192
 2470SOL    HW2 8310   2.643   5.046   6.103
 2471SOL     OW 8311   2.915   5.235   1.936
 2471SOL    HW1 8312   2.925   5.214   2.033
 2471SOL    HW2 8313   2.993   5.288   1.904
 2472SOL     OW 8314   4.886   1.584   3.146
 2472SOL    HW1 8315   4.912   1.628   3.060
 2472SOL    HW2 8316   4.865   1.655   3.214
 2473SOL     OW 8317   0.432   3.936   3.953
 2473SOL    HW1 8318   0.532   3.933   3.958
 2473SOL    HW2 8319   0.404   4.003   3.883
 2474SOL     OW 8320   1.055   5.709   1.912
 2474SOL    HW1 8321   0.963   5.708   1.872
 2474SOL    HW2 8322   1.073   5.621   1.956
 2475SOL     OW 8323   4.615   0.910   0.280
 2475SOL    HW1 8324   4.695   0.885   0.334
 2475SOL    HW2 8325   4.593   0.835   0.217
 2476SOL     OW 8326   4.865   0.819   0.370
 2476SOL    HW1 8327   4.938   0.821   0.438
 2476SOL    HW2 8328   4.819   0.731   0.372
 2477SOL     OW 8329   3.997   0.127   2.842
 2477SOL    HW1 8330   3.928   0.056   2.832
 2477SOL    HW2 8331   3.955   0.217   2.825
 2478SOL     OW 8332   4.771   6.935   4.616
 2478SOL    HW1 8333   4.689   6.974   4.575
 2478SOL    HW2 8334   4.746   6.871   4.689
 2479SOL     OW 8335   5.993   3.451   6.853
 2479SOL    HW1 8336   6.068   3.515   6.872
 2479SOL    HW2 8337   5.939   3.438   6.936
 2480SOL     OW 8338   3.221   2.202   1.568
 2480SOL    HW1 8339   3.276   2.274   1.526
 2480SOL    HW2 8340   3.151   2.244   1.627
 2481SOL     OW 8341   3.403   0.401   1.475
 2481SOL    HW1 8342   3.309   0.378   1.452
 2481SOL    HW2 8343   3.417   0.499   1.470
 2482SOL     OW 8344   5.921   3.760   6.340
 2482SOL    HW1 8345   6.016   3.736   6.356
 2482SOL    HW2 8346   5.914   3.853   6.305
 2483SOL     OW 8347   1.639   2.526   0.356
 2483SOL    HW1 8348   1.581   2.481   0.288
 2483SOL    HW2 8349   1.688   2.457   0.409
 2484SOL     OW 8350   5.037   0.972   1.040
 2484SOL    HW1 8351   5.021   1.070   1.053
 2484SOL    HW2 8352   4.959   0.921   1.076
 2485SOL     OW 8353   6.755   2.149   6.219
 2485SOL    HW1 8354   6.762   2.153   6.319
 2485SOL    HW2 8355   6.804   2.069   6.185
 2486SOL     OW 8356   6.433   5.513   4.907
 2486SOL    HW1 8357   6.444   5.496   4.809
 2486SOL    HW2 8358   6.367   5.587   4.921
 2487SOL     OW 8359   5.017   6.258   6.428
 2487SOL    HW1 8360   5.068   6.326   6.374
 2487SOL    HW2 8361   5.076   6.223   6.501
 2488SOL     OW 8362   6.510   4.078   0.334
 2488SOL    HW1 8363   6.457   3.996   0.313
 2488SOL    HW2 8364   6.450   4.158   0.335
 2489SOL     OW 8365   6.635   6.150   4.720
 2489SOL    HW1 8366   6.649   6.061   4.765
 2489SOL    HW2 8367   6.724   6.188   4.694
 2490SOL     OW 8368   2.476   5.656   2.792
 2490SOL    HW1 8369   2.417   5.729   2.825
 2490SOL    HW2 8370   2.495   5.592   2.867
 2491SOL     OW 8371   3.696   4.701   1.451
 2491SOL    HW1 8372   3.659   4.612   1.425
 2491SOL    HW2 8373   3.776   4.721   1.395
 2492SOL     OW 8374   6.960   4.470   1.642
 2492SOL    HW1 8375   6.879   4.415   1.663
 2492SOL    HW2 8376   6.999   4.506   1.727
 2493SOL     OW 8377   6.032   6.681   1.008
 2493SOL    HW1 8378   5.955   6.716   0.956
 2493SOL    HW2 8379   6.117   6.705   0.961
 2494SOL     OW 8380   6.202   3.879   2.493
 2494SOL    HW1 8381   6.215   3.880   2.592
 2494SOL    HW2 8382   6.167   3.968   2.463
 2495SOL     OW 8383   6.879   4.553   3.170
 2495SOL    HW1 8384   6.961   4.504   3.199
 2495SOL    HW2 8385   6.874   4.640   3.219
 2496SOL     OW 8386   6.099   4.685   6.230
 2496SOL    HW1 8387   6.117   4.760   6.294
 2496SOL    HW2 8388   6.184   4.636   6.213
 2497SOL     OW 8389   0.410   0.300   2.150
 2497SOL    HW1 8390   0.421   0.376   2.214
 2497SOL    HW2 8391   0.457   0.219   2.187
 2498SOL     OW 8392   1.826   3.992   6.110
 2498SOL    HW1 8393   1.879   4.074   6.127
 2498SOL    HW2 8394   1.733   4.017   6.083
 2499SOL     OW 8395   6.400   3.690   2.166
 2499SOL    HW1 8396   6.363   3.638   2.243
 2499SOL    HW2 8397   6.491   3.656   2.143
 2500SOL     OW 8398   3.285   3.824   0.029
 2500SOL    HW1 8399   3.273   3.818   6.950
 2500SOL    HW2 8400   3.382   3.836   0.050
 2501SOL     OW 8401   5.931   5.534   6.872
 2501SOL    HW1 8402   5.981   5.620   6.865
 2501SOL    HW2 8403   5.851   5.546   6.931
 2502SOL     OW 8404   2.937   4.835   4.515
 2502SOL    HW1 8405   2.857   4.776   4.529
 2502SOL    HW2 8406   2.949   4.851   4.417
 2503SOL     OW 8407   2.289   6.564   6.254
 2503SOL    HW1 8408   2.371   6.619   6.239
 2503SOL    HW2 8409   2.316   6.471   6.278
 2504SOL     OW 8410   3.747   6.320   3.519
 2504SOL    HW1 8411   3.819   6.252   3.499
 2504SOL    HW2 8412   3.789   6.408   3.538
 2505SOL     OW 8413   0.269   5.212   3.578
 2505SOL    HW1 8414   0.315   5.144   3.635
 2505SOL    HW2 8415   0.337   5.268   3.531
 2506SOL     OW 8416   5.280   5.583   5.969
 2506SOL    HW1 8417   5.211   5.557   6.036
 2506SOL    HW2 8418   5.234   5.607   5.883
 2507SOL     OW 8419   6.914   3.285   0.965
 2507SOL    HW1 8420   7.001   3.238   0.982
 2507SOL    HW2 8421   6.838   3.226   0.994
 2508SOL     OW 8422   4.926   1.809   4.102
 2508SOL    HW1 8423   4.952   1.787   4.196
 2508SOL    HW2 8424   4.944   1.906   4.085
 2509SOL     OW 8425   0.082   4.528   5.486
 2509SOL    HW1 8426   0.011   4.555   5.552
 2509SOL    HW2 8427   0.047   4.455   5.428
 2510SOL     OW 8428   3.205   4.049   1.887
 2510SOL    HW1 8429   3.188   3.958   1.923
 2510SOL    HW2 8430   3.300   4.076   1.906
 2511SOL     OW 8431   2.125   0.450   5.079
 2511SOL    HW1 8432   2.135   0.484   5.173
 2511SOL    HW2 8433   2.127   0.527   5.015
 2512SOL     OW 8434   3.693   5.044   4.056
 2512SOL    HW1 8435   3.784   5.052   4.096
 2512SOL    HW2 8436   3.626   5.030   4.129
 2513SOL     OW 8437   2.189   5.667   5.734
 2513SOL    HW1 8438   2.135   5.723   5.798
 2513SOL    HW2 8439   2.234   5.593   5.784
 2514SOL     OW 8440   1.536   2.701   2.822
 2514SOL    HW1 8441   1.456   2.694   2.881
 2514SOL    HW2 8442   1.571   2.610   2.801
 2515SOL     OW 8443   1.040   1.419   1.294
 2515SOL    HW1 8444   1.089   1.428   1.207
 2515SOL    HW2 8445   0.991   1.331   1.295
 2516SOL     OW 8446   5.801   1.972   3.940
 2516SOL    HW1 8447   5.863   1.927   3.876
 2516SOL    HW2 8448   5.742   1.904   3.984
 2517SOL     OW 8449   1.790   1.584   4.016
 2517SOL    HW1 8450   1.754   1.675   3.996
 2517SOL    HW2 8451   1.850   1.588   4.096
 2518SOL     OW 8452   3.217   5.228   1.278
 2518SOL    HW1 8453   3.252   5.247   1.186
 2518SOL    HW2 8454   3.152   5.152   1.274
 2519SOL     OW 8455   0.964   1.187   0.676
 2519SOL    HW1 8456   1.003   1.241   0.750
 2519SOL    HW2 8457   1.000   1.094   0.679
 2520SOL     OW 8458   2.770   2.166   0.497
 2520SOL    HW1 8459   2.815   2.201   0.579
 2520SOL    HW2 8460   2.746   2.243   0.437
 2521SOL     OW 8461   4.886   1.177   5.129
 2521SOL    HW1 8462   4.814   1.156   5.062
 2521SOL    HW2 8463   4.861   1.137   5.217
 2522SOL     OW 8464   0.835   2.501   6.039
 2522SOL    HW1 8465   0.785   2.507   5.953
 2522SOL    HW2 8466   0.793   2.562   6.107
 2523SOL     OW 8467   2.080   4.990   7.005
 2523SOL    HW1 8468   2.109   4.898   6.979
 2523SOL    HW2 8469   2.113   5.055   6.937
 2524SOL     OW 8470   1.749   6.961   4.031
 2524SOL    HW1 8471   1.807   7.015   4.092
 2524SOL    HW2 8472   1.667   7.014   4.008
 2525SOL     OW 8473   6.667   2.327   4.378
 2525SOL    HW1 8474   6.622   2.321   4.467
 2525SOL    HW2 8475   6.607   2.373   4.313
 2526SOL     OW 8476   0.976   6.637   1.123
 2526SOL    HW1 8477   1.073   6.622   1.105
 2526SOL    HW2 8478   0.965   6.699   1.201
 2527SOL     OW 8479   4.649   4.790   6.667
 2527SOL    HW1 8480   4.649   4.866   6.602
 2527SOL    HW2 8481   4.693   4.819   6.752
 2528SOL     OW 8482   4.548   5.512   6.855
 2528SOL    HW1 8483   4.575   5.585   6.793
 2528SOL    HW2 8484   4.619   5.442   6.858
 2529SOL     OW 8485   0.242   6.758   6.711
 2529SOL    HW1 8486   0.152   6.750   6.668
 2529SOL    HW2 8487   0.245   6.841   6.767
 2530SOL     OW 8488   1.874   5.544   6.017
 2530SOL    HW1 8489   1.876   5.462   5.959
 2530SOL    HW2 8490   1.961   5.593   6.008
 2531SOL     OW 8491   6.303   5.375   5.624
 2531SOL    HW1 8492   6.290   5.438   5.701
 2531SOL    HW2 8493   6.282   5.282   5.653
 2532SOL     OW 8494   6.116   6.260   1.043
 2532SOL    HW1 8495   6.092   6.236   0.949
 2532SOL    HW2 8496   6.121   6.176   1.098
 2533SOL     OW 8497   5.141   0.621   3.288
 2533SOL    HW1 8498   5.165   0.587   3.379
 2533SOL    HW2 8499   5.178   0.714   3.277
 2534SOL     OW 8500   4.691   1.812   2.677
 2534SOL    HW1 8501   4.600   1.796   2.640
 2534SOL    HW2 8502   4.706   1.753   2.756
 2535SOL     OW 8503   3.584   2.652   6.172
 2535SOL    HW1 8504   3.601   2.720   6.243
 2535SOL    HW2 8505   3.576   2.698   6.083
 2536SOL     OW 8506   1.228   0.312   0.301
 2536SOL    HW1 8507   1.172   0.244   0.254
 2536SOL    HW2 8508   1.280   0.365   0.234
 2537SOL     OW 8509   4.281   0.494   6.675
 2537SOL    HW1 8510   4.297   0.411   6.621
 2537SOL    HW2 8511   4.220   0.473   6.751
 2538SOL     OW 8512   6.787   3.681   4.189
 2538SOL    HW1 8513   6.853   3.649   4.258
 2538SOL    HW2 8514   6.699   3.636   4.203
 2539SOL     OW 8515   5.057   1.779   5.114
 2539SOL    HW1 8516   5.116   1.768   5.035
 2539SOL    HW2 8517   5.103   1.743   5.196
 2540SOL     OW 8518   3.739   1.217   2.273
 2540SOL    HW1 8519   3.639   1.216   2.277
 2540SOL    HW2 8520   3.773   1.123   2.276
 2541SOL     OW 8521   3.526   6.300   5.255
 2541SOL    HW1 8522   3.511   6.217   5.200
 2541SOL    HW2 8523   3.625   6.317   5.261
 2542SOL     OW 8524   1.381   4.817   6.262
 2542SOL    HW1 8525   1.472   4.857   6.262
 2542SOL    HW2 8526   1.360   4.780   6.352
 2543SOL     OW 8527   1.889   0.939   4.065
 2543SOL    HW1 8528   1.828   0.941   3.986
 2543SOL    HW2 8529   1.901   0.845   4.096
 2544SOL     OW 8530   1.099   4.923   0.237
 2544SOL    HW1 8531   1.000   4.912   0.223
 2544SOL    HW2 8532   1.132   4.996   0.177
 2545SOL     OW 8533   2.655   6.160   2.847
 2545SOL    HW1 8534   2.617   6.234   2.791
 2545SOL    HW2 8535   2.654   6.075   2.794
 2546SOL     OW 8536   6.105   1.898   1.101
 2546SOL    HW1 8537   6.064   1.881   1.011
 2546SOL    HW2 8538   6.082   1.990   1.130
 2547SOL     OW 8539   0.135   3.776   4.866
 2547SOL    HW1 8540   0.138   3.754   4.963
 2547SOL    HW2 8541   0.176   3.701   4.813
 2548SOL     OW 8542   0.671   6.345   4.264
 2548SOL    HW1 8543   0.639   6.439   4.260
 2548SOL    HW2 8544   0.694   6.314   4.172
 2549SOL     OW 8545   0.071   1.941   0.939
 2549SOL    HW1 8546   0.073   2.025   0.885
 2549SOL    HW2 8547   0.046   1.864   0.880
 2550SOL     OW 8548   5.934   6.180   0.346
 2550SOL    HW1 8549   5.976   6.268   0.370
 2550SOL    HW2 8550   5.996   6.106   0.372
 2551SOL     OW 8551   1.675   4.241   6.592
 2551SOL    HW1 8552   1.733   4.275   6.517
 2551SOL    HW2 8553   1.591   4.202   6.554
 2552SOL     OW 8554   2.298   5.600   3.666
 2552SOL    HW1 8555   2.360   5.522   3.665
 2552SOL    HW2 8556   2.332   5.669   3.730
 2553SOL     OW 8557   3.622   3.577   6.922
 2553SOL    HW1 8558   3.623   3.482   6.952
 2553SOL    HW2 8559   3.535   3.597   6.878
 2554SOL     OW 8560   1.060   1.524   0.277
 2554SOL    HW1 8561   1.038   1.476   0.361
 2554SOL    HW2 8562   1.157   1.551   0.278
 2555SOL     OW 8563   6.172   2.376   6.724
 2555SOL    HW1 8564   6.089   2.324   6.744
 2555SOL    HW2 8565   6.152   2.474   6.727
 2556SOL     OW 8566   2.859   5.981   0.609
 2556SOL    HW1 8567   2.828   6.058   0.553
 2556SOL    HW2 8568   2.784   5.951   0.667
 2557SOL     OW 8569   2.255   3.918   6.925
 2557SOL    HW1 8570   2.250   3.864   7.008
 2557SOL    HW2 8571   2.297   3.865   6.852
 2558SOL     OW 8572   4.087   0.293   6.239
 2558SOL    HW1 8573   4.159   0.232   6.206
 2558SOL    HW2 8574   4.125   0.383   6.259
 2559SOL     OW 8575   0.468   5.014   4.833
 2559SOL    HW1 8576   0.560   4.977   4.847
 2559SOL    HW2 8577   0.404   4.938   4.820
 2560SOL     OW 8578   5.965   2.203   6.428
 2560SOL    HW1 8579   5.947   2.116   6.473
 2560SOL    HW2 8580   6.058   2.233   6.448
 2561SOL     OW 8581   3.018   5.323   5.008
 2561SOL    HW1 8582   3.043   5.409   4.963
 2561SOL    HW2 8583   2.919   5.322   5.022
 2562SOL     OW 8584   1.739   3.990   0.280
 2562SOL    HW1 8585   1.659   4.028   0.326
 2562SOL    HW2 8586   1.787   4.063   0.231
 2563SOL     OW 8587   2.582   1.126   0.090
 2563SOL    HW1 8588   2.601   1.108   7.012
 2563SOL    HW2 8589   2.561   1.223   0.102
 2564SOL     OW 8590   1.746   5.213   1.810
 2564SOL    HW1 8591   1.825   5.203   1.750
 2564SOL    HW2 8592   1.664   5.180   1.763
 2565SOL     OW 8593   1.855   0.722   1.254
 2565SOL    HW1 8594   1.770   0.694   1.300
 2565SOL    HW2 8595   1.933   0.692   1.309
 2566SOL     OW 8596   1.640   6.370   6.793
 2566SOL    HW1 8597   1.615   6.433   6.867
 2566SOL    HW2 8598   1.643   6.420   6.706
 2567SOL     OW 8599   1.521   6.143   0.060
 2567SOL    HW1 8600   1.557   6.152   6.987
 2567SOL    HW2 8601   1.423   6.122   0.056
 2568SOL     OW 8602   4.781   3.075   0.027
 2568SOL    HW1 8603   4.778   3.007   6.973
 2568SOL    HW2 8604   4.876   3.100   0.046
 2569SOL     OW 8605   2.976   0.351   3.259
 2569SOL    HW1 8606   2.942   0.445   3.257
 2569SOL    HW2 8607   3.064   0.346   3.211
 2570SOL     OW 8608   5.465   1.898   6.151
 2570SOL    HW1 8609   5.559   1.897   6.185
 2570SOL    HW2 8610   5.420   1.813   6.176
 2571SOL     OW 8611   1.250   4.301   4.397
 2571SOL    HW1 8612   1.177   4.233   4.395
 2571SOL    HW2 8613   1.265   4.336   4.305
 2572SOL     OW 8614   2.314   4.749   2.984
 2572SOL    HW1 8615   2.305   4.832   3.039
 2572SOL    HW2 8616   2.320   4.774   2.887
 2573SOL     OW 8617   1.199   6.946   0.980
 2573SOL    HW1 8618   1.165   6.934   0.887
 2573SOL    HW2 8619   1.253   6.866   1.007
 2574SOL     OW 8620   6.585   3.444   6.879
 2574SOL    HW1 8621   6.557   3.374   6.813
 2574SOL    HW2 8622   6.559   3.535   6.845
 2575SOL     OW 8623   6.954   5.580   6.039
 2575SOL    HW1 8624   6.963   5.590   6.138
 2575SOL    HW2 8625   7.017   5.509   6.007
 2576SOL     OW 8626   4.648   6.142   4.082
 2576SOL    HW1 8627   4.608   6.231   4.060
 2576SOL    HW2 8628   4.633   6.079   4.007
 2577SOL     OW 8629   2.561   4.675   2.363
 2577SOL    HW1 8630   2.511   4.595   2.332
 2577SOL    HW2 8631   2.653   4.674   2.324
 2578SOL     OW 8632   4.004   2.190   4.170
 2578SOL    HW1 8633   4.031   2.175   4.075
 2578SOL    HW2 8634   3.910   2.157   4.183
 2579SOL     OW 8635   1.105   6.192   3.636
 2579SOL    HW1 8636   1.010   6.163   3.631
 2579SOL    HW2 8637   1.144   6.197   3.544
 2580SOL     OW 8638   1.654   2.894   6.315
 2580SOL    HW1 8639   1.651   2.856   6.408
 2580SOL    HW2 8640   1.674   2.821   6.250
 2581SOL     OW 8641   3.510   0.095   5.130
 2581SOL    HW1 8642   3.416   0.072   5.103
 2581SOL    HW2 8643   3.574   0.042   5.076
 2582SOL     OW 8644   0.398   2.808   1.520
 2582SOL    HW1 8645   0.370   2.884   1.579
 2582SOL    HW2 8646   0.497   2.808   1.509
 2583SOL     OW 8647   5.878   0.063   0.819
 2583SOL    HW1 8648   5.968   0.091   0.785
 2583SOL    HW2 8649   5.879   6.985   0.840
 2584SOL     OW 8650   4.479   4.969   5.555
 2584SOL    HW1 8651   4.424   5.016   5.624
 2584SOL    HW2 8652   4.527   5.037   5.500
 2585SOL     OW 8653   3.508   5.285   6.495
 2585SOL    HW1 8654   3.448   5.284   6.415
 2585SOL    HW2 8655   3.490   5.205   6.552
 2586SOL     OW 8656   2.353   0.811   4.526
 2586SOL    HW1 8657   2.376   0.795   4.622
 2586SOL    HW2 8658   2.413   0.756   4.467
 2587SOL     OW 8659   6.491   1.498   3.575
 2587SOL    HW1 8660   6.571   1.448   3.609
 2587SOL    HW2 8661   6.503   1.596   3.590
 2588SOL     OW 8662   4.273   0.790   5.753
 2588SOL    HW1 8663   4.272   0.884   5.786
 2588SOL    HW2 8664   4.367   0.764   5.731
 2589SOL     OW 8665   1.877   6.627   6.916
 2589SOL    HW1 8666   1.872   6.527   6.924
 2589SOL    HW2 8667   1.889   6.652   6.820
 2590SOL     OW 8668   2.635   5.849   1.039
 2590SOL    HW1 8669   2.695   5.773   1.063
 2590SOL    HW2 8670   2.540   5.823   1.057
 2591SOL     OW 8671   5.870   5.624   3.922
 2591SOL    HW1 8672   5.858   5.650   4.018
 2591SOL    HW2 8673   5.967   5.612   3.903
 2592SOL     OW 8674   2.180   4.568   0.403
 2592SOL    HW1 8675   2.175   4.661   0.440
 2592SOL    HW2 8676   2.184   4.502   0.478
 2593SOL     OW 8677   3.071   4.246   0.735
 2593SOL    HW1 8678   3.106   4.328   0.689
 2593SOL    HW2 8679   3.095   4.165   0.681
 2594SOL     OW 8680   1.447   3.697   4.347
 2594SOL    HW1 8681   1.496   3.651   4.273
 2594SOL    HW2 8682   1.513   3.737   4.411
 2595SOL     OW 8683   1.687   0.791   3.189
 2595SOL    HW1 8684   1.755   0.860   3.215
 2595SOL    HW2 8685   1.670   0.795   3.091
 2596SOL     OW 8686   1.308   2.494   6.819
 2596SOL    HW1 8687   1.406   2.493   6.797
 2596SOL    HW2 8688   1.272   2.401   6.818
 2597SOL     OW 8689   6.718   5.862   6.298
 2597SOL    HW1 8690   6.816   5.846   6.291
 2597SOL    HW2 8691   6.669   5.775   6.293
 2598SOL     OW 8692   5.579   2.515   1.982
 2598SOL    HW1 8693   5.551   2.467   2.065
 2598SOL    HW2 8694   5.616   2.604   2.006
 2599SOL     OW 8695   3.078   5.993   1.734
 2599SOL    HW1 8696   3.053   6.052   1.657
 2599SOL    HW2 8697   3.049   5.899   1.714
 2600SOL     OW 8698   6.026   4.128   4.310
 2600SOL    HW1 8699   6.099   4.075   4.268
 2600SOL    HW2 8700   6.054   4.224   4.316
 2601SOL     OW 8701   0.012   1.879   3.457
 2601SOL    HW1 8702   0.101   1.878   3.412
 2601SOL    HW2 8703   6.965   1.829   3.402
 2602SOL     OW 8704   1.524   4.454   3.720
 2602SOL    HW1 8705   1.598   4.388   3.734
 2602SOL    HW2 8706   1.529   4.525   3.790
 2603SOL     OW 8707   3.269   6.638   2.762
 2603SOL    HW1 8708   3.269   6.545   2.724
 2603SOL    HW2 8709   3.359   6.678   2.752
 2604SOL     OW 8710   4.603   2.459   2.890
 2604SOL    HW1 8711   4.509   2.474   2.920
 2604SOL    HW2 8712   4.666   2.498   2.957
 2605SOL     OW 8713   1.733   3.767   1.820
 2605SOL    HW1 8714   1.680   3.828   1.880
 2605SOL    HW2 8715   1.806   3.819   1.777
 2606SOL     OW 8716   4.675   3.513   1.333
 2606SOL    HW1 8717   4.692   3.540   1.428
 2606SOL    HW2 8718   4.594   3.560   1.299
 2607SOL     OW 8719   2.461   2.375   1.401
 2607SOL    HW1 8720   2.407   2.291   1.395
 2607SOL    HW2 8721   2.529   2.366   1.474
 2608SOL     OW 8722   2.631   4.943   5.515
 2608SOL    HW1 8723   2.659   4.975   5.606
 2608SOL    HW2 8724   2.710   4.905   5.468
 2609SOL     OW 8725   0.004   2.393   0.781
 2609SOL    HW1 8726   6.984   2.303   0.767
 2609SOL    HW2 8727   0.095   2.383   0.823
 2610SOL     OW 8728   1.214   4.532   4.521
 2610SOL    HW1 8729   1.194   4.445   4.478
 2610SOL    HW2 8730   1.130   4.572   4.558
 2611SOL     OW 8731   5.293   6.884   6.493
 2611SOL    HW1 8732   5.197   6.880   6.466
 2611SOL    HW2 8733   5.334   6.969   6.458
 2612SOL     OW 8734   6.511   0.289   5.800
 2612SOL    HW1 8735   6.463   0.340   5.871
 2612SOL    HW2 8736   6.469   0.199   5.790
 2613SOL     OW 8737   0.701   6.252   6.782
 2613SOL    HW1 8738   0.627   6.316   6.762
 2613SOL    HW2 8739   0.766   6.294   6.845
 2614SOL     OW 8740   6.370   1.039   6.683
 2614SOL    HW1 8741   6.419   0.992   6.756
 2614SOL    HW2 8742   6.433   1.099   6.634
 2615SOL     OW 8743   0.659   3.480   0.147
 2615SOL    HW1 8744   0.592   3.515   0.082
 2615SOL    HW2 8745   0.648   3.381   0.157
 2616SOL     OW 8746   1.225   0.912   5.413
 2616SOL    HW1 8747   1.149   0.894   5.350
 2616SOL    HW2 8748   1.196   0.892   5.507
 2617SOL     OW 8749   5.239   0.437   1.106
 2617SOL    HW1 8750   5.239   0.519   1.164
 2617SOL    HW2 8751   5.332   0.401   1.099
 2618SOL     OW 8752   1.101   6.414   6.401
 2618SOL    HW1 8753   1.066   6.417   6.307
 2618SOL    HW2 8754   1.161   6.335   6.411
 2619SOL     OW 8755   5.598   1.013   2.287
 2619SOL    HW1 8756   5.551   1.045   2.205
 2619SOL    HW2 8757   5.554   1.052   2.368
 2620SOL     OW 8758   5.888   1.025   1.112
 2620SOL    HW1 8759   5.850   1.064   1.028
 2620SOL    HW2 8760   5.833   1.055   1.190
 2621SOL     OW 8761   1.360   6.558   1.814
 2621SOL    HW1 8762   1.395   6.504   1.738
 2621SOL    HW2 8763   1.430   6.566   1.885
 2622SOL     OW 8764   3.626   3.396   6.552
 2622SOL    HW1 8765   3.717   3.368   6.581
 2622SOL    HW2 8766   3.561   3.377   6.625
 2623SOL     OW 8767   1.231   6.516   3.412
 2623SOL    HW1 8768   1.150   6.537   3.466
 2623SOL    HW2 8769   1.306   6.490   3.473
 2624SOL     OW 8770   0.308   1.816   5.369
 2624SOL    HW1 8771   0.248   1.878   5.420
 2624SOL    HW2 8772   0.393   1.864   5.346
 2625SOL     OW 8773   2.375   4.934   6.316
 2625SOL    HW1 8774   2.355   5.028   6.286
 2625SOL    HW2 8775   2.455   4.935   6.376
 2626SOL     OW 8776   6.804   5.735   0.025
 2626SOL    HW1 8777   6.900   5.756   0.043
 2626SOL    HW2 8778   6.747   5.772   0.100
 2627SOL     OW 8779   2.036   0.173   6.027
 2627SOL    HW1 8780   1.972   0.133   6.092
 2627SOL    HW2 8781   1.997   0.256   5.987
 2628SOL     OW 8782   0.460   4.410   1.906
 2628SOL    HW1 8783   0.408   4.405   1.991
 2628SOL    HW2 8784   0.483   4.506   1.887
 2629SOL     OW 8785   3.081   3.584   2.468
 2629SOL    HW1 8786   3.032   3.670   2.483
 2629SOL    HW2 8787   3.179   3.599   2.476
 2630SOL     OW 8788   3.988   1.056   3.816
 2630SOL    HW1 8789   3.912   1.111   3.783
 2630SOL    HW2 8790   3.966   1.019   3.906
 2631SOL     OW 8791   6.097   0.146   6.946
 2631SOL    HW1 8792   6.076   0.117   6.853
 2631SOL    HW2 8793   6.148   0.232   6.944
 2632SOL     OW 8794   5.224   4.667   2.532
 2632SOL    HW1 8795   5.161   4.601   2.490
 2632SOL    HW2 8796   5.177   4.753   2.549
 2633SOL     OW 8797   0.084   3.363   6.247
 2633SOL    HW1 8798   0.129   3.445   6.211
 2633SOL    HW2 8799   0.148   3.312   6.304
 2634SOL     OW 8800   0.572   0.439   6.383
 2634SOL    HW1 8801   0.566   0.538   6.371
 2634SOL    HW2 8802   0.480   0.400   6.385
 2635SOL     OW 8803   5.257   5.211   3.336
 2635SOL    HW1 8804   5.302   5.138   3.285
 2635SOL    HW2 8805   5.245   5.291   3.278
 2636SOL     OW 8806   4.076   5.895   5.142
 2636SOL    HW1 8807   4.173   5.874   5.157
 2636SOL    HW2 8808   4.028   5.812   5.114
 2637SOL     OW 8809   1.164   1.061   3.514
 2637SOL    HW1 8810   1.206   1.150   3.499
 2637SOL    HW2 8811   1.107   1.037   3.435
 2638SOL     OW 8812   0.889   6.141   4.414
 2638SOL    HW1 8813   0.910   6.170   4.320
 2638SOL    HW2 8814   0.867   6.221   4.470
 2639SOL     OW 8815   4.415   4.868   5.148
 2639SOL    HW1 8816   4.349   4.936   5.116
 2639SOL    HW2 8817   4.493   4.915   5.191
 2640SOL     OW 8818   2.060   0.100   3.522
 2640SOL    HW1 8819   2.075   0.004   3.498
 2640SOL    HW2 8820   2.011   0.145   3.448
 2641SOL     OW 8821   6.206   2.660   6.774
 2641SOL    HW1 8822   6.217   2.682   6.871
 2641SOL    HW2 8823   6.214   2.743   6.719
 2642SOL     OW 8824   5.980   0.886   3.852
 2642SOL    HW1 8825   6.069   0.916   3.888
 2642SOL    HW2 8826   5.922   0.965   3.835
 2643SOL     OW 8827   2.236   4.706   3.698
 2643SOL    HW1 8828   2.182   4.633   3.657
 2643SOL    HW2 8829   2.249   4.780   3.632
 2644SOL     OW 8830   5.004   5.198   4.547
 2644SOL    HW1 8831   5.001   5.252   4.463
 2644SOL    HW2 8832   5.097   5.164   4.561
 2645SOL     OW 8833   4.883   5.907   3.513
 2645SOL    HW1 8834   4.877   5.968   3.593
 2645SOL    HW2 8835   4.880   5.812   3.543
 2646SOL     OW 8836   0.725   2.692   6.213
 2646SOL    HW1 8837   0.717   2.700   6.313
 2646SOL    HW2 8838   0.702   2.780   6.171
 2647SOL     OW 8839   5.458   0.599   1.838
 2647SOL    HW1 8840   5.487   0.687   1.876
 2647SOL    HW2 8841   5.521   0.527   1.867
 2648SOL     OW 8842   0.730   6.853   6.785
 2648SOL    HW1 8843   0.777   6.831   6.699
 2648SOL    HW2 8844   0.636   6.820   6.780
 2649SOL     OW 8845   5.000   1.741   2.941
 2649SOL    HW1 8846   4.902   1.731   2.922
 2649SOL    HW2 8847   5.033   1.826   2.901
 2650SOL     OW 8848   2.619   6.251   4.484
 2650SOL    HW1 8849   2.646   6.184   4.553
 2650SOL    HW2 8850   2.699   6.282   4.434
 2651SOL     OW 8851   4.129   2.040   4.457
 2651SOL    HW1 8852   4.169   2.068   4.370
 2651SOL    HW2 8853   4.164   1.949   4.482
 2652SOL     OW 8854   4.942   4.041   5.424
 2652SOL    HW1 8855   4.890   3.964   5.387
 2652SOL    HW2 8856   4.913   4.125   5.377
 2653SOL     OW 8857   2.374   5.662   0.293
 2653SOL    HW1 8858   2.286   5.688   0.333
 2653SOL    HW2 8859   2.425   5.745   0.270
 2654SOL     OW 8860   6.491   1.118   0.581
 2654SOL    HW1 8861   6.470   1.184   0.652
 2654SOL    HW2 8862   6.413   1.057   0.567
 2655SOL     OW 8863   5.131   6.481   2.479
 2655SOL    HW1 8864   5.217   6.486   2.428
 2655SOL    HW2 8865   5.114   6.568   2.525
 2656SOL     OW 8866   4.382   6.170   3.202
 2656SOL    HW1 8867   4.388   6.131   3.109
 2656SOL    HW2 8868   4.407   6.266   3.199
 2657SOL     OW 8869   0.024   3.714   0.106
 2657SOL    HW1 8870   6.969   3.743   0.167
 2657SOL    HW2 8871   0.098   3.673   0.160
 2658SOL     OW 8872   3.260   5.370   0.660
 2658SOL    HW1 8873   3.325   5.446   0.662
 2658SOL    HW2 8874   3.182   5.392   0.719
 2659SOL     OW 8875   0.357   2.329   5.244
 2659SOL    HW1 8876   0.443   2.343   5.196
 2659SOL    HW2 8877   0.305   2.257   5.198
 2660SOL     OW 8878   0.388   1.623   2.018
 2660SOL    HW1 8879   0.320   1.695   2.007
 2660SOL    HW2 8880   0.441   1.614   1.933
 2661SOL     OW 8881   1.314   1.115   0.980
 2661SOL    HW1 8882   1.214   1.112   0.978
 2661SOL    HW2 8883   1.349   1.102   0.887
 2662SOL     OW 8884   2.857   1.308   2.150
 2662SOL    HW1 8885   2.934   1.317   2.213
 2662SOL    HW2 8886   2.774   1.344   2.194
 2663SOL     OW 8887   4.218   6.873   0.466
 2663SOL    HW1 8888   4.197   6.946   0.530
 2663SOL    HW2 8889   4.293   6.817   0.502
 2664SOL     OW 8890   4.769   3.891   5.278
 2664SOL    HW1 8891   4.690   3.923   5.330
 2664SOL    HW2 8892   4.781   3.948   5.197
 2665SOL     OW 8893   2.056   3.581   4.296
 2665SOL    HW1 8894   2.091   3.660   4.346
 2665SOL    HW2 8895   2.068   3.498   4.351
 2666SOL     OW 8896   2.166   3.982   1.873
 2666SOL    HW1 8897   2.161   3.919   1.951
 2666SOL    HW2 8898   2.085   3.971   1.816
 2667SOL     OW 8899   0.074   2.951   4.928
 2667SOL    HW1 8900   6.995   2.965   4.923
 2667SOL    HW2 8901   0.119   3.036   4.957
 2668SOL     OW 8902   6.318   0.604   3.240
 2668SOL    HW1 8903   6.344   0.520   3.287
 2668SOL    HW2 8904   6.225   0.594   3.203
 2669SOL     OW 8905   2.391   0.933   0.117
 2669SOL    HW1 8906   2.423   0.839   0.123
 2669SOL    HW2 8907   2.465   0.992   0.086
 2670SOL     OW 8908   0.816   0.285   6.746
 2670SOL    HW1 8909   0.816   0.349   6.669
 2670SOL    HW2 8910   0.724   0.280   6.785
 2671SOL     OW 8911   5.358   4.600   6.084
 2671SOL    HW1 8912   5.392   4.628   5.994
 2671SOL    HW2 8913   5.269   4.555   6.074
 2672SOL     OW 8914   3.308   1.422   2.226
 2672SOL    HW1 8915   3.217   1.389   2.252
 2672SOL    HW2 8916   3.372   1.346   2.225
 2673SOL     OW 8917   3.518   0.697   2.430
 2673SOL    HW1 8918   3.443   0.743   2.477
 2673SOL    HW2 8919   3.566   0.638   2.494
 2674SOL     OW 8920   0.211   5.622   2.850
 2674SOL    HW1 8921   0.162   5.707   2.832
 2674SOL    HW2 8922   0.202   5.561   2.771
 2675SOL     OW 8923   5.142   0.889   4.093
 2675SOL    HW1 8924   5.102   0.924   4.009
 2675SOL    HW2 8925   5.106   0.797   4.111
 2676SOL     OW 8926   3.869   4.028   3.829
 2676SOL    HW1 8927   3.795   3.997   3.889
 2676SOL    HW2 8928   3.832   4.095   3.764
 2677SOL     OW 8929   2.239   5.481   1.174
 2677SOL    HW1 8930   2.245   5.509   1.078
 2677SOL    HW2 8931   2.222   5.382   1.179
 2678SOL     OW 8932   3.705   1.599   3.185
 2678SOL    HW1 8933   3.717   1.505   3.155
 2678SOL    HW2 8934   3.687   1.658   3.106
 2679SOL     OW 8935   2.134   3.160   2.572
 2679SOL    HW1 8936   2.192   3.092   2.616
 2679SOL    HW2 8937   2.095   3.122   2.488
 2680SOL     OW 8938   5.842   1.988   6.982
 2680SOL    HW1 8939   5.817   1.892   6.967
 2680SOL    HW2 8940   5.897   1.995   0.046
 2681SOL     OW 8941   1.975   2.188   3.851
 2681SOL    HW1 8942   2.068   2.214   3.828
 2681SOL    HW2 8943   1.935   2.257   3.912
 2682SOL     OW 8944   3.916   4.365   1.524
 2682SOL    HW1 8945   3.917   4.288   1.587
 2682SOL    HW2 8946   3.823   4.381   1.491
 2683SOL     OW 8947   2.282   4.242   2.153
 2683SOL    HW1 8948   2.268   4.160   2.209
 2683SOL    HW2 8949   2.324   4.217   2.066
 2684SOL     OW 8950   7.015   0.007   4.192
 2684SOL    HW1 8951   0.087   6.989   4.209
 2684SOL    HW2 8952   6.946   6.956   4.211
 2685SOL     OW 8953   0.788   5.774   5.991
 2685SOL    HW1 8954   0.841   5.691   6.007
 2685SOL    HW2 8955   0.690   5.753   5.992
 2686SOL     OW 8956   0.791   1.005   5.619
 2686SOL    HW1 8957   0.847   1.082   5.588
 2686SOL    HW2 8958   0.727   1.037   5.689
 2687SOL     OW 8959   3.995   1.803   1.430
 2687SOL    HW1 8960   4.042   1.821   1.516
 2687SOL    HW2 8961   3.964   1.708   1.427
 2688SOL     OW 8962   4.029   2.456   6.456
 2688SOL    HW1 8963   3.960   2.527   6.440
 2688SOL    HW2 8964   4.025   2.426   6.551
 2689SOL     OW 8965   1.300   3.815   3.478
 2689SOL    HW1 8966   1.399   3.819   3.490
 2689SOL    HW2 8967   1.262   3.908   3.482
 2690SOL     OW 8968   4.762   1.567   5.819
 2690SOL    HW1 8969   4.856   1.539   5.836
 2690SOL    HW2 8970   4.731   1.629   5.891
 2691SOL     OW 8971   6.718   3.806   5.416
 2691SOL    HW1 8972   6.775   3.874   5.369
 2691SOL    HW2 8973   6.728   3.717   5.372
 2692SOL     OW 8974   2.251   5.921   2.316
 2692SOL    HW1 8975   2.305   6.005   2.322
 2692SOL    HW2 8976   2.201   5.920   2.230
 2693SOL     OW 8977   1.418   6.013   3.337
 2693SOL    HW1 8978   1.453   6.102   3.367
 2693SOL    HW2 8979   1.397   6.016   3.239
 2694SOL     OW 8980   2.768   0.104   2.393
 2694SOL    HW1 8981   2.819   0.022   2.420
 2694SOL    HW2 8982   2.679   0.077   2.355
 2695SOL     OW 8983   0.145   5.494   3.511
 2695SOL    HW1 8984   0.217   5.426   3.527
 2695SOL    HW2 8985   0.182   5.585   3.529
 2696SOL     OW 8986   5.000   5.233   6.233
 2696SOL    HW1 8987   5.063   5.217   6.157
 2696SOL    HW2 8988   4.906   5.230   6.200
 2697SOL     OW 8989   4.308   2.647   6.555
 2697SOL    HW1 8990   4.237   2.698   6.602
 2697SOL    HW2 8991   4.382   2.625   6.619
 2698SOL     OW 8992   1.598   5.286   5.995
 2698SOL    HW1 8993   1.568   5.265   5.902
 2698SOL    HW2 8994   1.526   5.261   6.060
 2699SOL     OW 8995   2.986   6.167   1.929
 2699SOL    HW1 8996   3.073   6.202   1.964
 2699SOL    HW2 8997   3.004   6.093   1.864
 2700SOL     OW 8998   3.813   1.595   1.823
 2700SOL    HW1 8999   3.785   1.676   1.771
 2700SOL    HW2 9000   3.828   1.519   1.760
 2701SOL     OW 9001   4.931   2.949   4.844
 2701SOL    HW1 9002   4.970   2.860   4.868
 2701SOL    HW2 9003   4.875   2.982   4.919
 2702SOL     OW 9004   2.502   1.336   5.003
 2702SOL    HW1 9005   2.584   1.371   4.959
 2702SOL    HW2 9006   2.422   1.384   4.966
 2703SOL     OW 9007   2.501   6.781   2.090
 2703SOL    HW1 9008   2.589   6.767   2.136
 2703SOL    HW2 9009   2.437   6.823   2.154
 2704SOL     OW 9010   5.620   0.548   3.507
 2704SOL    HW1 9011   5.565   0.561   3.425
 2704SOL    HW2 9012   5.693   0.482   3.489
 2705SOL     OW 9013   0.591   0.145   5.621
 2705SOL    HW1 9014   0.679   0.107   5.651
 2705SOL    HW2 9015   0.527   0.143   5.697
 2706SOL     OW 9016   6.588   3.850   3.673
 2706SOL    HW1 9017   6.495   3.887   3.661
 2706SOL    HW2 9018   6.583   3.763   3.721
 2707SOL     OW 9019   4.661   1.258   3.218
 2707SOL    HW1 9020   4.618   1.231   3.304
 2707SOL    HW2 9021   4.752   1.296   3.237
 2708SOL     OW 9022   5.281   3.566   5.777
 2708SOL    HW1 9023   5.353   3.634   5.793
 2708SOL    HW2 9024   5.192   3.605   5.800
 2709SOL     OW 9025   5.272   1.271   5.597
 2709SOL    HW1 9026   5.365   1.264   5.562
 2709SOL    HW2 9027   5.245   1.368   5.602
 2710SOL     OW 9028   0.604   2.629   4.680
 2710SOL    HW1 9029   0.550   2.679   4.748
 2710SOL    HW2 9030   0.548   2.612   4.599
 2711SOL     OW 9031   3.835   1.199   1.894
 2711SOL    HW1 9032   3.885   1.118   1.924
 2711SOL    HW2 9033   3.752   1.208   1.950
 2712SOL     OW 9034   4.228   6.103   2.437
 2712SOL    HW1 9035   4.310   6.077   2.385
 2712SOL    HW2 9036   4.147   6.064   2.393
 2713SOL     OW 9037   3.917   4.744   5.422
 2713SOL    HW1 9038   3.863   4.720   5.503
 2713SOL    HW2 9039   3.903   4.675   5.351
 2714SOL     OW 9040   3.119   4.812   6.310
 2714SOL    HW1 9041   3.169   4.850   6.387
 2714SOL    HW2 9042   3.167   4.832   6.224
 2715SOL     OW 9043   4.353   0.264   6.571
 2715SOL    HW1 9044   4.398   0.206   6.503
 2715SOL    HW2 9045   4.254   0.248   6.567
 2716SOL     OW 9046   3.600   1.382   2.941
 2716SOL    HW1 9047   3.624   1.477   2.923
 2716SOL    HW2 9048   3.681   1.325   2.928
 2717SOL     OW 9049   0.720   1.528   2.010
 2717SOL    HW1 9050   0.636   1.492   2.050
 2717SOL    HW2 9051   0.696   1.598   1.943
 2718SOL     OW 9052   0.381   0.598   5.899
 2718SOL    HW1 9053   0.400   0.681   5.951
 2718SOL    HW2 9054   0.389   0.617   5.801
 2719SOL     OW 9055   1.105   4.652   2.989
 2719SOL    HW1 9056   1.057   4.675   2.905
 2719SOL    HW2 9057   1.149   4.735   3.025
 2720SOL     OW 9058   2.169   6.216   6.169
 2720SOL    HW1 9059   2.158   6.166   6.254
 2720SOL    HW2 9060   2.081   6.221   6.122
 2721SOL     OW 9061   2.848   6.490   1.933
 2721SOL    HW1 9062   2.838   6.471   2.030
 2721SOL    HW2 9063   2.772   6.450   1.882
 2722SOL     OW 9064   4.031   5.791   6.519
 2722SOL    HW1 9065   4.005   5.769   6.425
 2722SOL    HW2 9066   4.068   5.710   6.564
 2723SOL     OW 9067   3.096   6.005   6.749
 2723SOL    HW1 9068   3.052   6.061   6.678
 2723SOL    HW2 9069   3.026   5.951   6.796
 2724SOL     OW 9070   0.317   6.604   0.978
 2724SOL    HW1 9071   0.401   6.641   0.940
 2724SOL    HW2 9072   0.275   6.672   1.038
 2725SOL     OW 9073   6.030   4.015   4.585
 2725SOL    HW1 9074   6.006   4.035   4.490
 2725SOL    HW2 9075   5.960   4.053   4.646
 2726SOL     OW 9076   6.210   1.795   2.051
 2726SOL    HW1 9077   6.223   1.869   2.116
 2726SOL    HW2 9078   6.294   1.741   2.043
 2727SOL     OW 9079   1.638   5.248   3.754
 2727SOL    HW1 9080   1.731   5.243   3.791
 2727SOL    HW2 9081   1.572   5.246   3.828
 2728SOL     OW 9082   4.666   5.429   5.712
 2728SOL    HW1 9083   4.596   5.499   5.726
 2728SOL    HW2 9084   4.674   5.409   5.615
 2729SOL     OW 9085   5.680   0.454   6.460
 2729SOL    HW1 9086   5.746   0.434   6.532
 2729SOL    HW2 9087   5.722   0.513   6.391
 2730SOL     OW 9088   1.561   5.676   1.849
 2730SOL    HW1 9089   1.635   5.610   1.856
 2730SOL    HW2 9090   1.496   5.646   1.779
 2731SOL     OW 9091   3.131   4.068   4.215
 2731SOL    HW1 9092   3.042   4.106   4.189
 2731SOL    HW2 9093   3.151   4.092   4.310
 2732SOL     OW 9094   5.777   0.120   2.104
 2732SOL    HW1 9095   5.753   0.172   2.186
 2732SOL    HW2 9096   5.706   0.054   2.084
 2733SOL     OW 9097   1.226   6.123   0.074
 2733SOL    HW1 9098   1.156   6.051   0.076
 2733SOL    HW2 9099   1.206   6.187   0.001
 2734SOL     OW 9100   3.463   6.015   2.671
 2734SOL    HW1 9101   3.366   5.990   2.661
 2734SOL    HW2 9102   3.505   5.957   2.741
 2735SOL     OW 9103   0.495   1.367   1.620
 2735SOL    HW1 9104   0.487   1.435   1.693
 2735SOL    HW2 9105   0.431   1.389   1.547
 2736SOL     OW 9106   4.948   4.089   3.437
 2736SOL    HW1 9107   4.992   4.023   3.498
 2736SOL    HW2 9108   5.008   4.105   3.359
 2737SOL     OW 9109   3.168   0.785   5.347
 2737SOL    HW1 9110   3.132   0.872   5.315
 2737SOL    HW2 9111   3.145   0.713   5.282
 2738SOL     OW 9112   5.515   6.082   1.358
 2738SOL    HW1 9113   5.440   6.127   1.407
 2738SOL    HW2 9114   5.586   6.149   1.336
 2739SOL     OW 9115   6.801   5.198   1.503
 2739SOL    HW1 9116   6.751   5.111   1.501
 2739SOL    HW2 9117   6.737   5.272   1.527
 2740SOL     OW 9118   0.178   6.238   3.458
 2740SOL    HW1 9119   0.265   6.190   3.450
 2740SOL    HW2 9120   0.194   6.337   3.452
 2741SOL     OW 9121   1.282   0.457   5.750
 2741SOL    HW1 9122   1.382   0.455   5.759
 2741SOL    HW2 9123   1.253   0.378   5.695
 2742SOL     OW 9124   3.250   5.740   1.972
 2742SOL    HW1 9125   3.168   5.726   1.917
 2742SOL    HW2 9126   3.303   5.816   1.933
 2743SOL     OW 9127   5.302   1.905   1.912
 2743SOL    HW1 9128   5.350   1.873   1.831
 2743SOL    HW2 9129   5.231   1.970   1.885
 2744SOL     OW 9130   3.460   4.142   2.587
 2744SOL    HW1 9131   3.417   4.228   2.560
 2744SOL    HW2 9132   3.421   4.066   2.534
 2745SOL     OW 9133   0.505   6.497   0.697
 2745SOL    HW1 9134   0.573   6.428   0.674
 2745SOL    HW2 9135   0.551   6.585   0.711
 2746SOL     OW 9136   1.419   0.675   3.682
 2746SOL    HW1 9137   1.435   0.772   3.697
 2746SOL    HW2 9138   1.473   0.644   3.604
 2747SOL     OW 9139   3.793   4.908   0.968
 2747SOL    HW1 9140   3.814   4.887   0.873
 2747SOL    HW2 9141   3.694   4.921   0.978
 2748SOL     OW 9142   4.349   0.332   0.472
 2748SOL    HW1 9143   4.295   0.390   0.533
 2748SOL    HW2 9144   4.445   0.336   0.499
 2749SOL     OW 9145   3.277   2.076   0.584
 2749SOL    HW1 9146   3.231   2.051   0.669
 2749SOL    HW2 9147   3.326   2.163   0.597
 2750SOL     OW 9148   3.186   5.478   2.446
 2750SOL    HW1 9149   3.196   5.514   2.353
 2750SOL    HW2 9150   3.277   5.460   2.485
 2751SOL     OW 9151   5.624   4.842   1.127
 2751SOL    HW1 9152   5.714   4.811   1.157
 2751SOL    HW2 9153   5.631   4.890   1.040
 2752SOL     OW 9154   4.045   5.004   0.042
 2752SOL    HW1 9155   4.035   4.985   0.139
 2752SOL    HW2 9156   3.955   5.011   7.019
 2753SOL     OW 9157   5.537   5.483   5.376
 2753SOL    HW1 9158   5.483   5.399   5.378
 2753SOL    HW2 9159   5.631   5.462   5.403
 2754SOL     OW 9160   1.582   7.012   6.025
 2754SOL    HW1 9161   1.556   0.083   6.060
 2754SOL    HW2 9162   1.651   0.003   5.954
 2755SOL     OW 9163   3.315   0.689   2.165
 2755SOL    HW1 9164   3.295   0.744   2.085
 2755SOL    HW2 9165   3.413   0.689   2.183
 2756SOL     OW 9166   4.821   5.970   0.333
 2756SOL    HW1 9167   4.842   5.928   0.245
 2756SOL    HW2 9168   4.906   5.993   0.380
 2757SOL     OW 9169   0.172   5.448   1.442
 2757SOL    HW1 9170   0.091   5.396   1.416
 2757SOL    HW2 9171   0.254   5.392   1.430
 2758SOL     OW 9172   4.096   0.168   6.498
 2758SOL    HW1 9173   4.091   0.081   6.450
 2758SOL    HW2 9174   4.083   0.243   6.433
 2759SOL     OW 9175   5.206   5.392   4.988
 2759SOL    HW1 9176   5.279   5.376   4.920
 2759SOL    HW2 9177   5.142   5.459   4.951
 2760SOL     OW 9178   2.498   5.644   4.017
 2760SOL    HW1 9179   2.595   5.646   4.041
 2760SOL    HW2 9180   2.459   5.555   4.043
 2761SOL     OW 9181   2.023   5.238   3.547
 2761SOL    HW1 9182   1.939   5.292   3.547
 2761SOL    HW2 9183   2.012   5.161   3.483
 2762SOL     OW 9184   1.413   6.853   4.978
 2762SOL    HW1 9185   1.469   6.934   4.993
 2762SOL    HW2 9186   1.352   6.839   5.057
 2763SOL     OW 9187   4.973   2.296   2.030
 2763SOL    HW1 9188   5.019   2.373   2.073
 2763SOL    HW2 9189   4.960   2.315   1.933
 2764SOL     OW 9190   6.585   1.200   1.938
 2764SOL    HW1 9191   6.682   1.211   1.918
 2764SOL    HW2 9192   6.535   1.185   1.853
 2765SOL     OW 9193   5.150   1.784   2.147
 2765SOL    HW1 9194   5.142   1.880   2.174
 2765SOL    HW2 9195   5.221   1.776   2.077
 2766SOL     OW 9196   6.201   0.332   2.860
 2766SOL    HW1 9197   6.216   0.310   2.764
 2766SOL    HW2 9198   6.103   0.350   2.875
 2767SOL     OW 9199   6.052   4.600   5.594
 2767SOL    HW1 9200   5.985   4.605   5.668
 2767SOL    HW2 9201   6.121   4.531   5.616
 2768SOL     OW 9202   6.149   1.529   6.659
 2768SOL    HW1 9203   6.093   1.450   6.686
 2768SOL    HW2 9204   6.224   1.497   6.601
 2769SOL     OW 9205   1.247   4.514   1.323
 2769SOL    HW1 9206   1.233   4.497   1.226
 2769SOL    HW2 9207   1.209   4.604   1.347
 2770SOL     OW 9208   6.415   5.733   1.438
 2770SOL    HW1 9209   6.363   5.771   1.361
 2770SOL    HW2 9210   6.499   5.784   1.450
 2771SOL     OW 9211   4.710   0.907   1.430
 2771SOL    HW1 9212   4.739   0.992   1.474
 2771SOL    HW2 9213   4.706   0.920   1.331
 2772SOL     OW 9214   3.317   2.769   6.289
 2772SOL    HW1 9215   3.352   2.828   6.362
 2772SOL    HW2 9216   3.377   2.777   6.209
 2773SOL     OW 9217   3.957   4.418   6.895
 2773SOL    HW1 9218   3.962   4.439   6.993
 2773SOL    HW2 9219   3.898   4.484   6.850
 2774SOL     OW 9220   5.776   3.100   2.626
 2774SOL    HW1 9221   5.866   3.074   2.591
 2774SOL    HW2 9222   5.727   3.150   2.554
 2775SOL     OW 9223   6.795   6.450   2.366
 2775SOL    HW1 9224   6.857   6.403   2.302
 2775SOL    HW2 9225   6.839   6.533   2.400
 2776SOL     OW 9226   3.245   5.954   5.974
 2776SOL    HW1 9227   3.287   5.872   5.933
 2776SOL    HW2 9228   3.147   5.938   5.986
 2777SOL     OW 9229   3.615   0.920   3.110
 2777SOL    HW1 9230   3.607   1.020   3.111
 2777SOL    HW2 9231   3.708   0.895   3.138
 2778SOL     OW 9232   2.422   1.567   4.772
 2778SOL    HW1 9233   2.365   1.525   4.843
 2778SOL    HW2 9234   2.415   1.514   4.688
 2779SOL     OW 9235   5.740   1.129   0.407
 2779SOL    HW1 9236   5.823   1.077   0.429
 2779SOL    HW2 9237   5.691   1.083   0.334
 2780SOL     OW 9238   4.835   5.373   6.989
 2780SOL    HW1 9239   4.860   5.420   6.905
 2780SOL    HW2 9240   4.819   5.440   0.042
 2781SOL     OW 9241   4.711   4.289   0.487
 2781SOL    HW1 9242   4.634   4.301   0.550
 2781SOL    HW2 9243   4.721   4.192   0.466
 2782SOL     OW 9244   2.804   2.100   6.330
 2782SOL    HW1 9245   2.868   2.028   6.357
 2782SOL    HW2 9246   2.711   2.075   6.356
 2783SOL     OW 9247   0.252   4.803   5.377
 2783SOL    HW1 9248   0.269   4.865   5.453
 2783SOL    HW2 9249   0.203   4.722   5.410
 2784SOL     OW 9250   2.086   1.721   2.220
 2784SOL    HW1 9251   2.129   1.785   2.284
 2784SOL    HW2 9252   2.114   1.627   2.243
 2785SOL     OW 9253   6.197   1.335   1.301
 2785SOL    HW1 9254   6.102   1.344   1.272
 2785SOL    HW2 9255   6.242   1.263   1.247
 2786SOL     OW 9256   3.665   0.117   0.885
 2786SOL    HW1 9257   3.658   0.027   0.929
 2786SOL    HW2 9258   3.748   0.163   0.917
 2787SOL     OW 9259   2.155   2.393   5.364
 2787SOL    HW1 9260   2.141   2.472   5.304
 2787SOL    HW2 9261   2.202   2.423   5.448
 2788SOL     OW 9262   0.972   3.696   0.784
 2788SOL    HW1 9263   0.907   3.728   0.852
 2788SOL    HW2 9264   0.946   3.730   0.694
 2789SOL     OW 9265   6.978   1.787   4.617
 2789SOL    HW1 9266   6.972   1.887   4.613
 2789SOL    HW2 9267   6.967   1.750   4.525
 2790SOL     OW 9268   4.068   5.860   3.379
 2790SOL    HW1 9269   4.145   5.890   3.436
 2790SOL    HW2 9270   4.044   5.931   3.314
 2791SOL     OW 9271   2.270   2.875   3.662
 2791SOL    HW1 9272   2.324   2.826   3.593
 2791SOL    HW2 9273   2.206   2.937   3.617
 2792SOL     OW 9274   1.307   2.371   4.902
 2792SOL    HW1 9275   1.334   2.280   4.873
 2792SOL    HW2 9276   1.215   2.392   4.870
 2793SOL     OW 9277   5.395   1.183   3.914
 2793SOL    HW1 9278   5.448   1.258   3.874
 2793SOL    HW2 9279   5.369   1.119   3.842
 2794SOL     OW 9280   0.866   0.881   1.199
 2794SOL    HW1 9281   0.915   0.962   1.170
 2794SOL    HW2 9282   0.828   0.834   1.119
 2795SOL     OW 9283   2.350   4.178   1.879
 2795SOL    HW1 9284   2.432   4.165   1.824
 2795SOL    HW2 9285   2.288   4.100   1.867
 2796SOL     OW 9286   5.114   4.047   2.888
 2796SOL    HW1 9287   5.053   3.993   2.945
 2796SOL    HW2 9288   5.061   4.101   2.823
 2797SOL     OW 9289   4.386   4.814   4.862
 2797SOL    HW1 9290   4.419   4.850   4.949
 2797SOL    HW2 9291   4.337   4.728   4.879
 2798SOL     OW 9292   1.628   3.098   4.035
 2798SOL    HW1 9293   1.532   3.114   4.057
 2798SOL    HW2 9294   1.673   3.052   4.112
 2799SOL     OW 9295   6.569   5.371   5.585
 2799SOL    HW1 9296   6.473   5.383   5.612
 2799SOL    HW2 9297   6.622   5.342   5.664
 2800SOL     OW 9298   2.946   3.190   6.995
 2800SOL    HW1 9299   3.010   3.124   0.014
 2800SOL    HW2 9300   2.934   3.174   6.897
 2801SOL     OW 9301   4.584   5.732   2.453
 2801SOL    HW1 9302   4.646   5.767   2.383
 2801SOL    HW2 9303   4.582   5.795   2.530
 2802SOL     OW 9304   4.865   0.899   6.027
 2802SOL    HW1 9305   4.878   0.996   6.047
 2802SOL    HW2 9306   4.825   0.854   6.106
 2803SOL     OW 9307   2.118   5.646   6.033
 2803SOL    HW1 9308   2.212   5.652   6.067
 2803SOL    HW2 9309   2.073   5.735   6.045
 2804SOL     OW 9310   6.997   4.293   2.958
 2804SOL    HW1 9311   6.959   4.352   2.887
 2804SOL    HW2 9312   6.925   4.265   3.021
 2805SOL     OW 9313   5.416   4.135   6.746
 2805SOL    HW1 9314   5.465   4.182   6.819
 2805SOL    HW2 9315   5.409   4.038   6.767
 2806SOL     OW 9316   0.151   5.725   3.668
 2806SOL    HW1 9317   0.109   5.815   3.674
 2806SOL    HW2 9318   0.096   5.659   3.719
 2807SOL     OW 9319   4.032   5.205   3.720
 2807SOL    HW1 9320   4.095   5.169   3.651
 2807SOL    HW2 9321   3.977   5.278   3.680
 2808SOL     OW 9322   4.777   6.667   3.900
 2808SOL    HW1 9323   4.816   6.718   3.823
 2808SOL    HW2 9324   4.682   6.644   3.879
 2809SOL     OW 9325   5.057   3.484   0.637
 2809SOL    HW1 9326   5.116   3.441   0.568
 2809SOL    HW2 9327   5.107   3.554   0.686
 2810SOL     OW 9328   1.935   0.333   5.350
 2810SOL    HW1 9329   1.918   0.304   5.256
 2810SOL    HW2 9330   1.941   0.253   5.409
 2811SOL     OW 9331   0.236   0.935   3.681
 2811SOL    HW1 9332   0.204   1.002   3.614
 2811SOL    HW2 9333   0.297   0.980   3.746
 2812SOL     OW 9334   5.175   3.706   2.662
 2812SOL    HW1 9335   5.228   3.744   2.586
 2812SOL    HW2 9336   5.169   3.607   2.653
 2813SOL     OW 9337   6.077   1.196   6.135
 2813SOL    HW1 9338   6.146   1.126   6.155
 2813SOL    HW2 9339   6.014   1.162   6.065
 2814SOL     OW 9340   5.179   3.820   4.856
 2814SOL    HW1 9341   5.192   3.787   4.950
 2814SOL    HW2 9342   5.091   3.786   4.821
 2815SOL     OW 9343   0.459   0.801   5.386
 2815SOL    HW1 9344   0.387   0.738   5.356
 2815SOL    HW2 9345   0.513   0.828   5.306
 2816SOL     OW 9346   5.820   6.592   3.495
 2816SOL    HW1 9347   5.874   6.559   3.573
 2816SOL    HW2 9348   5.822   6.692   3.493
 2817SOL     OW 9349   1.209   1.979   1.203
 2817SOL    HW1 9350   1.255   2.056   1.159
 2817SOL    HW2 9351   1.119   2.008   1.235
 2818SOL     OW 9352   6.881   4.729   5.294
 2818SOL    HW1 9353   6.898   4.766   5.385
 2818SOL    HW2 9354   6.900   4.799   5.225
 2819SOL     OW 9355   6.953   2.842   0.268
 2819SOL    HW1 9356   6.917   2.896   0.343
 2819SOL    HW2 9357   6.942   2.892   0.182
 2820SOL     OW 9358   6.723   3.013   4.553
 2820SOL    HW1 9359   6.780   3.022   4.471
 2820SOL    HW2 9360   6.767   3.060   4.630
 2821SOL     OW 9361   1.403   3.185   4.377
 2821SOL    HW1 9362   1.389   3.275   4.336
 2821SOL    HW2 9363   1.434   3.121   4.306
 2822SOL     OW 9364   3.510   1.862   6.767
 2822SOL    HW1 9365   3.604   1.853   6.734
 2822SOL    HW2 9366   3.506   1.937   6.833
 2823SOL     OW 9367   1.674   6.538   3.470
 2823SOL    HW1 9368   1.646   6.600   3.396
 2823SOL    HW2 9369   1.769   6.558   3.496
 2824SOL     OW 9370   3.131   1.701   5.059
 2824SOL    HW1 9371   3.169   1.749   4.980
 2824SOL    HW2 9372   3.058   1.756   5.099
 2825SOL     OW 9373   6.526   5.711   1.168
 2825SOL    HW1 9374   6.619   5.698   1.132
 2825SOL    HW2 9375   6.529   5.773   1.246
 2826SOL     OW 9376   4.811   2.368   4.716
 2826SOL    HW1 9377   4.831   2.299   4.647
 2826SOL    HW2 9378   4.720   2.406   4.701
 2827SOL     OW 9379   5.953   0.719   5.562
 2827SOL    HW1 9380   5.928   0.773   5.481
 2827SOL    HW2 9381   5.911   0.760   5.643
 2828SOL     OW 9382   3.316   1.915   5.893
 2828SOL    HW1 9383   3.384   1.952   5.830
 2828SOL    HW2 9384   3.352   1.918   5.986
 2829SOL     OW 9385   1.849   6.680   6.658
 2829SOL    HW1 9386   1.864   6.773   6.625
 2829SOL    HW2 9387   1.754   6.653   6.640
 2830SOL     OW 9388   3.471   3.309   6.784
 2830SOL    HW1 9389   3.375   3.295   6.761
 2830SOL    HW2 9390   3.494   3.257   6.867
 2831SOL     OW 9391   5.673   5.800   4.300
 2831SOL    HW1 9392   5.733   5.732   4.257
 2831SOL    HW2 9393   5.693   5.805   4.398
 2832SOL     OW 9394   0.362   0.727   1.726
 2832SOL    HW1 9395   0.445   0.703   1.677
 2832SOL    HW2 9396   0.328   0.646   1.776
 2833SOL     OW 9397   5.931   3.149   1.896
 2833SOL    HW1 9398   5.833   3.142   1.878
 2833SOL    HW2 9399   5.947   3.152   1.994
 2834SOL     OW 9400   3.628   0.752   6.064
 2834SOL    HW1 9401   3.657   0.813   6.137
 2834SOL    HW2 9402   3.529   0.758   6.052
 2835SOL     OW 9403   0.844   6.299   2.429
 2835SOL    HW1 9404   0.925   6.353   2.452
 2835SOL    HW2 9405   0.769   6.323   2.490
 2836SOL     OW 9406   6.525   0.812   0.532
 2836SOL    HW1 9407   6.496   0.844   0.441
 2836SOL    HW2 9408   6.578   0.728   0.522
 2837SOL     OW 9409   6.036   3.452   3.552
 2837SOL    HW1 9410   5.937   3.438   3.541
 2837SOL    HW2 9411   6.082   3.363   3.556
 2838SOL     OW 9412   3.333   4.897   3.438
 2838SOL    HW1 9413   3.408   4.921   3.377
 2838SOL    HW2 9414   3.355   4.925   3.531
 2839SOL     OW 9415   5.068   1.939   0.946
 2839SOL    HW1 9416   5.046   1.931   1.043
 2839SOL    HW2 9417   5.114   1.856   0.915
 2840SOL     OW 9418   6.815   2.104   5.317
 2840SOL    HW1 9419   6.746   2.044   5.276
 2840SOL    HW2 9420   6.774   2.193   5.337
 2841SOL     OW 9421   1.024   5.769   1.569
 2841SOL    HW1 9422   1.092   5.808   1.631
 2841SOL    HW2 9423   1.000   5.836   1.499
 2842SOL     OW 9424   6.401   3.374   3.307
 2842SOL    HW1 9425   6.417   3.349   3.402
 2842SOL    HW2 9426   6.389   3.290   3.253
 2843SOL     OW 9427   4.122   2.006   4.904
 2843SOL    HW1 9428   4.067   2.049   4.833
 2843SOL    HW2 9429   4.217   2.037   4.897
 2844SOL     OW 9430   6.636   3.927   5.951
 2844SOL    HW1 9431   6.697   3.861   5.994
 2844SOL    HW2 9432   6.602   3.890   5.865
 2845SOL     OW 9433   6.130   4.141   5.134
 2845SOL    HW1 9434   6.173   4.059   5.171
 2845SOL    HW2 9435   6.033   4.140   5.159
 2846SOL     OW 9436   4.533   1.850   6.150
 2846SOL    HW1 9437   4.530   1.924   6.217
 2846SOL    HW2 9438   4.469   1.778   6.177
 2847SOL     OW 9439   5.132   4.918   4.175
 2847SOL    HW1 9440   5.215   4.879   4.215
 2847SOL    HW2 9441   5.059   4.915   4.243
 2848SOL     OW 9442   0.901   5.810   5.011
 2848SOL    HW1 9443   0.954   5.875   4.957
 2848SOL    HW2 9444   0.964   5.748   5.059
 2849SOL     OW 9445   2.238   2.372   1.659
 2849SOL    HW1 9446   2.245   2.436   1.582
 2849SOL    HW2 9447   2.324   2.325   1.672
 2850SOL     OW 9448   3.888   1.196   0.023
 2850SOL    HW1 9449   3.954   1.187   0.097
 2850SOL    HW2 9450   3.914   1.136   6.966
 2851SOL     OW 9451   2.185   4.370   6.417
 2851SOL    HW1 9452   2.132   4.285   6.413
 2851SOL    HW2 9453   2.282   4.349   6.401
 2852SOL     OW 9454   0.294   3.559   6.137
 2852SOL    HW1 9455   0.359   3.620   6.182
 2852SOL    HW2 9456   0.318   3.464   6.156
 2853SOL     OW 9457   3.154   3.851   1.354
 2853SOL    HW1 9458   3.249   3.824   1.334
 2853SOL    HW2 9459   3.123   3.801   1.435
 2854SOL     OW 9460   2.107   1.405   3.705
 2854SOL    HW1 9461   2.088   1.430   3.610
 2854SOL    HW2 9462   2.180   1.464   3.741
 2855SOL     OW 9463   2.901   0.964   5.346
 2855SOL    HW1 9464   2.817   1.009   5.316
 2855SOL    HW2 9465   2.979   1.011   5.306
 2856SOL     OW 9466   2.678   2.391   4.891
 2856SOL    HW1 9467   2.720   2.316   4.840
 2856SOL    HW2 9468   2.643   2.356   4.978
 2857SOL     OW 9469   3.059   3.033   2.573
 2857SOL    HW1 9470   3.117   3.004   2.497
 2857SOL    HW2 9471   2.986   3.092   2.540
 2858SOL     OW 9472   6.449   3.267   2.778
 2858SOL    HW1 9473   6.352   3.280   2.760
 2858SOL    HW2 9474   6.470   3.169   2.781
 2859SOL     OW 9475   6.192   6.409   0.249
 2859SOL    HW1 9476   6.158   6.394   0.341
 2859SOL    HW2 9477   6.230   6.502   0.243
 2860SOL     OW 9478   4.301   0.941   1.917
 2860SOL    HW1 9479   4.287   1.037   1.941
 2860SOL    HW2 9480   4.217   0.906   1.874
 2861SOL     OW 9481   3.520   5.762   5.366
 2861SOL    HW1 9482   3.485   5.710   5.443
 2861SOL    HW2 9483   3.554   5.698   5.296
 2862SOL     OW 9484   5.278   0.664   4.666
 2862SOL    HW1 9485   5.350   0.600   4.693
 2862SOL    HW2 9486   5.236   0.633   4.581
 2863SOL     OW 9487   6.098   1.968   6.889
 2863SOL    HW1 9488   6.119   1.872   6.910
 2863SOL    HW2 9489   5.998   1.980   6.889
 2864SOL     OW 9490   3.081   1.301   6.899
 2864SOL    HW1 9491   3.000   1.329   6.951
 2864SOL    HW2 9492   3.076   1.203   6.879
 2865SOL     OW 9493   4.616   5.098   4.904
 2865SOL    HW1 9494   4.649   5.095   4.809
 2865SOL    HW2 9495   4.676   5.157   4.958
 2866SOL     OW 9496   0.297   6.471   6.285
 2866SOL    HW1 9497   0.234   6.402   6.322
 2866SOL    HW2 9498   0.331   6.529   6.359
 2867SOL     OW 9499   6.849   4.214   3.715
 2867SOL    HW1 9500   6.773   4.227   3.652
 2867SOL    HW2 9501   6.824   4.248   3.805
 2868SOL     OW 9502   1.492   3.915   5.510
 2868SOL    HW1 9503   1.544   3.846   5.559
 2868SOL    HW2 9504   1.553   3.966   5.449
 2869SOL     OW 9505   6.338   1.682   2.552
 2869SOL    HW1 9506   6.354   1.584   2.540
 2869SOL    HW2 9507   6.241   1.702   2.535
 2870SOL     OW 9508   5.171   1.989   2.543
 2870SOL    HW1 9509   5.179   1.942   2.631
 2870SOL    HW2 9510   5.082   1.968   2.502
 2871SOL     OW 9511   1.506   2.133   5.826
 2871SOL    HW1 9512   1.407   2.140   5.818
 2871SOL    HW2 9513   1.531   2.046   5.869
 2872SOL     OW 9514   2.556   6.567   3.637
 2872SOL    HW1 9515   2.609   6.631   3.693
 2872SOL    HW2 9516   2.526   6.491   3.694
 2873SOL     OW 9517   6.881   5.221   1.802
 2873SOL    HW1 9518   6.849   5.179   1.717
 2873SOL    HW2 9519   6.875   5.320   1.794
 2874SOL     OW 9520   5.984   2.226   2.287
 2874SOL    HW1 9521   5.893   2.254   2.258
 2874SOL    HW2 9522   5.978   2.178   2.374
 2875SOL     OW 9523   3.441   4.871   0.093
 2875SOL    HW1 9524   3.451   4.869   7.013
 2875SOL    HW2 9525   3.345   4.886   0.116
 2876SOL     OW 9526   6.629   1.492   2.219
 2876SOL    HW1 9527   6.698   1.492   2.146
 2876SOL    HW2 9528   6.670   1.456   2.303
 2877SOL     OW 9529   2.487   3.076   5.945
 2877SOL    HW1 9530   2.487   3.010   6.020
 2877SOL    HW2 9531   2.452   3.163   5.977
 2878SOL     OW 9532   3.141   4.516   6.625
 2878SOL    HW1 9533   3.053   4.557   6.650
 2878SOL    HW2 9534   3.146   4.423   6.661
 2879SOL     OW 9535   5.112   5.226   0.125
 2879SOL    HW1 9536   5.101   5.251   0.029
 2879SOL    HW2 9537   5.186   5.160   0.135
 2880SOL     OW 9538   1.248   6.023   1.467
 2880SOL    HW1 9539   1.289   6.100   1.418
 2880SOL    HW2 9540   1.277   5.938   1.424
 2881SOL     OW 9541   0.229   6.748   0.474
 2881SOL    HW1 9542   0.291   6.767   0.398
 2881SOL    HW2 9543   0.163   6.678   0.447
 2882SOL     OW 9544   6.758   2.976   3.269
 2882SOL    HW1 9545   6.661   2.959   3.256
 2882SOL    HW2 9546   6.811   2.906   3.221
 2883SOL     OW 9547   4.275   6.791   2.123
 2883SOL    HW1 9548   4.219   6.740   2.058
 2883SOL    HW2 9549   4.216   6.835   2.191
 2884SOL     OW 9550   1.376   6.045   3.021
 2884SOL    HW1 9551   1.360   6.138   2.988
 2884SOL    HW2 9552   1.469   6.017   2.998
 2885SOL     OW 9553   0.541   2.440   3.398
 2885SOL    HW1 9554   0.474   2.400   3.335
 2885SOL    HW2 9555   0.523   2.407   3.491
 2886SOL     OW 9556   2.256   2.461   5.620
 2886SOL    HW1 9557   2.172   2.428   5.663
 2886SOL    HW2 9558   2.319   2.384   5.607
 2887SOL     OW 9559   1.920   0.769   5.055
 2887SOL    HW1 9560   1.980   0.710   5.002
 2887SOL    HW2 9561   1.868   0.828   4.993
 2888SOL     OW 9562   6.587   5.198   7.012
 2888SOL    HW1 9563   6.495   5.194   6.974
 2888SOL    HW2 9564   6.637   5.274   6.971
 2889SOL     OW 9565   0.508   0.106   2.472
 2889SOL    HW1 9566   0.414   0.133   2.489
 2889SOL    HW2 9567   0.516   0.068   2.379
 2890SOL     OW 9568   3.808   0.256   1.340
 2890SOL    HW1 9569   3.710   0.239   1.333
 2890SOL    HW2 9570   3.834   0.324   1.271
 2891SOL     OW 9571   2.675   5.008   3.968
 2891SOL    HW1 9572   2.718   4.917   3.970
 2891SOL    HW2 9573   2.682   5.050   4.059
 2892SOL     OW 9574   4.559   4.108   5.744
 2892SOL    HW1 9575   4.563   4.179   5.814
 2892SOL    HW2 9576   4.491   4.039   5.770
 2893SOL     OW 9577   2.004   0.492   5.990
 2893SOL    HW1 9578   2.076   0.490   5.920
 2893SOL    HW2 9579   1.914   0.484   5.946
 2894SOL     OW 9580   3.529   3.221   0.519
 2894SOL    HW1 9581   3.616   3.212   0.566
 2894SOL    HW2 9582   3.543   3.270   0.432
 2895SOL     OW 9583   3.278   3.593   6.339
 2895SOL    HW1 9584   3.370   3.555   6.350
 2895SOL    HW2 9585   3.210   3.525   6.364
 2896SOL     OW 9586   2.442   5.251   1.238
 2896SOL    HW1 9587   2.539   5.249   1.262
 2896SOL    HW2 9588   2.429   5.302   1.153
 2897SOL     OW 9589   2.251   6.355   3.829
 2897SOL    HW1 9590   2.211   6.264   3.839
 2897SOL    HW2 9591   2.183   6.424   3.855
 2898SOL     OW 9592   2.940   5.489   2.249
 2898SOL    HW1 9593   3.037   5.508   2.232
 2898SOL    HW2 9594   2.885   5.526   2.174
 2899SOL     OW 9595   0.004   6.769   0.198
 2899SOL    HW1 9596   0.026   6.758   0.295
 2899SOL    HW2 9597   6.929   6.739   0.181
 2900SOL     OW 9598   1.929   5.159   5.669
 2900SOL    HW1 9599   1.863   5.086   5.688
 2900SOL    HW2 9600   1.895   5.216   5.594
 2901SOL     OW 9601   2.983   1.236   1.561
 2901SOL    HW1 9602   2.926   1.316   1.581
 2901SOL    HW2 9603   2.953   1.159   1.617
 2902SOL     OW 9604   5.876   5.757   1.827
 2902SOL    HW1 9605   5.877   5.693   1.904
 2902SOL    HW2 9606   5.783   5.793   1.815
 2903SOL     OW 9607   2.367   2.017   2.206
 2903SOL    HW1 9608   2.349   1.991   2.111
 2903SOL    HW2 9609   2.331   1.946   2.267
 2904SOL     OW 9610   1.746   3.112   4.896
 2904SOL    HW1 9611   1.796   3.036   4.937
 2904SOL    HW2 9612   1.659   3.124   4.943
 2905SOL     OW 9613   1.768   2.425   1.798
 2905SOL    HW1 9614   1.827   2.446   1.875
 2905SOL    HW2 9615   1.730   2.333   1.808
 2906SOL     OW 9616   5.452   5.502   2.125
 2906SOL    HW1 9617   5.457   5.437   2.201
 2906SOL    HW2 9618   5.378   5.567   2.142
 2907SOL     OW 9619   6.244   0.909   3.685
 2907SOL    HW1 9620   6.308   0.950   3.750
 2907SOL    HW2 9621   6.162   0.965   3.679
 2908SOL     OW 9622   4.033   6.338   4.779
 2908SOL    HW1 9623   4.113   6.296   4.737
 2908SOL    HW2 9624   4.058   6.380   4.866
 2909SOL     OW 9625   1.729   5.469   4.978
 2909SOL    HW1 9626   1.819   5.512   4.972
 2909SOL    HW2 9627   1.740   5.371   4.994
 2910SOL     OW 9628   5.573   6.260   6.249
 2910SOL    HW1 9629   5.523   6.260   6.162
 2910SOL    HW2 9630   5.651   6.322   6.242
 2911SOL     OW 9631   1.610   3.975   3.185
 2911SOL    HW1 9632   1.702   3.985   3.145
 2911SOL    HW2 9633   1.618   3.941   3.278
 2912SOL     OW 9634   2.497   5.544   0.787
 2912SOL    HW1 9635   2.561   5.530   0.712
 2912SOL    HW2 9636   2.474   5.641   0.794
 2913SOL     OW 9637   1.463   3.028   2.942
 2913SOL    HW1 9638   1.383   3.076   2.976
 2913SOL    HW2 9639   1.539   3.040   3.006
 2914SOL     OW 9640   5.486   5.539   5.816
 2914SOL    HW1 9641   5.444   5.581   5.735
 2914SOL    HW2 9642   5.424   5.548   5.894
 2915SOL     OW 9643   4.779   1.274   4.161
 2915SOL    HW1 9644   4.824   1.201   4.110
 2915SOL    HW2 9645   4.747   1.344   4.098
 2916SOL     OW 9646   5.261   5.894   4.314
 2916SOL    HW1 9647   5.186   5.869   4.252
 2916SOL    HW2 9648   5.327   5.820   4.319
 2917SOL     OW 9649   4.877   0.399   2.195
 2917SOL    HW1 9650   4.928   0.485   2.190
 2917SOL    HW2 9651   4.795   0.406   2.138
 2918SOL     OW 9652   6.811   3.957   3.783
 2918SOL    HW1 9653   6.719   3.934   3.750
 2918SOL    HW2 9654   6.842   4.042   3.741
 2919SOL     OW 9655   6.422   5.814   0.272
 2919SOL    HW1 9656   6.386   5.906   0.291
 2919SOL    HW2 9657   6.521   5.820   0.257
 2920SOL     OW 9658   4.388   2.427   3.433
 2920SOL    HW1 9659   4.338   2.366   3.372
 2920SOL    HW2 9660   4.350   2.420   3.526
 2921SOL     OW 9661   0.850   0.210   2.057
 2921SOL    HW1 9662   0.821   0.173   1.968
 2921SOL    HW2 9663   0.886   0.135   2.113
 2922SOL     OW 9664   4.309   6.310   5.468
 2922SOL    HW1 9665   4.225   6.257   5.471
 2922SOL    HW2 9666   4.305   6.383   5.537
 2923SOL     OW 9667   6.451   4.205   1.905
 2923SOL    HW1 9668   6.426   4.154   1.822
 2923SOL    HW2 9669   6.375   4.265   1.931
 2924SOL     OW 9670   6.715   1.307   5.308
 2924SOL    HW1 9671   6.655   1.266   5.240
 2924SOL    HW2 9672   6.800   1.336   5.265
 2925SOL     OW 9673   5.386   4.204   1.296
 2925SOL    HW1 9674   5.370   4.233   1.202
 2925SOL    HW2 9675   5.480   4.171   1.305
 2926SOL     OW 9676   0.004   1.245   4.701
 2926SOL    HW1 9677   6.956   1.217   4.632
 2926SOL    HW2 9678   6.986   1.320   4.755
 2927SOL     OW 9679   0.349   2.703   3.015
 2927SOL    HW1 9680   0.377   2.756   2.934
 2927SOL    HW2 9681   0.410   2.624   3.025
 2928SOL     OW 9682   6.562   6.423   0.790
 2928SOL    HW1 9683   6.505   6.369   0.852
 2928SOL    HW2 9684   6.609   6.362   0.726
 2929SOL     OW 9685   0.679   6.737   6.493
 2929SOL    HW1 9686   0.677   6.689   6.405
 2929SOL    HW2 9687   0.773   6.754   6.520
 2930SOL     OW 9688   3.552   6.643   4.719
 2930SOL    HW1 9689   3.562   6.630   4.818
 2930SOL    HW2 9690   3.520   6.558   4.677
 2931SOL     OW 9691   3.924   5.907   5.821
 2931SOL    HW1 9692   3.999   5.862   5.870
 2931SOL    HW2 9693   3.845   5.914   5.881
 2932SOL     OW 9694   1.079   4.658   1.656
 2932SOL    HW1 9695   1.042   4.661   1.563
 2932SOL    HW2 9696   1.119   4.567   1.672
 2933SOL     OW 9697   4.884   2.105   3.189
 2933SOL    HW1 9698   4.935   2.110   3.103
 2933SOL    HW2 9699   4.801   2.160   3.181
 2934SOL     OW 9700   2.762   0.501   0.229
 2934SOL    HW1 9701   2.710   0.426   0.270
 2934SOL    HW2 9702   2.835   0.463   0.172
 2935SOL     OW 9703   5.912   2.335   1.287
 2935SOL    HW1 9704   5.936   2.306   1.380
 2935SOL    HW2 9705   5.820   2.304   1.265
 2936SOL     OW 9706   4.073   5.727   0.702
 2936SOL    HW1 9707   4.054   5.825   0.701
 2936SOL    HW2 9708   4.149   5.707   0.640
 2937SOL     OW 9709   3.229   4.701   0.482
 2937SOL    HW1 9710   3.265   4.637   0.550
 2937SOL    HW2 9711   3.304   4.743   0.432
 2938SOL     OW 9712   5.016   5.579   5.616
 2938SOL    HW1 9713   5.038   5.669   5.579
 2938SOL    HW2 9714   4.969   5.591   5.704
 2939SOL     OW 9715   0.498   6.376   5.779
 2939SOL    HW1 9716   0.473   6.417   5.692
 2939SOL    HW2 9717   0.553   6.294   5.762
 2940SOL     OW 9718   4.466   0.369   5.633
 2940SOL    HW1 9719   4.381   0.323   5.657
 2940SOL    HW2 9720   4.526   0.371   5.714
 2941SOL     OW 9721   1.851   1.985   4.751
 2941SOL    HW1 9722   1.804   2.066   4.718
 2941SOL    HW2 9723   1.899   1.941   4.675
 2942SOL     OW 9724   3.501   6.468   4.138
 2942SOL    HW1 9725   3.503   6.386   4.196
 2942SOL    HW2 9726   3.414   6.470   4.088
 2943SOL     OW 9727   5.954   4.194   3.262
 2943SOL    HW1 9728   6.026   4.193   3.192
 2943SOL    HW2 9729   5.972   4.267   3.327
 2944SOL     OW 9730   3.685   5.936   5.992
 2944SOL    HW1 9731   3.632   5.851   5.988
 2944SOL    HW2 9732   3.727   5.944   6.083
 2945SOL     OW 9733   3.161   3.206   3.283
 2945SOL    HW1 9734   3.122   3.175   3.196
 2945SOL    HW2 9735   3.109   3.284   3.317
 2946SOL     OW 9736   6.513   6.024   5.963
 2946SOL    HW1 9737   6.464   6.106   5.934
 2946SOL    HW2 9738   6.563   6.043   6.047
 2947SOL     OW 9739   6.521   4.668   0.210
 2947SOL    HW1 9740   6.513   4.569   0.209
 2947SOL    HW2 9741   6.437   4.708   0.246
 2948SOL     OW 9742   6.024   4.648   5.039
 2948SOL    HW1 9743   6.092   4.698   4.987
 2948SOL    HW2 9744   5.964   4.597   4.976
 2949SOL     OW 9745   1.255   6.538   0.192
 2949SOL    HW1 9746   1.189   6.476   0.235
 2949SOL    HW2 9747   1.245   6.629   0.231
 2950SOL     OW 9748   4.880   3.347   4.368
 2950SOL    HW1 9749   4.946   3.421   4.351
 2950SOL    HW2 9750   4.869   3.335   4.467
 2951SOL     OW 9751   6.452   1.257   1.690
 2951SOL    HW1 9752   6.371   1.223   1.642
 2951SOL    HW2 9753   6.522   1.285   1.623
 2952SOL     OW 9754   1.531   3.596   2.272
 2952SOL    HW1 9755   1.611   3.547   2.239
 2952SOL    HW2 9756   1.553   3.644   2.357
 2953SOL     OW 9757   5.400   1.303   2.561
 2953SOL    HW1 9758   5.445   1.325   2.647
 2953SOL    HW2 9759   5.468   1.299   2.488
 2954SOL     OW 9760   6.027   6.716   2.262
 2954SOL    HW1 9761   5.979   6.710   2.174
 2954SOL    HW2 9762   5.961   6.705   2.337
 2955SOL     OW 9763   6.704   3.060   0.713
 2955SOL    HW1 9764   6.644   3.140   0.713
 2955SOL    HW2 9765   6.735   3.041   0.807
 2956SOL     OW 9766   6.577   5.640   2.471
 2956SOL    HW1 9767   6.658   5.697   2.481
 2956SOL    HW2 9768   6.601   5.555   2.424
 2957SOL     OW 9769   0.893   4.002   1.059
 2957SOL    HW1 9770   0.827   3.945   1.010
 2957SOL    HW2 9771   0.883   3.988   1.157
 2958SOL     OW 9772   2.708   4.733   5.754
 2958SOL    HW1 9773   2.673   4.686   5.836
 2958SOL    HW2 9774   2.670   4.690   5.672
 2959SOL     OW 9775   3.802   5.662   6.905
 2959SOL    HW1 9776   3.725   5.661   6.841
 2959SOL    HW2 9777   3.768   5.651   6.998
 2960SOL     OW 9778   2.249   1.888   0.276
 2960SOL    HW1 9779   2.303   1.888   0.360
 2960SOL    HW2 9780   2.213   1.980   0.261
 2961SOL     OW 9781   5.664   2.891   4.122
 2961SOL    HW1 9782   5.625   2.901   4.031
 2961SOL    HW2 9783   5.685   2.795   4.139
 2962SOL     OW 9784   4.251   1.034   3.333
 2962SOL    HW1 9785   4.290   0.944   3.352
 2962SOL    HW2 9786   4.157   1.037   3.368
 2963SOL     OW 9787   2.130   2.781   4.671
 2963SOL    HW1 9788   2.215   2.748   4.629
 2963SOL    HW2 9789   2.151   2.827   4.757
 2964SOL     OW 9790   3.703   6.366   0.615
 2964SOL    HW1 9791   3.624   6.369   0.676
 2964SOL    HW2 9792   3.678   6.322   0.529
 2965SOL     OW 9793   0.522   2.324   6.030
 2965SOL    HW1 9794   0.546   2.379   5.950
 2965SOL    HW2 9795   0.566   2.234   6.022
 2966SOL     OW 9796   4.496   4.519   4.273
 2966SOL    HW1 9797   4.430   4.542   4.344
 2966SOL    HW2 9798   4.458   4.544   4.184
 2967SOL     OW 9799   5.400   2.008   3.939
 2967SOL    HW1 9800   5.455   2.081   3.979
 2967SOL    HW2 9801   5.303   2.022   3.961
 2968SOL     OW 9802   0.093   4.162   3.442
 2968SOL    HW1 9803   0.004   4.207   3.433
 2968SOL    HW2 9804   0.166   4.229   3.428
 2969SOL     OW 9805   4.667   1.499   5.234
 2969SOL    HW1 9806   4.609   1.425   5.200
 2969SOL    HW2 9807   4.756   1.462   5.262
 2970SOL     OW 9808   0.963   4.769   6.552
 2970SOL    HW1 9809   0.887   4.749   6.491
 2970SOL    HW2 9810   0.930   4.770   6.647
 2971SOL     OW 9811   5.333   2.952   2.934
 2971SOL    HW1 9812   5.399   3.027   2.940
 2971SOL    HW2 9813   5.333   2.901   3.020
 2972SOL     OW 9814   0.223   3.949   5.578
 2972SOL    HW1 9815   0.191   3.908   5.664
 2972SOL    HW2 9816   0.321   3.965   5.584
 2973SOL     OW 9817   5.043   6.072   4.370
 2973SOL    HW1 9818   4.972   6.048   4.304
 2973SOL    HW2 9819   5.095   5.990   4.394
 2974SOL     OW 9820   0.382   3.877   2.549
 2974SOL    HW1 9821   0.400   3.952   2.612
 2974SOL    HW2 9822   0.409   3.790   2.592
 2975SOL     OW 9823   0.737   1.174   4.928
 2975SOL    HW1 9824   0.707   1.223   5.011
 2975SOL    HW2 9825   0.836   1.171   4.926
 2976SOL     OW 9826   3.999   0.285   2.271
 2976SOL    HW1 9827   3.962   0.346   2.340
 2976SOL    HW2 9828   4.099   0.286   2.274
 2977SOL     OW 9829   3.064   6.204   4.111
 2977SOL    HW1 9830   3.122   6.235   4.186
 2977SOL    HW2 9831   3.017   6.120   4.138
 2978SOL     OW 9832   4.730   5.728   0.005
 2978SOL    HW1 9833   4.729   5.657   0.075
 2978SOL    HW2 9834   4.697   5.691   6.938
 2979SOL     OW 9835   3.363   0.845   3.179
 2979SOL    HW1 9836   3.458   0.869   3.161
 2979SOL    HW2 9837   3.357   0.794   3.265
 2980SOL     OW 9838   7.010   6.599   4.288
 2980SOL    HW1 9839   6.965   6.534   4.349
 2980SOL    HW2 9840   0.089   6.580   4.287
 2981SOL     OW 9841   2.445   0.852   5.742
 2981SOL    HW1 9842   2.538   0.865   5.707
 2981SOL    HW2 9843   2.416   0.758   5.722
 2982SOL     OW 9844   4.847   6.737   2.730
 2982SOL    HW1 9845   4.902   6.746   2.647
 2982SOL    HW2 9846   4.770   6.676   2.713
 2983SOL     OW 9847   6.398   0.344   3.690
 2983SOL    HW1 9848   6.417   0.440   3.669
 2983SOL    HW2 9849   6.397   0.292   3.604
 2984SOL     OW 9850   5.202   4.864   1.976
 2984SOL    HW1 9851   5.234   4.904   2.062
 2984SOL    HW2 9852   5.164   4.936   1.918
 2985SOL     OW 9853   6.216   2.487   2.778
 2985SOL    HW1 9854   6.205   2.432   2.695
 2985SOL    HW2 9855   6.211   2.427   2.858
 2986SOL     OW 9856   2.159   3.841   5.146
 2986SOL    HW1 9857   2.222   3.917   5.128
 2986SOL    HW2 9858   2.136   3.839   5.243
 2987SOL     OW 9859   4.342   2.400   4.538
 2987SOL    HW1 9860   4.271   2.409   4.608
 2987SOL    HW2 9861   4.306   2.348   4.460
 2988SOL     OW 9862   0.590   0.529   2.332
 2988SOL    HW1 9863   0.518   0.551   2.397
 2988SOL    HW2 9864   0.675   0.509   2.381
 2989SOL     OW 9865   6.648   4.822   1.479
 2989SOL    HW1 9866   6.719   4.774   1.530
 2989SOL    HW2 9867   6.684   4.849   1.389
 2990SOL     OW 9868   3.607   0.609   1.256
 2990SOL    HW1 9869   3.509   0.615   1.278
 2990SOL    HW2 9870   3.624   0.654   1.169
 2991SOL     OW 9871   6.309   4.320   0.099
 2991SOL    HW1 9872   6.242   4.390   0.074
 2991SOL    HW2 9873   6.303   4.301   0.197
 2992SOL     OW 9874   3.726   4.329   6.434
 2992SOL    HW1 9875   3.773   4.264   6.494
 2992SOL    HW2 9876   3.724   4.419   6.478
 2993SOL     OW 9877   1.793   5.301   1.066
 2993SOL    HW1 9878   1.726   5.347   1.125
 2993SOL    HW2 9879   1.849   5.239   1.122
 2994SOL     OW 9880   4.530   6.654   0.148
 2994SOL    HW1 9881   4.514   6.678   0.053
 2994SOL    HW2 9882   4.614   6.601   0.156
 2995SOL     OW 9883   2.511   1.294   6.080
 2995SOL    HW1 9884   2.489   1.311   6.176
 2995SOL    HW2 9885   2.539   1.198   6.069
 2996SOL     OW 9886   3.931   5.581   5.517
 2996SOL    HW1 9887   4.025   5.569   5.485
 2996SOL    HW2 9888   3.874   5.508   5.482
 2997SOL     OW 9889   5.615   6.530   0.208
 2997SOL    HW1 9890   5.575   6.560   0.294
 2997SOL    HW2 9891   5.587   6.592   0.135
 2998SOL     OW 9892   6.551   5.879   5.049
 2998SOL    HW1 9893   6.460   5.914   5.072
 2998SOL    HW2 9894   6.564   5.881   4.950
 2999SOL     OW 9895   3.201   6.356   2.686
 2999SOL    HW1 9896   3.296   6.333   2.710
 2999SOL    HW2 9897   3.188   6.345   2.588
 3000SOL     OW 9898   1.468   3.329   4.814
 3000SOL    HW1 9899   1.519   3.415   4.815
 3000SOL    HW2 9900   1.492   3.276   4.895
 3001SOL     OW 9901   4.408   0.125   5.870
 3001SOL    HW1 9902   4.338   0.181   5.825
 3001SOL    HW2 9903   4.407   0.033   5.830
 3002SOL     OW 9904   4.079   0.091   5.593
 3002SOL    HW1 9905   4.109   0.028   5.522
 3002SOL    HW2 9906   3.984   0.119   5.576
 3003SOL     OW 9907   2.169   0.384   6.567
 3003SOL    HW1 9908   2.170   0.294   6.522
 3003SOL    HW2 9909   2.224   0.380   6.650
 3004SOL     OW 9910   6.105   3.113   4.697
 3004SOL    HW1 9911   6.186   3.115   4.754
 3004SOL    HW2 9912   6.099   3.025   4.650
 3005SOL     OW 9913   4.525   2.385   1.535
 3005SOL    HW1 9914   4.593   2.330   1.585
 3005SOL    HW2 9915   4.571   2.441   1.467
 3006SOL     OW 9916   5.656   0.618   1.526
 3006SOL    HW1 9917   5.581   0.684   1.517
 3006SOL    HW2 9918   5.688   0.617   1.621
 3007SOL     OW 9919   6.385   5.224   2.285
 3007SOL    HW1 9920   6.415   5.147   2.341
 3007SOL    HW2 9921   6.286   5.221   2.273
 3008SOL     OW 9922   3.301   5.767   6.180
 3008SOL    HW1 9923   3.243   5.687   6.173
 3008SOL    HW2 9924   3.251   5.848   6.150
 3009SOL     OW 9925   2.128   0.499   3.410
 3009SOL    HW1 9926   2.130   0.598   3.394
 3009SOL    HW2 9927   2.212   0.472   3.457
 3010SOL     OW 9928   4.077   6.598   1.639
 3010SOL    HW1 9929   4.091   6.669   1.570
 3010SOL    HW2 9930   4.013   6.529   1.603
 3011SOL     OW 9931   5.651   1.066   0.157
 3011SOL    HW1 9932   5.551   1.068   0.149
 3011SOL    HW2 9933   5.692   1.111   0.078
 3012SOL     OW 9934   6.953   3.830   2.812
 3012SOL    HW1 9935   6.870   3.786   2.779
 3012SOL    HW2 9936   0.012   3.769   2.801
 3013SOL     OW 9937   5.915   4.615   2.149
 3013SOL    HW1 9938   5.890   4.619   2.245
 3013SOL    HW2 9939   5.840   4.576   2.096
 3014SOL     OW 9940   4.405   1.067   5.057
 3014SOL    HW1 9941   4.367   0.986   5.013
 3014SOL    HW2 9942   4.370   1.149   5.011
 3015SOL     OW 9943   2.857   2.643   6.884
 3015SOL    HW1 9944   2.841   2.707   6.810
 3015SOL    HW2 9945   2.954   2.645   6.910
 3016SOL     OW 9946   4.077   6.407   3.633
 3016SOL    HW1 9947   3.990   6.441   3.597
 3016SOL    HW2 9948   4.144   6.404   3.559
 3017SOL     OW 9949   6.996   5.886   1.500
 3017SOL    HW1 9950   0.024   5.802   1.527
 3017SOL    HW2 9951   6.976   5.883   1.402
 3018SOL     OW 9952   3.567   6.494   0.235
 3018SOL    HW1 9953   3.489   6.432   0.226
 3018SOL    HW2 9954   3.594   6.527   0.145
 3019SOL     OW 9955   4.876   0.054   2.181
 3019SOL    HW1 9956   4.909   7.008   2.248
 3019SOL    HW2 9957   4.797   0.104   2.218
 3020SOL     OW 9958   1.683   1.936   1.035
 3020SOL    HW1 9959   1.674   1.916   1.132
 3020SOL    HW2 9960   1.608   1.994   1.004
 3021SOL     OW 9961   2.999   1.162   6.310
 3021SOL    HW1 9962   2.936   1.193   6.380
 3021SOL    HW2 9963   3.093   1.167   6.344
 3022SOL     OW 9964   4.969   0.061   3.267
 3022SOL    HW1 9965   5.069   0.055   3.262
 3022SOL    HW2 9966   4.933   6.998   3.311
 3023SOL     OW 9967   5.180   6.403   2.072
 3023SOL    HW1 9968   5.115   6.333   2.102
 3023SOL    HW2 9969   5.168   6.419   1.974
 3024SOL     OW 9970   2.829   6.537   6.950
 3024SOL    HW1 9971   2.896   6.539   0.005
 3024SOL    HW2 9972   2.869   6.490   6.871
 3025SOL     OW 9973   2.232   2.521   1.412
 3025SOL    HW1 9974   2.319   2.474   1.418
 3025SOL    HW2 9975   2.172   2.473   1.349
 3026SOL     OW 9976   2.181   4.350   1.220
 3026SOL    HW1 9977   2.107   4.416   1.206
 3026SOL    HW2 9978   2.195   4.337   1.318
 3027SOL     OW 9979   1.090   1.904   3.591
 3027SOL    HW1 9980   1.056   1.811   3.579
 3027SOL    HW2 9981   1.185   1.902   3.620
 3028SOL     OW 9982   1.693   0.078   4.783
 3028SOL    HW1 9983   1.663   0.026   4.863
 3028SOL    HW2 9984   1.680   0.021   4.701
 3029SOL     OW 9985   5.295   6.786   5.500
 3029SOL    HW1 9986   5.322   6.710   5.442
 3029SOL    HW2 9987   5.354   6.790   5.581
 3030SOL     OW 9988   1.057   2.378   5.496
 3030SOL    HW1 9989   1.022   2.435   5.570
 3030SOL    HW2 9990   1.132   2.425   5.450
 3031SOL     OW 9991   1.173   4.856   6.708
 3031SOL    HW1 9992   1.108   4.830   6.637
 3031SOL    HW2 9993   1.150   4.947   6.742
 3032SOL     OW 9994   4.732   0.242   6.090
 3032SOL    HW1 9995   4.779   0.154   6.085
 3032SOL    HW2 9996   4.637   0.227   6.117
 3033SOL     OW 9997   5.633   3.592   6.628
 3033SOL    HW1 9998   5.603   3.557   6.717
 3033SOL    HW2 9999   5.573   3.666   6.599
 3034SOL     OW10000   2.419   0.241   4.723
 3034SOL    HW110001   2.330   0.209   4.690
 3034SOL    HW210002   2.452   0.179   4.795
 3035SOL     OW10003   6.243   0.357   6.943
 3035SOL    HW110004   6.192   0.436   6.978
 3035SOL    HW210005   6.339   0.382   6.930
 3036SOL     OW10006   1.185   4.531   6.505
 3036SOL    HW110007   1.273   4.577   6.519
 3036SOL    HW210008   1.116   4.598   6.476
 3037SOL     OW10009   6.583   6.266   5.635
 3037SOL    HW110010   6.542   6.330   5.570
 3037SOL    HW210011   6.611   6.315   5.717
 3038SOL     OW10012   5.178   0.069   5.949
 3038SOL    HW110013   5.144   0.035   5.861
 3038SOL    HW210014   5.275   0.089   5.942
 3039SOL     OW10015   0.734   5.001   1.099
 3039SOL    HW110016   0.779   5.090   1.095
 3039SOL    HW210017   0.788   4.940   1.157
 3040SOL     OW10018   2.733   3.513   6.648
 3040SOL    HW110019   2.692   3.603   6.636
 3040SOL    HW210020   2.703   3.474   6.735
 3041SOL     OW10021   1.790   2.260   5.838
 3041SOL    HW110022   1.787   2.171   5.793
 3041SOL    HW210023   1.699   2.286   5.869
 3042SOL     OW10024   4.838   0.879   1.713
 3042SOL    HW110025   4.835   0.927   1.625
 3042SOL    HW210026   4.788   0.932   1.781
 3043SOL     OW10027   0.012   5.369   0.380
 3043SOL    HW110028   0.052   5.410   0.462
 3043SOL    HW210029   0.005   5.270   0.393
 3044SOL     OW10030   3.293   4.095   6.365
 3044SOL    HW110031   3.292   4.103   6.266
 3044SOL    HW210032   3.326   4.005   6.392
 3045SOL     OW10033   5.963   2.534   3.277
 3045SOL    HW110034   5.925   2.589   3.202
 3045SOL    HW210035   5.969   2.590   3.360
 3046SOL     OW10036   2.105   2.874   5.806
 3046SOL    HW110037   2.118   2.818   5.887
 3046SOL    HW210038   2.194   2.896   5.766
 3047SOL     OW10039   6.348   4.646   2.356
 3047SOL    HW110040   6.383   4.589   2.430
 3047SOL    HW210041   6.267   4.603   2.316
 3048SOL     OW10042   3.380   2.386   1.463
 3048SOL    HW110043   3.479   2.386   1.446
 3048SOL    HW210044   3.344   2.477   1.442
 3049SOL     OW10045   1.035   0.373   2.259
 3049SOL    HW110046   1.048   0.303   2.329
 3049SOL    HW210047   1.078   0.345   2.174
 3050SOL     OW10048   4.196   5.837   4.137
 3050SOL    HW110049   4.155   5.902   4.200
 3050SOL    HW210050   4.152   5.845   4.048
 3051SOL     OW10051   2.189   4.367   6.038
 3051SOL    HW110052   2.271   4.422   6.053
 3051SOL    HW210053   2.194   4.325   5.947
 3052SOL     OW10054   4.433   6.346   2.853
 3052SOL    HW110055   4.335   6.354   2.836
 3052SOL    HW210056   4.473   6.282   2.787
 3053SOL     OW10057   5.364   6.374   0.272
 3053SOL    HW110058   5.463   6.387   0.281
 3053SOL    HW210059   5.319   6.464   0.274
 3054SOL     OW10060   1.042   3.250   6.187
 3054SOL    HW110061   1.075   3.230   6.279
 3054SOL    HW210062   1.120   3.263   6.126
 3055SOL     OW10063   6.254   6.561   3.180
 3055SOL    HW110064   6.315   6.620   3.234
 3055SOL    HW210065   6.285   6.559   3.085
 3056SOL     OW10066   6.986   0.888   0.982
 3056SOL    HW110067   0.016   0.805   0.957
 3056SOL    HW210068   6.987   0.898   1.082
 3057SOL     OW10069   6.320   5.412   2.564
 3057SOL    HW110070   6.283   5.319   2.569
 3057SOL    HW210071   6.379   5.429   2.642
 3058SOL     OW10072   6.368   4.996   1.581
 3058SOL    HW110073   6.282   4.999   1.632
 3058SOL    HW210074   6.425   4.922   1.618
 3059SOL     OW10075   1.890   2.783   4.474
 3059SOL    HW110076   1.969   2.765   4.533
 3059SOL    HW210077   1.876   2.881   4.466
 3060SOL     OW10078   6.625   6.835   0.577
 3060SOL    HW110079   6.687   6.858   0.503
 3060SOL    HW210080   6.534   6.870   0.557
 3061SOL     OW10081   0.075   0.030   6.199
 3061SOL    HW110082   0.071   0.128   6.179
 3061SOL    HW210083   0.142   0.015   6.272
 3062SOL     OW10084   2.862   6.155   7.016
 3062SOL    HW110085   2.847   6.060   0.022
 3062SOL    HW210086   2.848   6.214   0.077
 3063SOL     OW10087   2.208   4.842   1.050
 3063SOL    HW110088   2.295   4.821   1.095
 3063SOL    HW210089   2.164   4.756   1.022
 3064SOL     OW10090   6.027   3.708   3.150
 3064SOL    HW110091   6.114   3.725   3.104
 3064SOL    HW210092   6.020   3.611   3.172
 3065SOL     OW10093   2.109   0.930   0.169
 3065SOL    HW110094   2.092   1.027   0.155
 3065SOL    HW210095   2.208   0.915   0.180
 3066SOL     OW10096   5.982   4.811   1.638
 3066SOL    HW110097   5.927   4.818   1.721
 3066SOL    HW210098   5.926   4.772   1.565
 3067SOL     OW10099   5.204   6.970   3.873
 3067SOL    HW110100   5.266   0.022   3.907
 3067SOL    HW210101   5.113   6.985   3.910
 3068SOL     OW10102   5.846   4.824   0.360
 3068SOL    HW110103   5.761   4.801   0.407
 3068SOL    HW210104   5.893   4.897   0.409
 3069SOL     OW10105   0.819   5.788   2.942
 3069SOL    HW110106   0.776   5.810   2.854
 3069SOL    HW210107   0.850   5.872   2.986
 3070SOL     OW10108   4.360   1.196   4.341
 3070SOL    HW110109   4.270   1.173   4.378
 3070SOL    HW210110   4.430   1.176   4.409
 3071SOL     OW10111   6.234   6.440   3.539
 3071SOL    HW110112   6.295   6.399   3.607
 3071SOL    HW210113   6.218   6.375   3.465
 3072SOL     OW10114   0.680   0.440   2.795
 3072SOL    HW110115   0.737   0.387   2.857
 3072SOL    HW210116   0.670   0.392   2.708
 3073SOL     OW10117   1.229   3.421   4.706
 3073SOL    HW110118   1.313   3.391   4.752
 3073SOL    HW210119   1.248   3.437   4.609
 3074SOL     OW10120   4.643   3.107   5.724
 3074SOL    HW110121   4.587   3.189   5.718
 3074SOL    HW210122   4.677   3.096   5.818
 3075SOL     OW10123   2.276   5.777   1.722
 3075SOL    HW110124   2.309   5.869   1.741
 3075SOL    HW210125   2.196   5.783   1.662
 3076SOL     OW10126   0.707   0.676   5.018
 3076SOL    HW110127   0.736   0.603   5.081
 3076SOL    HW210128   0.617   0.654   4.981
 3077SOL     OW10129   5.171   5.194   3.691
 3077SOL    HW110130   5.218   5.200   3.602
 3077SOL    HW210131   5.078   5.161   3.677
 3078SOL     OW10132   1.744   3.569   1.360
 3078SOL    HW110133   1.678   3.540   1.429
 3078SOL    HW210134   1.834   3.531   1.380
 3079SOL     OW10135   6.458   2.311   5.883
 3079SOL    HW110136   6.405   2.391   5.855
 3079SOL    HW210137   6.554   2.326   5.863
 3080SOL     OW10138   6.401   5.540   0.715
 3080SOL    HW110139   6.434   5.582   0.799
 3080SOL    HW210140   6.462   5.564   0.639
 3081SOL     OW10141   6.875   5.331   5.503
 3081SOL    HW110142   6.795   5.289   5.460
 3081SOL    HW210143   6.888   5.293   5.594
 3082SOL     OW10144   2.762   0.251   2.642
 3082SOL    HW110145   2.773   0.203   2.555
 3082SOL    HW210146   2.688   0.209   2.694
 3083SOL     OW10147   3.266   0.412   1.842
 3083SOL    HW110148   3.263   0.463   1.929
 3083SOL    HW210149   3.360   0.383   1.824
 3084SOL     OW10150   5.384   6.272   4.679
 3084SOL    HW110151   5.316   6.198   4.681
 3084SOL    HW210152   5.344   6.355   4.716
 3085SOL     OW10153   0.743   5.364   1.992
 3085SOL    HW110154   0.757   5.272   2.028
 3085SOL    HW210155   0.784   5.431   2.053
 3086SOL     OW10156   5.119   1.248   3.896
 3086SOL    HW110157   5.215   1.221   3.881
 3086SOL    HW210158   5.114   1.307   3.977
 3087SOL     OW10159   6.488   2.941   3.206
 3087SOL    HW110160   6.470   3.032   3.168
 3087SOL    HW210161   6.450   2.871   3.146
 3088SOL     OW10162   3.109   4.673   5.919
 3088SOL    HW110163   3.067   4.762   5.902
 3088SOL    HW210164   3.070   4.633   6.001
 3089SOL     OW10165   1.905   2.579   0.291
 3089SOL    HW110166   1.955   2.504   0.250
 3089SOL    HW210167   1.809   2.554   0.302
 3090SOL     OW10168   1.115   1.694   1.138
 3090SOL    HW110169   1.138   1.687   1.235
 3090SOL    HW210170   1.160   1.775   1.099
 3091SOL     OW10171   2.825   6.737   0.266
 3091SOL    HW110172   2.844   6.803   0.339
 3091SOL    HW210173   2.736   6.695   0.282
 3092SOL     OW10174   4.856   6.112   0.784
 3092SOL    HW110175   4.833   6.019   0.756
 3092SOL    HW210176   4.844   6.174   0.707
 3093SOL     OW10177   5.110   5.801   4.125
 3093SOL    HW110178   5.016   5.771   4.144
 3093SOL    HW210179   5.167   5.721   4.108
 3094SOL     OW10180   2.855   5.538   5.586
 3094SOL    HW110181   2.847   5.596   5.505
 3094SOL    HW210182   2.832   5.443   5.562
 3095SOL     OW10183   3.164   4.901   5.153
 3095SOL    HW110184   3.213   4.910   5.067
 3095SOL    HW210185   3.176   4.809   5.190
 3096SOL     OW10186   1.074   0.743   6.008
 3096SOL    HW110187   1.003   0.728   6.076
 3096SOL    HW210188   1.050   0.695   5.923
 3097SOL     OW10189   1.548   3.048   6.939
 3097SOL    HW110190   1.505   3.005   7.018
 3097SOL    HW210191   1.570   3.144   6.961
 3098SOL     OW10192   3.870   2.442   0.692
 3098SOL    HW110193   3.926   2.524   0.685
 3098SOL    HW210194   3.867   2.396   0.603
 3099SOL     OW10195   0.914   6.079   5.516
 3099SOL    HW110196   0.875   6.027   5.592
 3099SOL    HW210197   1.010   6.099   5.535
 3100SOL     OW10198   6.829   0.231   0.031
 3100SOL    HW110199   6.828   0.310   0.092
 3100SOL    HW210200   6.889   0.160   0.069
 3101SOL     OW10201   4.581   0.061   0.589
 3101SOL    HW110202   4.654   7.013   0.598
 3101SOL    HW210203   4.613   0.149   0.624
 3102SOL     OW10204   1.689   4.804   1.392
 3102SOL    HW110205   1.659   4.849   1.308
 3102SOL    HW210206   1.753   4.863   1.441
 3103SOL     OW10207   4.053   3.163   2.041
 3103SOL    HW110208   4.090   3.134   2.129
 3103SOL    HW210209   4.127   3.197   1.983
 3104SOL     OW10210   6.865   5.719   3.894
 3104SOL    HW110211   6.809   5.679   3.966
 3104SOL    HW210212   6.931   5.650   3.861
 3105SOL     OW10213   6.115   6.285   4.092
 3105SOL    HW110214   6.112   6.208   4.156
 3105SOL    HW210215   6.205   6.328   4.096
 3106SOL     OW10216   6.941   2.396   4.391
 3106SOL    HW110217   6.846   2.367   4.378
 3106SOL    HW210218   6.969   2.375   4.485
 3107SOL     OW10219   2.961   6.826   4.410
 3107SOL    HW110220   3.030   6.794   4.475
 3107SOL    HW210221   3.006   6.869   4.332
 3108SOL     OW10222   3.762   0.586   3.609
 3108SOL    HW110223   3.705   0.667   3.616
 3108SOL    HW210224   3.842   0.595   3.668
 3109SOL     OW10225   4.844   5.619   3.582
 3109SOL    HW110226   4.768   5.573   3.536
 3109SOL    HW210227   4.838   5.601   3.681
 3110SOL     OW10228   0.594   2.813   2.440
 3110SOL    HW110229   0.604   2.713   2.446
 3110SOL    HW210230   0.658   2.856   2.504
 3111SOL     OW10231   6.860   4.501   3.600
 3111SOL    HW110232   6.778   4.483   3.546
 3111SOL    HW210233   6.933   4.533   3.540
 3112SOL     OW10234   3.877   3.818   6.616
 3112SOL    HW110235   3.966   3.773   6.623
 3112SOL    HW210236   3.891   3.917   6.616
 3113SOL     OW10237   3.032   6.848   3.832
 3113SOL    HW110238   3.002   6.837   3.738
 3113SOL    HW210239   3.112   6.790   3.849
 3114SOL     OW10240   5.686   5.682   0.904
 3114SOL    HW110241   5.592   5.666   0.934
 3114SOL    HW210242   5.693   5.774   0.865
 3115SOL     OW10243   2.672   3.652   1.450
 3115SOL    HW110244   2.729   3.665   1.368
 3115SOL    HW210245   2.726   3.607   1.521
 3116SOL     OW10246   7.012   1.803   0.036
 3116SOL    HW110247   6.940   1.867   0.063
 3116SOL    HW210248   7.001   1.780   6.959
 3117SOL     OW10249   4.076   3.802   4.998
 3117SOL    HW110250   4.141   3.877   4.982
 3117SOL    HW210251   4.115   3.736   5.062
 3118SOL     OW10252   5.606   4.244   0.383
 3118SOL    HW110253   5.632   4.341   0.388
 3118SOL    HW210254   5.519   4.230   0.431
 3119SOL     OW10255   1.175   4.232   5.404
 3119SOL    HW110256   1.159   4.324   5.437
 3119SOL    HW210257   1.243   4.234   5.330
 3120SOL     OW10258   3.391   5.292   5.415
 3120SOL    HW110259   3.398   5.263   5.319
 3120SOL    HW210260   3.323   5.235   5.461
 3121SOL     OW10261   0.140   6.665   2.651
 3121SOL    HW110262   0.178   6.579   2.684
 3121SOL    HW210263   0.214   6.730   2.635
 3122SOL     OW10264   2.811   5.651   1.041
 3122SOL    HW110265   2.789   5.554   1.050
 3122SOL    HW210266   2.863   5.666   0.957
 3123SOL     OW10267   3.567   6.702   4.263
 3123SOL    HW110268   3.548   6.783   4.207
 3123SOL    HW210269   3.557   6.620   4.207
 3124SOL     OW10270   4.065   0.284   6.736
 3124SOL    HW110271   4.076   0.241   6.646
 3124SOL    HW210272   3.968   0.301   6.753
 3125SOL     OW10273   6.791   2.091   5.856
 3125SOL    HW110274   6.737   2.019   5.899
 3125SOL    HW210275   6.770   2.095   5.759
 3126SOL     OW10276   4.275   5.733   0.492
 3126SOL    HW110277   4.370   5.725   0.524
 3126SOL    HW210278   4.272   5.715   0.393
 3127SOL     OW10279   0.415   1.049   3.852
 3127SOL    HW110280   0.368   1.137   3.844
 3127SOL    HW210281   0.459   1.043   3.942
 3128SOL     OW10282   1.244   2.085   0.697
 3128SOL    HW110283   1.313   2.053   0.762
 3128SOL    HW210284   1.285   2.097   0.607
 3129SOL     OW10285   0.781   3.298   4.900
 3129SOL    HW110286   0.771   3.238   4.821
 3129SOL    HW210287   0.812   3.389   4.869
 3130SOL     OW10288   1.411   5.555   3.146
 3130SOL    HW110289   1.379   5.612   3.069
 3130SOL    HW210290   1.472   5.484   3.111
 3131SOL     OW10291   6.886   3.696   3.366
 3131SOL    HW110292   6.845   3.787   3.365
 3131SOL    HW210293   6.985   3.704   3.363
 3132SOL     OW10294   5.219   6.145   5.533
 3132SOL    HW110295   5.144   6.185   5.584
 3132SOL    HW210296   5.306   6.185   5.563
 3133SOL     OW10297   2.878   1.815   3.191
 3133SOL    HW110298   2.827   1.731   3.173
 3133SOL    HW210299   2.879   1.872   3.108
 3134SOL     OW10300   5.071   2.869   2.546
 3134SOL    HW110301   4.984   2.917   2.556
 3134SOL    HW210302   5.134   2.924   2.492
 3135SOL     OW10303   3.130   1.722   3.301
 3135SOL    HW110304   3.040   1.742   3.262
 3135SOL    HW210305   3.167   1.640   3.258
 3136SOL     OW10306   5.755   6.531   5.054
 3136SOL    HW110307   5.803   6.499   5.135
 3136SOL    HW210308   5.792   6.621   5.027
 3137SOL     OW10309   6.319   1.962   4.195
 3137SOL    HW110310   6.232   1.919   4.172
 3137SOL    HW210311   6.393   1.896   4.185
 3138SOL     OW10312   5.452   1.193   5.179
 3138SOL    HW110313   5.381   1.144   5.128
 3138SOL    HW210314   5.529   1.213   5.118
 3139SOL     OW10315   4.900   6.216   5.229
 3139SOL    HW110316   4.984   6.198   5.280
 3139SOL    HW210317   4.836   6.141   5.244
 3140SOL     OW10318   6.335   6.513   6.701
 3140SOL    HW110319   6.333   6.612   6.718
 3140SOL    HW210320   6.420   6.475   6.736
 3141SOL     OW10321   1.237   4.786   0.421
 3141SOL    HW110322   1.172   4.823   0.355
 3141SOL    HW210323   1.216   4.690   0.439
 3142SOL     OW10324   4.312   6.482   0.240
 3142SOL    HW110325   4.319   6.462   0.338
 3142SOL    HW210326   4.369   6.561   0.218
 3143SOL     OW10327   6.673   1.447   0.731
 3143SOL    HW110328   6.579   1.478   0.720
 3143SOL    HW210329   6.685   1.409   0.823
 3144SOL     OW10330   1.400   3.899   6.565
 3144SOL    HW110331   1.445   3.975   6.518
 3144SOL    HW210332   1.467   3.825   6.580
 3145SOL     OW10333   3.257   6.762   3.964
 3145SOL    HW110334   3.351   6.766   3.930
 3145SOL    HW210335   3.253   6.800   4.057
 3146SOL     OW10336   2.476   0.367   3.913
 3146SOL    HW110337   2.567   0.325   3.918
 3146SOL    HW210338   2.410   0.307   3.959
 3147SOL     OW10339   4.137   3.630   0.183
 3147SOL    HW110340   4.174   3.588   0.266
 3147SOL    HW210341   4.060   3.688   0.207
 3148SOL     OW10342   3.566   5.868   4.644
 3148SOL    HW110343   3.562   5.890   4.546
 3148SOL    HW210344   3.487   5.908   4.690
 3149SOL     OW10345   3.454   6.588   5.673
 3149SOL    HW110346   3.453   6.497   5.632
 3149SOL    HW210347   3.363   6.611   5.707
 3150SOL     OW10348   6.307   0.319   4.834
 3150SOL    HW110349   6.330   0.415   4.851
 3150SOL    HW210350   6.210   0.313   4.809
 3151SOL     OW10351   3.609   0.832   6.565
 3151SOL    HW110352   3.598   0.733   6.576
 3151SOL    HW210353   3.702   0.858   6.589
 3152SOL     OW10354   1.430   5.117   0.668
 3152SOL    HW110355   1.392   5.098   0.578
 3152SOL    HW210356   1.357   5.149   0.729
 3153SOL     OW10357   6.923   4.344   2.506
 3153SOL    HW110358   6.843   4.336   2.448
 3153SOL    HW210359   6.988   4.407   2.464
 3154SOL     OW10360   5.593   2.536   6.612
 3154SOL    HW110361   5.502   2.559   6.579
 3154SOL    HW210362   5.653   2.517   6.534
 3155SOL     OW10363   5.076   6.029   0.401
 3155SOL    HW110364   5.114   6.011   0.310
 3155SOL    HW210365   5.145   6.075   0.457
 3156SOL     OW10366   3.143   3.919   3.311
 3156SOL    HW110367   3.108   3.826   3.307
 3156SOL    HW210368   3.137   3.953   3.405
 3157SOL     OW10369   2.148   3.077   4.514
 3157SOL    HW110370   2.197   3.052   4.430
 3157SOL    HW210371   2.195   3.037   4.593
 3158SOL     OW10372   4.473   6.065   0.662
 3158SOL    HW110373   4.560   6.114   0.674
 3158SOL    HW210374   4.464   6.036   0.567
 3159SOL     OW10375   5.458   4.901   0.874
 3159SOL    HW110376   5.375   4.848   0.856
 3159SOL    HW210377   5.443   4.996   0.848
 3160SOL     OW10378   5.704   4.346   6.935
 3160SOL    HW110379   5.671   4.429   6.890
 3160SOL    HW210380   5.784   4.312   6.887
 3161SOL     OW10381   0.903   1.908   2.915
 3161SOL    HW110382   0.844   1.834   2.883
 3161SOL    HW210383   0.999   1.886   2.896
 3162SOL     OW10384   6.627   6.133   6.197
 3162SOL    HW110385   6.678   6.215   6.223
 3162SOL    HW210386   6.677   6.052   6.227
 3163SOL     OW10387   2.339   4.037   5.688
 3163SOL    HW110388   2.245   4.007   5.672
 3163SOL    HW210389   2.382   4.060   5.600
 3164SOL     OW10390   5.528   5.203   6.251
 3164SOL    HW110391   5.482   5.118   6.229
 3164SOL    HW210392   5.483   5.279   6.204
 3165SOL     OW10393   0.011   2.494   1.536
 3165SOL    HW110394   0.014   2.439   1.453
 3165SOL    HW210395   6.937   2.495   1.572
 3166SOL     OW10396   5.312   2.917   5.923
 3166SOL    HW110397   5.223   2.958   5.944
 3166SOL    HW210398   5.348   2.873   6.005
 3167SOL     OW10399   0.776   4.395   2.300
 3167SOL    HW110400   0.773   4.376   2.398
 3167SOL    HW210401   0.683   4.392   2.263
 3168SOL     OW10402   5.633   3.352   0.990
 3168SOL    HW110403   5.670   3.319   1.077
 3168SOL    HW210404   5.697   3.416   0.948
 3169SOL     OW10405   1.383   1.682   5.033
 3169SOL    HW110406   1.365   1.584   5.032
 3169SOL    HW210407   1.311   1.729   5.083
 3170SOL     OW10408   4.270   0.611   6.301
 3170SOL    HW110409   4.271   0.705   6.335
 3170SOL    HW210410   4.205   0.557   6.354
 3171SOL     OW10411   6.412   6.638   3.387
 3171SOL    HW110412   6.483   6.672   3.448
 3171SOL    HW210413   6.346   6.584   3.439
 3172SOL     OW10414   6.280   6.916   5.640
 3172SOL    HW110415   6.302   6.883   5.548
 3172SOL    HW210416   6.300   7.014   5.645
 3173SOL     OW10417   1.624   1.377   1.065
 3173SOL    HW110418   1.589   1.394   0.973
 3173SOL    HW210419   1.624   1.463   1.117
 3174SOL     OW10420   2.042   3.603   5.731
 3174SOL    HW110421   2.116   3.647   5.782
 3174SOL    HW210422   1.972   3.671   5.707
 3175SOL     OW10423   0.378   6.232   0.778
 3175SOL    HW110424   0.330   6.274   0.855
 3175SOL    HW210425   0.421   6.303   0.722
 3176SOL     OW10426   0.816   5.164   6.489
 3176SOL    HW110427   0.765   5.117   6.561
 3176SOL    HW210428   0.905   5.119   6.477
 3177SOL     OW10429   6.888   0.286   4.785
 3177SOL    HW110430   6.871   0.188   4.792
 3177SOL    HW210431   6.864   0.317   4.693
 3178SOL     OW10432   1.800   3.168   1.390
 3178SOL    HW110433   1.829   3.078   1.357
 3178SOL    HW210434   1.866   3.202   1.457
 3179SOL     OW10435   1.471   2.220   2.886
 3179SOL    HW110436   1.432   2.193   2.798
 3179SOL    HW210437   1.519   2.142   2.927
 3180SOL     OW10438   5.809   0.895   5.720
 3180SOL    HW110439   5.748   0.911   5.643
 3180SOL    HW210440   5.879   0.966   5.723
 3181SOL     OW10441   0.716   2.054   3.043
 3181SOL    HW110442   0.807   2.019   3.018
 3181SOL    HW210443   0.652   2.038   2.968
 3182SOL     OW10444   1.367   4.564   5.213
 3182SOL    HW110445   1.324   4.583   5.301
 3182SOL    HW210446   1.415   4.476   5.217
 3183SOL     OW10447   4.102   3.407   1.151
 3183SOL    HW110448   4.086   3.310   1.167
 3183SOL    HW210449   4.121   3.452   1.238
 3184SOL     OW10450   2.946   1.348   2.876
 3184SOL    HW110451   2.865   1.330   2.932
 3184SOL    HW210452   2.952   1.446   2.857
 3185SOL     OW10453   6.978   6.437   5.937
 3185SOL    HW110454   6.978   6.348   5.982
 3185SOL    HW210455   0.025   6.436   5.862
 3186SOL     OW10456   3.154   0.269   1.602
 3186SOL    HW110457   3.159   0.178   1.643
 3186SOL    HW210458   3.143   0.338   1.675
 3187SOL     OW10459   3.538   4.604   6.959
 3187SOL    HW110460   3.503   4.688   6.917
 3187SOL    HW210461   3.552   4.535   6.887
 3188SOL     OW10462   4.159   0.012   3.064
 3188SOL    HW110463   4.139   6.935   3.051
 3188SOL    HW210464   4.127   0.064   2.985
 3189SOL     OW10465   0.961   0.427   1.787
 3189SOL    HW110466   1.012   0.496   1.734
 3189SOL    HW210467   0.911   0.473   1.860
 3190SOL     OW10468   0.645   6.394   1.971
 3190SOL    HW110469   0.726   6.357   2.016
 3190SOL    HW210470   0.667   6.417   1.876
 3191SOL     OW10471   3.221   0.691   0.815
 3191SOL    HW110472   3.289   0.701   0.742
 3191SOL    HW210473   3.245   0.750   0.892
 3192SOL     OW10474   6.467   2.459   3.510
 3192SOL    HW110475   6.388   2.398   3.506
 3192SOL    HW210476   6.440   2.551   3.482
 3193SOL     OW10477   4.767   3.938   0.245
 3193SOL    HW110478   4.789   3.843   0.270
 3193SOL    HW210479   4.729   3.939   0.153
 3194SOL     OW10480   1.349   4.109   5.628
 3194SOL    HW110481   1.418   4.047   5.591
 3194SOL    HW210482   1.270   4.111   5.568
 3195SOL     OW10483   0.419   3.773   3.254
 3195SOL    HW110484   0.435   3.677   3.229
 3195SOL    HW210485   0.325   3.783   3.286
 3196SOL     OW10486   0.368   6.708   5.280
 3196SOL    HW110487   0.440   6.647   5.247
 3196SOL    HW210488   0.410   6.789   5.321
 3197SOL     OW10489   0.978   4.178   3.980
 3197SOL    HW110490   0.934   4.102   3.932
 3197SOL    HW210491   0.948   4.265   3.939
 3198SOL     OW10492   6.857   1.012   7.019
 3198SOL    HW110493   6.865   1.111   0.000
 3198SOL    HW210494   6.910   0.974   0.076
 3199SOL     OW10495   3.721   1.980   2.861
 3199SOL    HW110496   3.762   1.946   2.777
 3199SOL    HW210497   3.661   2.057   2.840
 3200SOL     OW10498   6.680   2.401   1.095
 3200SOL    HW110499   6.719   2.311   1.076
 3200SOL    HW210500   6.681   2.456   1.011
 3201SOL     OW10501   4.801   4.212   3.252
 3201SOL    HW110502   4.835   4.147   3.320
 3201SOL    HW210503   4.725   4.264   3.291
 3202SOL     OW10504   2.069   5.789   1.522
 3202SOL    HW110505   1.979   5.778   1.565
 3202SOL    HW210506   2.067   5.752   1.429
 3203SOL     OW10507   6.382   7.002   1.782
 3203SOL    HW110508   6.468   0.013   1.824
 3203SOL    HW210509   6.315   6.982   1.854
 3204SOL     OW10510   6.139   5.667   1.673
 3204SOL    HW110511   6.054   5.694   1.719
 3204SOL    HW210512   6.121   5.649   1.576
 3205SOL     OW10513   1.520   3.915   2.886
 3205SOL    HW110514   1.619   3.915   2.873
 3205SOL    HW210515   1.492   3.827   2.926
 3206SOL     OW10516   1.602   6.916   0.460
 3206SOL    HW110517   1.593   7.013   0.435
 3206SOL    HW210518   1.593   6.860   0.378
 3207SOL     OW10519   1.235   0.887   4.014
 3207SOL    HW110520   1.177   0.852   4.087
 3207SOL    HW210521   1.186   0.879   3.927
 3208SOL     OW10522   6.307   0.407   5.550
 3208SOL    HW110523   6.229   0.440   5.497
 3208SOL    HW210524   6.389   0.458   5.523
 3209SOL     OW10525   2.758   0.352   2.916
 3209SOL    HW110526   2.771   0.324   2.821
 3209SOL    HW210527   2.792   0.280   2.976
 3210SOL     OW10528   6.871   4.769   3.347
 3210SOL    HW110529   6.812   4.829   3.400
 3210SOL    HW210530   6.962   4.766   3.388
 3211SOL     OW10531   1.115   4.619   2.301
 3211SOL    HW110532   1.103   4.547   2.369
 3211SOL    HW210533   1.193   4.676   2.326
 3212SOL     OW10534   5.012   2.626   5.511
 3212SOL    HW110535   5.076   2.667   5.575
 3212SOL    HW210536   4.925   2.675   5.515
 3213SOL     OW10537   5.417   5.966   1.641
 3213SOL    HW110538   5.424   6.066   1.635
 3213SOL    HW210539   5.432   5.926   1.551
 3214SOL     OW10540   4.067   4.519   6.052
 3214SOL    HW110541   4.101   4.433   6.014
 3214SOL    HW210542   3.972   4.533   6.024
 3215SOL     OW10543   6.120   1.609   0.240
 3215SOL    HW110544   6.203   1.663   0.255
 3215SOL    HW210545   6.051   1.633   0.308
 3216SOL     OW10546   5.910   6.790   4.573
 3216SOL    HW110547   6.009   6.800   4.560
 3216SOL    HW210548   5.892   6.741   4.658
 3217SOL     OW10549   6.775   4.071   0.424
 3217SOL    HW110550   6.688   4.069   0.375
 3217SOL    HW210551   6.796   3.979   0.458
 3218SOL     OW10552   3.159   0.988   2.004
 3218SOL    HW110553   3.090   0.934   1.955
 3218SOL    HW210554   3.221   1.031   1.937
 3219SOL     OW10555   0.022   6.644   3.862
 3219SOL    HW110556   6.957   6.602   3.895
 3219SOL    HW210557   0.101   6.594   3.900
 3220SOL     OW10558   6.120   3.050   5.137
 3220SOL    HW110559   6.084   3.014   5.224
 3220SOL    HW210560   6.050   3.106   5.093
 3221SOL     OW10561   3.980   0.022   2.197
 3221SOL    HW110562   4.043   6.979   2.244
 3221SOL    HW210563   3.981   0.111   2.243
 3222SOL     OW10564   6.177   3.327   2.753
 3222SOL    HW110565   6.123   3.303   2.834
 3222SOL    HW210566   6.116   3.360   2.681
 3223SOL     OW10567   2.346   4.879   4.560
 3223SOL    HW110568   2.341   4.784   4.530
 3223SOL    HW210569   2.338   4.940   4.481
 3224SOL     OW10570   3.863   5.628   1.175
 3224SOL    HW110571   3.861   5.591   1.269
 3224SOL    HW210572   3.811   5.713   1.172
 3225SOL     OW10573   2.063   2.727   1.166
 3225SOL    HW110574   2.121   2.674   1.229
 3225SOL    HW210575   2.075   2.693   1.073
 3226SOL     OW10576   0.011   0.738   4.416
 3226SOL    HW110577   0.036   0.822   4.369
 3226SOL    HW210578   6.973   0.682   4.356
 3227SOL     OW10579   2.253   1.319   5.119
 3227SOL    HW110580   2.308   1.237   5.130
 3227SOL    HW210581   2.257   1.374   5.203
 3228SOL     OW10582   5.118   3.139   4.757
 3228SOL    HW110583   5.061   3.077   4.812
 3228SOL    HW210584   5.201   3.091   4.728
 3229SOL     OW10585   3.772   2.056   5.000
 3229SOL    HW110586   3.831   2.110   5.060
 3229SOL    HW210587   3.792   2.079   4.904
 3230SOL     OW10588   1.912   0.423   4.070
 3230SOL    HW110589   1.850   0.487   4.115
 3230SOL    HW210590   1.965   0.471   4.000
 3231SOL     OW10591   5.311   5.516   0.527
 3231SOL    HW110592   5.329   5.463   0.444
 3231SOL    HW210593   5.252   5.463   0.588
 3232SOL     OW10594   2.301   4.152   3.171
 3232SOL    HW110595   2.280   4.244   3.202
 3232SOL    HW210596   2.397   4.131   3.191
 3233SOL     OW10597   1.571   4.157   1.092
 3233SOL    HW110598   1.599   4.164   1.188
 3233SOL    HW210599   1.578   4.061   1.063
 3234SOL     OW10600   6.215   1.693   4.738
 3234SOL    HW110601   6.304   1.681   4.693
 3234SOL    HW210602   6.227   1.696   4.837
 3235SOL     OW10603   5.578   0.826   2.854
 3235SOL    HW110604   5.478   0.817   2.859
 3235SOL    HW210605   5.620   0.737   2.867
 3236SOL     OW10606   0.693   2.436   2.018
 3236SOL    HW110607   0.595   2.425   1.998
 3236SOL    HW210608   0.730   2.513   1.966
 3237SOL     OW10609   3.348   6.545   4.414
 3237SOL    HW110610   3.401   6.600   4.350
 3237SOL    HW210611   3.409   6.502   4.480
 3238SOL     OW10612   5.913   6.495   6.402
 3238SOL    HW110613   5.938   6.402   6.428
 3238SOL    HW210614   5.853   6.493   6.322
 3239SOL     OW10615   0.162   6.418   5.794
 3239SOL    HW110616   0.122   6.330   5.767
 3239SOL    HW210617   0.239   6.439   5.735
 3240SOL     OW10618   0.380   1.464   4.838
 3240SOL    HW110619   0.390   1.371   4.874
 3240SOL    HW210620   0.368   1.460   4.739
 3241SOL     OW10621   4.793   0.689   5.277
 3241SOL    HW110622   4.814   0.592   5.267
 3241SOL    HW210623   4.791   0.732   5.186
 3242SOL     OW10624   3.056   6.512   0.700
 3242SOL    HW110625   3.111   6.539   0.621
 3242SOL    HW210626   3.091   6.426   0.737
 3243SOL     OW10627   3.431   5.105   0.182
 3243SOL    HW110628   3.417   5.158   0.099
 3243SOL    HW210629   3.451   5.010   0.159
 3244SOL     OW10630   1.783   6.384   5.420
 3244SOL    HW110631   1.750   6.327   5.495
 3244SOL    HW210632   1.797   6.478   5.453
 3245SOL     OW10633   2.526   2.299   5.994
 3245SOL    HW110634   2.551   2.380   5.941
 3245SOL    HW210635   2.604   2.236   5.998
 3246SOL     OW10636   5.373   6.450   3.510
 3246SOL    HW110637   5.458   6.403   3.488
 3246SOL    HW210638   5.393   6.544   3.539
 3247SOL     OW10639   6.514   1.700   4.842
 3247SOL    HW110640   6.453   1.660   4.910
 3247SOL    HW210641   6.609   1.693   4.874
 3248SOL     OW10642   5.372   3.801   2.515
 3248SOL    HW110643   5.462   3.759   2.508
 3248SOL    HW210644   5.381   3.900   2.503
 3249SOL     OW10645   2.998   4.300   5.304
 3249SOL    HW110646   2.914   4.248   5.319
 3249SOL    HW210647   2.974   4.392   5.271
 3250SOL     OW10648   4.552   6.144   1.397
 3250SOL    HW110649   4.604   6.071   1.353
 3250SOL    HW210650   4.554   6.132   1.496
 3251SOL     OW10651   3.797   1.166   3.666
 3251SOL    HW110652   3.783   1.110   3.585
 3251SOL    HW210653   3.709   1.184   3.710
 3252SOL     OW10654   3.226   2.145   3.719
 3252SOL    HW110655   3.186   2.213   3.657
 3252SOL    HW210656   3.156   2.113   3.782
 3253SOL     OW10657   4.233   3.745   1.024
 3253SOL    HW110658   4.293   3.676   1.065
 3253SOL    HW210659   4.228   3.825   1.084
 3254SOL     OW10660   4.779   4.823   2.615
 3254SOL    HW110661   4.744   4.914   2.634
 3254SOL    HW210662   4.864   4.808   2.667
 3255SOL     OW10663   3.946   4.707   1.316
 3255SOL    HW110664   3.996   4.788   1.286
 3255SOL    HW210665   4.005   4.651   1.374
 3256SOL     OW10666   5.768   6.647   5.939
 3256SOL    HW110667   5.832   6.572   5.925
 3256SOL    HW210668   5.714   6.661   5.856
 3257SOL     OW10669   2.263   2.054   0.950
 3257SOL    HW110670   2.333   1.988   0.976
 3257SOL    HW210671   2.278   2.083   0.855
 3258SOL     OW10672   5.391   7.016   1.375
 3258SOL    HW110673   5.449   6.949   1.421
 3258SOL    HW210674   5.401   0.086   1.419
 3259SOL     OW10675   5.985   6.652   3.253
 3259SOL    HW110676   6.072   6.607   3.230
 3259SOL    HW210677   5.973   6.653   3.352
 3260SOL     OW10678   1.393   3.332   0.272
 3260SOL    HW110679   1.392   3.236   0.300
 3260SOL    HW210680   1.309   3.376   0.303
 3261SOL     OW10681   4.489   0.068   3.639
 3261SOL    HW110682   4.510   0.111   3.727
 3261SOL    HW210683   4.390   0.053   3.633
 3262SOL     OW10684   4.145   1.379   4.613
 3262SOL    HW110685   4.215   1.354   4.546
 3262SOL    HW210686   4.071   1.429   4.566
 3263SOL     OW10687   3.427   5.380   2.587
 3263SOL    HW110688   3.362   5.361   2.661
 3263SOL    HW210689   3.515   5.408   2.626
 3264SOL     OW10690   4.472   4.450   5.601
 3264SOL    HW110691   4.389   4.500   5.625
 3264SOL    HW210692   4.497   4.388   5.675
 3265SOL     OW10693   5.420   0.831   6.839
 3265SOL    HW110694   5.503   0.826   6.895
 3265SOL    HW210695   5.445   0.843   6.743
 3266SOL     OW10696   0.292   2.073   6.733
 3266SOL    HW110697   0.385   2.040   6.715
 3266SOL    HW210698   0.256   2.027   6.815
 3267SOL     OW10699   4.970   2.285   1.247
 3267SOL    HW110700   4.982   2.374   1.203
 3267SOL    HW210701   5.014   2.286   1.337
 3268SOL     OW10702   1.406   4.704   6.537
 3268SOL    HW110703   1.492   4.656   6.521
 3268SOL    HW210704   1.385   4.703   6.634
 3269SOL     OW10705   4.623   3.559   0.927
 3269SOL    HW110706   4.687   3.636   0.936
 3269SOL    HW210707   4.554   3.565   0.999
 3270SOL     OW10708   0.456   5.476   4.266
 3270SOL    HW110709   0.496   5.455   4.355
 3270SOL    HW210710   0.504   5.425   4.195
 3271SOL     OW10711   5.119   0.980   1.821
 3271SOL    HW110712   5.207   1.023   1.844
 3271SOL    HW210713   5.099   0.907   1.886
 3272SOL     OW10714   4.836   0.130   0.003
 3272SOL    HW110715   4.835   0.117   0.102
 3272SOL    HW210716   4.800   0.221   7.000
 3273SOL     OW10717   1.039   0.187   3.400
 3273SOL    HW110718   1.052   0.282   3.429
 3273SOL    HW210719   1.091   0.171   3.316
 3274SOL     OW10720   3.201   2.095   6.761
 3274SOL    HW110721   3.117   2.134   6.799
 3274SOL    HW210722   3.197   1.995   6.767
 3275SOL     OW10723   4.044   0.796   0.466
 3275SOL    HW110724   3.960   0.824   0.419
 3275SOL    HW210725   4.113   0.770   0.398
 3276SOL     OW10726   1.999   6.369   0.352
 3276SOL    HW110727   2.037   6.279   0.330
 3276SOL    HW210728   1.900   6.367   0.341
 3277SOL     OW10729   0.105   5.991   5.469
 3277SOL    HW110730   0.059   6.078   5.455
 3277SOL    HW210731   0.165   5.997   5.549
 3278SOL     OW10732   1.005   1.324   0.429
 3278SOL    HW110733   0.982   1.291   0.520
 3278SOL    HW210734   1.045   1.250   0.375
 3279SOL     OW10735   2.236   6.077   1.477
 3279SOL    HW110736   2.141   6.047   1.491
 3279SOL    HW210737   2.295   5.997   1.472
 3280SOL     OW10738   2.756   5.547   4.990
 3280SOL    HW110739   2.794   5.598   5.067
 3280SOL    HW210740   2.682   5.600   4.948
 3281SOL     OW10741   2.260   6.087   0.610
 3281SOL    HW110742   2.321   6.013   0.641
 3281SOL    HW210743   2.291   6.120   0.521
 3282SOL     OW10744   2.144   5.840   2.559
 3282SOL    HW110745   2.165   5.746   2.588
 3282SOL    HW210746   2.185   5.856   2.469
 3283SOL     OW10747   1.855   0.082   4.242
 3283SOL    HW110748   1.942   0.123   4.217
 3283SOL    HW210749   1.854   0.064   4.341
 3284SOL     OW10750   1.191   4.493   5.951
 3284SOL    HW110751   1.233   4.487   6.042
 3284SOL    HW210752   1.217   4.413   5.897
 3285SOL     OW10753   0.436   2.192   4.711
 3285SOL    HW110754   0.514   2.236   4.756
 3285SOL    HW210755   0.388   2.134   4.776
 3286SOL     OW10756   4.212   4.860   5.720
 3286SOL    HW110757   4.127   4.836   5.768
 3286SOL    HW210758   4.217   4.960   5.710
 3287SOL     OW10759   0.079   4.152   1.810
 3287SOL    HW110760   0.021   4.125   1.733
 3287SOL    HW210761   0.022   4.190   1.883
 3288SOL     OW10762   1.410   6.425   6.234
 3288SOL    HW110763   1.431   6.355   6.303
 3288SOL    HW210764   1.446   6.514   6.264
 3289SOL     OW10765   1.022   5.290   4.653
 3289SOL    HW110766   1.101   5.230   4.643
 3289SOL    HW210767   0.939   5.236   4.661
 3290SOL     OW10768   0.137   4.449   3.158
 3290SOL    HW110769   0.186   4.387   3.220
 3290SOL    HW210770   0.124   4.404   3.070
 3291SOL     OW10771   1.908   6.927   1.427
 3291SOL    HW110772   1.846   6.991   1.382
 3291SOL    HW210773   1.900   6.837   1.385
 3292SOL     OW10774   0.720   5.329   4.797
 3292SOL    HW110775   0.745   5.367   4.708
 3292SOL    HW210776   0.658   5.391   4.844
 3293SOL     OW10777   6.362   0.749   2.216
 3293SOL    HW110778   6.278   0.784   2.174
 3293SOL    HW210779   6.441   0.799   2.181
 3294SOL     OW10780   0.630   0.139   0.657
 3294SOL    HW110781   0.556   0.194   0.695
 3294SOL    HW210782   0.708   0.197   0.638
 3295SOL     OW10783   1.389   2.017   6.253
 3295SOL    HW110784   1.341   1.939   6.214
 3295SOL    HW210785   1.383   2.095   6.190
 3296SOL     OW10786   0.838   6.605   2.348
 3296SOL    HW110787   0.854   6.531   2.283
 3296SOL    HW210788   0.911   6.673   2.340
 3297SOL     OW10789   2.747   1.596   5.987
 3297SOL    HW110790   2.766   1.547   6.072
 3297SOL    HW210791   2.779   1.691   5.995
 3298SOL     OW10792   6.467   4.067   2.896
 3298SOL    HW110793   6.498   3.974   2.874
 3298SOL    HW210794   6.536   4.133   2.866
 3299SOL     OW10795   0.980   0.948   5.090
 3299SOL    HW110796   0.944   0.882   5.025
 3299SOL    HW210797   1.002   0.902   5.176
 3300SOL     OW10798   0.160   0.255   4.735
 3300SOL    HW110799   0.094   0.283   4.804
 3300SOL    HW210800   0.142   0.161   4.708
 3301SOL     OW10801   0.269   3.515   2.486
 3301SOL    HW110802   0.277   3.554   2.578
 3301SOL    HW210803   0.213   3.576   2.429
 3302SOL     OW10804   1.079   5.606   5.055
 3302SOL    HW110805   1.091   5.543   4.978
 3302SOL    HW210806   1.168   5.627   5.096
 3303SOL     OW10807   3.000   3.726   3.521
 3303SOL    HW110808   2.972   3.680   3.606
 3303SOL    HW210809   2.925   3.784   3.489
 3304SOL     OW10810   1.822   0.691   3.438
 3304SOL    HW110811   1.904   0.637   3.459
 3304SOL    HW210812   1.845   0.761   3.371
 3305SOL     OW10813   0.757   2.359   0.901
 3305SOL    HW110814   0.675   2.303   0.911
 3305SOL    HW210815   0.740   2.430   0.832
 3306SOL     OW10816   1.027   3.463   2.063
 3306SOL    HW110817   1.127   3.468   2.066
 3306SOL    HW210818   0.998   3.368   2.074
 3307SOL     OW10819   0.716   6.154   0.906
 3307SOL    HW110820   0.738   6.132   0.811
 3307SOL    HW210821   0.688   6.071   0.955
 3308SOL     OW10822   5.944   6.658   0.486
 3308SOL    HW110823   5.938   6.673   0.387
 3308SOL    HW210824   5.960   6.745   0.532
 3309SOL     OW10825   1.725   5.489   1.928
 3309SOL    HW110826   1.654   5.463   1.994
 3309SOL    HW210827   1.751   5.409   1.874
 3310SOL     OW10828   1.333   6.608   2.236
 3310SOL    HW110829   1.372   6.527   2.193
 3310SOL    HW210830   1.373   6.619   2.327
 3311SOL     OW10831   4.012   6.458   1.183
 3311SOL    HW110832   4.006   6.461   1.083
 3311SOL    HW210833   4.015   6.551   1.220
 3312SOL     OW10834   1.959   3.369   6.828
 3312SOL    HW110835   1.866   3.395   6.800
 3312SOL    HW210836   1.990   3.292   6.772
 3313SOL     OW10837   6.389   6.552   5.257
 3313SOL    HW110838   6.395   6.582   5.162
 3313SOL    HW210839   6.318   6.482   5.266
 3314SOL     OW10840   0.087   3.614   6.865
 3314SOL    HW110841   0.040   3.647   6.947
 3314SOL    HW210842   0.132   3.691   6.820
 3315SOL     OW10843   6.332   3.768   3.352
 3315SOL    HW110844   6.356   3.864   3.338
 3315SOL    HW210845   6.416   3.715   3.367
 3316SOL     OW10846   4.542   1.530   0.494
 3316SOL    HW110847   4.450   1.568   0.504
 3316SOL    HW210848   4.596   1.550   0.575
 3317SOL     OW10849   4.012   2.863   1.709
 3317SOL    HW110850   4.069   2.939   1.677
 3317SOL    HW210851   4.069   2.782   1.722
 3318SOL     OW10852   2.543   5.169   4.729
 3318SOL    HW110853   2.564   5.076   4.759
 3318SOL    HW210854   2.593   5.234   4.786
 3319SOL     OW10855   6.887   6.101   6.653
 3319SOL    HW110856   6.868   6.198   6.666
 3319SOL    HW210857   6.808   6.047   6.681
 3320SOL     OW10858   0.627   0.906   6.839
 3320SOL    HW110859   0.716   0.892   6.794
 3320SOL    HW210860   0.554   0.870   6.781
 3321SOL     OW10861   3.928   3.950   4.150
 3321SOL    HW110862   3.886   4.014   4.086
 3321SOL    HW210863   4.025   3.970   4.160
 3322SOL     OW10864   4.500   2.777   1.263
 3322SOL    HW110865   4.543   2.792   1.174
 3322SOL    HW210866   4.405   2.747   1.250
 3323SOL     OW10867   2.915   4.788   6.861
 3323SOL    HW110868   2.823   4.805   6.898
 3323SOL    HW210869   2.914   4.705   6.805
 3324SOL     OW10870   6.032   3.169   1.642
 3324SOL    HW110871   5.983   3.128   1.719
 3324SOL    HW210872   6.123   3.127   1.635
 3325SOL     OW10873   1.020   3.531   6.359
 3325SOL    HW110874   0.967   3.508   6.278
 3325SOL    HW210875   1.055   3.624   6.351
 3326SOL     OW10876   6.814   0.715   1.524
 3326SOL    HW110877   6.782   0.647   1.459
 3326SOL    HW210878   6.735   0.754   1.572
 3327SOL     OW10879   4.134   6.252   1.422
 3327SOL    HW110880   4.173   6.336   1.459
 3327SOL    HW210881   4.042   6.239   1.457
 3328SOL     OW10882   5.659   0.291   3.970
 3328SOL    HW110883   5.615   0.341   4.044
 3328SOL    HW210884   5.724   0.351   3.923
 3329SOL     OW10885   5.251   0.558   6.421
 3329SOL    HW110886   5.347   0.534   6.403
 3329SOL    HW210887   5.238   0.656   6.403
 3330SOL     OW10888   0.366   6.625   3.203
 3330SOL    HW110889   0.317   6.549   3.159
 3330SOL    HW210890   0.302   6.700   3.219
 3331SOL     OW10891   1.389   3.562   2.873
 3331SOL    HW110892   1.423   3.629   2.940
 3331SOL    HW210893   1.462   3.498   2.851
 3332SOL     OW10894   3.082   5.170   0.007
 3332SOL    HW110895   3.001   5.225   7.007
 3332SOL    HW210896   3.057   5.094   0.067
 3333SOL     OW10897   2.207   3.220   1.797
 3333SOL    HW110898   2.211   3.304   1.852
 3333SOL    HW210899   2.299   3.193   1.771
 3334SOL     OW10900   1.912   2.168   2.050
 3334SOL    HW110901   1.919   2.158   2.150
 3334SOL    HW210902   1.819   2.196   2.027
 3335SOL     OW10903   3.697   4.262   5.093
 3335SOL    HW110904   3.724   4.305   5.007
 3335SOL    HW210905   3.639   4.325   5.144
 3336SOL     OW10906   4.820   5.909   5.212
 3336SOL    HW110907   4.750   5.844   5.182
 3336SOL    HW210908   4.881   5.929   5.136
 3337SOL     OW10909   3.737   3.070   2.926
 3337SOL    HW110910   3.669   3.060   2.854
 3337SOL    HW210911   3.698   3.041   3.014
 3338SOL     OW10912   2.612   3.416   1.272
 3338SOL    HW110913   2.670   3.335   1.272
 3338SOL    HW210914   2.630   3.469   1.355
 3339SOL     OW10915   1.548   0.291   6.732
 3339SOL    HW110916   1.569   0.366   6.795
 3339SOL    HW210917   1.549   0.324   6.638
 3340SOL     OW10918   3.704   0.988   5.719
 3340SOL    HW110919   3.789   0.935   5.712
 3340SOL    HW210920   3.696   1.025   5.812
 3341SOL     OW10921   1.357   4.428   1.957
 3341SOL    HW110922   1.454   4.451   1.965
 3341SOL    HW210923   1.333   4.359   2.026
 3342SOL     OW10924   6.354   0.910   2.515
 3342SOL    HW110925   6.437   0.859   2.539
 3342SOL    HW210926   6.362   0.945   2.421
 3343SOL     OW10927   3.950   5.525   0.384
 3343SOL    HW110928   3.895   5.608   0.396
 3343SOL    HW210929   4.026   5.544   0.323
 3344SOL     OW10930   1.007   3.406   1.618
 3344SOL    HW110931   1.053   3.330   1.665
 3344SOL    HW210932   1.037   3.493   1.659
 3345SOL     OW10933   5.961   5.364   1.297
 3345SOL    HW110934   5.993   5.421   1.221
 3345SOL    HW210935   5.862   5.352   1.289
 3346SOL     OW10936   1.409   0.426   0.121
 3346SOL    HW110937   1.400   0.524   0.142
 3346SOL    HW210938   1.493   0.410   0.071
 3347SOL     OW10939   0.680   3.780   5.571
 3347SOL    HW110940   0.680   3.688   5.609
 3347SOL    HW210941   0.773   3.815   5.568
 3348SOL     OW10942   3.646   4.170   6.008
 3348SOL    HW110943   3.731   4.124   6.032
 3348SOL    HW210944   3.597   4.196   6.091
 3349SOL     OW10945   2.205   5.408   2.292
 3349SOL    HW110946   2.226   5.422   2.389
 3349SOL    HW210947   2.209   5.496   2.245
 3350SOL     OW10948   1.520   5.065   4.207
 3350SOL    HW110949   1.530   5.148   4.261
 3350SOL    HW210950   1.459   5.001   4.254
 3351SOL     OW10951   5.779   0.961   1.976
 3351SOL    HW110952   5.838   0.930   1.902
 3351SOL    HW210953   5.834   0.979   2.058
 3352SOL     OW10954   5.535   1.743   6.769
 3352SOL    HW110955   5.447   1.761   6.813
 3352SOL    HW210956   5.520   1.701   6.680
 3353SOL     OW10957   3.925   0.427   0.106
 3353SOL    HW110958   3.848   0.364   0.110
 3353SOL    HW210959   4.004   0.380   0.067
 3354SOL     OW10960   2.837   3.956   6.953
 3354SOL    HW110961   2.783   4.019   7.009
 3354SOL    HW210962   2.795   3.866   6.954
 3355SOL     OW10963   1.306   0.211   4.801
 3355SOL    HW110964   1.246   0.166   4.867
 3355SOL    HW210965   1.254   0.231   4.718
 3356SOL     OW10966   1.985   0.882   6.697
 3356SOL    HW110967   2.030   0.823   6.764
 3356SOL    HW210968   2.045   0.892   6.617
 3357SOL     OW10969   3.339   3.161   3.047
 3357SOL    HW110970   3.351   3.118   3.137
 3357SOL    HW210971   3.426   3.202   3.018
 3358SOL     OW10972   0.283   0.859   1.995
 3358SOL    HW110973   0.188   0.868   2.025
 3358SOL    HW210974   0.286   0.805   1.911
 3359SOL     OW10975   1.151   6.565   4.897
 3359SOL    HW110976   1.144   6.620   4.814
 3359SOL    HW210977   1.226   6.500   4.888
 3360SOL     OW10978   1.893   4.894   4.003
 3360SOL    HW110979   1.908   4.820   3.937
 3360SOL    HW210980   1.981   4.935   4.028
 3361SOL     OW10981   6.522   6.537   5.498
 3361SOL    HW110982   6.478   6.533   5.409
 3361SOL    HW210983   6.461   6.581   5.564
 3362SOL     OW10984   3.941   0.569   4.006
 3362SOL    HW110985   3.967   0.474   4.025
 3362SOL    HW210986   3.952   0.587   3.908
 3363SOL     OW10987   5.578   4.163   0.110
 3363SOL    HW110988   5.627   4.204   0.033
 3363SOL    HW210989   5.604   4.210   0.195
 3364SOL     OW10990   1.583   3.255   1.917
 3364SOL    HW110991   1.581   3.352   1.894
 3364SOL    HW210992   1.666   3.234   1.967
 3365SOL     OW10993   0.850   3.464   2.630
 3365SOL    HW110994   0.924   3.494   2.691
 3365SOL    HW210995   0.797   3.544   2.601
 3366SOL     OW10996   5.877   3.290   4.776
 3366SOL    HW110997   5.946   3.249   4.716
 3366SOL    HW210998   5.898   3.386   4.792
 3367SOL     OW10999   3.344   2.905   3.966
 3367SOL    HW111000   3.281   2.949   4.029
 3367SOL    HW211001   3.328   2.938   3.873
 3368SOL     OW11002   3.303   0.840   2.896
 3368SOL    HW111003   3.341   0.844   2.988
 3368SOL    HW211004   3.288   0.933   2.862
 3369SOL     OW11005   4.931   2.705   0.773
 3369SOL    HW111006   4.950   2.613   0.809
 3369SOL    HW211007   4.839   2.732   0.800
 3370SOL     OW11008   0.158   5.469   2.625
 3370SOL    HW111009   0.077   5.522   2.601
 3370SOL    HW211010   0.182   5.408   2.549
 3371SOL     OW11011   1.972   2.890   1.563
 3371SOL    HW111012   2.030   2.933   1.494
 3371SOL    HW211013   1.879   2.881   1.528
 3372SOL     OW11014   5.795   3.432   3.052
 3372SOL    HW111015   5.854   3.369   3.001
 3372SOL    HW211016   5.731   3.379   3.108
 3373SOL     OW11017   0.141   3.897   1.605
 3373SOL    HW111018   0.089   3.982   1.597
 3373SOL    HW211019   0.090   3.823   1.561
 3374SOL     OW11020   0.805   6.225   3.882
 3374SOL    HW111021   0.852   6.154   3.830
 3374SOL    HW211022   0.833   6.315   3.849
 3375SOL     OW11023   0.345   5.762   6.318
 3375SOL    HW111024   0.270   5.817   6.357
 3375SOL    HW211025   0.422   5.762   6.382
 3376SOL     OW11026   3.279   3.211   4.620
 3376SOL    HW111027   3.301   3.183   4.714
 3376SOL    HW211028   3.307   3.139   4.557
 3377SOL     OW11029   6.858   5.309   4.571
 3377SOL    HW111030   6.897   5.360   4.647
 3377SOL    HW211031   6.871   5.211   4.587
 3378SOL     OW11032   1.399   5.810   1.048
 3378SOL    HW111033   1.338   5.770   0.980
 3378SOL    HW211034   1.445   5.737   1.099
 3379SOL     OW11035   6.273   4.023   4.248
 3379SOL    HW111036   6.325   4.069   4.321
 3379SOL    HW211037   6.270   4.082   4.168
 3380SOL     OW11038   2.560   4.973   1.058
 3380SOL    HW111039   2.514   4.891   1.091
 3380SOL    HW211040   2.578   5.035   1.135
 3381SOL     OW11041   2.693   3.799   6.031
 3381SOL    HW111042   2.792   3.802   6.015
 3381SOL    HW211043   2.657   3.892   6.034
 3382SOL     OW11044   6.490   4.185   6.815
 3382SOL    HW111045   6.540   4.204   6.900
 3382SOL    HW211046   6.393   4.177   6.834
 3383SOL     OW11047   3.767   5.303   0.364
 3383SOL    HW111048   3.845   5.362   0.339
 3383SOL    HW211049   3.685   5.335   0.317
 3384SOL     OW11050   2.591   3.121   6.408
 3384SOL    HW111051   2.526   3.068   6.462
 3384SOL    HW211052   2.552   3.140   6.318
 3385SOL     OW11053   6.087   2.215   4.295
 3385SOL    HW111054   6.146   2.180   4.223
 3385SOL    HW211055   6.140   2.270   4.359
 3386SOL     OW11056   0.056   6.134   4.418
 3386SOL    HW111057   0.018   6.048   4.451
 3386SOL    HW211058   0.153   6.139   4.443
 3387SOL     OW11059   6.213   0.999   3.272
 3387SOL    HW111060   6.190   0.950   3.188
 3387SOL    HW211061   6.130   1.009   3.327
 3388SOL     OW11062   6.731   3.860   0.835
 3388SOL    HW111063   6.687   3.778   0.799
 3388SOL    HW211064   6.688   3.941   0.795
 3389SOL     OW11065   5.883   5.355   6.433
 3389SOL    HW111066   5.879   5.261   6.467
 3389SOL    HW211067   5.905   5.354   6.335
 3390SOL     OW11068   2.842   5.583   0.192
 3390SOL    HW111069   2.884   5.609   0.105
 3390SOL    HW211070   2.901   5.518   0.239
 3391SOL     OW11071   4.901   4.041   4.834
 3391SOL    HW111072   4.937   3.949   4.821
 3391SOL    HW211073   4.871   4.078   4.746
 3392SOL     OW11074   4.287   6.389   6.329
 3392SOL    HW111075   4.374   6.392   6.378
 3392SOL    HW211076   4.225   6.325   6.375
 3393SOL     OW11077   3.958   6.363   0.710
 3393SOL    HW111078   3.864   6.370   0.676
 3393SOL    HW211079   4.021   6.358   0.632
 3394SOL     OW11080   3.348   5.325   1.878
 3394SOL    HW111081   3.324   5.230   1.857
 3394SOL    HW211082   3.411   5.326   1.956
 3395SOL     OW11083   2.095   6.498   2.920
 3395SOL    HW111084   2.033   6.550   2.861
 3395SOL    HW211085   2.062   6.503   3.014
 3396SOL     OW11086   4.563   0.226   3.863
 3396SOL    HW111087   4.642   0.168   3.841
 3396SOL    HW211088   4.564   0.249   3.960
 3397SOL     OW11089   2.140   5.783   0.391
 3397SOL    HW111090   2.133   5.817   0.485
 3397SOL    HW211091   2.056   5.733   0.368
 3398SOL     OW11092   6.766   1.428   5.846
 3398SOL    HW111093   6.714   1.342   5.848
 3398SOL    HW211094   6.862   1.408   5.828
 3399SOL     OW11095   6.612   5.631   2.105
 3399SOL    HW111096   6.568   5.683   2.031
 3399SOL    HW211097   6.547   5.564   2.141
 3400SOL     OW11098   3.845   3.090   5.416
 3400SOL    HW111099   3.921   3.025   5.421
 3400SOL    HW211100   3.759   3.041   5.410
 3401SOL     OW11101   0.323   3.671   4.190
 3401SOL    HW111102   0.324   3.742   4.262
 3401SOL    HW211103   0.277   3.707   4.109
 3402SOL     OW11104   6.180   3.691   0.808
 3402SOL    HW111105   6.187   3.686   0.907
 3402SOL    HW211106   6.177   3.598   0.770
 3403SOL     OW11107   4.909   6.633   6.612
 3403SOL    HW111108   4.939   6.715   6.661
 3403SOL    HW211109   4.816   6.646   6.579
 3404SOL     OW11110   5.061   5.484   3.450
 3404SOL    HW111111   4.973   5.497   3.496
 3404SOL    HW211112   5.122   5.560   3.473
 3405SOL     OW11113   4.062   6.129   0.231
 3405SOL    HW111114   4.141   6.148   0.172
 3405SOL    HW211115   4.094   6.096   0.319
 3406SOL     OW11116   3.493   5.443   1.506
 3406SOL    HW111117   3.466   5.508   1.435
 3406SOL    HW211118   3.455   5.353   1.486
 3407SOL     OW11119   0.792   3.785   6.919
 3407SOL    HW111120   0.807   3.876   6.880
 3407SOL    HW211121   0.875   3.754   6.965
 3408SOL     OW11122   4.632   0.022   3.425
 3408SOL    HW111123   4.543   0.026   3.379
 3408SOL    HW211124   4.623   0.058   3.518
 3409SOL     OW11125   3.854   1.480   6.704
 3409SOL    HW111126   3.928   1.540   6.734
 3409SOL    HW211127   3.886   1.385   6.708
 3410SOL     OW11128   6.469   0.554   2.826
 3410SOL    HW111129   6.470   0.459   2.859
 3410SOL    HW211130   6.378   0.576   2.791
 3411SOL     OW11131   6.040   2.832   5.842
 3411SOL    HW111132   5.947   2.811   5.875
 3411SOL    HW211133   6.035   2.869   5.749
 3412SOL     OW11134   5.403   3.132   2.617
 3412SOL    HW111135   5.370   3.204   2.557
 3412SOL    HW211136   5.423   3.050   2.563
 3413SOL     OW11137   6.944   1.967   0.547
 3413SOL    HW111138   6.943   2.043   0.483
 3413SOL    HW211139   6.914   1.884   0.500
 3414SOL     OW11140   3.750   3.479   2.064
 3414SOL    HW111141   3.748   3.573   2.031
 3414SOL    HW211142   3.791   3.420   1.995
 3415SOL     OW11143   2.273   1.877   5.603
 3415SOL    HW111144   2.203   1.832   5.658
 3415SOL    HW211145   2.245   1.971   5.584
 3416SOL     OW11146   6.472   6.783   6.271
 3416SOL    HW111147   6.402   6.731   6.322
 3416SOL    HW211148   6.560   6.775   6.318
 3417SOL     OW11149   6.218   0.278   2.607
 3417SOL    HW111150   6.256   0.189   2.579
 3417SOL    HW211151   6.135   0.297   2.554
 3418SOL     OW11152   3.888   5.392   0.786
 3418SOL    HW111153   3.912   5.474   0.839
 3418SOL    HW211154   3.884   5.313   0.847
 3419SOL     OW11155   2.545   4.583   4.992
 3419SOL    HW111156   2.644   4.573   5.006
 3419SOL    HW211157   2.497   4.541   5.069
 3420SOL     OW11158   4.656   1.252   2.549
 3420SOL    HW111159   4.728   1.322   2.552
 3420SOL    HW211160   4.680   1.182   2.482
 3421SOL     OW11161   0.234   2.150   5.098
 3421SOL    HW111162   0.251   2.102   5.012
 3421SOL    HW211163   0.172   2.096   5.154
 3422SOL     OW11164   3.132   6.481   1.393
 3422SOL    HW111165   3.101   6.527   1.476
 3422SOL    HW211166   3.117   6.541   1.314
 3423SOL     OW11167   2.628   4.269   5.584
 3423SOL    HW111168   2.698   4.226   5.642
 3423SOL    HW211169   2.558   4.201   5.561
 3424SOL     OW11170   5.194   1.015   2.147
 3424SOL    HW111171   5.155   1.018   2.239
 3424SOL    HW211172   5.269   0.949   2.144
 3425SOL     OW11173   6.462   3.184   6.281
 3425SOL    HW111174   6.409   3.203   6.198
 3425SOL    HW211175   6.511   3.266   6.308
 3426SOL     OW11176   5.872   4.380   0.138
 3426SOL    HW111177   5.942   4.437   0.096
 3426SOL    HW211178   5.798   4.364   0.072
 3427SOL     OW11179   1.885   1.977   6.491
 3427SOL    HW111180   1.847   1.952   6.580
 3427SOL    HW211181   1.927   1.897   6.449
 3428SOL     OW11182   5.300   0.213   5.032
 3428SOL    HW111183   5.305   0.285   4.963
 3428SOL    HW211184   5.336   0.128   4.994
 3429SOL     OW11185   4.269   0.221   0.835
 3429SOL    HW111186   4.284   0.156   0.760
 3429SOL    HW211187   4.173   0.250   0.835
 3430SOL     OW11188   2.584   4.296   6.248
 3430SOL    HW111189   2.577   4.283   6.347
 3430SOL    HW211190   2.511   4.245   6.202
 3431SOL     OW11191   0.817   4.365   2.574
 3431SOL    HW111192   0.844   4.273   2.604
 3431SOL    HW211193   0.762   4.408   2.646
 3432SOL     OW11194   0.664   4.741   0.194
 3432SOL    HW111195   0.726   4.662   0.193
 3432SOL    HW211196   0.717   4.825   0.180
 3433SOL     OW11197   1.211   0.861   0.263
 3433SOL    HW111198   1.236   0.954   0.235
 3433SOL    HW211199   1.282   0.797   0.234
 3434SOL     OW11200   3.498   2.541   1.714
 3434SOL    HW111201   3.423   2.518   1.652
 3434SOL    HW211202   3.538   2.458   1.752
 3435SOL     OW11203   1.711   2.351   1.018
 3435SOL    HW111204   1.641   2.407   1.062
 3435SOL    HW211205   1.709   2.259   1.055
 3436SOL     OW11206   3.610   6.698   6.465
 3436SOL    HW111207   3.708   6.693   6.445
 3436SOL    HW211208   3.564   6.752   6.394
 3437SOL     OW11209   1.343   6.561   6.932
 3437SOL    HW111210   1.259   6.614   6.921
 3437SOL    HW211211   1.336   6.503   7.013
 3438SOL     OW11212   2.548   4.038   0.701
 3438SOL    HW111213   2.471   3.979   0.723
 3438SOL    HW211214   2.516   4.121   0.656
 3439SOL     OW11215   3.196   6.349   0.427
 3439SOL    HW111216   3.288   6.311   0.442
 3439SOL    HW211217   3.202   6.449   0.429
 3440SOL     OW11218   3.683   3.526   5.517
 3440SOL    HW111219   3.611   3.485   5.574
 3440SOL    HW211220   3.736   3.454   5.474
 3441SOL     OW11221   6.847   5.047   4.583
 3441SOL    HW111222   6.752   5.021   4.598
 3441SOL    HW211223   6.904   5.006   4.654
 3442SOL     OW11224   1.715   2.705   1.002
 3442SOL    HW111225   1.658   2.625   1.022
 3442SOL    HW211226   1.668   2.788   1.032
 3443SOL     OW11227   0.612   5.722   2.341
 3443SOL    HW111228   0.676   5.787   2.383
 3443SOL    HW211229   0.574   5.662   2.412
 3444SOL     OW11230   6.849   3.714   5.906
 3444SOL    HW111231   6.818   3.723   5.811
 3444SOL    HW211232   6.925   3.650   5.910
 3445SOL     OW11233   6.271   4.671   4.648
 3445SOL    HW111234   6.356   4.722   4.638
 3445SOL    HW211235   6.291   4.580   4.685
 3446SOL     OW11236   4.726   1.470   0.732
 3446SOL    HW111237   4.689   1.549   0.780
 3446SOL    HW211238   4.728   1.391   0.794
 3447SOL     OW11239   5.524   0.937   6.586
 3447SOL    HW111240   5.467   0.897   6.514
 3447SOL    HW211241   5.601   0.985   6.545
 3448SOL     OW11242   0.759   4.699   5.464
 3448SOL    HW111243   0.814   4.731   5.388
 3448SOL    HW211244   0.675   4.657   5.430
 3449SOL     OW11245   0.507   4.035   5.555
 3449SOL    HW111246   0.566   3.956   5.570
 3449SOL    HW211247   0.555   4.119   5.581
 3450SOL     OW11248   2.840   6.939   2.149
 3450SOL    HW111249   2.808   0.009   2.120
 3450SOL    HW211250   2.871   6.943   2.244
 3451SOL     OW11251   1.983   2.497   0.964
 3451SOL    HW111252   2.010   2.454   0.877
 3451SOL    HW211253   1.884   2.506   0.967
 3452SOL     OW11254   4.583   1.381   5.670
 3452SOL    HW111255   4.519   1.445   5.628
 3452SOL    HW211256   4.644   1.430   5.732
 3453SOL     OW11257   4.259   6.680   6.367
 3453SOL    HW111258   4.269   6.595   6.314
 3453SOL    HW211259   4.167   6.685   6.405
 3454SOL     OW11260   0.501   3.553   2.275
 3454SOL    HW111261   0.533   3.478   2.217
 3454SOL    HW211262   0.435   3.518   2.342
 3455SOL     OW11263   0.440   3.657   6.368
 3455SOL    HW111264   0.474   3.597   6.442
 3455SOL    HW211265   0.348   3.687   6.390
 3456SOL     OW11266   4.669   5.529   3.856
 3456SOL    HW111267   4.628   5.545   3.946
 3456SOL    HW211268   4.649   5.606   3.795
 3457SOL     OW11269   4.179   4.633   0.040
 3457SOL    HW111270   4.088   4.673   0.038
 3457SOL    HW211271   4.242   4.691   7.007
 3458SOL     OW11272   4.249   1.468   1.859
 3458SOL    HW111273   4.237   1.500   1.953
 3458SOL    HW211274   4.336   1.502   1.823
 3459SOL     OW11275   5.539   5.996   2.157
 3459SOL    HW111276   5.589   6.072   2.115
 3459SOL    HW211277   5.585   5.910   2.135
 3460SOL     OW11278   3.954   1.950   5.237
 3460SOL    HW111279   3.880   1.893   5.274
 3460SOL    HW211280   3.943   1.960   5.138
 3461SOL     OW11281   4.695   5.289   4.139
 3461SOL    HW111282   4.791   5.267   4.154
 3461SOL    HW211283   4.653   5.216   4.085
 3462SOL     OW11284   0.717   4.122   6.370
 3462SOL    HW111285   0.774   4.095   6.447
 3462SOL    HW211286   0.694   4.042   6.316
 3463SOL     OW11287   5.381   3.763   0.444
 3463SOL    HW111288   5.400   3.843   0.387
 3463SOL    HW211289   5.289   3.728   0.423
 3464SOL     OW11290   0.344   4.316   3.986
 3464SOL    HW111291   0.340   4.304   4.086
 3464SOL    HW211292   0.319   4.410   3.963
 3465SOL     OW11293   0.669   2.239   2.469
 3465SOL    HW111294   0.721   2.221   2.552
 3465SOL    HW211295   0.590   2.178   2.465
 3466SOL     OW11296   7.008   3.573   4.356
 3466SOL    HW111297   0.008   3.641   4.428
 3466SOL    HW211298   0.073   3.526   4.331
 3467SOL     OW11299   1.626   2.606   5.560
 3467SOL    HW111300   1.569   2.681   5.595
 3467SOL    HW211301   1.720   2.618   5.593
 3468SOL     OW11302   5.235   6.347   1.756
 3468SOL    HW111303   5.144   6.325   1.722
 3468SOL    HW211304   5.279   6.413   1.695
 3469SOL     OW11305   5.552   4.063   0.930
 3469SOL    HW111306   5.643   4.024   0.921
 3469SOL    HW211307   5.487   3.992   0.956
 3470SOL     OW11308   6.516   5.104   1.268
 3470SOL    HW111309   6.601   5.059   1.244
 3470SOL    HW211310   6.441   5.037   1.267
 3471SOL     OW11311   4.033   0.020   4.690
 3471SOL    HW111312   4.074   7.005   4.606
 3471SOL    HW211313   4.055   0.118   4.700
 3472SOL     OW11314   4.082   0.927   5.095
 3472SOL    HW111315   4.083   1.026   5.083
 3472SOL    HW211316   4.165   0.887   5.055
 3473SOL     OW11317   4.045   0.321   3.934
 3473SOL    HW111318   4.115   0.271   3.984
 3473SOL    HW211319   4.073   0.332   3.839
 3474SOL     OW11320   4.861   4.552   0.830
 3474SOL    HW111321   4.801   4.480   0.864
 3474SOL    HW211322   4.934   4.511   0.775
 3475SOL     OW11323   1.879   5.878   4.818
 3475SOL    HW111324   1.926   5.928   4.746
 3475SOL    HW211325   1.789   5.849   4.786
 3476SOL     OW11326   4.452   1.654   4.894
 3476SOL    HW111327   4.359   1.691   4.891
 3476SOL    HW211328   4.509   1.710   4.955
 3477SOL     OW11329   4.560   5.476   1.731
 3477SOL    HW111330   4.567   5.561   1.783
 3477SOL    HW211331   4.593   5.491   1.638
 3478SOL     OW11332   4.157   4.080   0.207
 3478SOL    HW111333   4.243   4.030   0.199
 3478SOL    HW211334   4.134   4.121   0.119
 3479SOL     OW11335   1.342   0.184   0.998
 3479SOL    HW111336   1.370   0.189   1.093
 3479SOL    HW211337   1.302   0.094   0.979
 3480SOL     OW11338   1.292   6.847   3.978
 3480SOL    HW111339   1.242   6.760   3.986
 3480SOL    HW211340   1.373   6.844   4.037
 3481SOL     OW11341   1.650   6.111   6.836
 3481SOL    HW111342   1.612   6.047   6.769
 3481SOL    HW211343   1.637   6.205   6.804
 3482SOL     OW11344   0.684   2.181   2.135
 3482SOL    HW111345   0.674   2.274   2.101
 3482SOL    HW211346   0.621   2.167   2.212
 3483SOL     OW11347   3.566   1.681   0.529
 3483SOL    HW111348   3.479   1.668   0.481
 3483SOL    HW211349   3.578   1.608   0.596
 3484SOL     OW11350   4.139   3.601   3.727
 3484SOL    HW111351   4.193   3.589   3.810
 3484SOL    HW211352   4.069   3.529   3.724
 3485SOL     OW11353   6.069   1.937   5.337
 3485SOL    HW111354   5.994   2.000   5.315
 3485SOL    HW211355   6.150   1.962   5.283
 3486SOL     OW11356   4.918   0.571   2.619
 3486SOL    HW111357   4.914   0.577   2.718
 3486SOL    HW211358   5.010   0.594   2.587
 3487SOL     OW11359   0.836   0.735   0.948
 3487SOL    HW111360   0.902   0.724   0.873
 3487SOL    HW211361   0.774   0.810   0.928
 3488SOL     OW11362   6.763   3.441   4.400
 3488SOL    HW111363   6.850   3.490   4.390
 3488SOL    HW211364   6.742   3.431   4.497
 3489SOL     OW11365   2.338   5.286   0.254
 3489SOL    HW111366   2.342   5.189   0.278
 3489SOL    HW211367   2.431   5.321   0.241
 3490SOL     OW11368   4.145   3.101   1.198
 3490SOL    HW111369   4.046   3.083   1.193
 3490SOL    HW211370   4.187   3.078   1.110
 3491SOL     OW11371   6.674   3.427   5.793
 3491SOL    HW111372   6.609   3.501   5.811
 3491SOL    HW211373   6.667   3.357   5.864
 3492SOL     OW11374   5.959   4.721   6.852
 3492SOL    HW111375   6.019   4.739   6.774
 3492SOL    HW211376   5.962   4.799   6.916
 3493SOL     OW11377   6.933   4.844   1.829
 3493SOL    HW111378   6.901   4.900   1.907
 3493SOL    HW211379   6.955   4.752   1.861
 3494SOL     OW11380   2.798   6.565   0.923
 3494SOL    HW111381   2.867   6.586   0.855
 3494SOL    HW211382   2.765   6.650   0.964
 3495SOL     OW11383   5.430   3.877   6.828
 3495SOL    HW111384   5.402   3.781   6.823
 3495SOL    HW211385   5.500   3.888   6.898
 3496SOL     OW11386   0.441   4.897   0.795
 3496SOL    HW111387   0.437   4.804   0.831
 3496SOL    HW211388   0.524   4.908   0.740
 3497SOL     OW11389   4.137   6.874   4.488
 3497SOL    HW111390   4.099   6.799   4.434
 3497SOL    HW211391   4.225   6.847   4.525
 3498SOL     OW11392   1.058   1.907   0.598
 3498SOL    HW111393   1.093   1.987   0.646
 3498SOL    HW211394   0.988   1.862   0.653
 3499SOL     OW11395   0.448   4.323   4.542
 3499SOL    HW111396   0.482   4.399   4.597
 3499SOL    HW211397   0.461   4.237   4.592
 3500SOL     OW11398   6.211   3.439   0.688
 3500SOL    HW111399   6.241   3.356   0.736
 3500SOL    HW211400   6.119   3.424   0.651
 3501SOL     OW11401   0.877   4.132   3.092
 3501SOL    HW111402   0.971   4.157   3.116
 3501SOL    HW211403   0.876   4.085   3.004
 3502SOL     OW11404   0.492   4.956   1.847
 3502SOL    HW111405   0.455   4.976   1.938
 3502SOL    HW211406   0.529   4.863   1.846
 3503SOL     OW11407   3.387   0.122   3.537
 3503SOL    HW111408   3.391   0.110   3.637
 3503SOL    HW211409   3.292   0.127   3.508
 3504SOL     OW11410   2.339   2.707   3.192
 3504SOL    HW111411   2.282   2.629   3.219
 3504SOL    HW211412   2.419   2.674   3.142
 3505SOL     OW11413   4.575   6.435   4.780
 3505SOL    HW111414   4.581   6.356   4.719
 3505SOL    HW211415   4.526   6.509   4.735
 3506SOL     OW11416   5.678   5.088   2.723
 3506SOL    HW111417   5.624   5.034   2.659
 3506SOL    HW211418   5.633   5.175   2.739
 3507SOL     OW11419   0.152   0.475   5.985
 3507SOL    HW111420   0.238   0.527   5.977
 3507SOL    HW211421   0.146   0.410   5.910
 3508SOL     OW11422   6.236   4.177   6.911
 3508SOL    HW111423   6.180   4.237   6.854
 3508SOL    HW211424   6.263   4.226   6.994
 3509SOL     OW11425   6.103   0.576   0.020
 3509SOL    HW111426   6.123   0.665   6.999
 3509SOL    HW211427   6.009   0.574   0.053
 3510SOL     OW11428   1.998   2.133   2.331
 3510SOL    HW111429   1.934   2.095   2.397
 3510SOL    HW211430   2.091   2.132   2.369
 3511SOL     OW11431   0.704   1.088   4.666
 3511SOL    HW111432   0.768   1.132   4.603
 3511SOL    HW211433   0.700   1.140   4.751
 3512SOL     OW11434   3.171   2.838   1.125
 3512SOL    HW111435   3.093   2.806   1.073
 3512SOL    HW211436   3.141   2.904   1.194
 3513SOL     OW11437   5.106   4.322   0.961
 3513SOL    HW111438   5.042   4.296   1.033
 3513SOL    HW211439   5.192   4.271   0.973
 3514SOL     OW11440   1.973   6.683   1.925
 3514SOL    HW111441   1.893   6.626   1.943
 3514SOL    HW211442   2.033   6.637   1.859
 3515SOL     OW11443   3.869   6.354   3.907
 3515SOL    HW111444   3.837   6.263   3.931
 3515SOL    HW211445   3.947   6.347   3.844
 3516SOL     OW11446   1.958   1.551   0.571
 3516SOL    HW111447   1.970   1.641   0.529
 3516SOL    HW211448   1.861   1.530   0.580
 3517SOL     OW11449   0.497   0.751   6.680
 3517SOL    HW111450   0.504   0.656   6.648
 3517SOL    HW211451   0.487   0.812   6.601
 3518SOL     OW11452   4.650   3.787   5.628
 3518SOL    HW111453   4.613   3.847   5.558
 3518SOL    HW211454   4.587   3.711   5.645
 3519SOL     OW11455   3.213   6.598   0.491
 3519SOL    HW111456   3.216   6.674   0.426
 3519SOL    HW211457   3.286   6.609   0.558
 3520SOL     OW11458   3.810   4.974   1.322
 3520SOL    HW111459   3.815   4.970   1.422
 3520SOL    HW211460   3.868   5.048   1.289
 3521SOL     OW11461   6.255   2.246   6.494
 3521SOL    HW111462   6.232   2.306   6.571
 3521SOL    HW211463   6.346   2.206   6.510
 3522SOL     OW11464   2.908   0.960   0.402
 3522SOL    HW111465   2.839   0.895   0.369
 3522SOL    HW211466   2.949   0.925   0.486
 3523SOL     OW11467   2.665   4.461   5.301
 3523SOL    HW111468   2.676   4.362   5.291
 3523SOL    HW211469   2.743   4.507   5.258
 3524SOL     OW11470   2.469   0.272   2.152
 3524SOL    HW111471   2.551   0.228   2.116
 3524SOL    HW211472   2.495   0.352   2.206
 3525SOL     OW11473   1.387   4.084   2.547
 3525SOL    HW111474   1.335   4.050   2.625
 3525SOL    HW211475   1.418   4.178   2.566
 3526SOL     OW11476   4.194   6.640   3.281
 3526SOL    HW111477   4.155   6.666   3.193
 3526SOL    HW211478   4.245   6.717   3.320
 3527SOL     OW11479   5.345   3.003   6.355
 3527SOL    HW111480   5.426   3.045   6.314
 3527SOL    HW211481   5.365   2.909   6.379
 3528SOL     OW11482   1.452   6.739   4.555
 3528SOL    HW111483   1.355   6.739   4.533
 3528SOL    HW211484   1.467   6.688   4.640
 3529SOL     OW11485   3.862   6.188   0.082
 3529SOL    HW111486   3.882   6.284   0.064
 3529SOL    HW211487   3.928   6.152   0.149
 3530SOL     OW11488   2.124   6.771   3.187
 3530SOL    HW111489   2.216   6.801   3.162
 3530SOL    HW211490   2.064   6.851   3.191
 3531SOL     OW11491   5.321   4.428   0.179
 3531SOL    HW111492   5.300   4.335   0.210
 3531SOL    HW211493   5.280   4.494   0.242
 3532SOL     OW11494   2.016   6.631   0.401
 3532SOL    HW111495   2.010   6.535   0.371
 3532SOL    HW211496   1.982   6.690   0.328
 3533SOL     OW11497   1.733   0.976   3.789
 3533SOL    HW111498   1.691   0.982   3.699
 3533SOL    HW211499   1.760   1.067   3.820
 3534SOL     OW11500   5.135   0.507   5.301
 3534SOL    HW111501   5.224   0.475   5.271
 3534SOL    HW211502   5.066   0.437   5.283
 3535SOL     OW11503   5.017   6.424   0.005
 3535SOL    HW111504   5.053   6.370   0.080
 3535SOL    HW211505   4.918   6.432   0.014
 3536SOL     OW11506   0.878   3.747   2.767
 3536SOL    HW111507   0.920   3.772   2.680
 3536SOL    HW211508   0.788   3.706   2.750
 3537SOL     OW11509   2.917   4.789   1.322
 3537SOL    HW111510   2.993   4.780   1.386
 3537SOL    HW211511   2.878   4.699   1.303
 3538SOL     OW11512   3.982   0.901   3.410
 3538SOL    HW111513   3.904   0.963   3.404
 3538SOL    HW211514   3.958   0.813   3.370
 3539SOL     OW11515   5.464   5.791   6.406
 3539SOL    HW111516   5.424   5.781   6.314
 3539SOL    HW211517   5.558   5.759   6.405
 3540SOL     OW11518   2.900   4.691   6.139
 3540SOL    HW111519   2.935   4.662   6.228
 3540SOL    HW211520   2.888   4.790   6.138
 3541SOL     OW11521   1.428   2.556   1.568
 3541SOL    HW111522   1.385   2.645   1.581
 3541SOL    HW211523   1.523   2.569   1.541
 3542SOL     OW11524   5.996   1.748   6.606
 3542SOL    HW111525   5.972   1.760   6.510
 3542SOL    HW211526   6.061   1.673   6.615
 3543SOL     OW11527   0.688   1.997   3.946
 3543SOL    HW111528   0.779   1.975   3.911
 3543SOL    HW211529   0.663   2.090   3.918
 3544SOL     OW11530   3.075   4.420   0.372
 3544SOL    HW111531   3.116   4.478   0.301
 3544SOL    HW211532   3.116   4.329   0.369
 3545SOL     OW11533   4.084   6.706   0.654
 3545SOL    HW111534   4.114   6.749   0.569
 3545SOL    HW211535   3.987   6.685   0.649
 3546SOL     OW11536   6.608   4.139   1.311
 3546SOL    HW111537   6.602   4.234   1.339
 3546SOL    HW211538   6.574   4.130   1.217
 3547SOL     OW11539   0.893   4.061   4.856
 3547SOL    HW111540   0.797   4.057   4.828
 3547SOL    HW211541   0.951   4.023   4.783
 3548SOL     OW11542   6.178   0.276   6.137
 3548SOL    HW111543   6.277   0.288   6.143
 3548SOL    HW211544   6.148   0.212   6.209
 3549SOL     OW11545   2.253   6.111   6.725
 3549SOL    HW111546   2.300   6.030   6.760
 3549SOL    HW211547   2.157   6.091   6.709
 3550SOL     OW11548   5.633   1.072   5.564
 3550SOL    HW111549   5.603   1.079   5.659
 3550SOL    HW211550   5.617   1.159   5.517
 3551SOL     OW11551   5.326   1.937   4.759
 3551SOL    HW111552   5.313   2.014   4.696
 3551SOL    HW211553   5.407   1.953   4.815
 3552SOL     OW11554   6.614   0.164   3.745
 3552SOL    HW111555   6.665   0.189   3.827
 3552SOL    HW211556   6.538   0.227   3.732
 3553SOL     OW11557   5.993   5.994   6.622
 3553SOL    HW111558   6.066   6.058   6.647
 3553SOL    HW211559   5.907   6.022   6.665
 3554SOL     OW11560   4.734   4.362   0.222
 3554SOL    HW111561   4.709   4.359   0.319
 3554SOL    HW211562   4.669   4.307   0.169
 3555SOL     OW11563   2.658   1.469   5.258
 3555SOL    HW111564   2.705   1.383   5.237
 3555SOL    HW211565   2.690   1.504   5.346
 3556SOL     OW11566   5.367   1.190   0.483
 3556SOL    HW111567   5.362   1.104   0.432
 3556SOL    HW211568   5.378   1.266   0.419
 3557SOL     OW11569   5.638   6.557   1.717
 3557SOL    HW111570   5.720   6.524   1.764
 3557SOL    HW211571   5.663   6.591   1.627
 3558SOL     OW11572   3.503   5.542   2.292
 3558SOL    HW111573   3.542   5.459   2.331
 3558SOL    HW211574   3.489   5.610   2.364
 3559SOL     OW11575   3.886   6.373   6.589
 3559SOL    HW111576   3.805   6.424   6.561
 3559SOL    HW211577   3.860   6.301   6.653
 3560SOL     OW11578   1.572   5.327   4.341
 3560SOL    HW111579   1.479   5.337   4.376
 3560SOL    HW211580   1.637   5.342   4.415
 3561SOL     OW11581   4.695   3.460   5.395
 3561SOL    HW111582   4.670   3.522   5.320
 3561SOL    HW211583   4.778   3.494   5.440
 3562SOL     OW11584   2.910   1.535   0.556
 3562SOL    HW111585   3.003   1.501   0.547
 3562SOL    HW211586   2.880   1.527   0.651
 3563SOL     OW11587   6.730   2.357   6.521
 3563SOL    HW111588   6.827   2.379   6.508
 3563SOL    HW211589   6.674   2.427   6.476
 3564SOL     OW11590   6.373   3.618   2.684
 3564SOL    HW111591   6.404   3.529   2.719
 3564SOL    HW211592   6.283   3.639   2.723
 3565SOL     OW11593   4.903   5.930   6.129
 3565SOL    HW111594   4.872   6.012   6.178
 3565SOL    HW211595   4.825   5.886   6.086
 3566SOL     OW11596   1.330   1.075   5.089
 3566SOL    HW111597   1.272   1.022   5.027
 3566SOL    HW211598   1.372   1.014   5.156
 3567SOL     OW11599   6.780   3.828   6.858
 3567SOL    HW111600   6.817   3.879   6.937
 3567SOL    HW211601   6.844   3.834   6.782
 3568SOL     OW11602   5.060   3.728   5.826
 3568SOL    HW111603   5.029   3.788   5.751
 3568SOL    HW211604   5.069   3.782   5.910
 3569SOL     OW11605   1.682   0.144   3.692
 3569SOL    HW111606   1.726   0.229   3.666
 3569SOL    HW211607   1.641   0.155   3.783
 3570SOL     OW11608   5.948   1.626   4.238
 3570SOL    HW111609   5.903   1.573   4.310
 3570SOL    HW211610   6.012   1.691   4.278
 3571SOL     OW11611   6.574   6.349   4.924
 3571SOL    HW111612   6.484   6.314   4.950
 3571SOL    HW211613   6.591   6.328   4.828
 3572SOL     OW11614   6.200   6.427   5.703
 3572SOL    HW111615   6.128   6.438   5.634
 3572SOL    HW211616   6.231   6.332   5.704
 3573SOL     OW11617   0.814   2.162   1.736
 3573SOL    HW111618   0.770   2.131   1.821
 3573SOL    HW211619   0.744   2.174   1.665
 3574SOL     OW11620   6.142   3.810   0.236
 3574SOL    HW111621   6.106   3.717   0.238
 3574SOL    HW211622   6.086   3.866   0.175
 3575SOL     OW11623   6.212   5.768   1.990
 3575SOL    HW111624   6.175   5.731   1.904
 3575SOL    HW211625   6.268   5.848   1.971
 3576SOL     OW11626   6.941   0.784   6.573
 3576SOL    HW111627   6.875   0.721   6.612
 3576SOL    HW211628   6.976   0.844   6.646
 3577SOL     OW11629   2.612   3.790   6.658
 3577SOL    HW111630   2.634   3.812   6.753
 3577SOL    HW211631   2.513   3.792   6.645
 3578SOL     OW11632   3.522   4.336   1.756
 3578SOL    HW111633   3.525   4.332   1.656
 3578SOL    HW211634   3.543   4.429   1.787
 3579SOL     OW11635   1.770   4.507   4.733
 3579SOL    HW111636   1.770   4.586   4.672
 3579SOL    HW211637   1.685   4.456   4.722
 3580SOL     OW11638   6.902   3.194   1.404
 3580SOL    HW111639   6.948   3.109   1.379
 3580SOL    HW211640   6.966   3.270   1.396
 3581SOL     OW11641   5.970   0.979   3.409
 3581SOL    HW111642   5.895   0.944   3.353
 3581SOL    HW211643   5.987   0.915   3.484
 3582SOL     OW11644   0.117   0.336   5.144
 3582SOL    HW111645   0.155   0.343   5.236
 3582SOL    HW211646   0.031   0.285   5.147
 3583SOL     OW11647   1.573   5.366   1.422
 3583SOL    HW111648   1.497   5.342   1.482
 3583SOL    HW211649   1.653   5.388   1.477
 3584SOL     OW11650   5.559   0.144   5.715
 3584SOL    HW111651   5.507   0.109   5.792
 3584SOL    HW211652   5.501   0.203   5.659
 3585SOL     OW11653   2.296   4.804   3.935
 3585SOL    HW111654   2.299   4.903   3.944
 3585SOL    HW211655   2.278   4.779   3.840
 3586SOL     OW11656   1.152   1.128   6.130
 3586SOL    HW111657   1.152   1.223   6.102
 3586SOL    HW211658   1.058   1.093   6.133
 3587SOL     OW11659   3.862   6.705   6.862
 3587SOL    HW111660   3.961   6.703   6.851
 3587SOL    HW211661   3.823   6.772   6.799
 3588SOL     OW11662   2.065   1.596   5.131
 3588SOL    HW111663   2.029   1.503   5.133
 3588SOL    HW211664   1.993   1.659   5.101
 3589SOL     OW11665   3.407   0.656   4.911
 3589SOL    HW111666   3.311   0.642   4.887
 3589SOL    HW211667   3.458   0.683   4.830
 3590SOL     OW11668   1.347   5.009   6.944
 3590SOL    HW111669   1.431   5.043   6.987
 3590SOL    HW211670   1.363   4.918   6.907
 3591SOL     OW11671   5.449   2.209   5.669
 3591SOL    HW111672   5.449   2.308   5.680
 3591SOL    HW211673   5.375   2.183   5.607
 3592SOL     OW11674   5.317   2.223   1.781
 3592SOL    HW111675   5.240   2.176   1.739
 3592SOL    HW211676   5.297   2.320   1.788
 3593SOL     OW11677   0.836   4.980   4.222
 3593SOL    HW111678   0.778   5.030   4.286
 3593SOL    HW211679   0.830   5.023   4.132
 3594SOL     OW11680   4.206   1.744   4.889
 3594SOL    HW111681   4.174   1.839   4.890
 3594SOL    HW211682   4.127   1.683   4.893
 3595SOL     OW11683   1.884   6.192   6.083
 3595SOL    HW111684   1.885   6.202   6.182
 3595SOL    HW211685   1.818   6.255   6.043
 3596SOL     OW11686   0.332   3.845   3.550
 3596SOL    HW111687   0.283   3.914   3.604
 3596SOL    HW211688   0.367   3.774   3.611
 3597SOL     OW11689   3.815   6.821   3.677
 3597SOL    HW111690   3.732   6.856   3.634
 3597SOL    HW211691   3.830   6.869   3.764
 3598SOL     OW11692   1.691   0.509   0.351
 3598SOL    HW111693   1.706   0.440   0.280
 3598SOL    HW211694   1.766   0.506   0.417
 3599SOL     OW11695   6.701   1.600   4.214
 3599SOL    HW111696   6.680   1.597   4.116
 3599SOL    HW211697   6.656   1.524   4.260
 3600SOL     OW11698   6.832   0.523   1.326
 3600SOL    HW111699   6.817   0.562   1.236
 3600SOL    HW211700   6.888   0.441   1.318
 3601SOL     OW11701   5.992   3.315   5.583
 3601SOL    HW111702   5.909   3.262   5.562
 3601SOL    HW211703   5.986   3.351   5.676
 3602SOL     OW11704   2.458   1.855   0.988
 3602SOL    HW111705   2.496   1.858   1.080
 3602SOL    HW211706   2.531   1.870   0.921
 3603SOL     OW11707   4.240   5.328   4.427
 3603SOL    HW111708   4.223   5.421   4.461
 3603SOL    HW211709   4.337   5.307   4.435
 3604SOL     OW11710   0.086   4.000   3.668
 3604SOL    HW111711   0.069   4.065   3.593
 3604SOL    HW211712   0.001   3.954   3.692
 3605SOL     OW11713   5.959   2.786   6.583
 3605SOL    HW111714   6.015   2.868   6.585
 3605SOL    HW211715   5.930   2.763   6.676
 3606SOL     OW11716   1.747   4.288   3.754
 3606SOL    HW111717   1.836   4.298   3.799
 3606SOL    HW211718   1.762   4.260   3.659
 3607SOL     OW11719   4.254   6.846   0.208
 3607SOL    HW111720   4.178   6.889   0.159
 3607SOL    HW211721   4.229   6.832   0.303
 3608SOL     OW11722   0.337   2.835   2.549
 3608SOL    HW111723   0.285   2.918   2.528
 3608SOL    HW211724   0.424   2.836   2.499
 3609SOL     OW11725   6.428   0.105   4.924
 3609SOL    HW111726   6.384   0.185   4.882
 3609SOL    HW211727   6.477   0.053   4.854
 3610SOL     OW11728   1.703   5.707   5.302
 3610SOL    HW111729   1.709   5.744   5.395
 3610SOL    HW211730   1.683   5.781   5.238
 3611SOL     OW11731   4.329   5.123   5.720
 3611SOL    HW111732   4.248   5.167   5.681
 3611SOL    HW211733   4.369   5.182   5.790
 3612SOL     OW11734   1.750   6.447   0.601
 3612SOL    HW111735   1.665   6.466   0.651
 3612SOL    HW211736   1.820   6.512   0.629
 3613SOL     OW11737   4.771   4.898   6.285
 3613SOL    HW111738   4.739   4.910   6.191
 3613SOL    HW211739   4.871   4.901   6.287
 3614SOL     OW11740   3.779   3.836   4.373
 3614SOL    HW111741   3.802   3.872   4.282
 3614SOL    HW211742   3.770   3.737   4.368
 3615SOL     OW11743   6.197   6.303   6.305
 3615SOL    HW111744   6.272   6.334   6.248
 3615SOL    HW211745   6.137   6.242   6.252
 3616SOL     OW11746   6.279   0.882   4.948
 3616SOL    HW111747   6.296   0.926   4.860
 3616SOL    HW211748   6.349   0.813   4.964
 3617SOL     OW11749   6.469   0.168   0.170
 3617SOL    HW111750   6.500   0.262   0.158
 3617SOL    HW211751   6.487   0.116   0.086
 3618SOL     OW11752   2.664   0.182   6.246
 3618SOL    HW111753   2.630   0.273   6.269
 3618SOL    HW211754   2.645   0.163   6.150
 3619SOL     OW11755   5.168   4.058   4.073
 3619SOL    HW111756   5.081   4.107   4.064
 3619SOL    HW211757   5.150   3.960   4.080
 3620SOL     OW11758   6.057   0.998   5.028
 3620SOL    HW111759   6.060   1.074   4.964
 3620SOL    HW211760   6.133   0.935   5.009
 3621SOL     OW11761   1.196   3.687   6.098
 3621SOL    HW111762   1.207   3.716   6.193
 3621SOL    HW211763   1.268   3.622   6.074
 3622SOL     OW11764   0.329   3.601   0.918
 3622SOL    HW111765   0.239   3.628   0.884
 3622SOL    HW211766   0.319   3.523   0.979
 3623SOL     OW11767   0.192   5.409   4.393
 3623SOL    HW111768   0.260   5.399   4.320
 3623SOL    HW211769   0.193   5.503   4.427
 3624SOL     OW11770   1.795   1.307   1.594
 3624SOL    HW111771   1.780   1.220   1.547
 3624SOL    HW211772   1.709   1.338   1.635
 3625SOL     OW11773   0.755   3.181   4.618
 3625SOL    HW111774   0.736   3.100   4.561
 3625SOL    HW211775   0.670   3.233   4.629
 3626SOL     OW11776   2.721   3.899   5.246
 3626SOL    HW111777   2.628   3.914   5.213
 3626SOL    HW211778   2.719   3.863   5.339
 3627SOL     OW11779   3.316   3.077   3.713
 3627SOL    HW111780   3.391   3.141   3.701
 3627SOL    HW211781   3.238   3.106   3.658
 3628SOL     OW11782   2.962   5.480   3.048
 3628SOL    HW111783   2.907   5.414   2.996
 3628SOL    HW211784   3.021   5.531   2.986
 3629SOL     OW11785   5.839   2.240   4.923
 3629SOL    HW111786   5.821   2.201   4.833
 3629SOL    HW211787   5.769   2.307   4.945
 3630SOL     OW11788   5.761   1.488   4.654
 3630SOL    HW111789   5.667   1.459   4.638
 3630SOL    HW211790   5.783   1.565   4.594
 3631SOL     OW11791   2.446   0.540   4.134
 3631SOL    HW111792   2.368   0.498   4.182
 3631SOL    HW211793   2.457   0.496   4.045
 3632SOL     OW11794   4.012   6.934   6.640
 3632SOL    HW111795   4.063   6.989   6.706
 3632SOL    HW211796   4.056   6.939   6.551
 3633SOL     OW11797   1.628   3.083   5.775
 3633SOL    HW111798   1.547   3.027   5.795
 3633SOL    HW211799   1.708   3.023   5.765
 3634SOL     OW11800   2.952   5.997   5.689
 3634SOL    HW111801   3.027   5.941   5.654
 3634SOL    HW211802   2.904   5.948   5.762
 3635SOL     OW11803   2.014   1.101   4.921
 3635SOL    HW111804   1.937   1.038   4.932
 3635SOL    HW211805   2.087   1.075   4.983
 3636SOL     OW11806   1.602   5.612   6.520
 3636SOL    HW111807   1.526   5.560   6.480
 3636SOL    HW211808   1.591   5.709   6.497
 3637SOL     OW11809   5.406   1.464   1.825
 3637SOL    HW111810   5.311   1.435   1.838
 3637SOL    HW211811   5.436   1.440   1.733
 3638SOL     OW11812   6.214   4.408   3.663
 3638SOL    HW111813   6.206   4.372   3.756
 3638SOL    HW211814   6.305   4.448   3.651
 3639SOL     OW11815   2.874   5.328   6.981
 3639SOL    HW111816   2.877   5.426   6.997
 3639SOL    HW211817   2.830   5.310   6.893
 3640SOL     OW11818   3.287   6.284   1.301
 3640SOL    HW111819   3.225   6.351   1.342
 3640SOL    HW211820   3.382   6.309   1.322
 3641SOL     OW11821   2.486   6.993   4.837
 3641SOL    HW111822   2.493   6.942   4.923
 3641SOL    HW211823   2.564   6.970   4.778
 3642SOL     OW11824   6.146   0.010   2.972
 3642SOL    HW111825   6.093   6.972   3.036
 3642SOL    HW211826   6.092   0.028   2.891
 3643SOL     OW11827   3.438   4.395   5.906
 3643SOL    HW111828   3.347   4.406   5.944
 3643SOL    HW211829   3.498   4.353   5.974
 3644SOL     OW11830   6.813   0.486   0.215
 3644SOL    HW111831   6.879   0.430   0.266
 3644SOL    HW211832   6.734   0.506   0.274
 3645SOL     OW11833   3.673   6.395   2.699
 3645SOL    HW111834   3.597   6.372   2.760
 3645SOL    HW211835   3.639   6.451   2.624
 3646SOL     OW11836   6.721   5.655   4.131
 3646SOL    HW111837   6.623   5.658   4.154
 3646SOL    HW211838   6.773   5.625   4.211
 3647SOL     OW11839   2.111   2.482   1.882
 3647SOL    HW111840   2.143   2.419   1.811
 3647SOL    HW211841   2.109   2.575   1.846
 3648SOL     OW11842   2.913   5.778   3.397
 3648SOL    HW111843   2.884   5.708   3.332
 3648SOL    HW211844   2.839   5.843   3.411
 3649SOL     OW11845   3.120   3.432   2.243
 3649SOL    HW111846   3.074   3.460   2.327
 3649SOL    HW211847   3.056   3.380   2.185
 3650SOL     OW11848   6.114   6.642   1.449
 3650SOL    HW111849   6.109   6.612   1.354
 3650SOL    HW211850   6.176   6.581   1.499
 3651SOL     OW11851   1.920   5.927   2.309
 3651SOL    HW111852   1.839   5.905   2.364
 3651SOL    HW211853   1.936   5.853   2.244
 3652SOL     OW11854   4.358   5.065   3.226
 3652SOL    HW111855   4.366   5.008   3.144
 3652SOL    HW211856   4.267   5.105   3.230
 3653SOL     OW11857   0.088   2.820   4.409
 3653SOL    HW111858   0.125   2.745   4.353
 3653SOL    HW211859   0.047   2.782   4.492
 3654SOL     OW11860   1.536   5.938   1.400
 3654SOL    HW111861   1.625   5.936   1.354
 3654SOL    HW211862   1.543   5.993   1.483
 3655SOL     OW11863   1.077   0.368   4.029
 3655SOL    HW111864   0.984   0.401   4.017
 3655SOL    HW211865   1.075   0.278   4.073
 3656SOL     OW11866   2.512   1.736   2.513
 3656SOL    HW111867   2.549   1.789   2.436
 3656SOL    HW211868   2.578   1.738   2.589
 3657SOL     OW11869   3.615   5.065   1.873
 3657SOL    HW111870   3.613   5.126   1.794
 3657SOL    HW211871   3.580   4.975   1.846
 3658SOL     OW11872   1.846   5.483   5.661
 3658SOL    HW111873   1.885   5.436   5.740
 3658SOL    HW211874   1.753   5.512   5.682
 3659SOL     OW11875   1.176   4.365   0.306
 3659SOL    HW111876   1.188   4.276   0.351
 3659SOL    HW211877   1.099   4.360   0.243
 3660SOL     OW11878   4.440   5.274   1.108
 3660SOL    HW111879   4.383   5.335   1.164
 3660SOL    HW211880   4.382   5.219   1.048
 3661SOL     OW11881   5.401   1.612   0.467
 3661SOL    HW111882   5.340   1.678   0.512
 3661SOL    HW211883   5.413   1.637   0.371
 3662SOL     OW11884   2.768   6.332   5.317
 3662SOL    HW111885   2.676   6.300   5.293
 3662SOL    HW211886   2.762   6.398   5.392
 3663SOL     OW11887   0.837   3.718   6.203
 3663SOL    HW111888   0.757   3.766   6.237
 3663SOL    HW211889   0.912   3.728   6.268
 3664SOL     OW11890   3.752   1.098   0.768
 3664SOL    HW111891   3.720   1.003   0.764
 3664SOL    HW211892   3.777   1.120   0.863
 3665SOL     OW11893   1.040   6.519   5.700
 3665SOL    HW111894   1.029   6.571   5.785
 3665SOL    HW211895   0.951   6.484   5.670
 3666SOL     OW11896   0.683   5.465   3.687
 3666SOL    HW111897   0.639   5.523   3.755
 3666SOL    HW211898   0.636   5.376   3.683
 3667SOL     OW11899   6.788   1.632   6.627
 3667SOL    HW111900   6.773   1.591   6.717
 3667SOL    HW211901   6.701   1.641   6.579
 3668SOL     OW11902   1.630   6.192   1.779
 3668SOL    HW111903   1.656   6.112   1.725
 3668SOL    HW211904   1.584   6.162   1.863
 3669SOL     OW11905   6.297   2.235   3.478
 3669SOL    HW111906   6.334   2.143   3.464
 3669SOL    HW211907   6.211   2.229   3.529
 3670SOL     OW11908   2.306   5.437   5.884
 3670SOL    HW111909   2.261   5.348   5.872
 3670SOL    HW211910   2.271   5.480   5.967
 3671SOL     OW11911   1.063   0.758   3.329
 3671SOL    HW111912   1.097   0.689   3.265
 3671SOL    HW211913   1.098   0.740   3.420
 3672SOL     OW11914   6.921   6.985   0.748
 3672SOL    HW111915   7.012   7.000   0.788
 3672SOL    HW211916   6.932   6.948   0.655
 3673SOL     OW11917   4.496   0.289   6.833
 3673SOL    HW111918   4.435   0.284   6.913
 3673SOL    HW211919   4.442   0.288   6.749
 3674SOL     OW11920   1.356   6.340   1.003
 3674SOL    HW111921   1.347   6.244   1.027
 3674SOL    HW211922   1.285   6.366   0.938
 3675SOL     OW11923   1.958   1.944   4.496
 3675SOL    HW111924   1.994   1.982   4.411
 3675SOL    HW211925   2.027   1.888   4.540
 3676SOL     OW11926   2.234   5.442   2.918
 3676SOL    HW111927   2.167   5.445   2.992
 3676SOL    HW211928   2.231   5.352   2.874
 3677SOL     OW11929   6.406   6.818   4.078
 3677SOL    HW111930   6.356   6.892   4.034
 3677SOL    HW211931   6.504   6.832   4.066
 3678SOL     OW11932   1.174   1.689   3.871
 3678SOL    HW111933   1.266   1.657   3.894
 3678SOL    HW211934   1.178   1.786   3.847
 3679SOL     OW11935   0.037   1.409   1.507
 3679SOL    HW111936   0.063   1.313   1.516
 3679SOL    HW211937   0.077   1.446   1.423
 3680SOL     OW11938   6.945   3.988   4.782
 3680SOL    HW111939   7.019   3.929   4.750
 3680SOL    HW211940   6.891   3.939   4.851
 3681SOL     OW11941   5.688   6.087   4.550
 3681SOL    HW111942   5.702   6.178   4.588
 3681SOL    HW211943   5.626   6.094   4.471
 3682SOL     OW11944   0.646   2.327   6.593
 3682SOL    HW111945   0.596   2.414   6.593
 3682SOL    HW211946   0.600   2.262   6.652
 3683SOL     OW11947   5.617   5.867   3.378
 3683SOL    HW111948   5.553   5.940   3.403
 3683SOL    HW211949   5.697   5.907   3.333
 3684SOL     OW11950   1.569   3.262   0.542
 3684SOL    HW111951   1.483   3.231   0.502
 3684SOL    HW211952   1.644   3.206   0.506
 3685SOL     OW11953   6.522   6.820   6.731
 3685SOL    HW111954   6.581   6.900   6.718
 3685SOL    HW211955   6.447   6.823   6.664
 3686SOL     OW11956   5.578   4.406   1.199
 3686SOL    HW111957   5.556   4.344   1.123
 3686SOL    HW211958   5.497   4.421   1.255
 3687SOL     OW11959   2.805   1.211   6.773
 3687SOL    HW111960   2.719   1.192   6.725
 3687SOL    HW211961   2.804   1.306   6.805
 3688SOL     OW11962   0.307   3.432   6.946
 3688SOL    HW111963   0.301   3.393   0.019
 3688SOL    HW211964   0.222   3.479   6.924
 3689SOL     OW11965   2.705   0.906   3.600
 3689SOL    HW111966   2.647   0.886   3.522
 3689SOL    HW211967   2.779   0.966   3.572
 3690SOL     OW11968   5.536   6.314   5.370
 3690SOL    HW111969   5.513   6.292   5.465
 3690SOL    HW211970   5.453   6.311   5.315
 3691SOL     OW11971   3.637   2.584   0.253
 3691SOL    HW111972   3.716   2.641   0.272
 3691SOL    HW211973   3.556   2.624   0.295
 3692SOL     OW11974   1.879   0.155   6.563
 3692SOL    HW111975   1.865   0.236   6.620
 3692SOL    HW211976   1.813   0.084   6.589
 3693SOL     OW11977   2.811   2.182   3.347
 3693SOL    HW111978   2.894   2.178   3.292
 3693SOL    HW211979   2.790   2.091   3.382
 3694SOL     OW11980   2.277   5.813   2.905
 3694SOL    HW111981   2.224   5.729   2.913
 3694SOL    HW211982   2.233   5.875   2.841
 3695SOL     OW11983   1.425   2.107   1.882
 3695SOL    HW111984   1.361   2.171   1.840
 3695SOL    HW211985   1.459   2.044   1.813
 3696SOL     OW11986   2.975   6.245   5.612
 3696SOL    HW111987   3.024   6.299   5.681
 3696SOL    HW211988   2.963   6.152   5.645
 3697SOL     OW11989   5.807   6.964   4.137
 3697SOL    HW111990   5.707   6.958   4.130
 3697SOL    HW211991   5.842   6.881   4.181
 3698SOL     OW11992   2.711   0.193   5.818
 3698SOL    HW111993   2.740   0.152   5.732
 3698SOL    HW211994   2.779   0.172   5.889
 3699SOL     OW11995   1.187   3.865   1.982
 3699SOL    HW111996   1.252   3.824   2.045
 3699SOL    HW211997   1.119   3.796   1.955
 3700SOL     OW11998   0.654   0.013   4.189
 3700SOL    HW111999   0.558   0.038   4.178
 3700SOL    HW212000   0.702   0.024   4.102
 3701SOL     OW12001   5.712   0.799   3.502
 3701SOL    HW112002   5.810   0.797   3.519
 3701SOL    HW212003   5.673   0.708   3.515
 3702SOL     OW12004   3.866   0.894   0.152
 3702SOL    HW112005   3.895   0.990   0.163
 3702SOL    HW212006   3.939   0.842   0.109
 3703SOL     OW12007   4.398   4.709   6.696
 3703SOL    HW112008   4.487   4.740   6.661
 3703SOL    HW212009   4.332   4.708   6.622
 3704SOL     OW12010   2.391   0.537   1.791
 3704SOL    HW112011   2.325   0.612   1.790
 3704SOL    HW212012   2.456   0.551   1.866
 3705SOL     OW12013   5.466   0.903   4.410
 3705SOL    HW112014   5.413   0.972   4.362
 3705SOL    HW212015   5.438   0.900   4.506
 3706SOL     OW12016   1.994   1.753   3.928
 3706SOL    HW112017   1.947   1.666   3.946
 3706SOL    HW212018   2.020   1.756   3.831
 3707SOL     OW12019   4.351   2.731   5.288
 3707SOL    HW112020   4.320   2.693   5.201
 3707SOL    HW212021   4.331   2.829   5.290
 3708SOL     OW12022   6.090   6.812   6.005
 3708SOL    HW112023   6.036   6.834   6.085
 3708SOL    HW212024   6.090   6.713   5.990
 3709SOL     OW12025   4.597   0.280   0.247
 3709SOL    HW112026   4.581   0.321   0.157
 3709SOL    HW212027   4.693   0.254   0.255
 3710SOL     OW12028   6.994   5.133   1.090
 3710SOL    HW112029   0.058   5.088   1.057
 3710SOL    HW212030   6.916   5.101   1.036
 3711SOL     OW12031   6.908   5.242   3.001
 3711SOL    HW112032   6.923   5.192   2.916
 3711SOL    HW212033   6.992   5.287   3.029
 3712SOL     OW12034   2.127   7.018   0.587
 3712SOL    HW112035   2.034   7.011   0.550
 3712SOL    HW212036   2.192   0.001   0.511
 3713SOL     OW12037   3.975   5.565   6.163
 3713SOL    HW112038   4.030   5.609   6.093
 3713SOL    HW212039   3.897   5.520   6.120
 3714SOL     OW12040   3.882   1.087   5.469
 3714SOL    HW112041   3.973   1.064   5.437
 3714SOL    HW212042   3.840   1.007   5.513
 3715SOL     OW12043   5.186   3.765   4.112
 3715SOL    HW112044   5.255   3.802   4.174
 3715SOL    HW212045   5.149   3.680   4.151
 3716SOL     OW12046   0.248   1.502   4.301
 3716SOL    HW112047   0.201   1.492   4.214
 3716SOL    HW212048   0.185   1.538   4.369
 3717SOL     OW12049   5.144   0.060   6.929
 3717SOL    HW112050   5.052   0.078   6.965
 3717SOL    HW212051   5.184   0.146   6.896
 3718SOL     OW12052   0.526   5.742   0.654
 3718SOL    HW112053   0.542   5.833   0.617
 3718SOL    HW212054   0.521   5.746   0.754
 3719SOL     OW12055   3.997   5.029   5.499
 3719SOL    HW112056   3.974   4.949   5.554
 3719SOL    HW212057   4.077   5.009   5.442
 3720SOL     OW12058   0.083   1.975   5.566
 3720SOL    HW112059   0.124   1.992   5.655
 3720SOL    HW212060   0.054   1.879   5.560
 3721SOL     OW12061   4.132   3.351   0.715
 3721SOL    HW112062   4.094   3.384   0.629
 3721SOL    HW212063   4.115   3.420   0.787
 3722SOL     OW12064   5.936   5.663   2.123
 3722SOL    HW112065   6.025   5.687   2.084
 3722SOL    HW212066   5.948   5.586   2.187
 3723SOL     OW12067   4.486   1.100   0.388
 3723SOL    HW112068   4.532   1.028   0.337
 3723SOL    HW212069   4.553   1.154   0.438
 3724SOL     OW12070   0.213   5.423   5.309
 3724SOL    HW112071   0.125   5.386   5.282
 3724SOL    HW212072   0.200   5.510   5.355
 3725SOL     OW12073   6.604   0.055   0.822
 3725SOL    HW112074   6.676   0.011   0.769
 3725SOL    HW212075   6.556   7.006   0.878
 3726SOL     OW12076   5.569   3.120   1.401
 3726SOL    HW112077   5.566   3.080   1.310
 3726SOL    HW212078   5.655   3.096   1.446
 3727SOL     OW12079   2.398   3.026   5.464
 3727SOL    HW112080   2.436   3.029   5.372
 3727SOL    HW212081   2.355   3.114   5.486
 3728SOL     OW12082   0.339   3.168   6.709
 3728SOL    HW112083   0.277   3.235   6.669
 3728SOL    HW212084   0.413   3.148   6.644
 3729SOL     OW12085   0.570   2.744   3.301
 3729SOL    HW112086   0.483   2.699   3.283
 3729SOL    HW212087   0.608   2.711   3.388
 3730SOL     OW12088   2.707   0.762   0.203
 3730SOL    HW112089   2.672   0.823   0.274
 3730SOL    HW212090   2.691   0.667   0.231
 3731SOL     OW12091   3.040   6.539   6.333
 3731SOL    HW112092   3.134   6.505   6.332
 3731SOL    HW212093   3.029   6.604   6.408
 3732SOL     OW12094   2.019   3.985   4.731
 3732SOL    HW112095   1.936   3.946   4.771
 3732SOL    HW212096   2.064   4.044   4.798
 3733SOL     OW12097   2.433   3.756   1.045
 3733SOL    HW112098   2.381   3.738   1.129
 3733SOL    HW212099   2.370   3.777   0.970
 3734SOL     OW12100   5.263   0.442   2.807
 3734SOL    HW112101   5.325   0.374   2.768
 3734SOL    HW212102   5.262   0.432   2.907
 3735SOL     OW12103   3.528   1.799   1.921
 3735SOL    HW112104   3.537   1.700   1.932
 3735SOL    HW212105   3.586   1.845   1.988
 3736SOL     OW12106   4.906   1.222   6.475
 3736SOL    HW112107   4.923   1.293   6.543
 3736SOL    HW212108   4.807   1.207   6.466
 3737SOL     OW12109   4.371   6.836   3.361
 3737SOL    HW112110   4.428   6.811   3.439
 3737SOL    HW212111   4.429   6.852   3.281
 3738SOL     OW12112   0.399   6.990   3.991
 3738SOL    HW112113   0.394   0.070   3.983
 3738SOL    HW212114   0.370   6.949   3.905
 3739SOL     OW12115   0.590   3.994   2.130
 3739SOL    HW112116   0.577   4.054   2.051
 3739SOL    HW212117   0.538   3.910   2.117
 3740SOL     OW12118   4.931   1.318   6.740
 3740SOL    HW112119   4.968   1.244   6.797
 3740SOL    HW212120   4.865   1.371   6.793
 3741SOL     OW12121   3.830   2.282   6.596
 3741SOL    HW112122   3.756   2.242   6.652
 3741SOL    HW212123   3.862   2.214   6.530
 3742SOL     OW12124   3.013   3.589   5.532
 3742SOL    HW112125   3.056   3.650   5.598
 3742SOL    HW212126   3.067   3.587   5.448
 3743SOL     OW12127   0.483   5.691   6.114
 3743SOL    HW112128   0.442   5.702   6.023
 3743SOL    HW212129   0.436   5.752   6.179
 3744SOL     OW12130   0.071   5.847   3.261
 3744SOL    HW112131   0.139   5.870   3.332
 3744SOL    HW212132   7.012   5.909   3.269
 3745SOL     OW12133   5.111   5.732   1.848
 3745SOL    HW112134   5.050   5.713   1.926
 3745SOL    HW212135   5.161   5.817   1.865
 3746SOL     OW12136   4.248   1.565   2.571
 3746SOL    HW112137   4.260   1.466   2.565
 3746SOL    HW212138   4.167   1.591   2.518
 3747SOL     OW12139   2.785   6.974   0.477
 3747SOL    HW112140   2.873   6.970   0.524
 3747SOL    HW212141   2.727   6.898   0.507
 3748SOL     OW12142   6.100   0.905   2.416
 3748SOL    HW112143   6.053   0.881   2.500
 3748SOL    HW212144   6.197   0.880   2.423
 3749SOL     OW12145   1.339   0.208   5.214
 3749SOL    HW112146   1.405   0.241   5.281
 3749SOL    HW212147   1.252   0.257   5.225
 3750SOL     OW12148   0.265   4.211   6.698
 3750SOL    HW112149   0.181   4.158   6.691
 3750SOL    HW212150   0.344   4.150   6.691
 3751SOL     OW12151   1.440   3.924   1.716
 3751SOL    HW112152   1.396   4.013   1.707
 3751SOL    HW212153   1.440   3.897   1.813
 3752SOL     OW12154   5.352   6.715   6.682
 3752SOL    HW112155   5.325   6.777   6.609
 3752SOL    HW212156   5.378   6.627   6.644
 3753SOL     OW12157   0.089   0.591   3.600
 3753SOL    HW112158   0.110   0.507   3.549
 3753SOL    HW212159   0.174   0.629   3.637
 3754SOL     OW12160   2.490   1.443   0.799
 3754SOL    HW112161   2.524   1.386   0.724
 3754SOL    HW212162   2.456   1.529   0.762
 3755SOL     OW12163   3.229   4.910   4.333
 3755SOL    HW112164   3.189   5.001   4.324
 3755SOL    HW212165   3.170   4.843   4.286
 3756SOL     OW12166   1.738   6.402   0.336
 3756SOL    HW112167   1.729   6.443   0.427
 3756SOL    HW212168   1.667   6.439   0.276
 3757SOL     OW12169   0.004   4.489   1.272
 3757SOL    HW112170   0.070   4.418   1.297
 3757SOL    HW212171   6.975   4.520   1.354
 3758SOL     OW12172   2.436   0.033   3.971
 3758SOL    HW112173   2.342   0.046   4.003
 3758SOL    HW212174   2.499   0.073   4.038
 3759SOL     OW12175   5.133   0.053   4.248
 3759SOL    HW112176   5.094   0.075   4.159
 3759SOL    HW212177   5.118   0.130   4.311
 3760SOL     OW12178   1.420   1.047   3.091
 3760SOL    HW112179   1.419   1.135   3.138
 3760SOL    HW212180   1.332   1.033   3.045
 3761SOL     OW12181   4.858   0.819   4.618
 3761SOL    HW112182   4.935   0.827   4.682
 3761SOL    HW212183   4.772   0.826   4.668
 3762SOL     OW12184   6.929   3.049   3.663
 3762SOL    HW112185   6.971   3.117   3.602
 3762SOL    HW212186   6.857   3.093   3.716
 3763SOL     OW12187   0.633   4.364   6.911
 3763SOL    HW112188   0.670   4.370   7.004
 3763SOL    HW212189   0.573   4.284   6.904
 3764SOL     OW12190   2.833   0.640   2.768
 3764SOL    HW112191   2.913   0.643   2.829
 3764SOL    HW212192   2.827   0.725   2.717
 3765SOL     OW12193   5.537   2.667   2.828
 3765SOL    HW112194   5.438   2.681   2.829
 3765SOL    HW212195   5.584   2.754   2.843
 3766SOL     OW12196   1.322   3.427   2.078
 3766SOL    HW112197   1.313   3.348   2.138
 3766SOL    HW212198   1.418   3.457   2.077
 3767SOL     OW12199   1.216   5.502   6.169
 3767SOL    HW112200   1.227   5.422   6.229
 3767SOL    HW212201   1.142   5.559   6.202
 3768SOL     OW12202   1.635   0.221   2.510
 3768SOL    HW112203   1.563   0.259   2.451
 3768SOL    HW212204   1.630   0.121   2.508
 3769SOL     OW12205   5.298   5.612   4.109
 3769SOL    HW112206   5.292   5.519   4.073
 3769SOL    HW212207   5.354   5.613   4.192
 3770SOL     OW12208   2.085   0.982   1.462
 3770SOL    HW112209   2.113   0.905   1.519
 3770SOL    HW212210   1.985   0.981   1.451
 3771SOL     OW12211   6.260   5.611   5.300
 3771SOL    HW112212   6.207   5.533   5.333
 3771SOL    HW212213   6.356   5.600   5.328
 3772SOL     OW12214   1.327   5.751   1.361
 3772SOL    HW112215   1.399   5.809   1.322
 3772SOL    HW212216   1.368   5.677   1.413
 3773SOL     OW12217   4.993   5.004   6.562
 3773SOL    HW112218   4.923   5.074   6.557
 3773SOL    HW212219   5.002   4.959   6.473
 3774SOL     OW12220   6.510   5.072   1.893
 3774SOL    HW112221   6.504   5.171   1.908
 3774SOL    HW212222   6.498   5.024   1.980
 3775SOL     OW12223   4.425   5.293   5.133
 3775SOL    HW112224   4.370   5.267   5.054
 3775SOL    HW212225   4.498   5.356   5.104
 3776SOL     OW12226   3.990   2.638   5.851
 3776SOL    HW112227   3.942   2.629   5.938
 3776SOL    HW212228   4.006   2.734   5.831
 3777SOL     OW12229   3.010   4.971   4.722
 3777SOL    HW112230   2.975   4.916   4.646
 3777SOL    HW212231   2.946   4.965   4.798
 3778SOL     OW12232   3.569   5.598   6.776
 3778SOL    HW112233   3.489   5.551   6.814
 3778SOL    HW212234   3.572   5.692   6.809
 3779SOL     OW12235   0.109   4.897   7.011
 3779SOL    HW112236   0.131   4.871   6.917
 3779SOL    HW212237   0.157   4.835   0.055
 3780SOL     OW12238   5.720   4.110   1.651
 3780SOL    HW112239   5.731   4.012   1.636
 3780SOL    HW212240   5.624   4.135   1.641
 3781SOL     OW12241   2.538   6.304   4.783
 3781SOL    HW112242   2.575   6.225   4.832
 3781SOL    HW212243   2.612   6.369   4.764
 3782SOL     OW12244   4.374   5.105   1.435
 3782SOL    HW112245   4.389   5.013   1.473
 3782SOL    HW212246   4.279   5.131   1.447
 3783SOL     OW12247   4.813   5.310   4.982
 3783SOL    HW112248   4.844   5.363   4.903
 3783SOL    HW212249   4.887   5.250   5.013
 3784SOL     OW12250   5.869   2.417   4.702
 3784SOL    HW112251   5.794   2.381   4.646
 3784SOL    HW212252   5.835   2.494   4.756
 3785SOL     OW12253   1.632   2.742   3.392
 3785SOL    HW112254   1.625   2.842   3.400
 3785SOL    HW212255   1.590   2.699   3.472
 3786SOL     OW12256   2.033   3.537   4.671
 3786SOL    HW112257   1.992   3.487   4.747
 3786SOL    HW212258   2.104   3.598   4.705
 3787SOL     OW12259   4.911   6.816   4.091
 3787SOL    HW112260   4.868   6.751   4.029
 3787SOL    HW212261   4.988   6.772   4.138
 3788SOL     OW12262   5.243   2.528   5.018
 3788SOL    HW112263   5.153   2.491   4.999
 3788SOL    HW212264   5.236   2.627   5.033
 3789SOL     OW12265   2.488   2.623   1.856
 3789SOL    HW112266   2.403   2.625   1.909
 3789SOL    HW212267   2.539   2.540   1.878
 3790SOL     OW12268   0.382   6.445   1.877
 3790SOL    HW112269   0.481   6.433   1.886
 3790SOL    HW212270   0.352   6.520   1.935
 3791SOL     OW12271   4.948   1.173   5.996
 3791SOL    HW112272   4.877   1.204   6.059
 3791SOL    HW212273   4.955   1.237   5.919
 3792SOL     OW12274   6.812   0.367   4.539
 3792SOL    HW112275   6.714   0.387   4.543
 3792SOL    HW212276   6.829   0.304   4.462
 3793SOL     OW12277   4.356   4.796   0.201
 3793SOL    HW112278   4.452   4.825   0.202
 3793SOL    HW212279   4.333   4.759   0.111
 3794SOL     OW12280   0.750   4.550   6.119
 3794SOL    HW112281   0.661   4.505   6.122
 3794SOL    HW212282   0.813   4.495   6.064
 3795SOL     OW12283   2.889   6.014   1.287
 3795SOL    HW112284   2.898   6.066   1.202
 3795SOL    HW212285   2.821   5.942   1.275
 3796SOL     OW12286   4.352   1.040   0.154
 3796SOL    HW112287   4.426   1.058   0.089
 3796SOL    HW212288   4.386   1.055   0.247
 3797SOL     OW12289   0.522   3.938   1.696
 3797SOL    HW112290   0.561   4.020   1.655
 3797SOL    HW212291   0.460   3.963   1.770
 3798SOL     OW12292   1.690   5.640   3.545
 3798SOL    HW112293   1.627   5.622   3.620
 3798SOL    HW212294   1.659   5.720   3.493
 3799SOL     OW12295   6.925   0.913   3.465
 3799SOL    HW112296   7.018   0.937   3.438
 3799SOL    HW212297   6.859   0.964   3.410
 3800SOL     OW12298   5.532   2.369   2.948
 3800SOL    HW112299   5.503   2.419   2.867
 3800SOL    HW212300   5.460   2.371   3.017
 3801SOL     OW12301   6.268   1.565   1.076
 3801SOL    HW112302   6.344   1.550   1.011
 3801SOL    HW212303   6.181   1.552   1.028
 3802SOL     OW12304   6.071   3.584   1.774
 3802SOL    HW112305   6.127   3.564   1.855
 3802SOL    HW212306   6.118   3.651   1.717
 3803SOL     OW12307   3.508   3.964   4.433
 3803SOL    HW112308   3.598   3.927   4.413
 3803SOL    HW212309   3.513   4.023   4.514
 3804SOL     OW12310   4.045   6.049   3.759
 3804SOL    HW112311   4.095   6.069   3.844
 3804SOL    HW212312   3.951   6.083   3.767
 3805SOL     OW12313   2.464   2.459   6.807
 3805SOL    HW112314   2.514   2.402   6.741
 3805SOL    HW212315   2.370   2.425   6.816
 3806SOL     OW12316   2.672   5.051   1.289
 3806SOL    HW112317   2.655   4.957   1.320
 3806SOL    HW212318   2.719   5.102   1.361
 3807SOL     OW12319   1.740   3.979   3.776
 3807SOL    HW112320   1.776   3.902   3.828
 3807SOL    HW212321   1.721   4.056   3.838
 3808SOL     OW12322   2.842   6.461   5.937
 3808SOL    HW112323   2.808   6.386   5.880
 3808SOL    HW212324   2.783   6.470   6.017
 3809SOL     OW12325   5.262   2.115   1.503
 3809SOL    HW112326   5.341   2.163   1.542
 3809SOL    HW212327   5.284   2.085   1.411
 3810SOL     OW12328   5.111   2.070   2.244
 3810SOL    HW112329   5.125   2.125   2.327
 3810SOL    HW212330   5.016   2.080   2.214
 3811SOL     OW12331   0.465   5.757   5.351
 3811SOL    HW112332   0.522   5.675   5.358
 3811SOL    HW212333   0.422   5.759   5.260
 3812SOL     OW12334   4.862   5.680   0.520
 3812SOL    HW112335   4.928   5.689   0.445
 3812SOL    HW212336   4.769   5.691   0.484
 3813SOL     OW12337   6.086   4.520   0.013
 3813SOL    HW112338   6.066   4.552   6.940
 3813SOL    HW212339   6.090   4.598   0.076
 3814SOL     OW12340   0.205   0.551   5.002
 3814SOL    HW112341   0.168   0.471   5.049
 3814SOL    HW212342   0.132   0.599   4.954
 3815SOL     OW12343   6.507   3.648   5.682
 3815SOL    HW112344   6.507   3.660   5.782
 3815SOL    HW212345   6.583   3.700   5.643
 3816SOL     OW12346   6.754   6.190   1.271
 3816SOL    HW112347   6.831   6.212   1.332
 3816SOL    HW212348   6.750   6.091   1.258
 3817SOL     OW12349   4.888   3.584   1.832
 3817SOL    HW112350   4.869   3.682   1.838
 3817SOL    HW212351   4.930   3.553   1.917
 3818SOL     OW12352   5.961   6.313   2.658
 3818SOL    HW112353   5.909   6.251   2.600
 3818SOL    HW212354   5.914   6.402   2.662
 3819SOL     OW12355   6.088   3.882   3.886
 3819SOL    HW112356   6.181   3.851   3.865
 3819SOL    HW212357   6.079   3.979   3.863
 3820SOL     OW12358   2.923   6.106   4.998
 3820SOL    HW112359   2.951   6.181   4.938
 3820SOL    HW212360   2.990   6.097   5.072
 3821SOL     OW12361   1.012   0.447   0.412
 3821SOL    HW112362   0.936   0.404   0.364
 3821SOL    HW212363   1.097   0.401   0.387
 3822SOL     OW12364   4.789   0.503   1.957
 3822SOL    HW112365   4.796   0.421   1.899
 3822SOL    HW212366   4.861   0.568   1.931
 3823SOL     OW12367   5.704   5.990   6.454
 3823SOL    HW112368   5.631   6.017   6.390
 3823SOL    HW212369   5.763   6.069   6.472
 3824SOL     OW12370   2.499   2.965   0.025
 3824SOL    HW112371   2.442   3.044   0.046
 3824SOL    HW212372   2.440   2.887   0.003
 3825SOL     OW12373   0.903   4.594   5.671
 3825SOL    HW112374   0.984   4.540   5.646
 3825SOL    HW212375   0.844   4.603   5.591
 3826SOL     OW12376   5.528   4.482   4.064
 3826SOL    HW112377   5.509   4.580   4.071
 3826SOL    HW212378   5.619   4.463   4.102
 3827SOL     OW12379   0.422   2.215   0.743
 3827SOL    HW112380   0.491   2.173   0.685
 3827SOL    HW212381   0.458   2.223   0.836
 3828SOL     OW12382   3.669   3.479   3.630
 3828SOL    HW112383   3.682   3.576   3.608
 3828SOL    HW212384   3.711   3.423   3.559
 3829SOL     OW12385   1.200   3.555   1.808
 3829SOL    HW112386   1.215   3.461   1.838
 3829SOL    HW212387   1.141   3.602   1.874
 3830SOL     OW12388   5.734   0.729   3.961
 3830SOL    HW112389   5.834   0.736   3.967
 3830SOL    HW212390   5.696   0.818   3.937
 3831SOL     OW12391   4.759   1.891   3.778
 3831SOL    HW112392   4.668   1.901   3.738
 3831SOL    HW212393   4.783   1.794   3.782
 3832SOL     OW12394   6.767   1.048   3.287
 3832SOL    HW112395   6.799   1.142   3.287
 3832SOL    HW212396   6.690   1.039   3.224
 3833SOL     OW12397   1.917   1.727   5.366
 3833SOL    HW112398   1.991   1.787   5.396
 3833SOL    HW212399   1.951   1.667   5.293
 3834SOL     OW12400   4.844   3.722   0.900
 3834SOL    HW112401   4.898   3.644   0.869
 3834SOL    HW212402   4.860   3.736   0.998
 3835SOL     OW12403   4.302   5.652   4.981
 3835SOL    HW112404   4.257   5.599   5.053
 3835SOL    HW212405   4.322   5.744   5.015
 3836SOL     OW12406   0.018   6.185   5.776
 3836SOL    HW112407   0.037   6.137   5.690
 3836SOL    HW212408   6.997   6.120   5.841
 3837SOL     OW12409   4.613   4.764   5.673
 3837SOL    HW112410   4.553   4.841   5.651
 3837SOL    HW212411   4.589   4.686   5.616
 3838SOL     OW12412   0.964   1.064   4.120
 3838SOL    HW112413   0.987   1.160   4.132
 3838SOL    HW212414   1.042   1.008   4.150
 3839SOL     OW12415   5.142   0.849   3.619
 3839SOL    HW112416   5.083   0.906   3.562
 3839SOL    HW212417   5.086   0.801   3.686
 3840SOL     OW12418   2.581   1.698   6.776
 3840SOL    HW112419   2.595   1.796   6.763
 3840SOL    HW212420   2.488   1.674   6.746
 3841SOL     OW12421   6.118   4.390   4.336
 3841SOL    HW112422   6.203   4.438   4.353
 3841SOL    HW212423   6.058   4.447   4.280
 3842SOL     OW12424   1.446   3.709   4.875
 3842SOL    HW112425   1.347   3.712   4.885
 3842SOL    HW212426   1.489   3.757   4.952
 3843SOL     OW12427   4.951   2.499   6.863
 3843SOL    HW112428   4.976   2.403   6.879
 3843SOL    HW212429   4.943   2.516   6.765
 3844SOL     OW12430   0.248   0.152   1.428
 3844SOL    HW112431   0.228   0.157   1.330
 3844SOL    HW212432   0.180   0.094   1.473
 3845SOL     OW12433   2.060   5.428   0.634
 3845SOL    HW112434   2.018   5.401   0.547
 3845SOL    HW212435   2.159   5.413   0.629
 3846SOL     OW12436   0.752   2.942   2.916
 3846SOL    HW112437   0.750   2.854   2.963
 3846SOL    HW212438   0.805   3.007   2.970
 3847SOL     OW12439   6.526   1.930   6.714
 3847SOL    HW112440   6.549   1.955   6.808
 3847SOL    HW212441   6.428   1.946   6.698
 3848SOL     OW12442   5.584   3.784   2.806
 3848SOL    HW112443   5.586   3.719   2.731
 3848SOL    HW212444   5.493   3.782   2.849
 3849SOL     OW12445   6.806   4.763   6.410
 3849SOL    HW112446   6.712   4.730   6.399
 3849SOL    HW212447   6.815   4.807   6.500
 3850SOL     OW12448   2.698   2.273   1.554
 3850SOL    HW112449   2.771   2.249   1.618
 3850SOL    HW212450   2.727   2.250   1.461
 3851SOL     OW12451   0.313   5.704   2.257
 3851SOL    HW112452   0.311   5.781   2.321
 3851SOL    HW212453   0.402   5.659   2.260
 3852SOL     OW12454   2.346   6.478   5.621
 3852SOL    HW112455   2.286   6.474   5.541
 3852SOL    HW212456   2.388   6.388   5.635
 3853SOL     OW12457   2.924   0.134   2.985
 3853SOL    HW112458   2.942   0.114   3.081
 3853SOL    HW212459   2.995   0.194   2.949
 3854SOL     OW12460   1.488   1.849   2.323
 3854SOL    HW112461   1.461   1.898   2.240
 3854SOL    HW212462   1.519   1.757   2.298
 3855SOL     OW12463   3.571   6.676   0.440
 3855SOL    HW112464   3.599   6.587   0.403
 3855SOL    HW212465   3.507   6.719   0.377
 3856SOL     OW12466   0.253   2.343   6.669
 3856SOL    HW112467   0.302   2.257   6.678
 3856SOL    HW212468   0.158   2.331   6.697
 3857SOL     OW12469   2.224   0.384   6.171
 3857SOL    HW112470   2.198   0.288   6.174
 3857SOL    HW212471   2.159   0.435   6.116
 3858SOL     OW12472   4.469   0.415   4.369
 3858SOL    HW112473   4.524   0.366   4.437
 3858SOL    HW212474   4.379   0.436   4.407
 3859SOL     OW12475   6.405   0.091   2.217
 3859SOL    HW112476   6.313   0.100   2.179
 3859SOL    HW212477   6.423   7.015   2.242
 3860SOL     OW12478   1.155   6.603   3.981
 3860SOL    HW112479   1.211   6.580   3.902
 3860SOL    HW212480   1.154   6.527   4.045
 3861SOL     OW12481   2.913   5.774   1.622
 3861SOL    HW112482   2.832   5.827   1.649
 3861SOL    HW212483   2.909   5.754   1.524
 3862SOL     OW12484   2.098   0.219   4.170
 3862SOL    HW112485   2.051   0.304   4.145
 3862SOL    HW212486   2.112   0.163   4.089
 3863SOL     OW12487   3.642   0.175   0.543
 3863SOL    HW112488   3.601   0.192   0.453
 3863SOL    HW212489   3.701   0.095   0.537
 3864SOL     OW12490   2.514   0.476   5.117
 3864SOL    HW112491   2.498   0.560   5.065
 3864SOL    HW212492   2.575   0.496   5.194
 3865SOL     OW12493   3.504   0.825   0.475
 3865SOL    HW112494   3.565   0.880   0.418
 3865SOL    HW212495   3.415   0.870   0.481
 3866SOL     OW12496   2.590   2.275   6.649
 3866SOL    HW112497   2.684   2.251   6.672
 3866SOL    HW212498   2.571   2.253   6.554
 3867SOL     OW12499   0.590   3.556   1.895
 3867SOL    HW112500   0.678   3.515   1.871
 3867SOL    HW212501   0.605   3.649   1.930
 3868SOL     OW12502   4.308   0.477   0.189
 3868SOL    HW112503   4.232   0.538   0.212
 3868SOL    HW212504   4.325   0.415   0.265
 3869SOL     OW12505   5.867   2.371   3.704
 3869SOL    HW112506   5.851   2.360   3.605
 3869SOL    HW212507   5.963   2.394   3.720
 3870SOL     OW12508   0.518   0.369   4.458
 3870SOL    HW112509   0.554   0.288   4.504
 3870SOL    HW212510   0.490   0.437   4.526
 3871SOL     OW12511   2.625   4.866   4.675
 3871SOL    HW112512   2.526   4.861   4.682
 3871SOL    HW212513   2.656   4.811   4.597
 3872SOL     OW12514   2.777   3.752   5.482
 3872SOL    HW112515   2.861   3.698   5.494
 3872SOL    HW212516   2.704   3.713   5.539
 3873SOL     OW12517   4.748   1.836   0.415
 3873SOL    HW112518   4.739   1.820   0.513
 3873SOL    HW212519   4.731   1.932   0.395
 3874SOL     OW12520   3.041   1.035   6.804
 3874SOL    HW112521   3.113   1.034   6.734
 3874SOL    HW212522   2.951   1.042   6.760
 3875SOL     OW12523   1.364   2.275   6.090
 3875SOL    HW112524   1.282   2.331   6.093
 3875SOL    HW212525   1.440   2.329   6.053
 3876SOL     OW12526   3.987   5.197   1.242
 3876SOL    HW112527   4.027   5.193   1.333
 3876SOL    HW212528   4.020   5.279   1.195
 3877SOL     OW12529   6.605   1.635   0.089
 3877SOL    HW112530   6.610   1.705   0.160
 3877SOL    HW212531   6.510   1.626   0.057
 3878SOL     OW12532   4.648   0.635   4.388
 3878SOL    HW112533   4.571   0.572   4.375
 3878SOL    HW212534   4.686   0.659   4.298
 3879SOL     OW12535   5.399   5.319   0.365
 3879SOL    HW112536   5.446   5.341   0.279
 3879SOL    HW212537   5.442   5.240   0.408
 3880SOL     OW12538   4.435   4.538   4.010
 3880SOL    HW112539   4.510   4.570   3.953
 3880SOL    HW212540   4.413   4.443   3.987
 3881SOL     OW12541   0.696   4.023   0.583
 3881SOL    HW112542   0.716   4.075   0.666
 3881SOL    HW212543   0.601   3.990   0.587
 3882SOL     OW12544   0.749   1.765   7.011
 3882SOL    HW112545   0.791   1.850   0.024
 3882SOL    HW212546   0.745   1.699   0.067
 3883SOL     OW12547   5.281   6.267   2.669
 3883SOL    HW112548   5.280   6.364   2.641
 3883SOL    HW212549   5.306   6.261   2.765
 3884SOL     OW12550   0.571   4.693   1.872
 3884SOL    HW112551   0.670   4.675   1.872
 3884SOL    HW212552   0.541   4.709   1.966
 3885SOL     OW12553   5.386   6.027   3.076
 3885SOL    HW112554   5.334   5.950   3.113
 3885SOL    HW212555   5.483   6.013   3.093
 3886SOL     OW12556   3.734   6.444   5.793
 3886SOL    HW112557   3.646   6.423   5.751
 3886SOL    HW212558   3.760   6.371   5.855
 3887SOL     OW12559   0.079   6.562   2.342
 3887SOL    HW112560   0.168   6.604   2.359
 3887SOL    HW212561   0.008   6.615   2.387
 3888SOL     OW12562   6.192   5.585   4.071
 3888SOL    HW112563   6.161   5.575   3.977
 3888SOL    HW212564   6.291   5.572   4.075
 3889SOL     OW12565   5.006   3.367   6.388
 3889SOL    HW112566   4.934   3.428   6.422
 3889SOL    HW212567   5.063   3.338   6.465
 3890SOL     OW12568   5.277   2.936   4.115
 3890SOL    HW112569   5.307   2.853   4.160
 3890SOL    HW212570   5.262   3.008   4.183
 3891SOL     OW12571   6.313   5.407   3.350
 3891SOL    HW112572   6.331   5.427   3.254
 3891SOL    HW212573   6.257   5.324   3.357
 3892SOL     OW12574   0.115   2.150   1.540
 3892SOL    HW112575   0.068   2.235   1.517
 3892SOL    HW212576   0.062   2.072   1.506
 3893SOL     OW12577   3.993   3.507   1.597
 3893SOL    HW112578   3.987   3.558   1.683
 3893SOL    HW212579   4.078   3.456   1.594
 3894SOL     OW12580   4.532   0.565   6.214
 3894SOL    HW112581   4.450   0.594   6.264
 3894SOL    HW212582   4.582   0.497   6.268
 3895SOL     OW12583   2.120   6.887   4.343
 3895SOL    HW112584   2.139   6.817   4.274
 3895SOL    HW212585   2.030   6.870   4.384
 3896SOL     OW12586   1.352   0.868   6.956
 3896SOL    HW112587   1.261   0.844   6.923
 3896SOL    HW212588   1.418   0.865   6.881
 3897SOL     OW12589   4.795   6.201   1.755
 3897SOL    HW112590   4.827   6.295   1.748
 3897SOL    HW212591   4.707   6.192   1.708
 3898SOL     OW12592   4.196   2.855   0.109
 3898SOL    HW112593   4.282   2.814   0.078
 3898SOL    HW212594   4.212   2.950   0.135
 3899SOL     OW12595   3.501   6.228   6.473
 3899SOL    HW112596   3.551   6.209   6.389
 3899SOL    HW212597   3.499   6.146   6.530
 3900SOL     OW12598   5.048   3.915   3.134
 3900SOL    HW112599   5.092   3.854   3.201
 3900SOL    HW212600   4.953   3.885   3.120
 3901SOL     OW12601   2.453   0.363   0.169
 3901SOL    HW112602   2.502   0.416   0.100
 3901SOL    HW212603   2.483   0.267   0.165
 3902SOL     OW12604   6.281   2.955   2.801
 3902SOL    HW112605   6.301   2.881   2.737
 3902SOL    HW212606   6.230   3.027   2.755
 3903SOL     OW12607   3.714   5.358   6.750
 3903SOL    HW112608   3.667   5.438   6.788
 3903SOL    HW212609   3.681   5.275   6.794
 3904SOL     OW12610   0.804   0.350   0.255
 3904SOL    HW112611   0.794   0.258   0.218
 3904SOL    HW212612   0.764   0.416   0.191
 3905SOL     OW12613   6.888   5.856   5.339
 3905SOL    HW112614   6.976   5.879   5.381
 3905SOL    HW212615   6.892   5.763   5.302
 3906SOL     OW12616   6.079   6.697   5.489
 3906SOL    HW112617   6.139   6.731   5.561
 3906SOL    HW212618   6.065   6.599   5.500
 3907SOL     OW12619   6.034   1.385   4.085
 3907SOL    HW112620   6.058   1.473   4.125
 3907SOL    HW212621   5.971   1.399   4.008
 3908SOL     OW12622   1.608   2.355   5.532
 3908SOL    HW112623   1.699   2.320   5.553
 3908SOL    HW212624   1.611   2.454   5.524
 3909SOL     OW12625   6.041   5.383   4.146
 3909SOL    HW112626   6.065   5.478   4.127
 3909SOL    HW212627   6.066   5.360   4.239
 3910SOL     OW12628   3.846   3.662   3.146
 3910SOL    HW112629   3.885   3.637   3.234
 3910SOL    HW212630   3.789   3.743   3.156
 3911SOL     OW12631   6.095   1.814   5.577
 3911SOL    HW112632   6.050   1.848   5.659
 3911SOL    HW212633   6.069   1.871   5.499
 3912SOL     OW12634   5.536   2.398   6.005
 3912SOL    HW112635   5.504   2.319   6.057
 3912SOL    HW212636   5.623   2.376   5.961
 3913SOL     OW12637   1.039   6.816   0.515
 3913SOL    HW112638   1.080   6.829   0.605
 3913SOL    HW212639   0.992   6.728   0.512
 3914SOL     OW12640   3.032   6.159   6.550
 3914SOL    HW112641   2.961   6.192   6.487
 3914SOL    HW212642   3.103   6.112   6.498
 3915SOL     OW12643   6.257   5.428   1.746
 3915SOL    HW112644   6.304   5.387   1.668
 3915SOL    HW212645   6.231   5.522   1.724
 3916SOL     OW12646   1.567   0.146   2.951
 3916SOL    HW112647   1.650   0.194   2.979
 3916SOL    HW212648   1.583   0.047   2.954
 3917SOL     OW12649   1.935   0.072   6.901
 3917SOL    HW112650   1.932   0.023   6.814
 3917SOL    HW212651   2.014   0.041   6.954
 3918SOL     OW12652   5.149   4.323   1.636
 3918SOL    HW112653   5.069   4.275   1.673
 3918SOL    HW212654   5.127   4.419   1.622
 3919SOL     OW12655   3.354   6.773   0.309
 3919SOL    HW112656   3.312   6.697   0.260
 3919SOL    HW212657   3.385   6.842   0.243
 3920SOL     OW12658   2.044   2.034   6.949
 3920SOL    HW112659   2.105   1.955   6.958
 3920SOL    HW212660   2.086   2.114   6.991
 3921SOL     OW12661   1.404   3.627   1.650
 3921SOL    HW112662   1.397   3.723   1.624
 3921SOL    HW212663   1.318   3.598   1.693
 3922SOL     OW12664   0.880   4.780   1.174
 3922SOL    HW112665   0.969   4.777   1.130
 3922SOL    HW212666   0.836   4.690   1.167
 3923SOL     OW12667   0.133   0.330   0.101
 3923SOL    HW112668   0.046   0.300   0.063
 3923SOL    HW212669   0.191   0.250   0.119
 3924SOL     OW12670   6.958   4.651   4.527
 3924SOL    HW112671   6.861   4.630   4.514
 3924SOL    HW212672   6.992   4.601   4.606
 3925SOL     OW12673   1.992   5.387   2.132
 3925SOL    HW112674   1.999   5.307   2.072
 3925SOL    HW212675   2.078   5.400   2.181
 3926SOL     OW12676   4.656   4.278   2.369
 3926SOL    HW112677   4.630   4.192   2.412
 3926SOL    HW212678   4.617   4.283   2.277
 3927SOL     OW12679   0.352   3.265   6.165
 3927SOL    HW112680   0.444   3.257   6.204
 3927SOL    HW212681   0.328   3.179   6.120
 3928SOL     OW12682   5.569   5.531   6.636
 3928SOL    HW112683   5.666   5.534   6.661
 3928SOL    HW212684   5.554   5.455   6.572
 3929SOL     OW12685   0.972   1.391   5.158
 3929SOL    HW112686   0.993   1.460   5.227
 3929SOL    HW212687   0.895   1.422   5.102
 3930SOL     OW12688   2.108   1.506   3.453
 3930SOL    HW112689   2.168   1.467   3.383
 3930SOL    HW212690   2.161   1.570   3.509
 3931SOL     OW12691   6.103   1.685   1.282
 3931SOL    HW112692   6.070   1.741   1.206
 3931SOL    HW212693   6.182   1.632   1.252
 3932SOL     OW12694   1.065   2.158   4.600
 3932SOL    HW112695   1.021   2.201   4.522
 3932SOL    HW212696   1.055   2.058   4.593
 3933SOL     OW12697   1.232   6.671   6.180
 3933SOL    HW112698   1.291   6.716   6.113
 3933SOL    HW212699   1.215   6.576   6.151
 3934SOL     OW12700   5.579   0.468   6.020
 3934SOL    HW112701   5.523   0.480   5.938
 3934SOL    HW212702   5.673   0.450   5.993
 3935SOL     OW12703   4.507   0.663   0.883
 3935SOL    HW112704   4.490   0.575   0.928
 3935SOL    HW212705   4.481   0.656   0.787
 3936SOL     OW12706   6.872   5.457   3.497
 3936SOL    HW112707   6.800   5.503   3.445
 3936SOL    HW212708   6.960   5.500   3.478
 3937SOL     OW12709   0.676   1.151   2.764
 3937SOL    HW112710   0.626   1.195   2.689
 3937SOL    HW212711   0.771   1.182   2.763
 3938SOL     OW12712   0.187   1.725   2.933
 3938SOL    HW112713   0.248   1.755   3.006
 3938SOL    HW212714   0.195   1.787   2.855
 3939SOL     OW12715   2.776   1.682   2.005
 3939SOL    HW112716   2.686   1.701   2.044
 3939SOL    HW212717   2.845   1.689   2.077
 3940SOL     OW12718   3.654   3.793   1.287
 3940SOL    HW112719   3.723   3.722   1.295
 3940SOL    HW212720   3.581   3.777   1.354
 3941SOL     OW12721   4.094   4.160   6.144
 3941SOL    HW112722   3.997   4.139   6.140
 3941SOL    HW212723   4.109   4.239   6.204
 3942SOL     OW12724   6.474   6.408   6.152
 3942SOL    HW112725   6.514   6.500   6.148
 3942SOL    HW212726   6.546   6.340   6.164
 3943SOL     OW12727   0.561   3.677   4.457
 3943SOL    HW112728   0.506   3.638   4.531
 3943SOL    HW212729   0.608   3.603   4.408
 3944SOL     OW12730   5.120   2.677   4.252
 3944SOL    HW112731   5.160   2.659   4.163
 3944SOL    HW212732   5.031   2.720   4.241
 3945SOL     OW12733   6.722   1.076   1.268
 3945SOL    HW112734   6.710   0.996   1.208
 3945SOL    HW212735   6.816   1.109   1.260
 3946SOL     OW12736   4.397   4.622   3.248
 3946SOL    HW112737   4.320   4.642   3.187
 3946SOL    HW212738   4.468   4.692   3.236
 3947SOL     OW12739   5.693   5.712   0.240
 3947SOL    HW112740   5.607   5.758   0.216
 3947SOL    HW212741   5.695   5.695   0.339
 3948SOL     OW12742   5.821   4.665   1.457
 3948SOL    HW112743   5.860   4.577   1.482
 3948SOL    HW212744   5.723   4.665   1.477
 3949SOL     OW12745   4.373   6.009   3.433
 3949SOL    HW112746   4.362   6.064   3.349
 3949SOL    HW212747   4.469   5.982   3.442
 3950SOL     OW12748   1.839   5.671   1.055
 3950SOL    HW112749   1.852   5.766   1.026
 3950SOL    HW212750   1.798   5.618   0.981
 3951SOL     OW12751   5.600   0.367   1.890
 3951SOL    HW112752   5.617   0.293   1.826
 3951SOL    HW212753   5.546   0.333   1.967
 3952SOL     OW12754   6.436   2.691   0.611
 3952SOL    HW112755   6.417   2.779   0.654
 3952SOL    HW212756   6.425   2.617   0.677
 3953SOL     OW12757   3.861   3.939   2.154
 3953SOL    HW112758   3.790   3.983   2.209
 3953SOL    HW212759   3.919   3.883   2.214
 3954SOL     OW12760   3.656   4.495   5.763
 3954SOL    HW112761   3.634   4.551   5.683
 3954SOL    HW212762   3.572   4.456   5.800
 3955SOL     OW12763   3.755   0.554   5.411
 3955SOL    HW112764   3.773   0.524   5.317
 3955SOL    HW212765   3.672   0.611   5.412
 3956SOL     OW12766   1.568   1.154   1.855
 3956SOL    HW112767   1.501   1.081   1.864
 3956SOL    HW212768   1.567   1.211   1.937
 3957SOL     OW12769   3.818   0.475   4.578
 3957SOL    HW112770   3.757   0.553   4.565
 3957SOL    HW212771   3.768   0.391   4.559
 3958SOL     OW12772   6.066   1.668   5.280
 3958SOL    HW112773   6.054   1.766   5.295
 3958SOL    HW212774   6.151   1.652   5.230
 3959SOL     OW12775   5.001   5.173   0.624
 3959SOL    HW112776   4.905   5.148   0.608
 3959SOL    HW212777   5.059   5.123   0.560
 3960SOL     OW12778   5.574   2.114   4.482
 3960SOL    HW112779   5.572   2.058   4.399
 3960SOL    HW212780   5.482   2.124   4.517
 3961SOL     OW12781   5.608   6.463   3.657
 3961SOL    HW112782   5.629   6.537   3.720
 3961SOL    HW212783   5.687   6.445   3.599
 3962SOL     OW12784   7.009   5.331   5.250
 3962SOL    HW112785   6.925   5.299   5.293
 3962SOL    HW212786   0.000   5.287   5.161
 3963SOL     OW12787   4.643   6.700   1.733
 3963SOL    HW112788   4.646   6.603   1.757
 3963SOL    HW212789   4.649   6.756   1.816
 3964SOL     OW12790   4.923   3.656   3.370
 3964SOL    HW112791   4.901   3.689   3.462
 3964SOL    HW212792   5.014   3.688   3.344
 3965SOL     OW12793   4.906   3.742   4.473
 3965SOL    HW112794   4.863   3.792   4.398
 3965SOL    HW212795   5.003   3.729   4.453
 3966SOL     OW12796   2.685   5.996   6.647
 3966SOL    HW112797   2.676   6.084   6.693
 3966SOL    HW212798   2.653   6.005   6.553
 3967SOL     OW12799   2.281   5.028   3.155
 3967SOL    HW112800   2.183   5.030   3.137
 3967SOL    HW212801   2.331   5.032   3.068
 3968SOL     OW12802   4.223   0.534   0.647
 3968SOL    HW112803   4.191   0.620   0.686
 3968SOL    HW212804   4.154   0.463   0.663
 3969SOL     OW12805   1.960   5.939   1.859
 3969SOL    HW112806   1.888   5.957   1.791
 3969SOL    HW212807   1.958   5.843   1.884
 3970SOL     OW12808   5.359   6.599   2.366
 3970SOL    HW112809   5.438   6.538   2.356
 3970SOL    HW212810   5.342   6.645   2.279
 3971SOL     OW12811   2.958   5.655   3.991
 3971SOL    HW112812   2.894   5.660   4.068
 3971SOL    HW212813   2.919   5.699   3.911
 3972SOL     OW12814   2.184   4.097   0.333
 3972SOL    HW112815   2.158   4.116   0.428
 3972SOL    HW212816   2.109   4.124   0.272
 3973SOL     OW12817   1.323   5.700   0.801
 3973SOL    HW112818   1.314   5.736   0.709
 3973SOL    HW212819   1.388   5.624   0.801
 3974SOL     OW12820   2.186   0.591   5.751
 3974SOL    HW112821   2.210   0.655   5.824
 3974SOL    HW212822   2.264   0.581   5.689
 3975SOL     OW12823   5.086   2.140   6.111
 3975SOL    HW112824   5.134   2.177   6.031
 3975SOL    HW212825   5.101   2.200   6.190
 3976SOL     OW12826   1.838   5.563   2.281
 3976SOL    HW112827   1.893   5.503   2.223
 3976SOL    HW212828   1.761   5.598   2.228
 3977SOL     OW12829   0.369   3.480   6.613
 3977SOL    HW112830   0.282   3.440   6.583
 3977SOL    HW212831   0.351   3.553   6.678
 3978SOL     OW12832   6.935   4.509   3.950
 3978SOL    HW112833   6.995   4.487   3.873
 3978SOL    HW212834   6.953   4.445   4.025
 3979SOL     OW12835   3.347   0.171   6.322
 3979SOL    HW112836   3.301   0.093   6.364
 3979SOL    HW212837   3.331   0.253   6.376
 3980SOL     OW12838   5.770   6.442   6.180
 3980SOL    HW112839   5.792   6.522   6.124
 3980SOL    HW212840   5.805   6.359   6.135
 3981SOL     OW12841   4.914   6.671   0.313
 3981SOL    HW112842   4.942   6.575   0.317
 3981SOL    HW212843   4.982   6.727   0.359
 3982SOL     OW12844   2.581   6.649   2.843
 3982SOL    HW112845   2.553   6.730   2.791
 3982SOL    HW212846   2.669   6.667   2.887
 3983SOL     OW12847   4.523   5.704   3.658
 3983SOL    HW112848   4.569   5.764   3.592
 3983SOL    HW212849   4.425   5.701   3.639
 3984SOL     OW12850   6.566   2.307   2.655
 3984SOL    HW112851   6.477   2.260   2.649
 3984SOL    HW212852   6.550   2.405   2.666
 3985SOL     OW12853   3.100   5.591   6.164
 3985SOL    HW112854   3.055   5.502   6.178
 3985SOL    HW212855   3.056   5.660   6.221
 3986SOL     OW12856   5.376   1.049   1.843
 3986SOL    HW112857   5.435   1.073   1.767
 3986SOL    HW212858   5.403   1.100   1.924
 3987SOL     OW12859   3.173   4.736   5.493
 3987SOL    HW112860   3.170   4.715   5.395
 3987SOL    HW212861   3.081   4.732   5.531
 3988SOL     OW12862   4.516   5.476   0.263
 3988SOL    HW112863   4.483   5.530   0.185
 3988SOL    HW212864   4.438   5.441   0.314
 3989SOL     OW12865   6.611   2.129   6.952
 3989SOL    HW112866   6.572   2.184   6.878
 3989SOL    HW212867   6.594   2.175   0.020
 3990SOL     OW12868   5.280   2.505   1.820
 3990SOL    HW112869   5.193   2.522   1.865
 3990SOL    HW212870   5.353   2.550   1.872
 3991SOL     OW12871   0.223   0.735   3.302
 3991SOL    HW112872   0.271   0.662   3.350
 3991SOL    HW212873   0.288   0.805   3.274
 3992SOL     OW12874   2.893   2.638   1.253
 3992SOL    HW112875   2.991   2.618   1.263
 3992SOL    HW212876   2.843   2.597   1.329
 3993SOL     OW12877   1.573   3.455   1.524
 3993SOL    HW112878   1.571   3.369   1.575
 3993SOL    HW212879   1.497   3.513   1.553
 3994SOL     OW12880   2.895   6.944   5.538
 3994SOL    HW112881   2.957   6.942   5.459
 3994SOL    HW212882   2.866   0.019   5.555
 3995SOL     OW12883   1.360   2.976   4.827
 3995SOL    HW112884   1.423   2.996   4.903
 3995SOL    HW212885   1.400   3.009   4.742
 3996SOL     OW12886   0.192   6.608   4.785
 3996SOL    HW112887   0.221   6.562   4.870
 3996SOL    HW212888   0.238   6.696   4.778
 3997SOL     OW12889   5.883   0.642   4.816
 3997SOL    HW112890   5.813   0.656   4.747
 3997SOL    HW212891   5.873   0.709   4.889
 3998SOL     OW12892   4.345   2.435   3.723
 3998SOL    HW112893   4.395   2.348   3.723
 3998SOL    HW212894   4.409   2.510   3.735
 3999SOL     OW12895   6.179   1.769   5.019
 3999SOL    HW112896   6.248   1.704   5.051
 3999SOL    HW212897   6.221   1.858   5.004
 4000SOL     OW12898   3.746   0.118   3.519
 4000SOL    HW112899   3.803   0.113   3.600
 4000SOL    HW212900   3.734   0.026   3.481
 4001SOL     OW12901   0.734   2.333   3.098
 4001SOL    HW112902   0.686   2.342   3.185
 4001SOL    HW212903   0.727   2.238   3.066
 4002SOL     OW12904   2.018   3.609   1.927
 4002SOL    HW112905   1.963   3.543   1.877
 4002SOL    HW212906   2.109   3.570   1.944
 4003SOL     OW12907   3.420   1.005   4.700
 4003SOL    HW112908   3.413   1.076   4.769
 4003SOL    HW212909   3.482   1.034   4.627
 4004SOL     OW12910   6.644   1.885   5.226
 4004SOL    HW112911   6.707   1.817   5.263
 4004SOL    HW212912   6.550   1.850   5.232
 4005SOL     OW12913   5.228   5.052   6.148
 4005SOL    HW112914   5.296   4.982   6.172
 4005SOL    HW212915   5.272   5.124   6.094
 4006SOL     OW12916   3.669   5.691   2.144
 4006SOL    HW112917   3.605   5.639   2.201
 4006SOL    HW212918   3.627   5.711   2.056
 4007SOL     OW12919   6.519   2.180   6.533
 4007SOL    HW112920   6.566   2.100   6.569
 4007SOL    HW212921   6.587   2.253   6.516
 4008SOL     OW12922   2.648   2.402   5.350
 4008SOL    HW112923   2.646   2.502   5.355
 4008SOL    HW212924   2.639   2.364   5.442
 4009SOL     OW12925   4.132   3.327   2.406
 4009SOL    HW112926   4.141   3.312   2.505
 4009SOL    HW212927   4.061   3.267   2.369
 4010SOL     OW12928   2.305   3.117   6.655
 4010SOL    HW112929   2.373   3.106   6.728
 4010SOL    HW212930   2.214   3.127   6.695
 4011SOL     OW12931   0.882   2.071   1.100
 4011SOL    HW112932   0.870   2.164   1.133
 4011SOL    HW212933   0.907   2.072   1.003
 4012SOL     OW12934   6.681   3.664   3.891
 4012SOL    HW112935   6.695   3.761   3.909
 4012SOL    HW212936   6.768   3.622   3.862
 4013SOL     OW12937   4.636   2.527   3.413
 4013SOL    HW112938   4.544   2.497   3.435
 4013SOL    HW212939   4.635   2.575   3.325
 4014SOL     OW12940   5.434   5.842   2.698
 4014SOL    HW112941   5.502   5.818   2.766
 4014SOL    HW212942   5.478   5.888   2.621
 4015SOL     OW12943   4.884   3.681   6.502
 4015SOL    HW112944   4.980   3.656   6.489
 4015SOL    HW212945   4.866   3.769   6.457
 4016SOL     OW12946   3.237   6.292   5.224
 4016SOL    HW112947   3.336   6.306   5.217
 4016SOL    HW212948   3.206   6.320   5.315
 4017SOL     OW12949   6.652   5.933   6.923
 4017SOL    HW112950   6.728   5.871   6.947
 4017SOL    HW212951   6.630   5.921   6.826
 4018SOL     OW12952   2.787   6.087   1.032
 4018SOL    HW112953   2.733   6.159   1.075
 4018SOL    HW212954   2.733   6.003   1.028
 4019SOL     OW12955   5.555   4.966   3.471
 4019SOL    HW112956   5.628   5.021   3.511
 4019SOL    HW212957   5.521   5.011   3.389
 4020SOL     OW12958   5.423   2.050   5.122
 4020SOL    HW112959   5.516   2.025   5.097
 4020SOL    HW212960   5.415   2.150   5.125
 4021SOL     OW12961   3.716   4.574   6.533
 4021SOL    HW112962   3.767   4.616   6.609
 4021SOL    HW212963   3.637   4.632   6.511
 4022SOL     OW12964   5.151   0.504   1.421
 4022SOL    HW112965   5.150   0.594   1.378
 4022SOL    HW212966   5.208   0.506   1.503
 4023SOL     OW12967   0.030   0.625   5.702
 4023SOL    HW112968   0.035   0.525   5.708
 4023SOL    HW212969   6.985   0.651   5.631
 4024SOL     OW12970   3.674   4.940   4.399
 4024SOL    HW112971   3.683   4.921   4.497
 4024SOL    HW212972   3.762   4.924   4.354
 4025SOL     OW12973   1.670   4.490   2.797
 4025SOL    HW112974   1.737   4.432   2.752
 4025SOL    HW212975   1.612   4.435   2.857
 4026SOL     OW12976   5.263   6.475   4.127
 4026SOL    HW112977   5.298   6.441   4.215
 4026SOL    HW212978   5.334   6.528   4.081
 4027SOL     OW12979   4.253   5.453   1.744
 4027SOL    HW112980   4.221   5.526   1.804
 4027SOL    HW212981   4.299   5.492   1.665
 4028SOL     OW12982   2.700   6.900   4.078
 4028SOL    HW112983   2.640   6.980   4.081
 4028SOL    HW212984   2.792   6.927   4.106
 4029SOL     OW12985   2.281   4.095   4.112
 4029SOL    HW112986   2.229   4.075   4.194
 4029SOL    HW212987   2.311   4.191   4.113
 4030SOL     OW12988   1.165   1.388   6.044
 4030SOL    HW112989   1.073   1.401   6.081
 4030SOL    HW212990   1.171   1.429   5.953
 4031SOL     OW12991   4.896   5.484   4.654
 4031SOL    HW112992   4.979   5.516   4.699
 4031SOL    HW212993   4.915   5.399   4.604
 4032SOL     OW12994   5.222   7.003   4.616
 4032SOL    HW112995   5.238   6.971   4.523
 4032SOL    HW212996   5.261   0.076   4.627
 4033SOL     OW12997   3.207   3.655   5.094
 4033SOL    HW112998   3.276   3.727   5.083
 4033SOL    HW212999   3.117   3.698   5.101
 4034SOL     OW13000   6.367   2.366   3.905
 4034SOL    HW113001   6.376   2.459   3.869
 4034SOL    HW213002   6.455   2.320   3.901
 4035SOL     OW13003   0.250   5.612   0.942
 4035SOL    HW113004   0.254   5.515   0.964
 4035SOL    HW213005   0.331   5.658   0.979
 4036SOL     OW13006   6.583   6.460   3.295
 4036SOL    HW113007   6.627   6.467   3.206
 4036SOL    HW213008   6.494   6.505   3.292
 4037SOL     OW13009   6.642   4.625   6.055
 4037SOL    HW113010   6.706   4.701   6.057
 4037SOL    HW213011   6.675   4.551   6.114
 4038SOL     OW13012   6.466   4.911   4.013
 4038SOL    HW113013   6.446   4.928   3.917
 4038SOL    HW213014   6.561   4.934   4.032
 4039SOL     OW13015   4.524   5.656   0.573
 4039SOL    HW113016   4.511   5.560   0.600
 4039SOL    HW213017   4.529   5.713   0.654
 4040SOL     OW13018   3.933   6.199   1.155
 4040SOL    HW113019   3.994   6.169   1.081
 4040SOL    HW213020   3.969   6.283   1.195
 4041SOL     OW13021   1.446   0.074   3.561
 4041SOL    HW113022   1.431   0.171   3.579
 4041SOL    HW213023   1.544   0.054   3.568
 4042SOL     OW13024   6.010   5.141   2.505
 4042SOL    HW113025   6.065   5.166   2.585
 4042SOL    HW213026   5.974   5.049   2.516
 4043SOL     OW13027   6.168   3.568   2.003
 4043SOL    HW113028   6.164   3.475   2.042
 4043SOL    HW213029   6.259   3.607   2.020
 4044SOL     OW13030   6.920   6.054   3.528
 4044SOL    HW113031   6.889   6.095   3.441
 4044SOL    HW213032   6.853   5.987   3.559
 4045SOL     OW13033   2.058   4.834   5.499
 4045SOL    HW113034   2.073   4.932   5.490
 4045SOL    HW213035   2.096   4.801   5.586
 4046SOL     OW13036   0.557   2.996   0.884
 4046SOL    HW113037   0.524   3.019   0.792
 4046SOL    HW213038   0.601   3.076   0.924
 4047SOL     OW13039   3.059   4.102   1.667
 4047SOL    HW113040   3.116   4.089   1.748
 4047SOL    HW213041   2.998   4.024   1.656
 4048SOL     OW13042   4.792   1.993   0.939
 4048SOL    HW113043   4.888   2.019   0.929
 4048SOL    HW213044   4.735   2.053   0.883
 4049SOL     OW13045   6.773   1.070   5.782
 4049SOL    HW113046   6.783   0.977   5.818
 4049SOL    HW213047   6.860   1.100   5.745
 4050SOL     OW13048   2.128   0.359   1.476
 4050SOL    HW113049   2.141   0.270   1.430
 4050SOL    HW213050   2.216   0.392   1.510
 4051SOL     OW13051   1.852   4.253   1.085
 4051SOL    HW113052   1.874   4.164   1.125
 4051SOL    HW213053   1.755   4.256   1.061
 4052SOL     OW13054   1.496   6.396   1.626
 4052SOL    HW113055   1.543   6.312   1.652
 4052SOL    HW213056   1.543   6.438   1.549
 4053SOL     OW13057   3.114   4.866   3.273
 4053SOL    HW113058   3.042   4.907   3.329
 4053SOL    HW213059   3.202   4.873   3.320
 4054SOL     OW13060   5.267   1.886   6.881
 4054SOL    HW113061   5.303   1.976   6.858
 4054SOL    HW213062   5.307   1.855   6.968
 4055SOL     OW13063   4.406   2.668   0.645
 4055SOL    HW113064   4.336   2.646   0.576
 4055SOL    HW213065   4.471   2.734   0.608
 4056SOL     OW13066   3.893   3.070   1.105
 4056SOL    HW113067   3.819   3.125   1.067
 4056SOL    HW213068   3.861   2.976   1.117
 4057SOL     OW13069   6.405   2.443   0.075
 4057SOL    HW113070   6.307   2.442   0.057
 4057SOL    HW213071   6.422   2.437   0.173
 4058SOL     OW13072   1.774   0.939   4.893
 4058SOL    HW113073   1.753   1.025   4.846
 4058SOL    HW213074   1.718   0.931   4.975
 4059SOL     OW13075   6.097   1.422   4.851
 4059SOL    HW113076   6.109   1.519   4.830
 4059SOL    HW213077   6.001   1.406   4.877
 4060SOL     OW13078   3.817   6.234   4.941
 4060SOL    HW113079   3.896   6.250   4.881
 4060SOL    HW213080   3.823   6.141   4.979
 4061SOL     OW13081   2.536   3.038   1.684
 4061SOL    HW113082   2.616   2.997   1.641
 4061SOL    HW213083   2.546   3.138   1.687
 4062SOL     OW13084   3.883   6.336   3.100
 4062SOL    HW113085   3.979   6.363   3.095
 4062SOL    HW213086   3.825   6.417   3.098
 4063SOL     OW13087   2.511   5.323   6.226
 4063SOL    HW113088   2.579   5.254   6.253
 4063SOL    HW213089   2.420   5.282   6.226
 4064SOL     OW13090   6.282   0.321   4.366
 4064SOL    HW113091   6.303   0.369   4.280
 4064SOL    HW213092   6.210   0.369   4.414
 4065SOL     OW13093   6.135   5.000   0.198
 4065SOL    HW113094   6.187   4.959   0.272
 4065SOL    HW213095   6.109   5.093   0.222
 4066SOL     OW13096   6.314   4.969   2.121
 4066SOL    HW113097   6.236   4.921   2.081
 4066SOL    HW213098   6.296   5.067   2.120
 4067SOL     OW13099   6.038   0.631   1.525
 4067SOL    HW113100   5.994   0.657   1.439
 4067SOL    HW213101   6.132   0.665   1.526
 4068SOL     OW13102   5.655   1.101   4.561
 4068SOL    HW113103   5.687   1.018   4.517
 4068SOL    HW213104   5.591   1.149   4.500
 4069SOL     OW13105   6.681   5.790   1.384
 4069SOL    HW113106   6.735   5.707   1.376
 4069SOL    HW213107   6.716   5.847   1.458
 4070SOL     OW13108   0.296   3.760   2.964
 4070SOL    HW113109   0.256   3.735   3.052
 4070SOL    HW213110   0.395   3.765   2.973
 4071SOL     OW13111   2.550   0.576   3.723
 4071SOL    HW113112   2.648   0.572   3.702
 4071SOL    HW213113   2.533   0.525   3.808
 4072SOL     OW13114   0.859   0.268   4.345
 4072SOL    HW113115   0.833   0.290   4.251
 4072SOL    HW213116   0.927   0.195   4.345
 4073SOL     OW13117   3.382   5.206   1.498
 4073SOL    HW113118   3.307   5.225   1.436
 4073SOL    HW213119   3.413   5.112   1.486
 4074SOL     OW13120   0.788   2.996   0.591
 4074SOL    HW113121   0.723   2.995   0.515
 4074SOL    HW213122   0.755   2.937   0.664
 4075SOL     OW13123   5.064   0.708   3.871
 4075SOL    HW113124   5.140   0.643   3.879
 4075SOL    HW213125   4.983   0.669   3.914
 4076SOL     OW13126   1.483   2.343   3.149
 4076SOL    HW113127   1.443   2.337   3.058
 4076SOL    HW213128   1.420   2.391   3.210
 4077SOL     OW13129   2.692   1.139   0.894
 4077SOL    HW113130   2.790   1.162   0.889
 4077SOL    HW213131   2.663   1.142   0.989
 4078SOL     OW13132   5.295   4.110   2.411
 4078SOL    HW113133   5.244   4.149   2.488
 4078SOL    HW213134   5.392   4.106   2.434
 4079SOL     OW13135   6.311   0.761   4.246
 4079SOL    HW113136   6.403   0.733   4.271
 4079SOL    HW213137   6.264   0.797   4.327
 4080SOL     OW13138   3.502   3.062   2.763
 4080SOL    HW113139   3.439   3.022   2.697
 4080SOL    HW213140   3.465   3.150   2.795
 4081SOL     OW13141   2.394   2.666   6.586
 4081SOL    HW113142   2.420   2.592   6.648
 4081SOL    HW213143   2.416   2.640   6.492
 4082SOL     OW13144   1.369   2.394   5.674
 4082SOL    HW113145   1.308   2.323   5.707
 4082SOL    HW213146   1.445   2.353   5.623
 4083SOL     OW13147   6.059   5.409   3.026
 4083SOL    HW113148   6.071   5.463   3.109
 4083SOL    HW213149   6.047   5.312   3.051
 4084SOL     OW13150   4.569   0.703   2.289
 4084SOL    HW113151   4.583   0.611   2.325
 4084SOL    HW213152   4.504   0.700   2.213
 4085SOL     OW13153   2.831   4.801   2.521
 4085SOL    HW113154   2.796   4.778   2.430
 4085SOL    HW213155   2.931   4.805   2.518
 4086SOL     OW13156   6.550   4.732   4.770
 4086SOL    HW113157   6.587   4.639   4.776
 4086SOL    HW213158   6.597   4.791   4.836
 4087SOL     OW13159   1.878   0.194   1.836
 4087SOL    HW113160   1.842   0.249   1.912
 4087SOL    HW213161   1.966   0.154   1.862
 4088SOL     OW13162   6.918   2.311   5.700
 4088SOL    HW113163   6.948   2.236   5.759
 4088SOL    HW213164   6.997   2.347   5.650
 4089SOL     OW13165   0.926   0.942   2.678
 4089SOL    HW113166   0.864   0.864   2.681
 4089SOL    HW213167   0.877   1.021   2.638
 4090SOL     OW13168   2.418   2.670   5.710
 4090SOL    HW113169   2.397   2.763   5.680
 4090SOL    HW213170   2.356   2.606   5.665
 4091SOL     OW13171   3.619   5.756   1.875
 4091SOL    HW113172   3.566   5.686   1.828
 4091SOL    HW213173   3.620   5.840   1.821
 4092SOL     OW13174   4.915   2.353   5.933
 4092SOL    HW113175   4.982   2.281   5.923
 4092SOL    HW213176   4.961   2.438   5.961
 4093SOL     OW13177   5.529   4.256   3.617
 4093SOL    HW113178   5.538   4.157   3.626
 4093SOL    HW213179   5.562   4.301   3.700
 4094SOL     OW13180   0.477   6.069   6.975
 4094SOL    HW113181   0.453   6.094   0.049
 4094SOL    HW213182   0.498   6.151   6.922
 4095SOL     OW13183   1.162   5.200   0.782
 4095SOL    HW113184   1.122   5.282   0.740
 4095SOL    HW213185   1.092   5.131   0.793
 4096SOL     OW13186   0.797   0.464   6.537
 4096SOL    HW113187   0.874   0.484   6.475
 4096SOL    HW213188   0.716   0.444   6.483
 4097SOL     OW13189   6.532   4.058   4.762
 4097SOL    HW113190   6.465   4.051   4.687
 4097SOL    HW213191   6.562   3.967   4.789
 4098SOL     OW13192   0.691   5.048   1.682
 4098SOL    HW113193   0.629   5.011   1.750
 4098SOL    HW213194   0.723   5.138   1.712
 4099SOL     OW13195   6.288   3.730   5.549
 4099SOL    HW113196   6.240   3.657   5.501
 4099SOL    HW213197   6.361   3.690   5.605
 4100SOL     OW13198   1.955   2.048   2.905
 4100SOL    HW113199   2.049   2.016   2.920
 4100SOL    HW213200   1.922   2.094   2.987
 4101SOL     OW13201   6.486   5.510   0.003
 4101SOL    HW113202   6.485   5.506   0.103
 4101SOL    HW213203   6.576   5.486   6.988
 4102SOL     OW13204   1.094   6.038   0.513
 4102SOL    HW113205   1.054   6.058   0.423
 4102SOL    HW213206   1.089   6.119   0.571
 4103SOL     OW13207   1.996   6.527   3.185
 4103SOL    HW113208   1.993   6.474   3.269
 4103SOL    HW213209   2.046   6.612   3.200
 4104SOL     OW13210   1.877   5.962   5.124
 4104SOL    HW113211   1.946   5.921   5.183
 4104SOL    HW213212   1.865   5.905   5.043
 4105SOL     OW13213   4.324   0.709   2.566
 4105SOL    HW113214   4.376   0.771   2.625
 4105SOL    HW213215   4.366   0.618   2.570
 4106SOL     OW13216   1.265   0.645   2.617
 4106SOL    HW113217   1.244   0.637   2.519
 4106SOL    HW213218   1.363   0.631   2.632
 4107SOL     OW13219   1.428   0.701   1.189
 4107SOL    HW113220   1.471   0.723   1.102
 4107SOL    HW213221   1.497   0.672   1.255
 4108SOL     OW13222   6.230   6.149   5.782
 4108SOL    HW113223   6.265   6.059   5.754
 4108SOL    HW213224   6.291   6.188   5.851
 4109SOL     OW13225   5.485   6.197   4.039
 4109SOL    HW113226   5.473   6.264   3.967
 4109SOL    HW213227   5.400   6.188   4.091
 4110SOL     OW13228   5.246   2.800   0.391
 4110SOL    HW113229   5.257   2.703   0.369
 4110SOL    HW213230   5.170   2.838   0.338
 4111SOL     OW13231   5.896   4.707   4.354
 4111SOL    HW113232   5.834   4.785   4.364
 4111SOL    HW213233   5.947   4.694   4.439
 4112SOL     OW13234   4.028   6.030   4.226
 4112SOL    HW113235   4.000   6.092   4.299
 4112SOL    HW213236   3.947   6.001   4.174
 4113SOL     OW13237   4.070   5.612   4.513
 4113SOL    HW113238   4.002   5.539   4.505
 4113SOL    HW213239   4.136   5.603   4.439
 4114SOL     OW13240   0.218   0.982   1.649
 4114SOL    HW113241   0.297   1.015   1.700
 4114SOL    HW213242   0.179   0.903   1.696
 4115SOL     OW13243   4.571   5.986   3.838
 4115SOL    HW113244   4.530   6.047   3.769
 4115SOL    HW213245   4.513   5.906   3.850
 4116SOL     OW13246   5.120   3.564   3.079
 4116SOL    HW113247   5.199   3.550   3.019
 4116SOL    HW213248   5.036   3.541   3.029
 4117SOL     OW13249   1.390   0.944   3.722
 4117SOL    HW113250   1.294   0.966   3.739
 4117SOL    HW213251   1.425   1.001   3.648
 4118SOL     OW13252   0.916   6.552   0.496
 4118SOL    HW113253   0.864   6.507   0.567
 4118SOL    HW213254   0.890   6.515   0.407
 4119SOL     OW13255   0.342   0.603   4.534
 4119SOL    HW113256   0.309   0.669   4.602
 4119SOL    HW213257   0.283   0.523   4.534
 4120SOL     OW13258   2.395   1.196   6.323
 4120SOL    HW113259   2.465   1.129   6.295
 4120SOL    HW213260   2.333   1.154   6.389
 4121SOL     OW13261   6.783   0.661   2.338
 4121SOL    HW113262   6.740   0.648   2.427
 4121SOL    HW213263   6.754   0.749   2.299
 4122SOL     OW13264   0.648   4.777   2.874
 4122SOL    HW113265   0.558   4.736   2.862
 4122SOL    HW213266   0.675   4.770   2.971
 4123SOL     OW13267   4.901   4.344   1.150
 4123SOL    HW113268   4.893   4.442   1.130
 4123SOL    HW213269   4.908   4.330   1.249
 4124SOL     OW13270   6.300   6.248   0.025
 4124SOL    HW113271   6.315   6.150   0.019
 4124SOL    HW213272   6.268   6.271   0.117
 4125SOL     OW13273   6.589   2.831   0.380
 4125SOL    HW113274   6.610   2.762   0.449
 4125SOL    HW213275   6.601   2.791   0.289
 4126SOL     OW13276   0.646   3.404   3.917
 4126SOL    HW113277   0.564   3.360   3.878
 4126SOL    HW213278   0.620   3.492   3.957
 4127SOL     OW13279   4.908   2.193   3.875
 4127SOL    HW113280   4.992   2.187   3.930
 4127SOL    HW213281   4.835   2.144   3.921
 4128SOL     OW13282   6.734   2.758   6.555
 4128SOL    HW113283   6.679   2.688   6.601
 4128SOL    HW213284   6.768   2.824   6.623
 4129SOL     OW13285   3.473   1.798   1.309
 4129SOL    HW113286   3.528   1.755   1.380
 4129SOL    HW213287   3.397   1.849   1.351
 4130SOL     OW13288   6.215   3.024   0.395
 4130SOL    HW113289   6.232   2.948   0.458
 4130SOL    HW213290   6.303   3.062   0.365
 4131SOL     OW13291   5.499   0.262   3.256
 4131SOL    HW113292   5.550   0.215   3.328
 4131SOL    HW213293   5.487   0.358   3.280
 4132SOL     OW13294   6.500   5.172   3.226
 4132SOL    HW113295   6.581   5.114   3.222
 4132SOL    HW213296   6.478   5.192   3.321
 4133SOL     OW13297   5.618   6.845   2.687
 4133SOL    HW113298   5.518   6.844   2.683
 4133SOL    HW213299   5.648   6.801   2.771
 4134SOL     OW13300   1.657   3.452   1.117
 4134SOL    HW113301   1.598   3.523   1.078
 4134SOL    HW213302   1.689   3.481   1.207
 4135SOL     OW13303   6.302   1.114   1.199
 4135SOL    HW113304   6.230   1.056   1.236
 4135SOL    HW213305   6.359   1.061   1.136
 4136SOL     OW13306   0.407   4.683   0.951
 4136SOL    HW113307   0.482   4.686   1.018
 4136SOL    HW213308   0.320   4.682   1.000
 4137SOL     OW13309   0.731   2.694   6.514
 4137SOL    HW113310   0.662   2.629   6.545
 4137SOL    HW213311   0.809   2.645   6.476
 4138SOL     OW13312   4.214   0.065   6.829
 4138SOL    HW113313   4.285   0.034   6.766
 4138SOL    HW213314   4.185   0.158   6.804
 4139SOL     OW13315   2.198   3.918   2.838
 4139SOL    HW113316   2.182   3.822   2.816
 4139SOL    HW213317   2.166   3.975   2.762
 4140SOL     OW13318   2.350   0.404   6.794
 4140SOL    HW113319   2.394   0.443   6.875
 4140SOL    HW213320   2.405   0.426   6.713
 4141SOL     OW13321   5.083   0.847   6.254
 4141SOL    HW113322   5.074   0.946   6.242
 4141SOL    HW213323   5.129   0.808   6.175
 4142SOL     OW13324   6.342   4.849   2.545
 4142SOL    HW113325   6.396   4.802   2.615
 4142SOL    HW213326   6.323   4.786   2.470
 4143SOL     OW13327   6.189   3.743   6.333
 4143SOL    HW113328   6.210   3.719   6.238
 4143SOL    HW213329   6.215   3.666   6.392
 4144SOL     OW13330   4.808   1.564   1.571
 4144SOL    HW113331   4.752   1.509   1.633
 4144SOL    HW213332   4.859   1.632   1.623
 4145SOL     OW13333   6.594   0.552   1.635
 4145SOL    HW113334   6.538   0.513   1.709
 4145SOL    HW213335   6.674   0.494   1.620
 4146SOL     OW13336   4.920   0.032   1.293
 4146SOL    HW113337   4.885   0.020   1.200
 4146SOL    HW213338   4.937   0.129   1.309
 4147SOL     OW13339   4.685   4.920   6.913
 4147SOL    HW113340   4.594   4.962   6.913
 4147SOL    HW213341   4.682   4.834   6.964
 4148SOL     OW13342   2.955   1.432   5.384
 4148SOL    HW113343   2.901   1.358   5.344
 4148SOL    HW213344   2.902   1.516   5.383
 4149SOL     OW13345   1.257   3.699   6.497
 4149SOL    HW113346   1.297   3.790   6.505
 4149SOL    HW213347   1.330   3.630   6.501
 4150SOL     OW13348   5.542   1.403   0.179
 4150SOL    HW113349   5.534   1.374   0.084
 4150SOL    HW213350   5.514   1.498   0.188
 4151SOL     OW13351   2.530   5.681   4.902
 4151SOL    HW113352   2.474   5.640   4.831
 4151SOL    HW213353   2.529   5.780   4.893
 4152SOL     OW13354   2.780   4.576   1.222
 4152SOL    HW113355   2.730   4.557   1.137
 4152SOL    HW213356   2.741   4.522   1.296
 4153SOL     OW13357   6.594   5.828   1.871
 4153SOL    HW113358   6.519   5.886   1.905
 4153SOL    HW213359   6.678   5.882   1.866
 4154SOL     OW13360   0.921   6.749   4.058
 4154SOL    HW113361   0.935   6.715   4.150
 4154SOL    HW213362   0.978   6.698   3.994
 4155SOL     OW13363   0.044   0.530   1.836
 4155SOL    HW113364   0.140   0.518   1.862
 4155SOL    HW213365   7.012   0.563   1.915
 4156SOL     OW13366   0.320   5.042   5.976
 4156SOL    HW113367   0.259   5.007   6.048
 4156SOL    HW213368   0.323   4.978   5.900
 4157SOL     OW13369   5.821   5.830   1.146
 4157SOL    HW113370   5.808   5.746   1.094
 4157SOL    HW213371   5.743   5.891   1.130
 4158SOL     OW13372   0.779   2.954   1.192
 4158SOL    HW113373   0.840   2.917   1.122
 4158SOL    HW213374   0.826   3.027   1.242
 4159SOL     OW13375   2.903   0.643   4.461
 4159SOL    HW113376   2.936   0.600   4.377
 4159SOL    HW213377   2.970   0.711   4.492
 4160SOL     OW13378   0.703   6.593   6.272
 4160SOL    HW113379   0.794   6.580   6.310
 4160SOL    HW213380   0.663   6.504   6.249
 4161SOL     OW13381   3.235   3.370   2.892
 4161SOL    HW113382   3.187   3.334   2.812
 4161SOL    HW213383   3.253   3.296   2.957
 4162SOL     OW13384   5.232   5.232   1.495
 4162SOL    HW113385   5.248   5.160   1.563
 4162SOL    HW213386   5.253   5.197   1.404
 4163SOL     OW13387   4.130   6.139   1.909
 4163SOL    HW113388   4.049   6.158   1.852
 4163SOL    HW213389   4.211   6.179   1.865
 4164SOL     OW13390   6.717   1.277   6.164
 4164SOL    HW113391   6.732   1.186   6.126
 4164SOL    HW213392   6.778   1.343   6.120
 4165SOL     OW13393   3.860   1.191   4.548
 4165SOL    HW113394   3.854   1.282   4.507
 4165SOL    HW213395   3.904   1.197   4.637
 4166SOL     OW13396   6.012   2.151   1.124
 4166SOL    HW113397   5.986   2.223   1.188
 4166SOL    HW213398   6.098   2.175   1.079
 4167SOL     OW13399   3.927   5.387   4.525
 4167SOL    HW113400   3.979   5.302   4.515
 4167SOL    HW213401   3.859   5.376   4.597
 4168SOL     OW13402   4.713   3.698   0.378
 4168SOL    HW113403   4.785   3.637   0.410
 4168SOL    HW213404   4.624   3.651   0.385
 4169SOL     OW13405   5.478   2.717   6.068
 4169SOL    HW113406   5.525   2.678   5.989
 4169SOL    HW213407   5.543   2.728   6.143
 4170SOL     OW13408   0.552   2.359   5.102
 4170SOL    HW113409   0.573   2.457   5.104
 4170SOL    HW213410   0.579   2.322   5.013
 4171SOL     OW13411   0.894   1.733   6.790
 4171SOL    HW113412   0.847   1.709   6.875
 4171SOL    HW213413   0.978   1.679   6.782
 4172SOL     OW13414   2.957   3.279   0.701
 4172SOL    HW113415   2.980   3.188   0.665
 4172SOL    HW213416   2.896   3.269   0.779
 4173SOL     OW13417   5.003   1.706   6.319
 4173SOL    HW113418   4.991   1.782   6.255
 4173SOL    HW213419   4.914   1.663   6.337
 4174SOL     OW13420   4.559   0.067   4.528
 4174SOL    HW113421   4.552   0.071   4.428
 4174SOL    HW213422   4.620   0.140   4.560
 4175SOL     OW13423   1.023   4.163   6.682
 4175SOL    HW113424   1.084   4.151   6.604
 4175SOL    HW213425   0.967   4.245   6.668
 4176SOL     OW13426   5.353   6.534   6.343
 4176SOL    HW113427   5.270   6.550   6.396
 4176SOL    HW213428   5.433   6.556   6.399
 4177SOL     OW13429   4.453   4.506   2.720
 4177SOL    HW113430   4.524   4.552   2.667
 4177SOL    HW213431   4.384   4.468   2.658
 4178SOL     OW13432   4.204   5.801   1.203
 4178SOL    HW113433   4.235   5.791   1.109
 4178SOL    HW213434   4.224   5.893   1.235
 4179SOL     OW13435   4.513   3.003   6.888
 4179SOL    HW113436   4.571   2.921   6.896
 4179SOL    HW213437   4.535   3.067   6.961
 4180SOL     OW13438   4.055   3.406   0.469
 4180SOL    HW113439   4.150   3.425   0.443
 4180SOL    HW213440   4.000   3.489   0.456
 4181SOL     OW13441   5.116   6.875   5.716
 4181SOL    HW113442   5.130   6.832   5.627
 4181SOL    HW213443   5.022   6.910   5.722
 4182SOL     OW13444   0.954   6.202   5.075
 4182SOL    HW113445   1.054   6.192   5.076
 4182SOL    HW213446   0.920   6.212   5.168
 4183SOL     OW13447   4.095   1.908   0.842
 4183SOL    HW113448   4.016   1.969   0.854
 4183SOL    HW213449   4.084   1.828   0.901
 4184SOL     OW13450   3.839   5.686   3.635
 4184SOL    HW113451   3.847   5.612   3.569
 4184SOL    HW213452   3.745   5.689   3.671
 4185SOL     OW13453   4.906   3.725   3.662
 4185SOL    HW113454   4.893   3.785   3.741
 4185SOL    HW213455   4.890   3.630   3.688
 4186SOL     OW13456   1.647   5.520   0.421
 4186SOL    HW113457   1.665   5.555   0.513
 4186SOL    HW213458   1.571   5.455   0.424
 4187SOL     OW13459   1.741   3.367   6.493
 4187SOL    HW113460   1.711   3.387   6.586
 4187SOL    HW213461   1.770   3.271   6.488
 4188SOL     OW13462   4.432   0.009   6.986
 4188SOL    HW113463   4.507   0.009   6.919
 4188SOL    HW213464   4.349   0.046   6.944
 4189SOL     OW13465   4.562   5.597   3.329
 4189SOL    HW113466   4.586   5.535   3.254
 4189SOL    HW213467   4.506   5.671   3.294
 4190SOL     OW13468   6.598   6.397   1.321
 4190SOL    HW113469   6.632   6.310   1.284
 4190SOL    HW213470   6.657   6.471   1.291
 4191SOL     OW13471   4.681   3.353   6.392
 4191SOL    HW113472   4.612   3.354   6.319
 4191SOL    HW213473   4.637   3.332   6.479
 4192SOL     OW13474   1.578   3.822   0.092
 4192SOL    HW113475   1.641   3.891   0.128
 4192SOL    HW213476   1.501   3.812   0.155
 4193SOL     OW13477   0.649   0.383   0.532
 4193SOL    HW113478   0.712   0.415   0.603
 4193SOL    HW213479   0.692   0.395   0.443
 4194SOL     OW13480   5.406   1.768   5.794
 4194SOL    HW113481   5.455   1.850   5.822
 4194SOL    HW213482   5.402   1.763   5.694
 4195SOL     OW13483   3.700   0.423   0.675
 4195SOL    HW113484   3.621   0.461   0.723
 4195SOL    HW213485   3.679   0.330   0.644
 4196SOL     OW13486   6.198   2.842   2.151
 4196SOL    HW113487   6.152   2.775   2.209
 4196SOL    HW213488   6.295   2.845   2.173
 4197SOL     OW13489   3.595   0.579   6.660
 4197SOL    HW113490   3.496   0.583   6.650
 4197SOL    HW213491   3.618   0.533   6.746
 4198SOL     OW13492   6.193   2.539   2.311
 4198SOL    HW113493   6.149   2.518   2.224
 4198SOL    HW213494   6.288   2.507   2.310
 4199SOL     OW13495   0.156   3.911   6.180
 4199SOL    HW113496   0.208   3.966   6.114
 4199SOL    HW213497   0.058   3.919   6.162
 4200SOL     OW13498   4.732   1.471   3.964
 4200SOL    HW113499   4.727   1.564   4.000
 4200SOL    HW213500   4.671   1.461   3.886
 4201SOL     OW13501   5.787   0.139   3.757
 4201SOL    HW113502   5.761   0.165   3.850
 4201SOL    HW213503   5.837   0.214   3.714
 4202SOL     OW13504   4.471   3.748   1.552
 4202SOL    HW113505   4.434   3.815   1.616
 4202SOL    HW213506   4.566   3.772   1.531
 4203SOL     OW13507   6.123   4.439   5.169
 4203SOL    HW113508   6.125   4.368   5.098
 4203SOL    HW213509   6.086   4.524   5.130
 4204SOL     OW13510   1.693   3.814   6.564
 4204SOL    HW113511   1.748   3.864   6.498
 4204SOL    HW213512   1.700   3.857   6.654
 4205SOL     OW13513   4.390   6.700   6.609
 4205SOL    HW113514   4.380   6.609   6.649
 4205SOL    HW213515   4.357   6.699   6.515
 4206SOL     OW13516   1.828   2.253   4.461
 4206SOL    HW113517   1.890   2.215   4.393
 4206SOL    HW213518   1.808   2.348   4.439
 4207SOL     OW13519   0.581   1.773   2.183
 4207SOL    HW113520   0.522   1.726   2.117
 4207SOL    HW213521   0.629   1.706   2.240
 4208SOL     OW13522   2.303   2.243   3.861
 4208SOL    HW113523   2.256   2.251   3.773
 4208SOL    HW213524   2.343   2.152   3.870
 4209SOL     OW13525   6.055   6.151   2.026
 4209SOL    HW113526   6.069   6.090   1.948
 4209SOL    HW213527   5.983   6.114   2.085
 4210SOL     OW13528   3.101   4.049   4.781
 4210SOL    HW113529   3.084   4.037   4.879
 4210SOL    HW213530   3.021   4.020   4.729
 4211SOL     OW13531   4.137   2.636   5.415
 4211SOL    HW113532   4.205   2.653   5.345
 4211SOL    HW213533   4.175   2.575   5.485
 4212SOL     OW13534   6.915   1.633   3.282
 4212SOL    HW113535   6.950   1.542   3.260
 4212SOL    HW213536   6.828   1.625   3.330
 4213SOL     OW13537   3.039   0.429   4.341
 4213SOL    HW113538   3.092   0.413   4.424
 4213SOL    HW213539   3.099   0.462   4.268
 4214SOL     OW13540   0.021   6.269   3.183
 4214SOL    HW113541   0.013   6.267   3.283
 4214SOL    HW213542   6.951   6.288   3.143
 4215SOL     OW13543   5.715   6.965   5.643
 4215SOL    HW113544   5.796   6.977   5.701
 4215SOL    HW213545   5.647   0.015   5.666
 4216SOL     OW13546   2.506   5.532   2.134
 4216SOL    HW113547   2.489   5.614   2.188
 4216SOL    HW213548   2.448   5.532   2.053
 4217SOL     OW13549   1.428   0.266   2.756
 4217SOL    HW113550   1.468   0.231   2.841
 4217SOL    HW213551   1.497   0.263   2.683
 4218SOL     OW13552   3.045   1.491   0.214
 4218SOL    HW113553   3.078   1.443   0.296
 4218SOL    HW213554   3.116   1.551   0.179
 4219SOL     OW13555   3.746   5.421   2.650
 4219SOL    HW113556   3.729   5.322   2.653
 4219SOL    HW213557   3.762   5.449   2.555
 4220SOL     OW13558   5.459   1.789   1.137
 4220SOL    HW113559   5.386   1.833   1.190
 4220SOL    HW213560   5.429   1.698   1.108
 4221SOL     OW13561   1.214   6.150   0.819
 4221SOL    HW113562   1.272   6.137   0.739
 4221SOL    HW213563   1.160   6.233   0.808
 4222SOL     OW13564   5.093   2.994   3.654
 4222SOL    HW113565   5.152   3.015   3.733
 4222SOL    HW213566   5.000   2.979   3.686
 4223SOL     OW13567   4.061   3.786   2.320
 4223SOL    HW113568   4.090   3.698   2.282
 4223SOL    HW213569   4.052   3.779   2.419
 4224SOL     OW13570   4.443   5.145   4.483
 4224SOL    HW113571   4.389   5.102   4.554
 4224SOL    HW213572   4.400   5.130   4.394
 4225SOL     OW13573   0.947   1.697   5.943
 4225SOL    HW113574   0.970   1.780   5.994
 4225SOL    HW213575   1.032   1.650   5.917
 4226SOL     OW13576   0.696   5.669   4.906
 4226SOL    HW113577   0.710   5.654   4.808
 4226SOL    HW213578   0.777   5.715   4.944
 4227SOL     OW13579   4.466   5.965   2.005
 4227SOL    HW113580   4.432   6.052   2.040
 4227SOL    HW213581   4.419   5.890   2.052
 4228SOL     OW13582   1.214   5.190   3.864
 4228SOL    HW113583   1.180   5.239   3.783
 4228SOL    HW213584   1.304   5.227   3.889
 4229SOL     OW13585   6.203   5.523   5.823
 4229SOL    HW113586   6.167   5.616   5.837
 4229SOL    HW213587   6.128   5.457   5.830
 4230SOL     OW13588   0.044   0.865   2.096
 4230SOL    HW113589   0.020   0.774   2.063
 4230SOL    HW213590   0.062   0.861   2.195
 4231SOL     OW13591   6.758   1.377   6.427
 4231SOL    HW113592   6.704   1.459   6.447
 4231SOL    HW213593   6.715   1.326   6.352
 4232SOL     OW13594   1.486   5.266   3.968
 4232SOL    HW113595   1.437   5.342   4.012
 4232SOL    HW213596   1.518   5.203   4.038
 4233SOL     OW13597   4.397   5.608   2.057
 4233SOL    HW113598   4.342   5.649   1.984
 4233SOL    HW213599   4.344   5.607   2.142
 4234SOL     OW13600   3.172   5.295   5.871
 4234SOL    HW113601   3.087   5.249   5.897
 4234SOL    HW213602   3.153   5.390   5.848
 4235SOL     OW13603   0.223   5.839   5.927
 4235SOL    HW113604   0.195   5.857   6.021
 4235SOL    HW213605   0.303   5.895   5.905
 4236SOL     OW13606   0.478   4.944   2.686
 4236SOL    HW113607   0.560   4.915   2.736
 4236SOL    HW213608   0.503   4.964   2.591
 4237SOL     OW13609   0.525   5.002   4.150
 4237SOL    HW113610   0.427   5.010   4.135
 4237SOL    HW213611   0.569   4.970   4.067
 4238SOL     OW13612   3.599   6.577   2.484
 4238SOL    HW113613   3.650   6.520   2.420
 4238SOL    HW213614   3.557   6.653   2.435
 4239SOL     OW13615   4.450   1.278   3.877
 4239SOL    HW113616   4.415   1.306   3.966
 4239SOL    HW213617   4.483   1.358   3.828
 4240SOL     OW13618   6.170   6.598   2.022
 4240SOL    HW113619   6.250   6.639   1.978
 4240SOL    HW213620   6.160   6.636   2.114
 4241SOL     OW13621   6.108   4.009   0.441
 4241SOL    HW113622   6.131   3.975   0.532
 4241SOL    HW213623   6.116   3.935   0.374
 4242SOL     OW13624   2.852   1.616   3.642
 4242SOL    HW113625   2.936   1.642   3.595
 4242SOL    HW213626   2.809   1.698   3.680
 4243SOL     OW13627   4.861   0.616   2.884
 4243SOL    HW113628   4.910   0.588   2.967
 4243SOL    HW213629   4.767   0.639   2.908
 4244SOL     OW13630   3.607   2.954   4.017
 4244SOL    HW113631   3.513   2.921   4.024
 4244SOL    HW213632   3.663   2.885   3.972
 4245SOL     OW13633   5.608   1.287   6.455
 4245SOL    HW113634   5.677   1.260   6.388
 4245SOL    HW213635   5.536   1.341   6.411
 4246SOL     OW13636   0.267   3.416   0.262
 4246SOL    HW113637   0.304   3.506   0.238
 4246SOL    HW213638   0.342   3.355   0.288
 4247SOL     OW13639   6.776   5.666   4.946
 4247SOL    HW113640   6.737   5.730   4.880
 4247SOL    HW213641   6.865   5.699   4.977
 4248SOL     OW13642   1.952   3.544   5.311
 4248SOL    HW113643   1.887   3.506   5.246
 4248SOL    HW213644   2.041   3.554   5.267
 4249SOL     OW13645   5.467   4.279   6.064
 4249SOL    HW113646   5.521   4.357   6.095
 4249SOL    HW213647   5.427   4.300   5.974
 4250SOL     OW13648   0.916   4.433   2.999
 4250SOL    HW113649   0.943   4.373   2.923
 4250SOL    HW213650   0.990   4.498   3.017
 4251SOL     OW13651   5.496   3.797   0.721
 4251SOL    HW113652   5.427   3.788   0.650
 4251SOL    HW213653   5.452   3.808   0.810
 4252SOL     OW13654   0.538   6.073   5.382
 4252SOL    HW113655   0.602   6.000   5.360
 4252SOL    HW213656   0.458   6.067   5.322
 4253SOL     OW13657   4.118   5.868   2.895
 4253SOL    HW113658   4.051   5.823   2.955
 4253SOL    HW213659   4.088   5.961   2.877
 4254SOL     OW13660   2.945   4.316   1.265
 4254SOL    HW113661   2.851   4.340   1.291
 4254SOL    HW213662   2.962   4.348   1.172
 4255SOL     OW13663   0.204   2.097   4.555
 4255SOL    HW113664   0.287   2.134   4.596
 4255SOL    HW213665   0.226   2.055   4.467
 4256SOL     OW13666   2.029   0.697   1.685
 4256SOL    HW113667   2.006   0.624   1.750
 4256SOL    HW213668   2.045   0.782   1.736
 4257SOL     OW13669   4.023   2.168   4.655
 4257SOL    HW113670   4.100   2.222   4.689
 4257SOL    HW213671   4.054   2.109   4.580
 4258SOL     OW13672   5.030   6.779   2.506
 4258SOL    HW113673   4.975   6.846   2.456
 4258SOL    HW213674   5.112   6.823   2.542
 4259SOL     OW13675   2.179   2.940   0.600
 4259SOL    HW113676   2.170   2.840   0.603
 4259SOL    HW213677   2.228   2.967   0.517
 4260SOL     OW13678   4.614   5.853   3.434
 4260SOL    HW113679   4.708   5.882   3.452
 4260SOL    HW213680   4.614   5.785   3.360
 4261SOL     OW13681   2.087   0.937   2.813
 4261SOL    HW113682   2.108   1.034   2.824
 4261SOL    HW213683   1.987   0.925   2.813
 4262SOL     OW13684   6.973   5.771   6.480
 4262SOL    HW113685   6.928   5.861   6.484
 4262SOL    HW213686   0.035   5.772   6.538
 4263SOL     OW13687   3.686   5.168   5.933
 4263SOL    HW113688   3.652   5.084   5.977
 4263SOL    HW213689   3.756   5.144   5.866
 4264SOL     OW13690   7.006   6.932   0.498
 4264SOL    HW113691   0.031   0.000   0.478
 4264SOL    HW213692   0.057   6.862   0.509
 4265SOL     OW13693   6.858   2.577   0.271
 4265SOL    HW113694   6.791   2.555   0.343
 4265SOL    HW213695   6.900   2.666   0.292
 4266SOL     OW13696   3.202   4.912   0.908
 4266SOL    HW113697   3.287   4.861   0.920
 4266SOL    HW213698   3.130   4.870   0.963
 4267SOL     OW13699   1.725   3.996   5.767
 4267SOL    HW113700   1.792   3.973   5.837
 4267SOL    HW213701   1.758   4.072   5.712
 4268SOL     OW13702   1.322   1.210   0.500
 4268SOL    HW113703   1.320   1.228   0.401
 4268SOL    HW213704   1.322   1.296   0.549
 4269SOL     OW13705   3.352   3.709   0.433
 4269SOL    HW113706   3.405   3.682   0.353
 4269SOL    HW213707   3.254   3.704   0.412
 4270SOL     OW13708   3.833   2.608   5.639
 4270SOL    HW113709   3.907   2.616   5.705
 4270SOL    HW213710   3.772   2.533   5.666
 4271SOL     OW13711   0.938   6.979   6.964
 4271SOL    HW113712   0.860   6.985   6.901
 4271SOL    HW213713   1.011   0.021   6.931
 4272SOL     OW13714   0.062   4.089   4.129
 4272SOL    HW113715   0.068   4.099   4.228
 4272SOL    HW213716   0.004   4.010   4.107
 4273SOL     OW13717   5.963   5.903   4.878
 4273SOL    HW113718   6.000   5.992   4.852
 4273SOL    HW213719   5.883   5.915   4.937
 4274SOL     OW13720   2.365   0.239   4.305
 4274SOL    HW113721   2.344   0.172   4.377
 4274SOL    HW213722   2.280   0.269   4.262
 4275SOL     OW13723   1.130   6.940   6.715
 4275SOL    HW113724   1.221   6.916   6.682
 4275SOL    HW213725   1.069   6.861   6.707
 4276SOL     OW13726   1.970   4.247   2.072
 4276SOL    HW113727   2.054   4.291   2.100
 4276SOL    HW213728   1.939   4.286   1.985
 4277SOL     OW13729   0.912   5.341   3.734
 4277SOL    HW113730   0.956   5.368   3.820
 4277SOL    HW213731   0.821   5.382   3.729
 4278SOL     OW13732   0.448   6.444   5.513
 4278SOL    HW113733   0.358   6.407   5.489
 4278SOL    HW213734   0.509   6.434   5.434
 4279SOL     OW13735   3.407   5.504   4.214
 4279SOL    HW113736   3.357   5.560   4.280
 4279SOL    HW213737   3.471   5.445   4.262
 4280SOL     OW13738   4.959   3.309   3.654
 4280SOL    HW113739   4.936   3.387   3.713
 4280SOL    HW213740   4.922   3.324   3.563
 4281SOL     OW13741   2.392   3.796   5.378
 4281SOL    HW113742   2.413   3.861   5.304
 4281SOL    HW213743   2.293   3.787   5.386
 4282SOL     OW13744   1.259   2.289   1.068
 4282SOL    HW113745   1.228   2.332   0.983
 4282SOL    HW213746   1.267   2.357   1.140
 4283SOL     OW13747   1.991   0.564   4.438
 4283SOL    HW113748   1.935   0.624   4.381
 4283SOL    HW213749   1.957   0.470   4.432
 4284SOL     OW13750   6.346   2.113   2.652
 4284SOL    HW113751   6.327   2.061   2.569
 4284SOL    HW213752   6.265   2.165   2.678
 4285SOL     OW13753   0.848   6.100   6.059
 4285SOL    HW113754   0.870   6.055   6.145
 4285SOL    HW213755   0.907   6.063   5.986
 4286SOL     OW13756   5.566   5.365   0.125
 4286SOL    HW113757   5.530   5.421   0.051
 4286SOL    HW213758   5.662   5.389   0.142
 4287SOL     OW13759   4.737   6.456   5.148
 4287SOL    HW113760   4.651   6.423   5.110
 4287SOL    HW213761   4.783   6.382   5.197
 4288SOL     OW13762   2.218   6.818   2.821
 4288SOL    HW113763   2.129   6.778   2.798
 4288SOL    HW213764   2.274   6.825   2.738
 4289SOL     OW13765   5.895   3.461   0.822
 4289SOL    HW113766   5.874   3.432   0.728
 4289SOL    HW213767   5.861   3.554   0.836
 4290SOL     OW13768   2.033   1.043   2.402
 4290SOL    HW113769   2.030   1.103   2.322
 4290SOL    HW213770   2.065   0.953   2.375
 4291SOL     OW13771   6.021   4.627   1.026
 4291SOL    HW113772   6.038   4.534   1.058
 4291SOL    HW213773   6.010   4.628   0.927
 4292SOL     OW13774   6.116   5.568   6.439
 4292SOL    HW113775   6.044   5.510   6.401
 4292SOL    HW213776   6.172   5.514   6.502
 4293SOL     OW13777   6.923   2.694   0.004
 4293SOL    HW113778   6.908   2.646   0.090
 4293SOL    HW213779   0.002   2.700   7.005
 4294SOL     OW13780   5.053   2.326   5.534
 4294SOL    HW113781   5.059   2.425   5.541
 4294SOL    HW213782   4.963   2.295   5.566
 4295SOL     OW13783   3.886   6.563   4.848
 4295SOL    HW113784   3.928   6.487   4.799
 4295SOL    HW213785   3.873   6.640   4.785
 4296SOL     OW13786   2.289   1.690   0.810
 4296SOL    HW113787   2.335   1.740   0.883
 4296SOL    HW213788   2.211   1.640   0.847
 4297SOL     OW13789   5.542   0.766   5.976
 4297SOL    HW113790   5.549   0.670   6.003
 4297SOL    HW213791   5.547   0.774   5.877
 4298SOL     OW13792   3.099   5.533   1.560
 4298SOL    HW113793   3.149   5.617   1.539
 4298SOL    HW213794   3.080   5.484   1.475
 4299SOL     OW13795   0.443   3.994   6.626
 4299SOL    HW113796   0.413   4.019   6.534
 4299SOL    HW213797   0.451   3.894   6.632
 4300SOL     OW13798   5.873   0.406   6.674
 4300SOL    HW113799   5.841   0.477   6.738
 4300SOL    HW213800   5.973   0.411   6.667
 4301SOL     OW13801   2.868   1.437   7.019
 4301SOL    HW113802   2.924   1.423   0.082
 4301SOL    HW213803   2.887   1.527   6.981
 4302SOL     OW13804   0.626   6.489   0.198
 4302SOL    HW113805   0.638   6.428   0.276
 4302SOL    HW213806   0.712   6.497   0.148
 4303SOL     OW13807   0.006   3.425   2.104
 4303SOL    HW113808   7.004   3.476   2.021
 4303SOL    HW213809   6.962   3.348   2.113
 4304SOL     OW13810   3.275   2.982   4.416
 4304SOL    HW113811   3.252   2.960   4.321
 4304SOL    HW213812   3.370   2.955   4.434
 4305SOL     OW13813   6.377   1.517   4.133
 4305SOL    HW113814   6.423   1.436   4.170
 4305SOL    HW213815   6.390   1.521   4.034
 4306SOL     OW13816   6.254   5.941   6.050
 4306SOL    HW113817   6.287   5.868   6.111
 4306SOL    HW213818   6.328   5.968   5.988
 4307SOL     OW13819   4.837   3.116   6.347
 4307SOL    HW113820   4.794   3.075   6.267
 4307SOL    HW213821   4.783   3.194   6.377
 4308SOL     OW13822   4.869   6.362   4.819
 4308SOL    HW113823   4.900   6.371   4.724
 4308SOL    HW213824   4.770   6.371   4.823
 4309SOL     OW13825   1.272   1.419   0.664
 4309SOL    HW113826   1.196   1.382   0.718
 4309SOL    HW213827   1.248   1.510   0.630
 4310SOL     OW13828   1.154   0.920   2.395
 4310SOL    HW113829   1.154   1.010   2.440
 4310SOL    HW213830   1.086   0.861   2.439
 4311SOL     OW13831   1.779   5.992   4.047
 4311SOL    HW113832   1.689   5.984   4.091
 4311SOL    HW213833   1.770   5.975   3.949
 4312SOL     OW13834   2.061   5.175   1.953
 4312SOL    HW113835   2.044   5.080   1.978
 4312SOL    HW213836   2.151   5.183   1.912
 4313SOL     OW13837   5.158   0.760   1.994
 4313SOL    HW113838   5.083   0.705   2.031
 4313SOL    HW213839   5.243   0.737   2.040
 4314SOL     OW13840   4.855   3.165   2.692
 4314SOL    HW113841   4.779   3.103   2.710
 4314SOL    HW213842   4.941   3.124   2.723
 4315SOL     OW13843   2.526   1.721   2.139
 4315SOL    HW113844   2.489   1.664   2.212
 4315SOL    HW213845   2.452   1.763   2.087
 4316SOL     OW13846   6.698   7.015   2.453
 4316SOL    HW113847   6.696   0.042   2.541
 4316SOL    HW213848   6.705   0.064   2.380
 4317SOL     OW13849   3.829   1.279   2.859
 4317SOL    HW113850   3.849   1.207   2.926
 4317SOL    HW213851   3.914   1.323   2.832
 4318SOL     OW13852   0.116   2.561   4.322
 4318SOL    HW113853   0.207   2.523   4.336
 4318SOL    HW213854   0.047   2.495   4.351
 4319SOL     OW13855   2.431   3.529   5.755
 4319SOL    HW113856   2.456   3.563   5.665
 4319SOL    HW213857   2.441   3.603   5.822
 4320SOL     OW13858   0.271   5.834   2.521
 4320SOL    HW113859   0.286   5.932   2.537
 4320SOL    HW213860   0.173   5.818   2.508
 4321SOL     OW13861   0.987   0.263   5.159
 4321SOL    HW113862   0.892   0.252   5.128
 4321SOL    HW213863   0.994   0.237   5.255
 4322SOL     OW13864   5.925   0.941   0.500
 4322SOL    HW113865   5.967   0.961   0.588
 4322SOL    HW213866   5.862   0.865   0.510
 4323SOL     OW13867   6.903   2.611   3.839
 4323SOL    HW113868   6.887   2.692   3.894
 4323SOL    HW213869   6.820   2.587   3.788
 4324SOL     OW13870   6.195   4.389   5.770
 4324SOL    HW113871   6.137   4.311   5.745
 4324SOL    HW213872   6.234   4.373   5.861
 4325SOL     OW13873   2.033   2.244   5.975
 4325SOL    HW113874   2.088   2.170   5.935
 4325SOL    HW213875   1.951   2.257   5.920
 4326SOL     OW13876   6.167   2.277   5.984
 4326SOL    HW113877   6.079   2.275   6.031
 4326SOL    HW213878   6.181   2.368   5.944
 4327SOL     OW13879   6.008   0.030   2.734
 4327SOL    HW113880   5.971   6.963   2.698
 4327SOL    HW213881   5.937   0.101   2.730
 4328SOL     OW13882   5.355   5.158   0.782
 4328SOL    HW113883   5.423   5.193   0.718
 4328SOL    HW213884   5.281   5.225   0.793
 4329SOL     OW13885   3.348   1.541   5.912
 4329SOL    HW113886   3.288   1.463   5.896
 4329SOL    HW213887   3.338   1.607   5.838
 4330SOL     OW13888   1.264   0.489   6.537
 4330SOL    HW113889   1.251   0.520   6.631
 4330SOL    HW213890   1.255   0.390   6.533
 4331SOL     OW13891   6.076   2.717   0.113
 4331SOL    HW113892   6.174   2.736   0.111
 4331SOL    HW213893   6.035   2.761   0.194
 4332SOL     OW13894   5.367   3.461   1.107
 4332SOL    HW113895   5.353   3.456   1.008
 4332SOL    HW213896   5.463   3.482   1.126
 4333SOL     OW13897   5.179   1.330   5.341
 4333SOL    HW113898   5.200   1.283   5.427
 4333SOL    HW213899   5.161   1.262   5.270
 4334SOL     OW13900   4.670   1.035   1.942
 4334SOL    HW113901   4.750   1.001   1.992
 4334SOL    HW213902   4.589   0.986   1.972
 4335SOL     OW13903   3.352   3.998   5.394
 4335SOL    HW113904   3.322   3.914   5.440
 4335SOL    HW213905   3.311   4.002   5.303
 4336SOL     OW13906   1.322   6.179   4.182
 4336SOL    HW113907   1.393   6.193   4.113
 4336SOL    HW213908   1.264   6.103   4.155
 4337SOL     OW13909   0.185   4.953   0.790
 4337SOL    HW113910   0.129   4.891   0.844
 4337SOL    HW213911   0.282   4.930   0.801
 4338SOL     OW13912   6.653   6.672   3.799
 4338SOL    HW113913   6.708   6.601   3.843
 4338SOL    HW213914   6.603   6.723   3.869
 4339SOL     OW13915   6.264   0.974   6.180
 4339SOL    HW113916   6.357   0.984   6.144
 4339SOL    HW213917   6.268   0.940   6.274
 4340SOL     OW13918   4.760   3.244   1.679
 4340SOL    HW113919   4.729   3.179   1.748
 4340SOL    HW213920   4.765   3.197   1.590
 4341SOL     OW13921   0.400   4.419   0.851
 4341SOL    HW113922   0.328   4.361   0.889
 4341SOL    HW213923   0.381   4.515   0.871
 4342SOL     OW13924   6.950   3.164   3.014
 4342SOL    HW113925   6.948   3.164   3.114
 4342SOL    HW213926   0.013   3.116   2.982
 4343SOL     OW13927   2.541   1.731   1.260
 4343SOL    HW113928   2.452   1.696   1.230
 4343SOL    HW213929   2.527   1.800   1.332
 4344SOL     OW13930   1.917   4.179   2.920
 4344SOL    HW113931   1.867   4.110   2.868
 4344SOL    HW213932   1.953   4.249   2.858
 4345SOL     OW13933   2.506   1.971   5.949
 4345SOL    HW113934   2.559   2.049   5.982
 4345SOL    HW213935   2.410   1.982   5.977
 4346SOL     OW13936   1.289   2.806   1.601
 4346SOL    HW113937   1.288   2.852   1.690
 4346SOL    HW213938   1.325   2.869   1.532
 4347SOL     OW13939   6.399   6.180   2.876
 4347SOL    HW113940   6.492   6.144   2.884
 4347SOL    HW213941   6.342   6.115   2.825
 4348SOL     OW13942   0.736   3.697   6.656
 4348SOL    HW113943   0.751   3.599   6.640
 4348SOL    HW213944   0.752   3.718   6.752
 4349SOL     OW13945   6.978   0.443   3.817
 4349SOL    HW113946   6.960   0.461   3.720
 4349SOL    HW213947   0.057   0.435   3.832
 4350SOL     OW13948   5.070   1.586   3.516
 4350SOL    HW113949   5.019   1.509   3.555
 4350SOL    HW213950   5.006   1.654   3.481
 4351SOL     OW13951   2.562   6.462   1.021
 4351SOL    HW113952   2.654   6.497   1.003
 4351SOL    HW213953   2.564   6.403   1.101
 4352SOL     OW13954   6.410   1.483   1.811
 4352SOL    HW113955   6.433   1.394   1.771
 4352SOL    HW213956   6.375   1.543   1.739
 4353SOL     OW13957   3.790   5.742   0.383
 4353SOL    HW113958   3.705   5.791   0.361
 4353SOL    HW213959   3.804   5.742   0.482
 4354SOL     OW13960   1.771   0.560   1.010
 4354SOL    HW113961   1.829   0.625   1.059
 4354SOL    HW213962   1.679   0.596   1.001
 4355SOL     OW13963   5.361   0.826   0.804
 4355SOL    HW113964   5.393   0.769   0.728
 4355SOL    HW213965   5.277   0.873   0.777
 4356SOL     OW13966   3.950   4.166   0.445
 4356SOL    HW113967   3.875   4.102   0.430
 4356SOL    HW213968   4.023   4.147   0.378
 4357SOL     OW13969   6.408   0.913   6.922
 4357SOL    HW113970   6.325   0.906   6.978
 4357SOL    HW213971   6.476   0.970   6.970
 4358SOL     OW13972   0.514   0.437   1.684
 4358SOL    HW113973   0.578   0.513   1.671
 4358SOL    HW213974   0.542   0.384   1.764
 4359SOL     OW13975   6.209   2.172   4.058
 4359SOL    HW113976   6.274   2.103   4.092
 4359SOL    HW213977   6.254   2.229   3.989
 4360SOL     OW13978   1.867   3.296   1.031
 4360SOL    HW113979   1.848   3.203   1.001
 4360SOL    HW213980   1.783   3.350   1.024
 4361SOL     OW13981   4.950   1.663   2.017
 4361SOL    HW113982   4.865   1.673   2.069
 4361SOL    HW213983   5.024   1.710   2.065
 4362SOL     OW13984   5.786   4.411   4.195
 4362SOL    HW113985   5.769   4.313   4.191
 4362SOL    HW213986   5.758   4.446   4.285
 4363SOL     OW13987   4.991   2.073   5.788
 4363SOL    HW113988   4.954   2.037   5.873
 4363SOL    HW213989   5.087   2.098   5.801
 4364SOL     OW13990   3.568   4.020   5.108
 4364SOL    HW113991   3.625   3.942   5.132
 4364SOL    HW213992   3.626   4.099   5.087
 4365SOL     OW13993   2.830   1.128   1.348
 4365SOL    HW113994   2.893   1.168   1.415
 4365SOL    HW213995   2.746   1.100   1.393
 4366SOL     OW13996   5.247   4.890   1.328
 4366SOL    HW113997   5.285   4.863   1.417
 4366SOL    HW213998   5.299   4.848   1.255
 4367SOL     OW13999   0.978   6.396   6.835
 4367SOL    HW114000   1.047   6.325   6.824
 4367SOL    HW214001   0.921   6.401   6.754
 4368SOL     OW14002   5.433   3.894   1.815
 4368SOL    HW114003   5.344   3.855   1.838
 4368SOL    HW214004   5.505   3.826   1.831
 4369SOL     OW14005   3.347   6.054   1.790
 4369SOL    HW114006   3.408   6.065   1.712
 4369SOL    HW214007   3.258   6.021   1.759
 4370SOL     OW14008   5.959   5.400   2.767
 4370SOL    HW114009   5.979   5.382   2.864
 4370SOL    HW214010   5.989   5.322   2.712
 4371SOL     OW14011   6.773   1.978   2.430
 4371SOL    HW114012   6.696   1.915   2.437
 4371SOL    HW214013   6.789   2.023   2.518
 4372SOL     OW14014   4.808   6.865   3.316
 4372SOL    HW114015   4.783   6.852   3.220
 4372SOL    HW214016   4.740   6.923   3.361
 4373SOL     OW14017   0.400   1.883   6.241
 4373SOL    HW114018   0.317   1.843   6.200
 4373SOL    HW214019   0.376   1.931   6.325
 4374SOL     OW14020   2.839   2.287   0.944
 4374SOL    HW114021   2.902   2.326   1.011
 4374SOL    HW214022   2.892   2.248   0.868
 4375SOL     OW14023   2.859   6.590   4.329
 4375SOL    HW114024   2.910   6.612   4.246
 4375SOL    HW214025   2.859   6.669   4.390
 4376SOL     OW14026   6.331   1.605   3.846
 4376SOL    HW114027   6.236   1.635   3.857
 4376SOL    HW214028   6.386   1.681   3.811
 4377SOL     OW14029   5.525   5.277   6.527
 4377SOL    HW114030   5.542   5.231   6.440
 4377SOL    HW214031   5.438   5.248   6.565
 4378SOL     OW14032   2.432   1.166   3.380
 4378SOL    HW114033   2.441   1.156   3.479
 4378SOL    HW214034   2.511   1.216   3.344
 4379SOL     OW14035   3.241   1.883   5.364
 4379SOL    HW114036   3.214   1.788   5.385
 4379SOL    HW214037   3.177   1.946   5.409
 4380SOL     OW14038   0.530   0.978   2.023
 4380SOL    HW114039   0.571   0.933   2.103
 4380SOL    HW214040   0.437   0.943   2.010
 4381SOL     OW14041   1.478   5.850   6.426
 4381SOL    HW114042   1.419   5.770   6.435
 4381SOL    HW214043   1.473   5.886   6.333
 4382SOL     OW14044   6.850   4.253   4.837
 4382SOL    HW114045   6.848   4.175   4.775
 4382SOL    HW214046   6.805   4.332   4.794
 4383SOL     OW14047   6.289   3.307   6.689
 4383SOL    HW114048   6.197   3.271   6.675
 4383SOL    HW214049   6.293   3.353   6.778
 4384SOL     OW14050   5.856   6.869   3.804
 4384SOL    HW114051   5.808   6.957   3.804
 4384SOL    HW214052   5.927   6.869   3.733
 4385SOL     OW14053   4.529   1.274   5.188
 4385SOL    HW114054   4.525   1.277   5.288
 4385SOL    HW214055   4.519   1.179   5.157
 4386SOL     OW14056   1.657   3.543   4.967
 4386SOL    HW114057   1.733   3.599   5.001
 4386SOL    HW214058   1.570   3.586   4.991
 4387SOL     OW14059   6.771   1.922   0.779
 4387SOL    HW114060   6.719   1.842   0.749
 4387SOL    HW214061   6.855   1.930   0.725
 4388SOL     OW14062   5.255   3.326   6.650
 4388SOL    HW114063   5.341   3.291   6.686
 4388SOL    HW214064   5.268   3.356   6.556
 4389SOL     OW14065   0.810   3.228   0.803
 4389SOL    HW114066   0.814   3.149   0.742
 4389SOL    HW214067   0.896   3.236   0.853
 4390SOL     OW14068   6.337   1.236   0.885
 4390SOL    HW114069   6.274   1.263   0.957
 4390SOL    HW214070   6.418   1.194   0.925
 4391SOL     OW14071   1.619   5.964   1.078
 4391SOL    HW114072   1.643   5.990   0.984
 4391SOL    HW214073   1.543   5.899   1.076
 4392SOL     OW14074   1.563   2.737   5.278
 4392SOL    HW114075   1.609   2.701   5.359
 4392SOL    HW214076   1.465   2.747   5.297
 4393SOL     OW14077   4.992   0.648   2.187
 4393SOL    HW114078   5.081   0.664   2.231
 4393SOL    HW214079   4.924   0.710   2.227
 4394SOL     OW14080   1.210   0.573   2.349
 4394SOL    HW114081   1.249   0.616   2.268
 4394SOL    HW214082   1.143   0.503   2.321
 4395SOL     OW14083   2.896   4.918   1.816
 4395SOL    HW114084   2.840   4.938   1.896
 4395SOL    HW214085   2.946   5.000   1.788
 4396SOL     OW14086   3.231   0.540   3.199
 4396SOL    HW114087   3.293   0.477   3.245
 4396SOL    HW214088   3.268   0.564   3.109
 4397SOL     OW14089   3.485   1.888   4.624
 4397SOL    HW114090   3.519   1.898   4.717
 4397SOL    HW214091   3.464   1.791   4.606
 4398SOL     OW14092   1.777   2.674   5.007
 4398SOL    HW114093   1.869   2.639   4.992
 4398SOL    HW214094   1.710   2.611   4.968
 4399SOL     OW14095   2.882   6.776   1.835
 4399SOL    HW114096   2.805   6.749   1.893
 4399SOL    HW214097   2.960   6.716   1.854
 4400SOL     OW14098   2.326   5.528   4.743
 4400SOL    HW114099   2.340   5.451   4.681
 4400SOL    HW214100   2.270   5.598   4.698
 4401SOL     OW14101   3.126   6.757   6.974
 4401SOL    HW114102   3.043   6.810   6.994
 4401SOL    HW214103   3.119   6.718   6.883
 4402SOL     OW14104   1.554   0.579   3.476
 4402SOL    HW114105   1.638   0.561   3.527
 4402SOL    HW214106   1.573   0.644   3.402
 4403SOL     OW14107   1.263   4.759   1.995
 4403SOL    HW114108   1.174   4.803   2.011
 4403SOL    HW214109   1.258   4.663   2.021
 4404SOL     OW14110   0.203   6.866   5.979
 4404SOL    HW114111   0.202   6.775   6.019
 4404SOL    HW214112   0.297   6.893   5.957
 4405SOL     OW14113   1.801   5.858   2.802
 4405SOL    HW114114   1.801   5.894   2.895
 4405SOL    HW214115   1.854   5.919   2.742
 4406SOL     OW14116   5.957   3.717   2.133
 4406SOL    HW114117   6.022   3.676   2.069
 4406SOL    HW214118   5.989   3.703   2.226
 4407SOL     OW14119   5.547   6.392   2.327
 4407SOL    HW114120   5.636   6.426   2.359
 4407SOL    HW214121   5.524   6.309   2.378
 4408SOL     OW14122   4.326   0.799   0.339
 4408SOL    HW114123   4.409   0.753   0.308
 4408SOL    HW214124   4.336   0.898   0.324
 4409SOL     OW14125   3.171   0.249   3.111
 4409SOL    HW114126   3.250   0.192   3.089
 4409SOL    HW214127   3.161   0.320   3.042
 4410SOL     OW14128   0.540   6.308   1.078
 4410SOL    HW114129   0.500   6.369   1.010
 4410SOL    HW214130   0.596   6.239   1.032
 4411SOL     OW14131   3.597   4.451   5.293
 4411SOL    HW114132   3.564   4.368   5.338
 4411SOL    HW214133   3.525   4.486   5.233
 4412SOL     OW14134   4.519   6.174   2.632
 4412SOL    HW114135   4.570   6.196   2.549
 4412SOL    HW214136   4.563   6.097   2.678
 4413SOL     OW14137   4.469   6.880   4.018
 4413SOL    HW114138   4.484   6.829   4.103
 4413SOL    HW214139   4.549   6.935   3.997
 4414SOL     OW14140   4.750   3.800   1.557
 4414SOL    HW114141   4.730   3.761   1.647
 4414SOL    HW214142   4.822   3.868   1.565
 4415SOL     OW14143   2.103   2.732   1.762
 4415SOL    HW114144   2.035   2.761   1.695
 4415SOL    HW214145   2.178   2.799   1.764
 4416SOL     OW14146   4.592   2.226   3.176
 4416SOL    HW114147   4.609   2.163   3.252
 4416SOL    HW214148   4.547   2.308   3.210
 4417SOL     OW14149   6.889   4.106   2.729
 4417SOL    HW114150   6.915   4.010   2.737
 4417SOL    HW214151   6.888   4.133   2.633
 4418SOL     OW14152   6.361   6.660   5.695
 4418SOL    HW114153   6.307   6.582   5.726
 4418SOL    HW214154   6.308   6.744   5.705
 4419SOL     OW14155   5.915   5.246   6.874
 4419SOL    HW114156   5.833   5.224   6.822
 4419SOL    HW214157   5.923   5.346   6.883
 4420SOL     OW14158   3.246   2.583   0.872
 4420SOL    HW114159   3.193   2.498   0.865
 4420SOL    HW214160   3.185   2.659   0.893
 4421SOL     OW14161   1.786   2.606   6.941
 4421SOL    HW114162   1.716   2.580   6.874
 4421SOL    HW214163   1.800   2.531   7.006
 4422SOL     OW14164   6.260   3.745   6.041
 4422SOL    HW114165   6.293   3.830   6.000
 4422SOL    HW214166   6.162   3.735   6.021
 4423SOL     OW14167   5.620   4.303   4.780
 4423SOL    HW114168   5.551   4.306   4.853
 4423SOL    HW214169   5.575   4.320   4.692
 4424SOL     OW14170   4.629   6.067   2.878
 4424SOL    HW114171   4.628   6.015   2.963
 4424SOL    HW214172   4.721   6.103   2.862
 4425SOL     OW14173   1.559   5.052   1.309
 4425SOL    HW114174   1.570   5.151   1.297
 4425SOL    HW214175   1.607   5.024   1.392
 4426SOL     OW14176   0.625   0.624   4.582
 4426SOL    HW114177   0.696   0.640   4.515
 4426SOL    HW214178   0.535   0.634   4.539
 4427SOL     OW14179   2.279   6.069   2.713
 4427SOL    HW114180   2.209   6.043   2.646
 4427SOL    HW214181   2.368   6.074   2.667
 4428SOL     OW14182   5.438   6.097   3.485
 4428SOL    HW114183   5.508   6.160   3.452
 4428SOL    HW214184   5.351   6.118   3.441
 4429SOL     OW14185   3.158   6.216   3.080
 4429SOL    HW114186   3.135   6.301   3.127
 4429SOL    HW214187   3.125   6.221   2.985
 4430SOL     OW14188   5.195   4.000   5.459
 4430SOL    HW114189   5.199   3.908   5.419
 4430SOL    HW214190   5.105   4.040   5.442
 4431SOL     OW14191   3.054   6.592   4.122
 4431SOL    HW114192   3.103   6.525   4.179
 4431SOL    HW214193   3.113   6.620   4.046
 4432SOL     OW14194   0.559   3.977   6.008
 4432SOL    HW114195   0.658   3.988   6.008
 4432SOL    HW214196   0.530   3.942   6.097
 4433SOL     OW14197   1.248   1.047   5.780
 4433SOL    HW114198   1.242   0.958   5.736
 4433SOL    HW214199   1.282   1.036   5.874
 4434SOL     OW14200   0.241   0.591   2.926
 4434SOL    HW114201   0.328   0.622   2.963
 4434SOL    HW214202   0.195   0.532   2.992
 4435SOL     OW14203   2.545   4.328   0.157
 4435SOL    HW114204   2.611   4.356   0.226
 4435SOL    HW214205   2.484   4.259   0.195
 4436SOL     OW14206   4.488   1.636   1.846
 4436SOL    HW114207   4.506   1.728   1.881
 4436SOL    HW214208   4.486   1.572   1.923
 4437SOL     OW14209   6.566   4.407   0.237
 4437SOL    HW114210   6.501   4.351   0.186
 4437SOL    HW214211   6.649   4.355   0.255
 4438SOL     OW14212   3.877   0.385   5.597
 4438SOL    HW114213   3.973   0.410   5.605
 4438SOL    HW214214   3.833   0.442   5.527
 4439SOL     OW14215   3.009   6.729   2.667
 4439SOL    HW114216   3.093   6.700   2.713
 4439SOL    HW214217   2.931   6.715   2.728
 4440SOL     OW14218   1.404   4.776   6.823
 4440SOL    HW114219   1.308   4.805   6.817
 4440SOL    HW214220   1.413   4.707   6.895
 4441SOL     OW14221   0.035   1.768   0.710
 4441SOL    HW114222   6.967   1.737   0.674
 4441SOL    HW214223   0.097   1.787   0.634
 4442SOL     OW14224   1.898   5.234   6.697
 4442SOL    HW114225   1.950   5.187   6.626
 4442SOL    HW214226   1.960   5.264   6.769
 4443SOL     OW14227   0.908   5.328   6.195
 4443SOL    HW114228   0.846   5.406   6.188
 4443SOL    HW214229   0.960   5.335   6.280
 4444SOL     OW14230   5.637   5.004   6.955
 4444SOL    HW114231   5.592   5.022   0.023
 4444SOL    HW214232   5.734   4.986   6.971
 4445SOL     OW14233   0.584   4.619   0.461
 4445SOL    HW114234   0.587   4.651   0.366
 4445SOL    HW214235   0.608   4.694   0.522
 4446SOL     OW14236   4.738   1.584   1.142
 4446SOL    HW114237   4.738   1.682   1.127
 4446SOL    HW214238   4.662   1.559   1.203
 4447SOL     OW14239   4.762   5.798   5.751
 4447SOL    HW114240   4.735   5.753   5.666
 4447SOL    HW214241   4.848   5.760   5.784
 4448SOL     OW14242   3.718   6.411   1.255
 4448SOL    HW114243   3.794   6.413   1.190
 4448SOL    HW214244   3.675   6.502   1.258
 4449SOL     OW14245   3.495   1.297   5.645
 4449SOL    HW114246   3.514   1.271   5.739
 4449SOL    HW214247   3.404   1.264   5.618
 4450SOL     OW14248   2.678   6.875   6.929
 4450SOL    HW114249   2.625   6.947   6.974
 4450SOL    HW214250   2.639   6.786   6.951
 4451SOL     OW14251   5.030   5.102   3.266
 4451SOL    HW114252   5.061   5.012   3.294
 4451SOL    HW214253   5.098   5.171   3.293
 4452SOL     OW14254   4.480   6.480   4.475
 4452SOL    HW114255   4.533   6.401   4.505
 4452SOL    HW214256   4.397   6.449   4.428
 4453SOL     OW14257   6.306   4.776   0.346
 4453SOL    HW114258   6.218   4.731   0.328
 4453SOL    HW214259   6.354   4.727   0.419
 4454SOL     OW14260   1.405   3.062   0.414
 4454SOL    HW114261   1.470   3.003   0.461
 4454SOL    HW214262   1.341   3.006   0.361
 4455SOL     OW14263   1.077   6.664   5.361
 4455SOL    HW114264   1.117   6.636   5.274
 4455SOL    HW214265   1.146   6.712   5.416
 4456SOL     OW14266   2.718   6.940   4.687
 4456SOL    HW114267   2.742   6.878   4.762
 4456SOL    HW214268   2.709   6.888   4.602
 4457SOL     OW14269   1.687   1.876   4.322
 4457SOL    HW114270   1.779   1.907   4.297
 4457SOL    HW214271   1.662   1.918   4.410
 4458SOL     OW14272   1.496   3.586   6.529
 4458SOL    HW114273   1.471   3.520   6.600
 4458SOL    HW214274   1.589   3.618   6.545
 4459SOL     OW14275   0.721   2.700   3.069
 4459SOL    HW114276   0.780   2.625   3.100
 4459SOL    HW214277   0.670   2.736   3.147
 4460SOL     OW14278   6.986   2.379   4.680
 4460SOL    HW114279   6.976   2.301   4.741
 4460SOL    HW214280   6.947   2.460   4.724
 4461SOL     OW14281   1.791   0.942   0.890
 4461SOL    HW114282   1.877   0.898   0.917
 4461SOL    HW214283   1.806   1.040   0.879
 4462SOL     OW14284   6.599   3.811   3.238
 4462SOL    HW114285   6.679   3.818   3.179
 4462SOL    HW214286   6.598   3.722   3.282
 4463SOL     OW14287   5.879   1.882   0.236
 4463SOL    HW114288   5.811   1.912   0.303
 4463SOL    HW214289   5.858   1.790   0.206
 4464SOL     OW14290   6.949   4.920   1.365
 4464SOL    HW114291   6.924   4.873   1.449
 4464SOL    HW214292   0.023   4.895   1.339
 4465SOL     OW14293   3.855   5.630   1.751
 4465SOL    HW114294   3.803   5.561   1.801
 4465SOL    HW214295   3.823   5.721   1.778
 4466SOL     OW14296   1.782   2.073   2.512
 4466SOL    HW114297   1.708   2.006   2.518
 4466SOL    HW214298   1.759   2.153   2.566
 4467SOL     OW14299   5.117   5.764   2.858
 4467SOL    HW114300   5.140   5.759   2.955
 4467SOL    HW214301   5.151   5.850   2.820
 4468SOL     OW14302   1.952   3.137   1.680
 4468SOL    HW114303   2.038   3.171   1.719
 4468SOL    HW214304   1.951   3.037   1.683
 4469SOL     OW14305   2.392   6.268   1.419
 4469SOL    HW114306   2.330   6.189   1.419
 4469SOL    HW214307   2.483   6.239   1.449
 4470SOL     OW14308   2.370   6.853   3.080
 4470SOL    HW114309   2.327   6.801   3.007
 4470SOL    HW214310   2.393   6.945   3.046
 4471SOL     OW14311   1.082   0.261   6.589
 4471SOL    HW114312   0.993   0.261   6.636
 4471SOL    HW214313   1.101   0.168   6.556
 4472SOL     OW14314   1.865   2.791   0.778
 4472SOL    HW114315   1.848   2.770   0.874
 4472SOL    HW214316   1.841   2.887   0.761
 4473SOL     OW14317   0.267   2.397   4.606
 4473SOL    HW114318   0.174   2.419   4.635
 4473SOL    HW214319   0.309   2.333   4.671
 4474SOL     OW14320   3.137   5.812   1.179
 4474SOL    HW114321   3.051   5.791   1.224
 4474SOL    HW214322   3.119   5.863   1.095
 4475SOL     OW14323   1.114   4.150   1.032
 4475SOL    HW114324   1.113   4.249   1.014
 4475SOL    HW214325   1.020   4.117   1.036
 4476SOL     OW14326   5.622   0.990   3.966
 4476SOL    HW114327   5.611   0.985   3.867
 4476SOL    HW214328   5.555   1.054   4.003
 4477SOL     OW14329   1.227   0.979   4.814
 4477SOL    HW114330   1.176   0.905   4.770
 4477SOL    HW214331   1.177   1.065   4.802
 4478SOL     OW14332   1.769   6.962   0.942
 4478SOL    HW114333   1.724   0.031   0.958
 4478SOL    HW214334   1.745   6.929   0.851
 4479SOL     OW14335   1.720   1.891   6.731
 4479SOL    HW114336   1.736   1.960   6.801
 4479SOL    HW214337   1.631   1.906   6.688
 4480SOL     OW14338   1.192   6.416   3.764
 4480SOL    HW114339   1.287   6.432   3.735
 4480SOL    HW214340   1.164   6.324   3.737
 4481SOL     OW14341   1.986   3.895   5.884
 4481SOL    HW114342   1.956   3.932   5.971
 4481SOL    HW214343   2.083   3.873   5.888
 4482SOL     OW14344   2.447   6.838   1.313
 4482SOL    HW114345   2.423   6.817   1.408
 4482SOL    HW214346   2.529   6.895   1.311
 4483SOL     OW14347   1.525   3.873   0.568
 4483SOL    HW114348   1.554   3.957   0.614
 4483SOL    HW214349   1.473   3.815   0.631
 4484SOL     OW14350   2.185   1.244   6.899
 4484SOL    HW114351   2.187   1.344   6.901
 4484SOL    HW214352   2.250   1.212   6.830
 4485SOL     OW14353   6.590   2.711   5.259
 4485SOL    HW114354   6.545   2.766   5.329
 4485SOL    HW214355   6.689   2.724   5.264
 4486SOL     OW14356   4.999   4.927   4.789
 4486SOL    HW114357   5.026   5.001   4.851
 4486SOL    HW214358   4.916   4.883   4.825
 4487SOL     OW14359   0.537   2.562   6.614
 4487SOL    HW114360   0.451   2.586   6.568
 4487SOL    HW214361   0.518   2.535   6.708
 4488SOL     OW14362   0.464   4.155   3.542
 4488SOL    HW114363   0.408   4.165   3.624
 4488SOL    HW214364   0.560   4.146   3.567
 4489SOL     OW14365   3.824   6.005   6.218
 4489SOL    HW114366   3.922   6.025   6.212
 4489SOL    HW214367   3.798   5.994   6.314
 4490SOL     OW14368   5.145   1.432   1.827
 4490SOL    HW114369   5.079   1.381   1.771
 4490SOL    HW214370   5.118   1.427   1.923
 4491SOL     OW14371   1.258   2.916   2.775
 4491SOL    HW114372   1.352   2.929   2.808
 4491SOL    HW214373   1.232   2.995   2.719
 4492SOL     OW14374   6.844   0.953   2.507
 4492SOL    HW114375   6.809   1.042   2.477
 4492SOL    HW214376   6.926   0.931   2.455
 4493SOL     OW14377   5.612   1.485   5.791
 4493SOL    HW114378   5.674   1.563   5.783
 4493SOL    HW214379   5.520   1.513   5.764
 4494SOL     OW14380   1.361   0.446   1.530
 4494SOL    HW114381   1.284   0.449   1.466
 4494SOL    HW214382   1.433   0.387   1.493
 4495SOL     OW14383   4.357   6.251   0.955
 4495SOL    HW114384   4.351   6.152   0.940
 4495SOL    HW214385   4.454   6.279   0.957
 4496SOL     OW14386   3.039   6.291   6.123
 4496SOL    HW114387   3.132   6.257   6.108
 4496SOL    HW214388   3.043   6.375   6.177
 4497SOL     OW14389   3.731   1.059   5.987
 4497SOL    HW114390   3.735   0.973   6.038
 4497SOL    HW214391   3.781   1.130   6.037
 4498SOL     OW14392   0.138   5.189   4.802
 4498SOL    HW114393   0.112   5.182   4.705
 4498SOL    HW214394   0.149   5.286   4.826
 4499SOL     OW14395   5.749   1.498   1.858
 4499SOL    HW114396   5.777   1.458   1.771
 4499SOL    HW214397   5.684   1.437   1.903
 4500SOL     OW14398   4.190   5.487   0.224
 4500SOL    HW114399   4.234   5.535   0.148
 4500SOL    HW214400   4.155   5.399   0.192
 4501SOL     OW14401   6.261   0.566   2.396
 4501SOL    HW114402   6.297   0.473   2.389
 4501SOL    HW214403   6.318   0.628   2.342
 4502SOL     OW14404   6.942   3.813   6.636
 4502SOL    HW114405   0.013   3.783   6.667
 4502SOL    HW214406   6.935   3.800   6.537
 4503SOL     OW14407   3.130   1.275   2.671
 4503SOL    HW114408   3.097   1.194   2.621
 4503SOL    HW214409   3.077   1.285   2.755
 4504SOL     OW14410   0.214   1.880   2.601
 4504SOL    HW114411   0.286   1.916   2.542
 4504SOL    HW214412   0.209   1.935   2.685
 4505SOL     OW14413   5.736   3.753   3.743
 4505SOL    HW114414   5.723   3.654   3.749
 4505SOL    HW214415   5.830   3.773   3.716
 4506SOL     OW14416   5.164   2.803   5.672
 4506SOL    HW114417   5.192   2.788   5.767
 4506SOL    HW214418   5.237   2.852   5.624
 4507SOL     OW14419   6.191   2.089   3.242
 4507SOL    HW114420   6.236   2.147   3.309
 4507SOL    HW214421   6.257   2.065   3.170
 4508SOL     OW14422   0.150   4.660   1.110
 4508SOL    HW114423   0.107   4.596   1.173
 4508SOL    HW214424   0.092   4.673   1.030
 4509SOL     OW14425   5.054   2.656   1.940
 4509SOL    HW114426   5.072   2.591   2.014
 4509SOL    HW214427   5.006   2.611   1.866
 4510SOL     OW14428   4.106   1.119   4.424
 4510SOL    HW114429   4.025   1.155   4.469
 4510SOL    HW214430   4.105   1.019   4.427
 4511SOL     OW14431   0.048   4.828   6.713
 4511SOL    HW114432   6.973   4.841   6.682
 4511SOL    HW214433   0.106   4.899   6.673
 4512SOL     OW14434   3.223   3.559   5.348
 4512SOL    HW114435   3.191   3.465   5.359
 4512SOL    HW214436   3.222   3.583   5.251
 4513SOL     OW14437   0.452   6.928   0.963
 4513SOL    HW114438   0.435   6.910   1.060
 4513SOL    HW214439   0.451   0.007   0.947
 4514SOL     OW14440   4.157   4.689   6.543
 4514SOL    HW114441   4.177   4.665   6.448
 4514SOL    HW214442   4.086   4.760   6.544
 4515SOL     OW14443   4.001   0.763   6.291
 4515SOL    HW114444   3.926   0.731   6.349
 4515SOL    HW214445   4.033   0.852   6.323
 4516SOL     OW14446   2.939   2.509   5.473
 4516SOL    HW114447   2.967   2.417   5.446
 4516SOL    HW214448   2.908   2.508   5.568
 4517SOL     OW14449   3.907   0.831   5.579
 4517SOL    HW114450   3.957   0.764   5.633
 4517SOL    HW214451   3.914   0.808   5.481
 4518SOL     OW14452   0.922   6.420   1.287
 4518SOL    HW114453   0.961   6.459   1.203
 4518SOL    HW214454   0.833   6.461   1.304
 4519SOL     OW14455   4.720   6.855   0.212
 4519SOL    HW114456   4.800   6.801   0.238
 4519SOL    HW214457   4.734   6.950   0.238
 4520SOL     OW14458   4.426   5.845   5.792
 4520SOL    HW114459   4.435   5.944   5.785
 4520SOL    HW214460   4.516   5.805   5.807
 4521SOL     OW14461   4.474   2.294   4.095
 4521SOL    HW114462   4.561   2.251   4.074
 4521SOL    HW214463   4.484   2.393   4.090
 4522SOL     OW14464   5.579   3.992   3.578
 4522SOL    HW114465   5.620   4.009   3.488
 4522SOL    HW214466   5.616   3.907   3.615
 4523SOL     OW14467   6.920   3.129   5.797
 4523SOL    HW114468   6.958   3.217   5.825
 4523SOL    HW214469   6.858   3.142   5.719
 4524SOL     OW14470   1.603   3.511   1.833
 4524SOL    HW114471   1.534   3.551   1.772
 4524SOL    HW214472   1.670   3.581   1.857
 4525SOL     OW14473   3.728   2.345   5.787
 4525SOL    HW114474   3.732   2.288   5.705
 4525SOL    HW214475   3.775   2.298   5.862
 4526SOL     OW14476   1.049   6.819   5.656
 4526SOL    HW114477   1.060   6.725   5.623
 4526SOL    HW214478   0.980   6.821   5.729
 4527SOL     OW14479   0.343   1.250   2.658
 4527SOL    HW114480   0.372   1.155   2.643
 4527SOL    HW214481   0.253   1.263   2.618
 4528SOL     OW14482   4.784   0.840   5.057
 4528SOL    HW114483   4.795   0.771   4.985
 4528SOL    HW214484   4.747   0.924   5.018
 4529SOL     OW14485   2.144   1.039   4.005
 4529SOL    HW114486   2.222   0.983   4.030
 4529SOL    HW214487   2.060   0.987   4.019
 4530SOL     OW14488   4.247   5.967   6.559
 4530SOL    HW114489   4.330   5.920   6.530
 4530SOL    HW214490   4.168   5.907   6.542
 4531SOL     OW14491   1.603   6.068   5.150
 4531SOL    HW114492   1.694   6.028   5.159
 4531SOL    HW214493   1.609   6.155   5.103
 4532SOL     OW14494   6.076   1.533   2.827
 4532SOL    HW114495   6.089   1.521   2.926
 4532SOL    HW214496   6.155   1.582   2.790
 4533SOL     OW14497   2.697   0.304   0.947
 4533SOL    HW114498   2.608   0.305   0.902
 4533SOL    HW214499   2.714   0.394   0.988
 4534SOL     OW14500   5.075   1.641   3.953
 4534SOL    HW114501   5.024   1.629   3.868
 4534SOL    HW214502   5.022   1.696   4.017
 4535SOL     OW14503   1.783   0.581   0.732
 4535SOL    HW114504   1.708   0.520   0.760
 4535SOL    HW214505   1.838   0.603   0.813
 4536SOL     OW14506   3.402   0.045   5.853
 4536SOL    HW114507   3.327   0.072   5.792
 4536SOL    HW214508   3.365   0.001   5.934
 4537SOL     OW14509   2.954   3.442   3.260
 4537SOL    HW114510   2.945   3.538   3.234
 4537SOL    HW214511   2.953   3.385   3.177
 4538SOL     OW14512   0.249   2.385   0.864
 4538SOL    HW114513   0.315   2.428   0.925
 4538SOL    HW214514   0.297   2.328   0.798
 4539SOL     OW14515   1.331   5.938   5.521
 4539SOL    HW114516   1.289   5.847   5.514
 4539SOL    HW214517   1.421   5.929   5.564
 4540SOL     OW14518   1.253   2.517   0.218
 4540SOL    HW114519   1.159   2.551   0.222
 4540SOL    HW214520   1.251   2.418   0.201
 4541SOL     OW14521   4.026   2.912   6.298
 4541SOL    HW114522   3.979   2.824   6.304
 4541SOL    HW214523   3.960   2.986   6.311
 4542SOL     OW14524   0.153   1.755   6.449
 4542SOL    HW114525   0.154   1.820   6.525
 4542SOL    HW214526   0.164   1.663   6.485
 4543SOL     OW14527   3.822   1.762   0.550
 4543SOL    HW114528   3.723   1.748   0.539
 4543SOL    HW214529   3.842   1.860   0.539
 4544SOL     OW14530   5.301   6.550   0.555
 4544SOL    HW114531   5.346   6.499   0.628
 4544SOL    HW214532   5.232   6.611   0.595
 4545SOL     OW14533   2.164   2.615   5.221
 4545SOL    HW114534   2.246   2.673   5.217
 4545SOL    HW214535   2.121   2.611   5.131
 4546SOL     OW14536   3.275   0.707   5.619
 4546SOL    HW114537   3.239   0.721   5.527
 4546SOL    HW214538   3.365   0.748   5.626
 4547SOL     OW14539   0.032   0.002   0.087
 4547SOL    HW114540   0.025   6.929   0.124
 4547SOL    HW214541   0.126   0.035   0.097
 4548SOL     OW14542   3.005   1.709   2.175
 4548SOL    HW114543   3.078   1.775   2.195
 4548SOL    HW214544   3.028   1.621   2.216
 4549SOL     OW14545   0.698   3.499   4.297
 4549SOL    HW114546   0.775   3.458   4.247
 4549SOL    HW214547   0.649   3.561   4.236
 4550SOL     OW14548   1.974   5.276   4.205
 4550SOL    HW114549   2.054   5.225   4.237
 4550SOL    HW214550   1.892   5.238   4.248
 4551SOL     OW14551   2.306   2.283   5.126
 4551SOL    HW114552   2.249   2.201   5.118
 4551SOL    HW214553   2.282   2.333   5.210
 4552SOL     OW14554   5.294   1.482   0.774
 4552SOL    HW114555   5.389   1.511   0.760
 4552SOL    HW214556   5.287   1.384   0.756
 4553SOL     OW14557   0.376   5.838   6.910
 4553SOL    HW114558   0.433   5.920   6.917
 4553SOL    HW214559   0.342   5.814   7.001
 4554SOL     OW14560   6.350   6.630   2.928
 4554SOL    HW114561   6.413   6.706   2.942
 4554SOL    HW214562   6.388   6.567   2.861
 4555SOL     OW14563   0.978   1.121   1.036
 4555SOL    HW114564   0.994   1.063   0.956
 4555SOL    HW214565   0.920   1.198   1.010
 4556SOL     OW14566   5.525   4.903   4.259
 4556SOL    HW114567   5.537   4.871   4.165
 4556SOL    HW214568   5.509   4.824   4.319
 4557SOL     OW14569   0.648   5.154   4.358
 4557SOL    HW114570   0.602   5.127   4.273
 4557SOL    HW214571   0.589   5.132   4.436
 4558SOL     OW14572   1.251   4.077   4.826
 4558SOL    HW114573   1.184   4.021   4.777
 4558SOL    HW214574   1.338   4.075   4.776
 4559SOL     OW14575   0.062   2.833   4.036
 4559SOL    HW114576   0.105   2.744   4.022
 4559SOL    HW214577   0.122   2.892   4.091
 4560SOL     OW14578   5.367   4.154   2.868
 4560SOL    HW114579   5.447   4.133   2.925
 4560SOL    HW214580   5.292   4.093   2.892
 4561SOL     OW14581   4.768   2.431   3.639
 4561SOL    HW114582   4.723   2.437   3.550
 4561SOL    HW214583   4.853   2.379   3.630
 4562SOL     OW14584   3.312   1.178   0.461
 4562SOL    HW114585   3.373   1.193   0.539
 4562SOL    HW214586   3.306   1.079   0.443
 4563SOL     OW14587   0.471   4.374   2.250
 4563SOL    HW114588   0.429   4.450   2.300
 4563SOL    HW214589   0.502   4.305   2.316
 4564SOL     OW14590   2.033   3.470   2.209
 4564SOL    HW114591   2.059   3.382   2.169
 4564SOL    HW214592   2.074   3.544   2.157
 4565SOL     OW14593   1.908   6.260   6.343
 4565SOL    HW114594   1.830   6.262   6.405
 4565SOL    HW214595   1.986   6.305   6.387
 4566SOL     OW14596   6.851   4.231   3.382
 4566SOL    HW114597   6.828   4.148   3.433
 4566SOL    HW214598   6.779   4.299   3.395
 4567SOL     OW14599   0.261   0.095   6.574
 4567SOL    HW114600   0.228   0.035   6.501
 4567SOL    HW214601   0.193   0.097   6.648
 4568SOL     OW14602   1.396   5.152   3.379
 4568SOL    HW114603   1.437   5.092   3.309
 4568SOL    HW214604   1.307   5.184   3.347
 4569SOL     OW14605   1.897   0.908   3.291
 4569SOL    HW114606   1.981   0.906   3.237
 4569SOL    HW214607   1.911   0.966   3.371
 4570SOL     OW14608   5.175   5.494   1.475
 4570SOL    HW114609   5.207   5.400   1.468
 4570SOL    HW214610   5.235   5.554   1.422
 4571SOL     OW14611   2.447   3.284   6.224
 4571SOL    HW114612   2.430   3.319   6.132
 4571SOL    HW214613   2.491   3.355   6.279
 4572SOL     OW14614   3.396   3.233   2.055
 4572SOL    HW114615   3.315   3.179   2.032
 4572SOL    HW214616   3.474   3.172   2.071
 4573SOL     OW14617   3.020   5.391   0.826
 4573SOL    HW114618   3.068   5.303   0.829
 4573SOL    HW214619   3.041   5.443   0.909
 4574SOL     OW14620   4.872   0.983   2.116
 4574SOL    HW114621   4.964   0.989   2.077
 4574SOL    HW214622   4.873   0.924   2.197
 4575SOL     OW14623   0.801   0.016   5.706
 4575SOL    HW114624   0.887   0.031   5.755
 4575SOL    HW214625   0.753   6.958   5.747
 4576SOL     OW14626   3.202   4.530   6.255
 4576SOL    HW114627   3.171   4.625   6.266
 4576SOL    HW214628   3.302   4.528   6.251
 4577SOL     OW14629   0.924   1.744   2.134
 4577SOL    HW114630   0.902   1.840   2.119
 4577SOL    HW214631   0.845   1.687   2.111
 4578SOL     OW14632   1.335   1.369   1.918
 4578SOL    HW114633   1.257   1.364   1.855
 4578SOL    HW214634   1.382   1.456   1.907
 4579SOL     OW14635   4.432   0.564   3.420
 4579SOL    HW114636   4.350   0.622   3.423
 4579SOL    HW214637   4.502   0.604   3.479
 4580SOL     OW14638   0.215   1.335   1.014
 4580SOL    HW114639   0.208   1.412   0.950
 4580SOL    HW214640   0.311   1.316   1.034
 4581SOL     OW14641   2.950   0.595   0.990
 4581SOL    HW114642   2.891   0.673   0.967
 4581SOL    HW214643   3.010   0.576   0.913
 4582SOL     OW14644   6.397   1.006   3.892
 4582SOL    HW114645   6.388   1.101   3.922
 4582SOL    HW214646   6.489   0.991   3.856
 4583SOL     OW14647   2.076   0.563   0.242
 4583SOL    HW114648   2.022   0.640   0.207
 4583SOL    HW214649   2.041   0.536   0.331
 4584SOL     OW14650   0.521   1.782   4.412
 4584SOL    HW114651   0.438   1.775   4.356
 4584SOL    HW214652   0.601   1.786   4.352
 4585SOL     OW14653   1.690   3.057   3.129
 4585SOL    HW114654   1.725   3.051   3.222
 4585SOL    HW214655   1.717   2.976   3.077
 4586SOL     OW14656   5.896   4.997   6.577
 4586SOL    HW114657   5.837   5.049   6.639
 4586SOL    HW214658   5.965   5.057   6.537
 4587SOL     OW14659   3.490   3.416   5.230
 4587SOL    HW114660   3.497   3.321   5.262
 4587SOL    HW214661   3.422   3.422   5.158
 4588SOL     OW14662   3.331   3.835   6.450
 4588SOL    HW114663   3.297   3.758   6.395
 4588SOL    HW214664   3.425   3.818   6.476
 4589SOL     OW14665   5.782   6.491   2.221
 4589SOL    HW114666   5.824   6.473   2.132
 4589SOL    HW214667   5.683   6.474   2.215
 4590SOL     OW14668   3.886   5.567   1.462
 4590SOL    HW114669   3.866   5.596   1.556
 4590SOL    HW214670   3.832   5.486   1.440
 4591SOL     OW14671   2.633   0.543   5.379
 4591SOL    HW114672   2.646   0.444   5.391
 4591SOL    HW214673   2.717   0.591   5.406
 4592SOL     OW14674   2.308   1.522   3.927
 4592SOL    HW114675   2.270   1.613   3.944
 4592SOL    HW214676   2.328   1.478   4.014
 4593SOL     OW14677   1.278   5.325   4.365
 4593SOL    HW114678   1.193   5.378   4.369
 4593SOL    HW214679   1.260   5.231   4.392
 4594SOL     OW14680   2.177   0.064   3.244
 4594SOL    HW114681   2.269   0.026   3.250
 4594SOL    HW214682   2.111   7.008   3.243
 4595SOL     OW14683   5.420   2.164   6.146
 4595SOL    HW114684   5.328   2.167   6.106
 4595SOL    HW214685   5.446   2.068   6.163
 4596SOL     OW14686   0.037   0.865   2.387
 4596SOL    HW114687   0.066   0.770   2.399
 4596SOL    HW214688   0.110   0.926   2.417
 4597SOL     OW14689   2.659   5.870   0.761
 4597SOL    HW114690   2.658   5.861   0.860
 4597SOL    HW214691   2.566   5.863   0.726
 4598SOL     OW14692   0.829   4.428   0.408
 4598SOL    HW114693   0.803   4.480   0.489
 4598SOL    HW214694   0.826   4.330   0.429
 4599SOL     OW14695   3.911   6.288   1.796
 4599SOL    HW114696   3.830   6.238   1.827
 4599SOL    HW214697   3.886   6.384   1.781
 4600SOL     OW14698   0.644   6.436   6.490
 4600SOL    HW114699   0.608   6.344   6.471
 4600SOL    HW214700   0.568   6.497   6.515
 4601SOL     OW14701   1.771   0.604   5.247
 4601SOL    HW114702   1.829   0.640   5.174
 4601SOL    HW214703   1.739   0.680   5.304
 4602SOL     OW14704   3.156   1.986   5.678
 4602SOL    HW114705   3.066   2.007   5.716
 4602SOL    HW214706   3.217   1.955   5.751
 4603SOL     OW14707   4.582   0.003   1.043
 4603SOL    HW114708   4.608   6.952   1.109
 4603SOL    HW214709   4.499   0.050   1.076
 4604SOL     OW14710   6.916   0.100   4.444
 4604SOL    HW114711   7.000   0.060   4.481
 4604SOL    HW214712   6.918   0.095   4.344
 4605SOL     OW14713   3.542   0.268   1.283
 4605SOL    HW114714   3.478   0.310   1.348
 4605SOL    HW214715   3.525   0.304   1.191
 4606SOL     OW14716   6.851   6.579   5.251
 4606SOL    HW114717   6.948   6.600   5.251
 4606SOL    HW214718   6.802   6.647   5.306
 4607SOL     OW14719   1.943   2.153   0.904
 4607SOL    HW114720   1.914   2.166   0.999
 4607SOL    HW214721   1.879   2.093   0.857
 4608SOL     OW14722   0.004   2.763   4.646
 4608SOL    HW114723   0.057   2.790   4.727
 4608SOL    HW214724   6.939   2.718   4.675
 4609SOL     OW14725   4.963   5.148   6.861
 4609SOL    HW114726   4.881   5.200   6.883
 4609SOL    HW214727   5.024   5.204   6.805
 4610SOL     OW14728   5.188   4.811   0.250
 4610SOL    HW114729   5.096   4.802   0.212
 4610SOL    HW214730   5.236   4.886   0.206
 4611SOL     OW14731   0.370   1.108   6.426
 4611SOL    HW114732   0.468   1.123   6.440
 4611SOL    HW214733   0.332   1.060   6.505
 4612SOL     OW14734   2.147   1.674   1.909
 4612SOL    HW114735   2.089   1.609   1.957
 4612SOL    HW214736   2.199   1.626   1.838
 4613SOL     OW14737   1.426   4.873   1.518
 4613SOL    HW114738   1.496   4.819   1.472
 4613SOL    HW214739   1.390   4.821   1.596
 4614SOL     OW14740   6.738   4.310   3.949
 4614SOL    HW114741   6.790   4.396   3.948
 4614SOL    HW214742   6.734   4.274   4.043
 4615SOL     OW14743   1.446   3.886   6.183
 4615SOL    HW114744   1.522   3.828   6.212
 4615SOL    HW214745   1.480   3.955   6.118
 4616SOL     OW14746   0.615   2.924   5.657
 4616SOL    HW114747   0.624   2.916   5.756
 4616SOL    HW214748   0.524   2.893   5.628
 4617SOL     OW14749   0.164   2.584   3.865
 4617SOL    HW114750   0.066   2.587   3.846
 4617SOL    HW214751   0.192   2.490   3.883
 4618SOL     OW14752   1.995   4.266   5.693
 4618SOL    HW114753   2.081   4.316   5.704
 4618SOL    HW214754   1.935   4.285   5.770
 4619SOL     OW14755   4.523   6.425   6.467
 4619SOL    HW114756   4.623   6.425   6.466
 4619SOL    HW214757   4.491   6.436   6.561
 4620SOL     OW14758   0.661   5.125   2.176
 4620SOL    HW114759   0.596   5.056   2.144
 4620SOL    HW214760   0.712   5.089   2.254
 4621SOL     OW14761   3.370   0.046   2.419
 4621SOL    HW114762   3.385   0.142   2.442
 4621SOL    HW214763   3.314   0.041   2.336
 4622SOL     OW14764   5.533   6.852   0.613
 4622SOL    HW114765   5.600   6.790   0.653
 4622SOL    HW214766   5.554   6.946   0.641
 4623SOL     OW14767   3.112   4.771   1.545
 4623SOL    HW114768   3.166   4.745   1.626
 4623SOL    HW214769   3.016   4.748   1.562
 4624SOL     OW14770   4.459   1.215   2.211
 4624SOL    HW114771   4.557   1.203   2.230
 4624SOL    HW214772   4.430   1.305   2.242
 4625SOL     OW14773   1.893   6.333   1.217
 4625SOL    HW114774   1.952   6.336   1.298
 4625SOL    HW214775   1.816   6.272   1.234
 4626SOL     OW14776   4.241   3.406   1.588
 4626SOL    HW114777   4.246   3.341   1.512
 4626SOL    HW214778   4.320   3.392   1.648
 4627SOL     OW14779   5.505   0.252   5.388
 4627SOL    HW114780   5.592   0.294   5.361
 4627SOL    HW214781   5.494   0.165   5.340
 4628SOL     OW14782   5.724   4.618   3.772
 4628SOL    HW114783   5.773   4.532   3.787
 4628SOL    HW214784   5.630   4.599   3.744
 4629SOL     OW14785   1.926   5.448   0.204
 4629SOL    HW114786   1.912   5.542   0.235
 4629SOL    HW214787   1.838   5.409   0.173
 4630SOL     OW14788   2.027   3.485   1.399
 4630SOL    HW114789   2.096   3.469   1.470
 4630SOL    HW214790   2.014   3.401   1.346
 4631SOL     OW14791   6.943   0.685   3.273
 4631SOL    HW114792   6.929   0.714   3.367
 4631SOL    HW214793   0.021   0.693   3.250
 4632SOL     OW14794   3.514   4.997   2.931
 4632SOL    HW114795   3.436   4.969   2.988
 4632SOL    HW214796   3.511   5.096   2.916
 4633SOL     OW14797   4.986   1.468   4.672
 4633SOL    HW114798   4.953   1.383   4.630
 4633SOL    HW214799   5.053   1.445   4.744
 4634SOL     OW14800   3.972   3.936   5.278
 4634SOL    HW114801   3.982   3.840   5.252
 4634SOL    HW214802   4.043   3.960   5.344
 4635SOL     OW14803   4.429   6.521   1.408
 4635SOL    HW114804   4.416   6.491   1.313
 4635SOL    HW214805   4.471   6.611   1.409
 4636SOL     OW14806   1.131   5.159   0.050
 4636SOL    HW114807   1.102   5.236   7.012
 4636SOL    HW214808   1.198   5.104   0.000
 4637SOL     OW14809   3.219   1.503   3.616
 4637SOL    HW114810   3.232   1.455   3.529
 4637SOL    HW214811   3.160   1.583   3.601
 4638SOL     OW14812   4.030   4.832   6.824
 4638SOL    HW114813   4.063   4.887   6.901
 4638SOL    HW214814   4.055   4.877   6.738
 4639SOL     OW14815   3.911   2.063   1.943
 4639SOL    HW114816   3.840   2.132   1.956
 4639SOL    HW214817   3.940   2.027   2.031
 4640SOL     OW14818   6.058   3.996   0.014
 4640SOL    HW114819   6.145   4.036   7.005
 4640SOL    HW214820   6.011   4.060   0.075
 4641SOL     OW14821   1.616   5.684   4.499
 4641SOL    HW114822   1.674   5.604   4.486
 4641SOL    HW214823   1.623   5.717   4.593
 4642SOL     OW14824   6.546   0.904   4.801
 4642SOL    HW114825   6.473   0.961   4.763
 4642SOL    HW214826   6.548   0.816   4.753
 4643SOL     OW14827   0.637   2.076   7.017
 4643SOL    HW114828   0.709   2.028   0.048
 4643SOL    HW214829   0.548   2.051   0.035
 4644SOL     OW14830   1.432   0.622   0.792
 4644SOL    HW114831   1.454   0.631   0.695
 4644SOL    HW214832   1.354   0.560   0.803
 4645SOL     OW14833   6.406   1.632   4.555
 4645SOL    HW114834   6.502   1.629   4.527
 4645SOL    HW214835   6.348   1.620   4.474
 4646SOL     OW14836   2.399   4.403   4.029
 4646SOL    HW114837   2.322   4.459   3.997
 4646SOL    HW214838   2.414   4.327   3.966
 4647SOL     OW14839   1.232   6.538   1.144
 4647SOL    HW114840   1.286   6.472   1.092
 4647SOL    HW214841   1.254   6.530   1.241
 4648SOL     OW14842   2.450   1.415   4.531
 4648SOL    HW114843   2.506   1.439   4.451
 4648SOL    HW214844   2.476   1.325   4.565
 4649SOL     OW14845   6.008   1.456   0.055
 4649SOL    HW114846   5.971   1.364   0.063
 4649SOL    HW214847   6.057   1.480   0.139
 4650SOL     OW14848   5.261   6.504   0.907
 4650SOL    HW114849   5.242   6.474   1.000
 4650SOL    HW214850   5.176   6.536   0.864
 4651SOL     OW14851   6.833   3.373   6.300
 4651SOL    HW114852   6.804   3.352   6.394
 4651SOL    HW214853   6.932   3.371   6.295
 4652SOL     OW14854   0.120   6.389   5.176
 4652SOL    HW114855   0.162   6.364   5.089
 4652SOL    HW214856   0.113   6.488   5.183
 4653SOL     OW14857   6.571   5.580   0.471
 4653SOL    HW114858   6.577   5.541   0.378
 4653SOL    HW214859   6.662   5.587   0.510
 4654SOL     OW14860   0.988   0.305   6.005
 4654SOL    HW114861   0.939   0.302   6.092
 4654SOL    HW214862   0.970   0.221   5.954
 4655SOL     OW14863   5.039   3.026   1.631
 4655SOL    HW114864   5.016   2.987   1.719
 4655SOL    HW214865   4.957   3.035   1.575
 4656SOL     OW14866   6.570   0.837   1.690
 4656SOL    HW114867   6.516   0.754   1.701
 4656SOL    HW214868   6.539   0.886   1.608
 4657SOL     OW14869   3.401   1.109   3.454
 4657SOL    HW114870   3.345   1.116   3.536
 4657SOL    HW214871   3.461   1.028   3.461
 4658SOL     OW14872   1.192   2.488   6.103
 4658SOL    HW114873   1.114   2.527   6.152
 4658SOL    HW214874   1.192   2.521   6.009
 4659SOL     OW14875   1.741   4.387   0.014
 4659SOL    HW114876   1.693   4.426   6.955
 4659SOL    HW214877   1.679   4.327   0.065
 4660SOL     OW14878   1.024   5.502   3.181
 4660SOL    HW114879   1.023   5.428   3.113
 4660SOL    HW214880   1.086   5.574   3.152
 4661SOL     OW14881   0.515   1.489   6.148
 4661SOL    HW114882   0.423   1.509   6.116
 4661SOL    HW214883   0.581   1.542   6.095
 4662SOL     OW14884   2.142   0.498   5.383
 4662SOL    HW114885   2.126   0.590   5.349
 4662SOL    HW214886   2.057   0.447   5.384
 4663SOL     OW14887   1.402   0.030   0.244
 4663SOL    HW114888   1.377   0.083   0.163
 4663SOL    HW214889   1.450   0.089   0.309
 4664SOL     OW14890   5.962   0.108   6.283
 4664SOL    HW114891   6.010   0.131   6.368
 4664SOL    HW214892   5.967   0.186   6.221
 4665SOL     OW14893   1.292   0.298   3.585
 4665SOL    HW114894   1.311   0.373   3.521
 4665SOL    HW214895   1.193   0.292   3.599
 4666SOL     OW14896   2.135   1.856   4.874
 4666SOL    HW114897   2.179   1.777   4.915
 4666SOL    HW214898   2.045   1.870   4.915
 4667SOL     OW14899   6.140   4.356   1.068
 4667SOL    HW114900   6.214   4.390   1.009
 4667SOL    HW214901   6.178   4.327   1.156
 4668SOL     OW14902   4.945   1.738   4.703
 4668SOL    HW114903   4.850   1.760   4.681
 4668SOL    HW214904   4.964   1.643   4.679
 4669SOL     OW14905   5.396   6.839   6.216
 4669SOL    HW114906   5.362   6.759   6.266
 4669SOL    HW214907   5.495   6.830   6.202
 4670SOL     OW14908   0.442   2.850   0.166
 4670SOL    HW114909   0.351   2.879   0.196
 4670SOL    HW214910   0.450   2.861   0.067
 4671SOL     OW14911   0.673   3.005   1.491
 4671SOL    HW114912   0.751   3.014   1.430
 4671SOL    HW214913   0.669   3.084   1.552
 4672SOL     OW14914   3.103   4.275   6.779
 4672SOL    HW114915   3.008   4.247   6.787
 4672SOL    HW214916   3.156   4.201   6.737
 4673SOL     OW14917   6.200   1.093   0.505
 4673SOL    HW114918   6.176   1.180   0.462
 4673SOL    HW214919   6.162   1.091   0.598
 4674SOL     OW14920   0.587   2.763   1.004
 4674SOL    HW114921   0.560   2.759   1.101
 4674SOL    HW214922   0.594   2.858   0.975
 4675SOL     OW14923   1.735   5.510   6.701
 4675SOL    HW114924   1.753   5.415   6.673
 4675SOL    HW214925   1.686   5.558   6.628
 4676SOL     OW14926   0.703   6.679   3.911
 4676SOL    HW114927   0.768   6.610   3.879
 4676SOL    HW214928   0.737   6.722   3.994
 4677SOL     OW14929   3.846   7.004   0.143
 4677SOL    HW114930   3.839   6.922   0.201
 4677SOL    HW214931   3.823   0.066   0.197
 4678SOL     OW14932   2.191   4.516   6.685
 4678SOL    HW114933   2.204   4.493   6.588
 4678SOL    HW214934   2.158   4.435   6.734
 4679SOL     OW14935   2.601   6.470   6.099
 4679SOL    HW114936   2.598   6.427   6.189
 4679SOL    HW214937   2.535   6.425   6.039
 4680SOL     OW14938   1.602   4.492   0.334
 4680SOL    HW114939   1.702   4.491   0.345
 4680SOL    HW214940   1.564   4.564   0.391
 4681SOL     OW14941   6.631   5.880   4.777
 4681SOL    HW114942   6.533   5.858   4.782
 4681SOL    HW214943   6.666   5.854   4.687
 4682SOL     OW14944   3.989   6.533   0.916
 4682SOL    HW114945   3.947   6.469   0.851
 4682SOL    HW214946   4.056   6.590   0.867
 4683SOL     OW14947   6.619   4.353   3.527
 4683SOL    HW114948   6.565   4.274   3.499
 4683SOL    HW214949   6.558   4.429   3.550
 4684SOL     OW14950   1.652   1.270   5.106
 4684SOL    HW114951   1.671   1.177   5.136
 4684SOL    HW214952   1.626   1.269   5.009
 4685SOL     OW14953   5.080   4.296   5.162
 4685SOL    HW114954   5.006   4.315   5.227
 4685SOL    HW214955   5.043   4.290   5.070
 4686SOL     OW14956   5.119   5.853   0.595
 4686SOL    HW114957   5.098   5.898   0.508
 4686SOL    HW214958   5.034   5.835   0.644
 4687SOL     OW14959   5.328   6.587   4.567
 4687SOL    HW114960   5.326   6.505   4.510
 4687SOL    HW214961   5.326   6.561   4.664
 4688SOL     OW14962   0.958   2.371   0.068
 4688SOL    HW114963   0.900   2.339   7.012
 4688SOL    HW214964   0.919   2.341   0.155
 4689SOL     OW14965   1.373   5.227   4.938
 4689SOL    HW114966   1.456   5.226   4.881
 4689SOL    HW214967   1.369   5.143   4.992
 4690SOL     OW14968   1.950   2.093   0.538
 4690SOL    HW114969   1.995   2.085   0.627
 4690SOL    HW214970   1.919   2.003   0.508
 4691SOL     OW14971   3.845   4.417   0.400
 4691SOL    HW114972   3.907   4.487   0.435
 4691SOL    HW214973   3.879   4.326   0.425
 4692SOL     OW14974   0.248   5.732   3.086
 4692SOL    HW114975   0.216   5.682   3.005
 4692SOL    HW214976   0.170   5.775   3.131
 4693SOL     OW14977   0.928   0.687   3.989
 4693SOL    HW114978   1.001   0.670   3.923
 4693SOL    HW214979   0.955   0.653   4.079
 4694SOL     OW14980   1.538   1.113   6.154
 4694SOL    HW114981   1.617   1.170   6.177
 4694SOL    HW214982   1.494   1.147   6.071
 4695SOL     OW14983   2.750   2.863   1.667
 4695SOL    HW114984   2.842   2.843   1.701
 4695SOL    HW214985   2.705   2.777   1.642
 4696SOL     OW14986   5.992   3.376   0.565
 4696SOL    HW114987   5.997   3.424   0.477
 4696SOL    HW214988   5.981   3.278   0.549
 4697SOL     OW14989   0.827   4.961   0.170
 4697SOL    HW114990   0.813   5.036   0.235
 4697SOL    HW214991   0.786   4.986   0.082
 4698SOL     OW14992   6.040   3.526   1.383
 4698SOL    HW114993   6.120   3.508   1.440
 4698SOL    HW214994   6.056   3.610   1.329
 4699SOL     OW14995   6.359   0.006   3.428
 4699SOL    HW114996   6.310   0.075   3.481
 4699SOL    HW214997   6.395   6.956   3.490
 4700SOL     OW14998   5.876   6.660   0.228
 4700SOL    HW114999   5.901   6.636   0.135
 4700SOL    HW215000   5.788   6.618   0.251
 4701SOL     OW15001   0.093   0.855   0.720
 4701SOL    HW115002   0.053   0.888   0.806
 4701SOL    HW215003   0.027   0.800   0.671
 4702SOL     OW15004   2.640   3.447   0.177
 4702SOL    HW115005   2.700   3.520   0.211
 4702SOL    HW215006   2.679   3.358   0.199
 4703SOL     OW15007   1.222   1.376   1.084
 4703SOL    HW115008   1.261   1.451   1.137
 4703SOL    HW215009   1.291   1.305   1.071
 4704SOL     OW15010   4.494   0.037   0.340
 4704SOL    HW115011   4.525   0.124   0.302
 4704SOL    HW215012   4.525   0.028   0.434
 4705SOL     OW15013   3.167   4.045   3.820
 4705SOL    HW115014   3.098   3.987   3.863
 4705SOL    HW215015   3.227   4.082   3.891
 4706SOL     OW15016   4.758   5.211   1.073
 4706SOL    HW115017   4.756   5.171   1.165
 4706SOL    HW215018   4.665   5.238   1.047
 4707SOL     OW15019   3.550   6.277   1.418
 4707SOL    HW115020   3.616   6.321   1.358
 4707SOL    HW215021   3.597   6.222   1.486
 4708SOL     OW15022   1.913   2.407   2.297
 4708SOL    HW115023   1.849   2.395   2.221
 4708SOL    HW215024   1.955   2.319   2.320
 4709SOL     OW15025   3.592   3.796   6.601
 4709SOL    HW115026   3.691   3.786   6.590
 4709SOL    HW215027   3.572   3.880   6.651
 4710SOL     OW15028   5.122   2.583   0.531
 4710SOL    HW115029   5.061   2.594   0.609
 4710SOL    HW215030   5.163   2.672   0.508
 4711SOL     OW15031   3.328   6.488   3.049
 4711SOL    HW115032   3.279   6.571   3.021
 4711SOL    HW215033   3.295   6.459   3.139
 4712SOL     OW15034   1.218   4.539   0.510
 4712SOL    HW115035   1.215   4.478   0.430
 4712SOL    HW215036   1.310   4.537   0.549
 4713SOL     OW15037   2.380   6.039   0.927
 4713SOL    HW115038   2.456   6.003   0.981
 4713SOL    HW215039   2.302   6.058   0.986
 4714SOL     OW15040   3.150   2.411   0.581
 4714SOL    HW115041   3.107   2.499   0.599
 4714SOL    HW215042   3.250   2.421   0.588
 4715SOL     OW15043   5.534   3.902   4.583
 4715SOL    HW115044   5.616   3.849   4.608
 4715SOL    HW215045   5.546   3.941   4.492
 4716SOL     OW15046   3.036   5.371   0.289
 4716SOL    HW115047   2.999   5.311   0.218
 4716SOL    HW215048   2.993   5.350   0.377
 4717SOL     OW15049   1.044   5.792   3.935
 4717SOL    HW115050   1.082   5.835   3.853
 4717SOL    HW215051   1.058   5.693   3.931
 4718SOL     OW15052   5.352   1.118   6.404
 4718SOL    HW115053   5.443   1.158   6.394
 4718SOL    HW215054   5.343   1.040   6.343
 4719SOL     OW15055   4.221   3.034   1.611
 4719SOL    HW115056   4.305   3.039   1.665
 4719SOL    HW215057   4.232   3.085   1.526
 4720SOL     OW15058   2.987   0.836   4.252
 4720SOL    HW115059   3.046   0.883   4.186
 4720SOL    HW215060   2.986   0.887   4.338
 4721SOL     OW15061   0.851   1.729   0.719
 4721SOL    HW115062   0.876   1.677   0.800
 4721SOL    HW215063   0.841   1.667   0.641
 4722SOL     OW15064   2.636   0.308   1.800
 4722SOL    HW115065   2.638   0.408   1.792
 4722SOL    HW215066   2.544   0.278   1.826
 4723SOL     OW15067   2.901   0.098   6.753
 4723SOL    HW115068   2.860   0.028   6.811
 4723SOL    HW215069   2.969   0.057   6.692
 4724SOL     OW15070   4.007   5.025   1.798
 4724SOL    HW115071   3.990   5.094   1.868
 4724SOL    HW215072   4.060   4.950   1.837
 4725SOL     OW15073   6.106   5.544   3.292
 4725SOL    HW115074   6.030   5.519   3.351
 4725SOL    HW215075   6.192   5.509   3.330
 4726SOL     OW15076   0.656   6.169   5.628
 4726SOL    HW115077   0.615   6.152   5.539
 4726SOL    HW215078   0.693   6.083   5.664
 4727SOL     OW15079   6.957   6.464   0.703
 4727SOL    HW115080   6.890   6.530   0.737
 4727SOL    HW215081   0.028   6.506   0.702
 4728SOL     OW15082   0.136   1.382   0.068
 4728SOL    HW115083   0.126   1.298   0.014
 4728SOL    HW215084   0.048   1.427   0.076
 4729SOL     OW15085   3.012   0.205   0.534
 4729SOL    HW115086   3.008   0.126   0.472
 4729SOL    HW215087   2.996   0.289   0.482
 4730SOL     OW15088   2.361   0.308   5.328
 4730SOL    HW115089   2.393   0.336   5.237
 4730SOL    HW215090   2.286   0.367   5.356
 4731SOL     OW15091   5.529   1.977   5.905
 4731SOL    HW115092   5.609   2.032   5.928
 4731SOL    HW215093   5.507   1.915   5.981
 4732SOL     OW15094   0.450   1.665   0.636
 4732SOL    HW115095   0.458   1.656   0.735
 4732SOL    HW215096   0.362   1.708   0.614
 4733SOL     OW15097   6.545   3.033   3.891
 4733SOL    HW115098   6.483   3.111   3.885
 4733SOL    HW215099   6.519   2.975   3.968
 4734SOL     OW15100   5.029   4.581   5.784
 4734SOL    HW115101   5.044   4.565   5.882
 4734SOL    HW215102   5.009   4.677   5.769
 4735SOL     OW15103   0.117   4.705   3.857
 4735SOL    HW115104   0.210   4.666   3.856
 4735SOL    HW215105   0.062   4.657   3.926
 4736SOL     OW15106   1.617   0.599   1.369
 4736SOL    HW115107   1.584   0.507   1.389
 4736SOL    HW215108   1.652   0.641   1.453
 4737SOL     OW15109   3.459   5.578   1.730
 4737SOL    HW115110   3.471   5.516   1.653
 4737SOL    HW215111   3.439   5.525   1.813
 4738SOL     OW15112   0.088   6.114   2.953
 4738SOL    HW115113   0.057   6.142   3.043
 4738SOL    HW215114   0.046   6.172   2.883
 4739SOL     OW15115   4.665   0.635   1.561
 4739SOL    HW115116   4.736   0.582   1.514
 4739SOL    HW215117   4.686   0.732   1.553
 4740SOL     OW15118   0.812   2.595   3.674
 4740SOL    HW115119   0.746   2.521   3.690
 4740SOL    HW215120   0.904   2.557   3.672
 4741SOL     OW15121   4.035   4.350   1.214
 4741SOL    HW115122   4.129   4.316   1.212
 4741SOL    HW215123   4.001   4.349   1.307
 4742SOL     OW15124   3.540   1.211   0.622
 4742SOL    HW115125   3.593   1.176   0.700
 4742SOL    HW215126   3.569   1.165   0.539
 4743SOL     OW15127   1.706   4.912   0.608
 4743SOL    HW115128   1.776   4.927   0.538
 4743SOL    HW215129   1.709   4.986   0.675
 4744SOL     OW15130   2.432   5.562   1.356
 4744SOL    HW115131   2.361   5.519   1.300
 4744SOL    HW215132   2.516   5.508   1.351
 4745SOL     OW15133   1.019   3.702   0.148
 4745SOL    HW115134   1.068   3.681   0.063
 4745SOL    HW215135   1.027   3.800   0.168
 4746SOL     OW15136   4.412   5.567   4.534
 4746SOL    HW115137   4.353   5.541   4.611
 4746SOL    HW215138   4.490   5.505   4.530
 4747SOL     OW15139   2.048   1.189   0.155
 4747SOL    HW115140   2.112   1.202   0.231
 4747SOL    HW215141   2.083   1.237   0.074
 4748SOL     OW15142   1.794   6.448   1.740
 4748SOL    HW115143   1.732   6.374   1.716
 4748SOL    HW215144   1.748   6.536   1.727
 4749SOL     OW15145   2.913   2.169   0.134
 4749SOL    HW115146   2.951   2.197   0.223
 4749SOL    HW215147   2.909   2.070   0.131
 4750SOL     OW15148   5.170   2.776   5.099
 4750SOL    HW115149   5.256   2.827   5.105
 4750SOL    HW215150   5.116   2.793   5.181
 4751SOL     OW15151   4.682   0.532   3.249
 4751SOL    HW115152   4.710   0.446   3.292
 4751SOL    HW215153   4.656   0.598   3.320
 4752SOL     OW15154   4.931   1.958   6.555
 4752SOL    HW115155   4.879   1.893   6.611
 4752SOL    HW215156   4.870   2.004   6.491
 4753SOL     OW15157   3.107   6.427   4.995
 4753SOL    HW115158   3.066   6.388   4.913
 4753SOL    HW215159   3.134   6.354   5.058
 4754SOL     OW15160   4.684   4.414   6.484
 4754SOL    HW115161   4.657   4.422   6.580
 4754SOL    HW215162   4.636   4.483   6.430
 4755SOL     OW15163   0.677   0.943   1.386
 4755SOL    HW115164   0.710   0.973   1.476
 4755SOL    HW215165   0.752   0.901   1.336
 4756SOL     OW15166   6.462   3.944   5.445
 4756SOL    HW115167   6.530   3.871   5.455
 4756SOL    HW215168   6.506   4.026   5.408
 4757SOL     OW15169   1.949   3.791   0.473
 4757SOL    HW115170   1.888   3.749   0.406
 4757SOL    HW215171   2.043   3.766   0.452
 4758SOL     OW15172   2.171   5.852   3.304
 4758SOL    HW115173   2.173   5.757   3.274
 4758SOL    HW215174   2.223   5.909   3.239
 4759SOL     OW15175   0.001   6.631   1.930
 4759SOL    HW115176   6.939   6.618   1.873
 4759SOL    HW215177   0.078   6.583   1.889
 4760SOL     OW15178   1.728   5.670   0.644
 4760SOL    HW115179   1.663   5.743   0.663
 4760SOL    HW215180   1.726   5.603   0.718
 4761SOL     OW15181   5.883   6.404   1.980
 4761SOL    HW115182   5.954   6.474   1.988
 4761SOL    HW215183   5.926   6.314   1.972
 4762SOL     OW15184   2.125   0.361   2.421
 4762SOL    HW115185   2.181   0.310   2.356
 4762SOL    HW215186   2.028   0.344   2.403
 4763SOL     OW15187   5.737   5.312   2.450
 4763SOL    HW115188   5.672   5.344   2.519
 4763SOL    HW215189   5.802   5.248   2.492
 4764SOL     OW15190   4.866   2.315   0.302
 4764SOL    HW115191   4.879   2.411   0.328
 4764SOL    HW215192   4.922   2.256   0.360
 4765SOL     OW15193   3.816   1.767   5.680
 4765SOL    HW115194   3.886   1.702   5.711
 4765SOL    HW215195   3.846   1.860   5.700
 4766SOL     OW15196   1.007   0.393   4.854
 4766SOL    HW115197   0.910   0.417   4.861
 4766SOL    HW215198   1.017   0.299   4.820
 4767SOL     OW15199   2.165   3.883   3.147
 4767SOL    HW115200   2.202   3.938   3.222
 4767SOL    HW215201   2.197   3.921   3.060
 4768SOL     OW15202   4.521   2.817   6.320
 4768SOL    HW115203   4.504   2.784   6.412
 4768SOL    HW215204   4.442   2.869   6.287
 4769SOL     OW15205   1.614   3.542   0.568
 4769SOL    HW115206   1.594   3.583   0.480
 4769SOL    HW215207   1.564   3.455   0.577
 4770SOL     OW15208   0.349   1.787   4.207
 4770SOL    HW115209   0.393   1.875   4.187
 4770SOL    HW215210   0.382   1.718   4.142
 4771SOL     OW15211   2.149   6.979   4.012
 4771SOL    HW115212   2.135   6.939   4.103
 4771SOL    HW215213   2.083   6.939   3.948
 4772SOL     OW15214   3.035   5.300   2.558
 4772SOL    HW115215   2.944   5.338   2.542
 4772SOL    HW215216   3.102   5.349   2.502
 4773SOL     OW15217   2.893   4.964   5.122
 4773SOL    HW115218   2.849   4.919   5.044
 4773SOL    HW215219   2.990   4.939   5.124
 4774SOL     OW15220   0.865   4.550   0.860
 4774SOL    HW115221   0.866   4.494   0.943
 4774SOL    HW215222   0.906   4.499   0.785
 4775SOL     OW15223   5.942   6.143   5.499
 4775SOL    HW115224   5.940   6.060   5.553
 4775SOL    HW215225   5.931   6.120   5.402
 4776SOL     OW15226   0.347   1.207   5.877
 4776SOL    HW115227   0.285   1.130   5.862
 4776SOL    HW215228   0.363   1.219   5.975
 4777SOL     OW15229   2.325   0.342   2.600
 4777SOL    HW115230   2.260   0.359   2.525
 4777SOL    HW215231   2.345   0.429   2.646
 4778SOL     OW15232   1.649   1.472   0.479
 4778SOL    HW115233   1.635   1.383   0.522
 4778SOL    HW215234   1.620   1.469   0.384
 4779SOL     OW15235   5.042   0.384   4.685
 4779SOL    HW115236   4.963   0.431   4.646
 4779SOL    HW215237   5.022   0.286   4.692
 4780SOL     OW15238   4.998   2.683   4.908
 4780SOL    HW115239   5.066   2.707   4.977
 4780SOL    HW215240   4.953   2.597   4.933
 4781SOL     OW15241   1.818   5.720   1.628
 4781SOL    HW115242   1.841   5.688   1.720
 4781SOL    HW215243   1.769   5.647   1.579
 4782SOL     OW15244   6.829   6.797   4.261
 4782SOL    HW115245   6.813   6.827   4.355
 4782SOL    HW215246   6.889   6.717   4.262
 4783SOL     OW15247   0.073   3.578   5.949
 4783SOL    HW115248   0.140   3.585   6.023
 4783SOL    HW215249   0.110   3.621   5.866
 4784SOL     OW15250   5.103   3.593   6.763
 4784SOL    HW115251   5.101   3.643   6.850
 4784SOL    HW215252   5.086   3.496   6.780
 4785SOL     OW15253   0.711   0.215   4.554
 4785SOL    HW115254   0.770   0.248   4.479
 4785SOL    HW215255   0.727   0.117   4.568
 4786SOL     OW15256   0.781   6.112   0.650
 4786SOL    HW115257   0.711   6.055   0.608
 4786SOL    HW215258   0.837   6.056   0.711
 4787SOL     OW15259   4.445   1.372   4.137
 4787SOL    HW115260   4.409   1.324   4.217
 4787SOL    HW215261   4.487   1.458   4.165
 4788SOL     OW15262   0.086   6.220   0.773
 4788SOL    HW115263   0.185   6.228   0.758
 4788SOL    HW215264   0.044   6.311   0.763
 4789SOL     OW15265   5.796   0.721   2.624
 4789SOL    HW115266   5.748   0.692   2.708
 4789SOL    HW215267   5.853   0.645   2.591
 4790SOL     OW15268   6.739   1.966   4.964
 4790SOL    HW115269   6.662   2.030   4.972
 4790SOL    HW215270   6.760   1.928   5.054
 4791SOL     OW15271   0.813   0.100   0.164
 4791SOL    HW115272   0.820   0.071   0.260
 4791SOL    HW215273   0.897   0.075   0.116
 4792SOL     OW15274   1.770   3.394   2.187
 4792SOL    HW115275   1.769   3.296   2.168
 4792SOL    HW215276   1.863   3.425   2.204
 4793SOL     OW15277   1.173   3.888   5.920
 4793SOL    HW115278   1.136   3.839   5.841
 4793SOL    HW215279   1.189   3.823   5.995
 4794SOL     OW15280   4.632   1.747   4.581
 4794SOL    HW115281   4.627   1.651   4.608
 4794SOL    HW215282   4.555   1.797   4.619
 4795SOL     OW15283   6.845   0.948   6.372
 4795SOL    HW115284   6.757   0.916   6.337
 4795SOL    HW215285   6.871   0.894   6.452
 4796SOL     OW15286   4.761   1.109   5.338
 4796SOL    HW115287   4.731   1.014   5.350
 4796SOL    HW215288   4.756   1.156   5.426
 4797SOL     OW15289   1.710   5.019   5.736
 4797SOL    HW115290   1.660   5.034   5.651
 4797SOL    HW215291   1.731   4.922   5.746
 4798SOL     OW15292   3.994   5.740   0.163
 4798SOL    HW115293   3.946   5.778   0.084
 4798SOL    HW215294   3.939   5.757   0.246
 4799SOL     OW15295   4.530   2.520   0.343
 4799SOL    HW115296   4.526   2.461   0.263
 4799SOL    HW215297   4.622   2.556   0.354
 4800SOL     OW15298   0.210   4.480   6.911
 4800SOL    HW115299   0.194   4.417   6.987
 4800SOL    HW215300   0.143   4.463   6.839
 4801SOL     OW15301   5.302   2.224   2.119
 4801SOL    HW115302   5.230   2.188   2.178
 4801SOL    HW215303   5.291   2.188   2.026
 4802SOL     OW15304   6.530   0.447   4.570
 4802SOL    HW115305   6.467   0.372   4.591
 4802SOL    HW215306   6.528   0.514   4.643
 4803SOL     OW15307   4.922   3.846   5.644
 4803SOL    HW115308   4.823   3.831   5.646
 4803SOL    HW215309   4.949   3.874   5.552
 4804SOL     OW15310   5.476   2.257   0.483
 4804SOL    HW115311   5.535   2.186   0.521
 4804SOL    HW215312   5.431   2.223   0.401
 4805SOL     OW15313   6.113   1.688   6.922
 4805SOL    HW115314   6.080   1.622   6.990
 4805SOL    HW215315   6.144   1.640   6.841
 4806SOL     OW15316   1.296   1.302   3.468
 4806SOL    HW115317   1.356   1.282   3.545
 4806SOL    HW215318   1.279   1.400   3.463
 4807SOL     OW15319   6.926   4.505   5.852
 4807SOL    HW115320   6.997   4.443   5.816
 4807SOL    HW215321   6.886   4.557   5.776
 4808SOL     OW15322   3.853   5.918   1.824
 4808SOL    HW115323   3.900   5.948   1.741
 4808SOL    HW215324   3.787   5.987   1.852
 4809SOL     OW15325   2.846   3.431   1.501
 4809SOL    HW115326   2.825   3.342   1.541
 4809SOL    HW215327   2.928   3.424   1.445
 4810SOL     OW15328   1.340   5.471   4.085
 4810SOL    HW115329   1.400   5.542   4.120
 4810SOL    HW215330   1.279   5.439   4.158
 4811SOL     OW15331   3.353   3.893   4.177
 4811SOL    HW115332   3.409   3.877   4.258
 4811SOL    HW215333   3.272   3.946   4.202
 4812SOL     OW15334   1.904   6.684   2.841
 4812SOL    HW115335   1.847   6.675   2.923
 4812SOL    HW215336   1.887   6.773   2.799
 4813SOL     OW15337   0.528   1.474   5.481
 4813SOL    HW115338   0.482   1.495   5.394
 4813SOL    HW215339   0.623   1.448   5.463
 4814SOL     OW15340   6.400   3.758   1.451
 4814SOL    HW115341   6.321   3.802   1.496
 4814SOL    HW215342   6.380   3.662   1.436
 4815SOL     OW15343   5.766   4.679   2.424
 4815SOL    HW115344   5.794   4.600   2.478
 4815SOL    HW215345   5.794   4.763   2.471
 4816SOL     OW15346   3.465   1.186   2.259
 4816SOL    HW115347   3.383   1.139   2.292
 4816SOL    HW215348   3.494   1.146   2.172
 4817SOL     OW15349   3.990   1.517   0.940
 4817SOL    HW115350   3.911   1.459   0.959
 4817SOL    HW215351   4.074   1.465   0.956
 4818SOL     OW15352   4.160   6.961   4.919
 4818SOL    HW115353   4.107   6.953   4.836
 4818SOL    HW215354   4.203   0.032   4.922
 4819SOL     OW15355   2.940   1.222   0.555
 4819SOL    HW115356   2.840   1.214   0.549
 4819SOL    HW215357   2.983   1.154   0.497
 4820SOL     OW15358   5.820   4.284   1.888
 4820SOL    HW115359   5.757   4.328   1.952
 4820SOL    HW215360   5.769   4.230   1.822
 4821SOL     OW15361   0.092   5.590   1.857
 4821SOL    HW115362   0.188   5.607   1.878
 4821SOL    HW215363   0.034   5.631   1.928
 4822SOL     OW15364   0.980   3.685   1.912
 4822SOL    HW115365   0.907   3.711   1.849
 4822SOL    HW215366   0.950   3.607   1.968
 4823SOL     OW15367   1.645   0.903   3.515
 4823SOL    HW115368   1.682   0.810   3.522
 4823SOL    HW215369   1.621   0.922   3.420
 4824SOL     OW15370   5.680   2.826   1.709
 4824SOL    HW115371   5.603   2.793   1.762
 4824SOL    HW215372   5.682   2.780   1.620
 4825SOL     OW15373   0.032   3.224   3.495
 4825SOL    HW115374   0.104   3.202   3.430
 4825SOL    HW215375   0.050   3.313   3.537
 4826SOL     OW15376   6.790   6.335   6.787
 4826SOL    HW115377   6.774   6.400   6.713
 4826SOL    HW215378   6.766   6.377   6.875
 4827SOL     OW15379   5.555   1.218   1.032
 4827SOL    HW115380   5.615   1.154   1.081
 4827SOL    HW215381   5.463   1.212   1.069
 4828SOL     OW15382   5.067   3.336   6.870
 4828SOL    HW115383   5.144   3.327   6.807
 4828SOL    HW215384   4.984   3.299   6.827
 4829SOL     OW15385   3.915   6.907   5.046
 4829SOL    HW115386   3.825   6.948   5.028
 4829SOL    HW215387   3.982   6.943   4.982
 4830SOL     OW15388   4.168   6.403   5.012
 4830SOL    HW115389   4.242   6.336   5.007
 4830SOL    HW215390   4.207   6.495   5.021
 4831SOL     OW15391   5.985   3.340   5.864
 4831SOL    HW115392   6.069   3.370   5.909
 4831SOL    HW215393   5.950   3.259   5.909
 4832SOL     OW15394   1.882   2.799   6.080
 4832SOL    HW115395   1.980   2.778   6.087
 4832SOL    HW215396   1.865   2.890   6.118
 4833SOL     OW15397   5.992   1.742   3.111
 4833SOL    HW115398   5.910   1.706   3.067
 4833SOL    HW215399   6.050   1.785   3.042
 4834SOL     OW15400   5.631   1.051   3.381
 4834SOL    HW115401   5.684   0.974   3.414
 4834SOL    HW215402   5.649   1.131   3.438
 4835SOL     OW15403   1.725   0.526   5.559
 4835SOL    HW115404   1.778   0.590   5.503
 4835SOL    HW215405   1.677   0.462   5.499
 4836SOL     OW15406   5.425   2.952   1.825
 4836SOL    HW115407   5.351   2.990   1.880
 4836SOL    HW215408   5.402   2.959   1.728
 4837SOL     OW15409   0.256   3.597   1.341
 4837SOL    HW115410   0.241   3.693   1.366
 4837SOL    HW215411   0.336   3.562   1.390
 4838SOL     OW15412   2.643   5.192   2.714
 4838SOL    HW115413   2.594   5.120   2.763
 4838SOL    HW215414   2.577   5.249   2.664
 4839SOL     OW15415   0.628   0.040   6.972
 4839SOL    HW115416   0.657   6.971   6.936
 4839SOL    HW215417   0.679   0.061   0.035
 4840SOL     OW15418   6.243   6.802   6.649
 4840SOL    HW115419   6.218   6.866   6.576
 4840SOL    HW215420   6.173   6.806   6.721
 4841SOL     OW15421   2.697   6.229   2.392
 4841SOL    HW115422   2.762   6.159   2.363
 4841SOL    HW215423   2.605   6.202   2.366
 4842SOL     OW15424   3.666   6.711   1.271
 4842SOL    HW115425   3.583   6.743   1.225
 4842SOL    HW215426   3.733   6.684   1.202
 4843SOL     OW15427   1.125   3.080   6.885
 4843SOL    HW115428   1.126   3.137   6.968
 4843SOL    HW215429   1.092   3.134   6.808
 4844SOL     OW15430   0.251   1.622   5.701
 4844SOL    HW115431   0.301   1.560   5.641
 4844SOL    HW215432   0.314   1.692   5.736
 4845SOL     OW15433   5.629   4.996   3.812
 4845SOL    HW115434   5.533   4.969   3.804
 4845SOL    HW215435   5.637   5.095   3.800
 4846SOL     OW15436   0.519   5.273   0.462
 4846SOL    HW115437   0.477   5.345   0.518
 4846SOL    HW215438   0.458   5.195   0.457
 4847SOL     OW15439   4.871   2.325   4.230
 4847SOL    HW115440   4.813   2.371   4.297
 4847SOL    HW215441   4.886   2.386   4.152
 4848SOL     OW15442   2.818   2.064   1.968
 4848SOL    HW115443   2.905   2.037   1.928
 4848SOL    HW215444   2.817   2.163   1.982
 4849SOL     OW15445   0.922   6.767   6.575
 4849SOL    HW115446   0.977   6.704   6.629
 4849SOL    HW215447   0.980   6.811   6.506
 4850SOL     OW15448   4.197   0.780   3.129
 4850SOL    HW115449   4.205   0.692   3.083
 4850SOL    HW215450   4.271   0.840   3.100
 4851SOL     OW15451   5.080   0.767   5.199
 4851SOL    HW115452   4.992   0.760   5.153
 4851SOL    HW215453   5.096   0.686   5.256
 4852SOL     OW15454   2.078   2.239   1.477
 4852SOL    HW115455   2.016   2.275   1.408
 4852SOL    HW215456   2.106   2.313   1.539
 4853SOL     OW15457   3.281   1.680   1.710
 4853SOL    HW115458   3.199   1.737   1.715
 4853SOL    HW215459   3.300   1.640   1.799
 4854SOL     OW15460   3.990   0.220   0.491
 4854SOL    HW115461   4.064   0.180   0.437
 4854SOL    HW215462   3.966   0.158   0.566
 4855SOL     OW15463   0.074   2.517   2.667
 4855SOL    HW115464   6.997   2.491   2.673
 4855SOL    HW215465   0.082   2.617   2.674
 4856SOL     OW15466   1.857   3.967   3.110
 4856SOL    HW115467   1.877   4.031   3.036
 4856SOL    HW215468   1.941   3.921   3.139
 4857SOL     OW15469   0.451   1.207   6.149
 4857SOL    HW115470   0.485   1.299   6.168
 4857SOL    HW215471   0.414   1.166   6.232
 4858SOL     OW15472   1.317   0.435   4.093
 4858SOL    HW115473   1.361   0.504   4.037
 4858SOL    HW215474   1.227   0.414   4.055
 4859SOL     OW15475   3.155   5.568   5.854
 4859SOL    HW115476   3.232   5.609   5.805
 4859SOL    HW215477   3.138   5.619   5.939
 4860SOL     OW15478   4.404   3.967   0.228
 4860SOL    HW115479   4.376   3.954   0.323
 4860SOL    HW215480   4.406   3.878   0.182
 4861SOL     OW15481   5.215   3.681   5.454
 4861SOL    HW115482   5.301   3.634   5.431
 4861SOL    HW215483   5.216   3.708   5.550
 4862SOL     OW15484   1.043   6.156   1.230
 4862SOL    HW115485   1.034   6.250   1.263
 4862SOL    HW215486   1.140   6.134   1.218
 4863SOL     OW15487   5.118   4.436   6.583
 4863SOL    HW115488   5.179   4.482   6.518
 4863SOL    HW215489   5.107   4.493   6.664
 4864SOL     OW15490   3.185   0.966   4.103
 4864SOL    HW115491   3.249   0.894   4.076
 4864SOL    HW215492   3.229   1.055   4.096
 4865SOL     OW15493   2.026   6.389   4.810
 4865SOL    HW115494   2.014   6.400   4.909
 4865SOL    HW215495   2.047   6.479   4.770
 4866SOL     OW15496   6.574   3.939   6.428
 4866SOL    HW115497   6.498   3.954   6.366
 4866SOL    HW215498   6.541   3.934   6.522
 4867SOL     OW15499   4.609   0.331   2.565
 4867SOL    HW115500   4.706   0.306   2.559
 4867SOL    HW215501   4.598   0.428   2.542
 4868SOL     OW15502   6.851   4.428   1.035
 4868SOL    HW115503   6.895   4.451   1.122
 4868SOL    HW215504   6.896   4.348   0.995
 4869SOL     OW15505   0.519   0.914   0.541
 4869SOL    HW115506   0.605   0.963   0.528
 4869SOL    HW215507   0.536   0.816   0.545
 4870SOL     OW15508   0.516   6.634   2.147
 4870SOL    HW115509   0.535   6.688   2.064
 4870SOL    HW215510   0.563   6.546   2.141
 4871SOL     OW15511   2.016   1.272   3.992
 4871SOL    HW115512   2.095   1.328   4.014
 4871SOL    HW215513   2.037   1.176   4.009
 4872SOL     OW15514   5.783   6.472   3.002
 4872SOL    HW115515   5.881   6.465   3.016
 4872SOL    HW215516   5.750   6.392   2.953
 4873SOL     OW15517   6.087   5.373   5.068
 4873SOL    HW115518   6.108   5.451   5.009
 4873SOL    HW215519   6.165   5.356   5.129
 4874SOL     OW15520   4.933   3.268   2.989
 4874SOL    HW115521   5.002   3.226   2.931
 4874SOL    HW215522   4.976   3.304   3.072
 4875SOL     OW15523   5.475   6.243   5.043
 4875SOL    HW115524   5.494   6.333   5.082
 4875SOL    HW215525   5.537   6.226   4.966
 4876SOL     OW15526   1.487   1.029   2.359
 4876SOL    HW115527   1.425   0.976   2.300
 4876SOL    HW215528   1.442   1.115   2.384
 4877SOL     OW15529   6.803   1.674   5.331
 4877SOL    HW115530   6.898   1.682   5.302
 4877SOL    HW215531   6.799   1.632   5.421
 4878SOL     OW15532   6.833   3.241   2.177
 4878SOL    HW115533   6.776   3.205   2.251
 4878SOL    HW215534   6.847   3.169   2.109
 4879SOL     OW15535   5.936   0.934   2.678
 4879SOL    HW115536   5.876   0.857   2.657
 4879SOL    HW215537   5.898   1.018   2.639
 4880SOL     OW15538   6.228   2.905   6.641
 4880SOL    HW115539   6.304   2.926   6.703
 4880SOL    HW215540   6.195   2.989   6.599
 4881SOL     OW15541   1.747   2.588   1.559
 4881SOL    HW115542   1.783   2.528   1.631
 4881SOL    HW215543   1.723   2.676   1.598
 4882SOL     OW15544   4.511   2.171   4.570
 4882SOL    HW115545   4.573   2.151   4.494
 4882SOL    HW215546   4.445   2.240   4.542
 4883SOL     OW15547   5.774   4.345   0.809
 4883SOL    HW115548   5.839   4.417   0.784
 4883SOL    HW215549   5.778   4.272   0.741
 4884SOL     OW15550   1.680   0.049   1.276
 4884SOL    HW115551   1.682   0.128   1.215
 4884SOL    HW215552   1.587   0.013   1.280
 4885SOL     OW15553   1.373   4.260   6.983
 4885SOL    HW115554   1.440   4.252   0.038
 4885SOL    HW215555   1.407   4.210   6.903
 4886SOL     OW15556   2.779   1.072   2.088
 4886SOL    HW115557   2.714   1.061   2.163
 4886SOL    HW215558   2.814   1.166   2.088
 4887SOL     OW15559   5.970   6.209   0.813
 4887SOL    HW115560   6.018   6.233   0.728
 4887SOL    HW215561   5.956   6.110   0.815
 4888SOL     OW15562   4.118   6.923   2.628
 4888SOL    HW115563   4.043   6.861   2.650
 4888SOL    HW215564   4.190   6.913   2.697
 4889SOL     OW15565   6.768   3.179   3.827
 4889SOL    HW115566   6.715   3.256   3.791
 4889SOL    HW215567   6.708   3.115   3.874
 4890SOL     OW15568   6.644   1.364   4.342
 4890SOL    HW115569   6.730   1.397   4.381
 4890SOL    HW215570   6.577   1.351   4.415
 4891SOL     OW15571   2.911   5.410   6.485
 4891SOL    HW115572   2.892   5.496   6.438
 4891SOL    HW215573   2.980   5.358   6.433
 4892SOL     OW15574   5.014   5.530   2.768
 4892SOL    HW115575   4.916   5.548   2.767
 4892SOL    HW215576   5.063   5.611   2.799
 4893SOL     OW15577   1.057   3.221   0.913
 4893SOL    HW115578   1.140   3.168   0.895
 4893SOL    HW215579   1.051   3.241   1.011
 4894SOL     OW15580   5.127   6.768   1.530
 4894SOL    HW115581   5.145   6.761   1.432
 4894SOL    HW215582   5.028   6.766   1.546
 4895SOL     OW15583   0.031   4.734   4.974
 4895SOL    HW115584   0.056   4.803   5.042
 4895SOL    HW215585   0.113   4.690   4.938
 4896SOL     OW15586   1.884   4.850   4.726
 4896SOL    HW115587   1.963   4.818   4.674
 4896SOL    HW215588   1.907   4.851   4.823
 4897SOL     OW15589   1.931   0.066   4.929
 4897SOL    HW115590   1.840   0.058   4.889
 4897SOL    HW215591   1.952   0.162   4.946
 4898SOL     OW15592   5.417   1.441   3.573
 4898SOL    HW115593   5.396   1.537   3.558
 4898SOL    HW215594   5.349   1.384   3.527
 4899SOL     OW15595   6.648   6.888   1.802
 4899SOL    HW115596   6.625   6.841   1.887
 4899SOL    HW215597   6.580   6.865   1.732
 4900SOL     OW15598   3.880   5.855   5.518
 4900SOL    HW115599   3.893   5.756   5.512
 4900SOL    HW215600   3.908   5.887   5.609
 4901SOL     OW15601   1.284   0.910   6.041
 4901SOL    HW115602   1.212   0.846   6.014
 4901SOL    HW215603   1.244   0.983   6.097
 4902SOL     OW15604   2.344   0.031   5.299
 4902SOL    HW115605   2.341   0.131   5.307
 4902SOL    HW215606   2.320   0.004   5.206
 4903SOL     OW15607   4.865   3.701   2.692
 4903SOL    HW115608   4.848   3.607   2.662
 4903SOL    HW215609   4.963   3.719   2.692
 4904SOL     OW15610   1.545   6.818   0.195
 4904SOL    HW115611   1.469   6.882   0.203
 4904SOL    HW215612   1.605   6.847   0.120
 4905SOL     OW15613   3.135   6.643   3.500
 4905SOL    HW115614   3.153   6.578   3.574
 4905SOL    HW215615   3.061   6.704   3.525
 4906SOL     OW15616   4.905   3.481   4.833
 4906SOL    HW115617   5.001   3.468   4.858
 4906SOL    HW215618   4.847   3.465   4.912
 4907SOL     OW15619   4.287   2.085   0.068
 4907SOL    HW115620   4.295   2.158   0.136
 4907SOL    HW215621   4.369   2.028   0.071
 4908SOL     OW15622   3.607   6.920   0.588
 4908SOL    HW115623   3.525   6.975   0.609
 4908SOL    HW215624   3.579   6.830   0.555
 4909SOL     OW15625   5.228   5.055   4.571
 4909SOL    HW115626   5.273   5.044   4.660
 4909SOL    HW215627   5.181   4.970   4.546
 4910SOL     OW15628   4.733   2.128   6.169
 4910SOL    HW115629   4.716   2.038   6.209
 4910SOL    HW215630   4.831   2.146   6.166
 4911SOL     OW15631   6.662   3.265   2.388
 4911SOL    HW115632   6.714   3.341   2.426
 4911SOL    HW215633   6.647   3.197   2.460
 4912SOL     OW15634   5.551   2.572   4.095
 4912SOL    HW115635   5.647   2.572   4.123
 4912SOL    HW215636   5.492   2.573   4.176
 4913SOL     OW15637   0.951   3.970   5.626
 4913SOL    HW115638   0.962   3.871   5.636
 4913SOL    HW215639   0.930   3.992   5.531
 4914SOL     OW15640   4.363   0.848   3.637
 4914SOL    HW115641   4.280   0.828   3.689
 4914SOL    HW215642   4.348   0.824   3.541
 4915SOL     OW15643   3.557   4.986   5.672
 4915SOL    HW115644   3.462   4.997   5.644
 4915SOL    HW215645   3.564   4.921   5.747
 4916SOL     OW15646   5.582   2.216   4.021
 4916SOL    HW115647   5.545   2.302   3.983
 4916SOL    HW215648   5.668   2.235   4.068
 4917SOL     OW15649   3.981   6.635   0.301
 4917SOL    HW115650   4.067   6.612   0.257
 4917SOL    HW215651   3.926   6.553   0.312
 4918SOL     OW15652   5.890   4.894   3.462
 4918SOL    HW115653   5.837   4.976   3.482
 4918SOL    HW215654   5.829   4.820   3.433
 4919SOL     OW15655   3.048   3.978   2.235
 4919SOL    HW115656   3.107   3.928   2.171
 4919SOL    HW215657   2.997   4.048   2.185
 4920SOL     OW15658   6.115   1.579   5.931
 4920SOL    HW115659   6.152   1.526   6.007
 4920SOL    HW215660   6.127   1.677   5.949
 4921SOL     OW15661   0.277   0.224   2.803
 4921SOL    HW115662   0.335   0.298   2.769
 4921SOL    HW215663   0.182   0.256   2.807
 4922SOL     OW15664   3.415   1.902   6.158
 4922SOL    HW115665   3.369   1.828   6.207
 4922SOL    HW215666   3.364   1.987   6.170
 4923SOL     OW15667   3.491   1.297   1.941
 4923SOL    HW115668   3.398   1.287   1.907
 4923SOL    HW215669   3.524   1.208   1.973
 4924SOL     OW15670   2.541   0.790   5.300
 4924SOL    HW115671   2.523   0.772   5.203
 4924SOL    HW215672   2.569   0.706   5.345
 4925SOL     OW15673   6.267   6.145   3.584
 4925SOL    HW115674   6.213   6.084   3.641
 4925SOL    HW215675   6.348   6.175   3.634
 4926SOL     OW15676   4.980   2.500   1.104
 4926SOL    HW115677   4.947   2.595   1.100
 4926SOL    HW215678   5.036   2.482   1.023
 4927SOL     OW15679   3.197   1.842   6.330
 4927SOL    HW115680   3.257   1.882   6.399
 4927SOL    HW215681   3.186   1.906   6.254
 4928SOL     OW15682   6.808   2.565   0.907
 4928SOL    HW115683   6.879   2.565   0.977
 4928SOL    HW215684   6.838   2.512   0.828
 4929SOL     OW15685   0.838   6.548   5.390
 4929SOL    HW115686   0.921   6.604   5.388
 4929SOL    HW215687   0.758   6.606   5.372
 4930SOL     OW15688   5.308   5.875   2.091
 4930SOL    HW115689   5.268   5.796   2.137
 4930SOL    HW215690   5.392   5.903   2.138
 4931SOL     OW15691   6.566   5.976   0.614
 4931SOL    HW115692   6.489   6.021   0.659
 4931SOL    HW215693   6.567   6.001   0.517
 4932SOL     OW15694   3.789   3.488   2.321
 4932SOL    HW115695   3.723   3.545   2.369
 4932SOL    HW215696   3.768   3.486   2.224
 4933SOL     OW15697   2.027   0.004   5.246
 4933SOL    HW115698   1.967   7.011   5.167
 4933SOL    HW215699   2.017   6.945   5.307
 4934SOL     OW15700   4.025   6.028   2.286
 4934SOL    HW115701   4.059   6.001   2.195
 4934SOL    HW215702   3.969   5.955   2.324
 4935SOL     OW15703   0.387   0.635   5.636
 4935SOL    HW115704   0.420   0.691   5.560
 4935SOL    HW215705   0.301   0.673   5.670
 4936SOL     OW15706   4.129   2.681   0.956
 4936SOL    HW115707   4.151   2.666   0.860
 4936SOL    HW215708   4.037   2.647   0.976
 4937SOL     OW15709   4.671   2.493   5.439
 4937SOL    HW115710   4.704   2.403   5.467
 4937SOL    HW215711   4.697   2.510   5.344
 4938SOL     OW15712   4.151   5.262   6.070
 4938SOL    HW115713   4.119   5.260   5.975
 4938SOL    HW215714   4.074   5.279   6.131
 4939SOL     OW15715   4.629   3.557   5.871
 4939SOL    HW115716   4.690   3.542   5.949
 4939SOL    HW215717   4.558   3.622   5.896
 4940SOL     OW15718   2.313   5.867   4.093
 4940SOL    HW115719   2.371   5.786   4.083
 4940SOL    HW215720   2.350   5.941   4.038
 4941SOL     OW15721   5.682   0.407   0.921
 4941SOL    HW115722   5.761   0.348   0.938
 4941SOL    HW215723   5.712   0.501   0.910
 4942SOL     OW15724   4.801   2.896   5.905
 4942SOL    HW115725   4.772   2.806   5.872
 4942SOL    HW215726   4.900   2.905   5.894
 4943SOL     OW15727   5.242   2.508   1.503
 4943SOL    HW115728   5.168   2.443   1.487
 4943SOL    HW215729   5.255   2.520   1.601
 4944SOL     OW15730   2.254   4.030   2.313
 4944SOL    HW115731   2.211   3.940   2.321
 4944SOL    HW215732   2.251   4.076   2.402
 4945SOL     OW15733   6.922   6.548   4.713
 4945SOL    HW115734   6.914   6.539   4.812
 4945SOL    HW215735   6.979   6.627   4.691
 4946SOL     OW15736   0.295   4.553   2.372
 4946SOL    HW115737   0.367   4.591   2.431
 4946SOL    HW215738   0.222   4.621   2.361
 4947SOL     OW15739   6.256   0.081   1.578
 4947SOL    HW115740   6.289   0.044   1.665
 4947SOL    HW215741   6.318   0.153   1.547
 4948SOL     OW15742   2.226   0.795   2.061
 4948SOL    HW115743   2.248   0.821   1.967
 4948SOL    HW215744   2.130   0.819   2.079
 4949SOL     OW15745   5.245   1.777   4.562
 4949SOL    HW115746   5.159   1.743   4.598
 4949SOL    HW215747   5.292   1.831   4.632
 4950SOL     OW15748   3.102   5.195   5.234
 4950SOL    HW115749   3.163   5.116   5.223
 4950SOL    HW215750   3.073   5.227   5.144
 4951SOL     OW15751   4.525   1.981   4.171
 4951SOL    HW115752   4.581   2.017   4.245
 4951SOL    HW215753   4.432   2.016   4.180
 4952SOL     OW15754   0.025   4.926   5.189
 4952SOL    HW115755   0.015   5.018   5.152
 4952SOL    HW215756   0.019   4.930   5.289
 4953SOL     OW15757   1.932   5.657   1.896
 4953SOL    HW115758   2.013   5.611   1.859
 4953SOL    HW215759   1.861   5.590   1.915
 4954SOL     OW15760   6.521   6.344   6.836
 4954SOL    HW115761   6.614   6.311   6.819
 4954SOL    HW215762   6.470   6.276   6.888
 4955SOL     OW15763   1.050   0.477   1.050
 4955SOL    HW115764   1.064   0.543   1.123
 4955SOL    HW215765   0.982   0.511   0.985
 4956SOL     OW15766   6.201   6.799   4.436
 4956SOL    HW115767   6.209   6.888   4.391
 4956SOL    HW215768   6.187   6.727   4.368
 4957SOL     OW15769   2.305   6.349   3.563
 4957SOL    HW115770   2.363   6.268   3.554
 4957SOL    HW215771   2.266   6.352   3.655
 4958SOL     OW15772   0.467   6.375   6.746
 4958SOL    HW115773   0.373   6.364   6.713
 4958SOL    HW215774   0.465   6.428   6.832
 4959SOL     OW15775   0.434   1.206   0.614
 4959SOL    HW115776   0.486   1.128   0.579
 4959SOL    HW215777   0.375   1.175   0.688
 4960SOL     OW15778   3.626   6.522   4.976
 4960SOL    HW115779   3.723   6.527   4.952
 4960SOL    HW215780   3.590   6.433   4.948
 4961SOL     OW15781   4.485   0.672   5.959
 4961SOL    HW115782   4.511   0.650   6.053
 4961SOL    HW215783   4.562   0.652   5.898
 4962SOL     OW15784   6.381   2.379   1.950
 4962SOL    HW115785   6.337   2.315   2.013
 4962SOL    HW215786   6.402   2.333   1.864
 4963SOL     OW15787   6.844   3.980   1.299
 4963SOL    HW115788   6.816   3.884   1.294
 4963SOL    HW215789   6.770   4.038   1.266
 4964SOL     OW15790   3.915   6.446   2.801
 4964SOL    HW115791   3.869   6.502   2.870
 4964SOL    HW215792   3.853   6.431   2.724
 4965SOL     OW15793   0.122   6.388   4.590
 4965SOL    HW115794   0.113   6.460   4.659
 4965SOL    HW215795   0.045   6.391   4.528
 4966SOL     OW15796   3.802   5.510   4.800
 4966SOL    HW115797   3.833   5.605   4.809
 4966SOL    HW215798   3.868   5.450   4.844
 4967SOL     OW15799   4.596   2.337   6.511
 4967SOL    HW115800   4.632   2.341   6.604
 4967SOL    HW215801   4.499   2.359   6.512
 4968SOL     OW15802   5.623   3.836   6.140
 4968SOL    HW115803   5.649   3.919   6.089
 4968SOL    HW215804   5.630   3.854   6.238
 4969SOL     OW15805   0.401   2.097   1.241
 4969SOL    HW115806   0.351   2.183   1.245
 4969SOL    HW215807   0.344   2.026   1.199
 4970SOL     OW15808   0.997   2.955   5.947
 4970SOL    HW115809   0.937   3.031   5.972
 4970SOL    HW215810   1.046   2.923   6.029
 4971SOL     OW15811   0.021   5.511   3.777
 4971SOL    HW115812   6.983   5.443   3.732
 4971SOL    HW215813   0.083   5.465   3.841
 4972SOL     OW15814   1.855   2.010   5.269
 4972SOL    HW115815   1.807   2.046   5.189
 4972SOL    HW215816   1.789   1.989   5.341
 4973SOL     OW15817   6.025   6.074   2.908
 4973SOL    HW115818   5.940   6.099   2.863
 4973SOL    HW215819   6.030   6.118   2.997
 4974SOL     OW15820   4.571   6.741   1.299
 4974SOL    HW115821   4.515   6.824   1.306
 4974SOL    HW215822   4.552   6.694   1.213
 4975SOL     OW15823   4.962   5.786   6.774
 4975SOL    HW115824   5.040   5.830   6.819
 4975SOL    HW215825   4.985   5.690   6.757
 4976SOL     OW15826   3.422   1.215   4.867
 4976SOL    HW115827   3.487   1.261   4.928
 4976SOL    HW215828   3.387   1.281   4.800
 4977SOL     OW15829   3.321   3.458   0.005
 4977SOL    HW115830   3.371   3.411   6.952
 4977SOL    HW215831   3.224   3.462   7.000
 4978SOL     OW15832   5.905   3.527   6.179
 4978SOL    HW115833   5.812   3.491   6.173
 4978SOL    HW215834   5.902   3.627   6.170
 4979SOL     OW15835   0.924   2.799   4.054
 4979SOL    HW115836   0.911   2.898   4.056
 4979SOL    HW215837   1.013   2.776   4.093
 4980SOL     OW15838   3.317   5.568   3.166
 4980SOL    HW115839   3.227   5.530   3.189
 4980SOL    HW215840   3.379   5.494   3.140
 4981SOL     OW15841   5.176   6.478   5.741
 4981SOL    HW115842   5.153   6.550   5.806
 4981SOL    HW215843   5.129   6.394   5.768
 4982SOL     OW15844   2.679   2.268   0.065
 4982SOL    HW115845   2.766   2.245   0.108
 4982SOL    HW215846   2.653   2.362   0.089
 4983SOL     OW15847   5.953   2.722   4.951
 4983SOL    HW115848   6.035   2.665   4.958
 4983SOL    HW215849   5.889   2.697   5.023
 4984SOL     OW15850   4.764   4.171   2.974
 4984SOL    HW115851   4.745   4.211   3.064
 4984SOL    HW215852   4.753   4.071   2.980
 4985SOL     OW15853   5.549   4.059   2.480
 4985SOL    HW115854   5.559   4.020   2.389
 4985SOL    HW215855   5.628   4.033   2.536
 4986SOL     OW15856   4.548   4.450   3.068
 4986SOL    HW115857   4.524   4.522   3.003
 4986SOL    HW215858   4.515   4.475   3.159
 4987SOL     OW15859   0.445   4.130   1.257
 4987SOL    HW115860   0.365   4.188   1.240
 4987SOL    HW215861   0.415   4.039   1.286
 4988SOL     OW15862   1.141   1.814   5.336
 4988SOL    HW115863   1.233   1.793   5.369
 4988SOL    HW215864   1.103   1.890   5.389
 4989SOL     OW15865   6.815   0.726   0.787
 4989SOL    HW115866   6.838   0.731   0.690
 4989SOL    HW215867   6.834   0.814   0.830
 4990SOL     OW15868   0.900   2.027   6.232
 4990SOL    HW115869   0.898   2.127   6.230
 4990SOL    HW215870   0.980   1.995   6.180
 4991SOL     OW15871   2.300   2.210   4.686
 4991SOL    HW115872   2.202   2.225   4.696
 4991SOL    HW215873   2.330   2.143   4.753
 4992SOL     OW15874   4.128   0.816   4.422
 4992SOL    HW115875   4.201   0.825   4.354
 4992SOL    HW215876   4.052   0.765   4.382
 4993SOL     OW15877   2.155   6.104   3.818
 4993SOL    HW115878   2.057   6.109   3.837
 4993SOL    HW215879   2.173   6.027   3.757
 4994SOL     OW15880   0.610   6.687   2.523
 4994SOL    HW115881   0.689   6.664   2.467
 4994SOL    HW215882   0.637   6.750   2.596
 4995SOL     OW15883   6.121   3.089   5.710
 4995SOL    HW115884   6.054   3.144   5.660
 4995SOL    HW215885   6.202   3.144   5.727
 4996SOL     OW15886   0.337   1.133   4.190
 4996SOL    HW115887   0.300   1.097   4.275
 4996SOL    HW215888   0.389   1.217   4.209
 4997SOL     OW15889   0.142   2.188   4.249
 4997SOL    HW115890   0.144   2.090   4.233
 4997SOL    HW215891   0.048   2.219   4.259
 4998SOL     OW15892   0.915   5.447   5.552
 4998SOL    HW115893   0.934   5.427   5.456
 4998SOL    HW215894   0.926   5.364   5.606
 4999SOL     OW15895   5.975   4.834   0.753
 4999SOL    HW115896   5.900   4.869   0.809
 4999SOL    HW215897   6.063   4.865   0.790
 5000SOL     OW15898   7.001   5.939   3.971
 5000SOL    HW115899   6.952   5.856   3.941
 5000SOL    HW215900   0.060   5.954   3.911
 5001SOL     OW15901   4.674   4.413   5.208
 5001SOL    HW115902   4.666   4.462   5.122
 5001SOL    HW215903   4.602   4.344   5.214
 5002SOL     OW15904   2.074   2.006   1.654
 5002SOL    HW115905   2.127   2.031   1.735
 5002SOL    HW215906   2.071   2.084   1.590
 5003SOL     OW15907   6.795   5.228   4.321
 5003SOL    HW115908   6.808   5.255   4.416
 5003SOL    HW215909   6.878   5.183   4.287
 5004SOL     OW15910   2.966   4.537   6.388
 5004SOL    HW115911   3.066   4.540   6.379
 5004SOL    HW215912   2.938   4.443   6.408
 5005SOL     OW15913   4.023   2.378   0.378
 5005SOL    HW115914   4.038   2.279   0.389
 5005SOL    HW215915   4.093   2.428   0.429
 5006SOL     OW15916   5.768   4.629   2.846
 5006SOL    HW115917   5.683   4.581   2.867
 5006SOL    HW215918   5.753   4.728   2.850
 5007SOL     OW15919   4.228   1.389   5.272
 5007SOL    HW115920   4.326   1.387   5.257
 5007SOL    HW215921   4.205   1.462   5.337
 5008SOL     OW15922   6.554   0.704   3.854
 5008SOL    HW115923   6.572   0.726   3.950
 5008SOL    HW215924   6.595   0.773   3.795
 5009SOL     OW15925   1.842   6.249   2.816
 5009SOL    HW115926   1.913   6.184   2.787
 5009SOL    HW215927   1.859   6.276   2.911
 5010SOL     OW15928   3.395   3.069   4.819
 5010SOL    HW115929   3.305   3.029   4.837
 5010SOL    HW215930   3.444   3.080   4.906
 5011SOL     OW15931   1.065   2.765   3.197
 5011SOL    HW115932   1.002   2.691   3.173
 5011SOL    HW215933   1.014   2.843   3.231
 5012SOL     OW15934   5.754   3.657   6.970
 5012SOL    HW115935   5.706   3.745   6.973
 5012SOL    HW215936   5.697   3.591   6.922
 5013SOL     OW15937   5.071   1.929   5.523
 5013SOL    HW115938   5.044   1.834   5.506
 5013SOL    HW215939   5.060   1.950   5.620
 5014SOL     OW15940   5.859   6.590   6.679
 5014SOL    HW115941   5.831   6.518   6.743
 5014SOL    HW215942   5.863   6.553   6.586
 5015SOL     OW15943   5.516   2.160   3.280
 5015SOL    HW115944   5.603   2.208   3.274
 5015SOL    HW215945   5.530   2.062   3.270
 5016SOL     OW15946   2.347   6.561   2.118
 5016SOL    HW115947   2.324   6.557   2.215
 5016SOL    HW215948   2.413   6.635   2.102
 5017SOL     OW15949   2.541   2.064   1.933
 5017SOL    HW115950   2.634   2.057   1.969
 5017SOL    HW215951   2.479   2.092   2.006
 5018SOL     OW15952   6.647   5.165   3.888
 5018SOL    HW115953   6.555   5.201   3.875
 5018SOL    HW215954   6.691   5.214   3.964
 5019SOL     OW15955   2.844   5.446   6.116
 5019SOL    HW115956   2.865   5.427   6.020
 5019SOL    HW215957   2.796   5.534   6.122
 5020SOL     OW15958   4.607   5.423   6.558
 5020SOL    HW115959   4.690   5.452   6.511
 5020SOL    HW215960   4.630   5.358   6.630
 5021SOL     OW15961   2.323   4.466   5.587
 5021SOL    HW115962   2.261   4.462   5.509
 5021SOL    HW215963   2.396   4.532   5.568
 5022SOL     OW15964   1.867   4.403   0.667
 5022SOL    HW115965   1.858   4.502   0.674
 5022SOL    HW215966   1.849   4.374   0.573
 5023SOL     OW15967   6.362   2.643   3.889
 5023SOL    HW115968   6.303   2.678   3.962
 5023SOL    HW215969   6.449   2.693   3.891
 5024SOL     OW15970   5.664   3.401   5.674
 5024SOL    HW115971   5.697   3.402   5.768
 5024SOL    HW215972   5.565   3.388   5.674
 5025SOL     OW15973   6.396   1.493   3.307
 5025SOL    HW115974   6.335   1.419   3.280
 5025SOL    HW215975   6.437   1.471   3.396
 5026SOL     OW15976   0.669   5.852   2.712
 5026SOL    HW115977   0.637   5.943   2.686
 5026SOL    HW215978   0.592   5.790   2.719
 5027SOL     OW15979   0.516   6.307   3.541
 5027SOL    HW115980   0.548   6.355   3.623
 5027SOL    HW215981   0.593   6.260   3.497
 5028SOL     OW15982   1.366   0.160   2.381
 5028SOL    HW115983   1.361   0.101   2.462
 5028SOL    HW215984   1.304   0.125   2.311
 5029SOL     OW15985   0.618   0.985   3.172
 5029SOL    HW115986   0.526   0.971   3.208
 5029SOL    HW215987   0.685   0.945   3.236
 5030SOL     OW15988   2.150   5.466   0.058
 5030SOL    HW115989   2.065   5.450   0.108
 5030SOL    HW215990   2.227   5.469   0.122
 5031SOL     OW15991   5.484   0.860   5.444
 5031SOL    HW115992   5.444   0.866   5.536
 5031SOL    HW215993   5.534   0.945   5.424
 5032SOL     OW15994   1.255   6.126   1.753
 5032SOL    HW115995   1.165   6.157   1.723
 5032SOL    HW215996   1.301   6.079   1.678
 5033SOL     OW15997   6.673   4.328   5.534
 5033SOL    HW115998   6.589   4.275   5.524
 5033SOL    HW215999   6.650   4.425   5.543
 5034SOL     OW16000   6.822   3.829   6.342
 5034SOL    HW116001   6.857   3.851   6.251
 5034SOL    HW216002   6.727   3.859   6.350
 5035SOL     OW16003   5.570   4.651   1.562
 5035SOL    HW116004   5.614   4.616   1.644
 5035SOL    HW216005   5.526   4.576   1.513
 5036SOL     OW16006   1.506   0.336   2.039
 5036SOL    HW116007   1.440   0.271   2.077
 5036SOL    HW216008   1.484   0.356   1.944
 5037SOL     OW16009   4.797   2.547   2.711
 5037SOL    HW116010   4.728   2.516   2.776
 5037SOL    HW216011   4.831   2.637   2.737
 5038SOL     OW16012   2.630   5.866   5.549
 5038SOL    HW116013   2.628   5.794   5.479
 5038SOL    HW216014   2.665   5.950   5.508
 5039SOL     OW16015   1.189   1.875   3.090
 5039SOL    HW116016   1.204   1.917   3.001
 5039SOL    HW216017   1.181   1.945   3.160
 5040SOL     OW16018   2.973   3.791   6.010
 5040SOL    HW116019   3.051   3.853   5.997
 5040SOL    HW216020   3.001   3.698   5.989
 5041SOL     OW16021   0.142   5.537   0.564
 5041SOL    HW116022   0.229   5.545   0.515
 5041SOL    HW216023   0.129   5.617   0.622
 5042SOL     OW16024   6.151   1.840   5.968
 5042SOL    HW116025   6.133   1.843   6.067
 5042SOL    HW216026   6.079   1.891   5.921
 5043SOL     OW16027   5.135   0.253   3.491
 5043SOL    HW116028   5.183   0.254   3.404
 5043SOL    HW216029   5.184   0.194   3.555
 5044SOL     OW16030   5.518   4.499   2.910
 5044SOL    HW116031   5.465   4.487   2.826
 5044SOL    HW216032   5.479   4.444   2.983
 5045SOL     OW16033   5.657   3.481   5.150
 5045SOL    HW116034   5.698   3.404   5.199
 5045SOL    HW216035   5.559   3.464   5.138
 5046SOL     OW16036   3.477   3.140   5.321
 5046SOL    HW116037   3.529   3.058   5.343
 5046SOL    HW216038   3.397   3.146   5.381
 5047SOL     OW16039   0.948   1.406   2.131
 5047SOL    HW116040   0.864   1.430   2.083
 5047SOL    HW216041   0.943   1.440   2.226
 5048SOL     OW16042   6.229   3.666   1.090
 5048SOL    HW116043   6.173   3.585   1.075
 5048SOL    HW216044   6.183   3.726   1.156
 5049SOL     OW16045   1.346   1.751   1.580
 5049SOL    HW116046   1.271   1.696   1.544
 5049SOL    HW216047   1.396   1.698   1.649
 5050SOL     OW16048   1.072   3.400   0.651
 5050SOL    HW116049   1.021   3.483   0.671
 5050SOL    HW216050   1.072   3.340   0.732
 5051SOL     OW16051   1.792   3.700   0.266
 5051SOL    HW116052   1.714   3.638   0.260
 5051SOL    HW216053   1.769   3.786   0.221
 5052SOL     OW16054   5.671   3.659   0.885
 5052SOL    HW116055   5.623   3.713   0.815
 5052SOL    HW216056   5.651   3.697   0.975
 5053SOL     OW16057   2.243   4.399   0.603
 5053SOL    HW116058   2.253   4.445   0.690
 5053SOL    HW216059   2.186   4.317   0.615
 5054SOL     OW16060   3.884   6.063   5.179
 5054SOL    HW116061   3.958   5.999   5.160
 5054SOL    HW216062   3.811   6.016   5.229
 5055SOL     OW16063   1.810   1.860   3.673
 5055SOL    HW116064   1.765   1.874   3.761
 5055SOL    HW216065   1.908   1.875   3.683
 5056SOL     OW16066   2.865   2.248   5.148
 5056SOL    HW116067   2.949   2.277   5.102
 5056SOL    HW216068   2.786   2.270   5.092
 5057SOL     OW16069   0.420   4.385   2.860
 5057SOL    HW116070   0.349   4.355   2.796
 5057SOL    HW216071   0.412   4.334   2.946
 5058SOL     OW16072   3.526   2.866   0.342
 5058SOL    HW116073   3.618   2.906   0.339
 5058SOL    HW216074   3.494   2.865   0.436
 5059SOL     OW16075   4.413   1.895   3.187
 5059SOL    HW116076   4.432   1.807   3.232
 5059SOL    HW216077   4.314   1.904   3.172
 5060SOL     OW16078   0.004   3.213   5.468
 5060SOL    HW116079   0.050   3.134   5.507
 5060SOL    HW216080   6.996   3.275   5.541
 5061SOL     OW16081   4.284   2.272   5.873
 5061SOL    HW116082   4.306   2.367   5.895
 5061SOL    HW216083   4.358   2.212   5.904
 5062SOL     OW16084   5.586   0.968   3.704
 5062SOL    HW116085   5.611   0.905   3.631
 5062SOL    HW216086   5.496   1.008   3.684
 5063SOL     OW16087   1.123   1.049   1.391
 5063SOL    HW116088   1.160   0.993   1.317
 5063SOL    HW216089   1.055   1.112   1.355
 5064SOL     OW16090   4.987   5.172   0.924
 5064SOL    HW116091   4.967   5.159   0.827
 5064SOL    HW216092   4.906   5.208   0.971
 5065SOL     OW16093   2.075   1.095   2.124
 5065SOL    HW116094   2.075   1.047   2.035
 5065SOL    HW216095   2.003   1.164   2.124
 5066SOL     OW16096   1.941   5.155   2.677
 5066SOL    HW116097   1.946   5.144   2.577
 5066SOL    HW216098   1.916   5.068   2.719
 5067SOL     OW16099   5.851   2.736   0.932
 5067SOL    HW116100   5.784   2.701   0.867
 5067SOL    HW216101   5.867   2.668   1.004
 5068SOL     OW16102   1.982   5.738   0.731
 5068SOL    HW116103   2.028   5.650   0.719
 5068SOL    HW216104   1.893   5.735   0.686
 5069SOL     OW16105   4.063   5.258   5.186
 5069SOL    HW116106   4.027   5.175   5.229
 5069SOL    HW216107   4.143   5.234   5.130
 5070SOL     OW16108   5.937   3.857   4.936
 5070SOL    HW116109   5.924   3.785   5.003
 5070SOL    HW216110   5.881   3.936   4.960
 5071SOL     OW16111   2.912   6.791   3.603
 5071SOL    HW116112   2.860   6.729   3.662
 5071SOL    HW216113   2.849   6.839   3.542
 5072SOL     OW16114   0.804   1.566   1.643
 5072SOL    HW116115   0.790   1.586   1.546
 5072SOL    HW216116   0.892   1.604   1.673
 5073SOL     OW16117   2.263   1.241   3.200
 5073SOL    HW116118   2.335   1.213   3.265
 5073SOL    HW216119   2.257   1.341   3.199
 5074SOL     OW16120   3.536   2.118   1.705
 5074SOL    HW116121   3.578   2.190   1.761
 5074SOL    HW216122   3.517   2.155   1.614
 5075SOL     OW16123   7.014   3.519   0.506
 5075SOL    HW116124   6.975   3.517   0.414
 5075SOL    HW216125   0.017   3.426   0.534
 5076SOL     OW16126   0.447   0.149   6.203
 5076SOL    HW116127   0.543   0.121   6.211
 5076SOL    HW216128   0.391   0.069   6.181
 5077SOL     OW16129   0.745   4.197   3.713
 5077SOL    HW116130   0.679   4.219   3.785
 5077SOL    HW216131   0.786   4.282   3.679
 5078SOL     OW16132   0.320   2.082   3.933
 5078SOL    HW116133   0.374   2.026   3.996
 5078SOL    HW216134   0.349   2.065   3.839
 5079SOL     OW16135   1.410   3.467   5.672
 5079SOL    HW116136   1.458   3.406   5.735
 5079SOL    HW216137   1.420   3.562   5.704
 5080SOL     OW16138   5.804   5.445   0.281
 5080SOL    HW116139   5.746   5.508   0.332
 5080SOL    HW216140   5.867   5.497   0.223
 5081SOL     OW16141   2.421   4.605   5.254
 5081SOL    HW116142   2.413   4.671   5.328
 5081SOL    HW216143   2.487   4.534   5.280
 5082SOL     OW16144   5.606   5.505   1.289
 5082SOL    HW116145   5.679   5.511   1.220
 5082SOL    HW216146   5.642   5.529   1.379
 5083SOL     OW16147   2.731   0.302   3.914
 5083SOL    HW116148   2.747   0.246   3.833
 5083SOL    HW216149   2.765   0.254   3.995
 5084SOL     OW16150   2.857   3.942   5.697
 5084SOL    HW116151   2.811   3.911   5.614
 5084SOL    HW216152   2.946   3.899   5.705
 5085SOL     OW16153   0.399   4.740   5.149
 5085SOL    HW116154   0.338   4.774   5.220
 5085SOL    HW216155   0.454   4.815   5.113
 5086SOL     OW16156   1.597   5.052   1.628
 5086SOL    HW116157   1.538   4.977   1.601
 5086SOL    HW216158   1.691   5.019   1.636
 5087SOL     OW16159   6.508   4.726   2.736
 5087SOL    HW116160   6.495   4.633   2.702
 5087SOL    HW216161   6.477   4.731   2.831
 5088SOL     OW16162   4.844   5.564   2.274
 5088SOL    HW116163   4.763   5.506   2.267
 5088SOL    HW216164   4.908   5.525   2.340
 5089SOL     OW16165   4.985   5.723   5.879
 5089SOL    HW116166   5.078   5.732   5.843
 5089SOL    HW216167   4.989   5.686   5.972
 5090SOL     OW16168   2.708   6.647   5.073
 5090SOL    HW116169   2.794   6.607   5.106
 5090SOL    HW216170   2.650   6.670   5.152
 5091SOL     OW16171   6.771   6.405   6.189
 5091SOL    HW116172   6.830   6.350   6.131
 5091SOL    HW216173   6.782   6.502   6.166
 5092SOL     OW16174   3.820   3.417   4.112
 5092SOL    HW116175   3.822   3.503   4.060
 5092SOL    HW216176   3.796   3.436   4.207
 5093SOL     OW16177   2.852   2.247   2.708
 5093SOL    HW116178   2.788   2.177   2.674
 5093SOL    HW216179   2.823   2.337   2.676
 5094SOL     OW16180   1.444   6.061   4.764
 5094SOL    HW116181   1.359   6.112   4.772
 5094SOL    HW216182   1.506   6.108   4.701
 5095SOL     OW16183   6.668   1.069   2.825
 5095SOL    HW116184   6.642   0.993   2.884
 5095SOL    HW216185   6.767   1.083   2.828
 5096SOL     OW16186   6.404   3.135   5.131
 5096SOL    HW116187   6.307   3.118   5.113
 5096SOL    HW216188   6.416   3.165   5.225
 5097SOL     OW16189   1.032   0.605   5.766
 5097SOL    HW116190   0.937   0.578   5.748
 5097SOL    HW216191   1.091   0.525   5.760
 5098SOL     OW16192   3.253   3.197   0.456
 5098SOL    HW116193   3.222   3.289   0.429
 5098SOL    HW216194   3.347   3.202   0.489
 5099SOL     OW16195   1.812   6.459   2.021
 5099SOL    HW116196   1.842   6.425   1.932
 5099SOL    HW216197   1.809   6.384   2.087
 5100SOL     OW16198   4.762   3.497   1.597
 5100SOL    HW116199   4.809   3.548   1.669
 5100SOL    HW216200   4.759   3.400   1.621
 5101SOL     OW16201   3.124   0.083   5.725
 5101SOL    HW116202   3.066   0.061   5.803
 5101SOL    HW216203   3.113   0.179   5.701
 5102SOL     OW16204   5.313   5.359   4.018
 5102SOL    HW116205   5.347   5.345   3.925
 5102SOL    HW216206   5.236   5.298   4.035
 5103SOL     OW16207   0.896   0.757   6.657
 5103SOL    HW116208   0.877   0.659   6.663
 5103SOL    HW216209   0.978   0.771   6.600
 5104SOL     OW16210   3.899   3.245   2.259
 5104SOL    HW116211   3.864   3.335   2.286
 5104SOL    HW216212   3.888   3.234   2.160
 5105SOL     OW16213   4.242   3.033   6.802
 5105SOL    HW116214   4.247   3.132   6.809
 5105SOL    HW216215   4.326   2.993   6.839
 5106SOL     OW16216   4.020   2.006   1.250
 5106SOL    HW116217   4.115   2.033   1.237
 5106SOL    HW216218   4.016   1.924   1.306
 5107SOL     OW16219   5.308   4.789   0.491
 5107SOL    HW116220   5.258   4.777   0.406
 5107SOL    HW216221   5.248   4.831   0.560
 5108SOL     OW16222   3.735   4.588   0.725
 5108SOL    HW116223   3.811   4.554   0.670
 5108SOL    HW216224   3.708   4.679   0.692
 5109SOL     OW16225   1.037   2.608   1.521
 5109SOL    HW116226   1.051   2.669   1.598
 5109SOL    HW216227   1.118   2.550   1.509
 5110SOL     OW16228   4.805   0.146   5.468
 5110SOL    HW116229   4.816   0.056   5.510
 5110SOL    HW216230   4.818   0.217   5.537
 5111SOL     OW16231   0.789   5.227   5.205
 5111SOL    HW116232   0.821   5.140   5.242
 5111SOL    HW216233   0.856   5.299   5.225
 5112SOL     OW16234   0.857   6.364   3.015
 5112SOL    HW116235   0.952   6.392   3.027
 5112SOL    HW216236   0.801   6.404   3.088
 5113SOL     OW16237   1.966   4.227   0.139
 5113SOL    HW116238   2.010   4.312   0.112
 5113SOL    HW216239   1.977   4.159   0.067
 5114SOL     OW16240   4.385   4.872   1.572
 5114SOL    HW116241   4.410   4.877   1.669
 5114SOL    HW216242   4.433   4.796   1.529
 5115SOL     OW16243   2.233   3.848   0.833
 5115SOL    HW116244   2.140   3.816   0.816
 5115SOL    HW216245   2.234   3.947   0.840
 5116SOL     OW16246   0.910   6.888   5.384
 5116SOL    HW116247   0.990   6.830   5.367
 5116SOL    HW216248   0.860   6.853   5.463
 5117SOL     OW16249   0.269   2.360   3.975
 5117SOL    HW116250   0.193   2.401   4.025
 5117SOL    HW216251   0.245   2.266   3.949
 5118SOL     OW16252   4.100   5.314   0.010
 5118SOL    HW116253   4.065   5.391   6.977
 5118SOL    HW216254   4.026   5.249   0.027
 5119SOL     OW16255   5.729   1.414   0.369
 5119SOL    HW116256   5.762   1.322   0.386
 5119SOL    HW216257   5.658   1.412   0.298
 5120SOL     OW16258   5.145   6.662   6.900
 5120SOL    HW116259   5.091   6.579   6.907
 5120SOL    HW216260   5.236   6.640   6.864
 5121SOL     OW16261   1.084   3.522   5.868
 5121SOL    HW116262   1.101   3.573   5.952
 5121SOL    HW216263   1.158   3.457   5.852
 5122SOL     OW16264   4.860   4.845   3.709
 5122SOL    HW116265   4.818   4.826   3.620
 5122SOL    HW216266   4.915   4.929   3.703
 5123SOL     OW16267   4.998   3.013   2.185
 5123SOL    HW116268   5.006   3.068   2.268
 5123SOL    HW216269   4.915   3.039   2.135
 5124SOL     OW16270   1.820   6.394   5.145
 5124SOL    HW116271   1.776   6.360   5.229
 5124SOL    HW216272   1.829   6.493   5.151
 5125SOL     OW16273   6.422   1.996   3.474
 5125SOL    HW116274   6.403   1.915   3.420
 5125SOL    HW216275   6.370   1.992   3.560
 5126SOL     OW16276   1.773   0.314   1.618
 5126SOL    HW116277   1.861   0.331   1.574
 5126SOL    HW216278   1.788   0.261   1.702
 5127SOL     OW16279   2.331   5.857   6.926
 5127SOL    HW116280   2.231   5.844   6.929
 5127SOL    HW216281   2.367   5.850   7.019
 5128SOL     OW16282   6.174   6.954   1.958
 5128SOL    HW116283   6.091   6.954   1.903
 5128SOL    HW216284   6.159   7.008   2.041
 5129SOL     OW16285   6.745   6.740   0.210
 5129SOL    HW116286   6.693   6.665   0.250
 5129SOL    HW216287   6.690   6.824   0.212
 5130SOL     OW16288   6.169   4.812   3.004
 5130SOL    HW116289   6.100   4.872   3.045
 5130SOL    HW216290   6.259   4.855   3.010
 5131SOL     OW16291   2.461   2.600   2.864
 5131SOL    HW116292   2.413   2.566   2.945
 5131SOL    HW216293   2.402   2.662   2.813
 5132SOL     OW16294   2.880   5.845   4.959
 5132SOL    HW116295   2.852   5.941   4.956
 5132SOL    HW216296   2.871   5.810   5.052
 5133SOL     OW16297   3.766   6.490   5.342
 5133SOL    HW116298   3.807   6.489   5.250
 5133SOL    HW216299   3.754   6.397   5.374
 5134SOL     OW16300   6.118   4.175   6.118
 5134SOL    HW116301   6.199   4.137   6.072
 5134SOL    HW216302   6.110   4.134   6.209
 5135SOL     OW16303   5.520   1.635   4.194
 5135SOL    HW116304   5.456   1.653   4.119
 5135SOL    HW216305   5.470   1.597   4.272
 5136SOL     OW16306   3.821   1.156   5.182
 5136SOL    HW116307   3.847   1.132   5.275
 5136SOL    HW216308   3.723   1.141   5.169
 5137SOL     OW16309   3.537   4.019   6.741
 5137SOL    HW116310   3.542   4.094   6.676
 5137SOL    HW216311   3.547   4.054   6.834
 5138SOL     OW16312   2.162   3.192   5.942
 5138SOL    HW116313   2.175   3.097   5.972
 5138SOL    HW216314   2.077   3.199   5.890
 5139SOL     OW16315   0.447   0.274   3.985
 5139SOL    HW116316   0.499   0.325   4.053
 5139SOL    HW216317   0.363   0.324   3.962
 5140SOL     OW16318   3.636   2.765   1.807
 5140SOL    HW116319   3.607   2.675   1.777
 5140SOL    HW216320   3.672   2.816   1.729
 5141SOL     OW16321   6.982   3.529   5.289
 5141SOL    HW116322   6.993   3.563   5.382
 5141SOL    HW216323   6.973   3.430   5.291
 5142SOL     OW16324   5.802   3.170   3.222
 5142SOL    HW116325   5.845   3.119   3.297
 5142SOL    HW216326   5.705   3.181   3.240
 5143SOL     OW16327   6.936   5.421   4.841
 5143SOL    HW116328   6.860   5.370   4.880
 5143SOL    HW216329   6.941   5.512   4.882
 5144SOL     OW16330   2.215   1.095   4.714
 5144SOL    HW116331   2.173   1.185   4.723
 5144SOL    HW216332   2.143   1.026   4.705
 5145SOL     OW16333   3.349   5.709   5.756
 5145SOL    HW116334   3.409   5.692   5.835
 5145SOL    HW216335   3.389   5.667   5.675
 5146SOL     OW16336   2.670   4.888   6.903
 5146SOL    HW116337   2.682   4.956   6.976
 5146SOL    HW216338   2.594   4.828   6.926
 5147SOL     OW16339   6.531   5.092   6.493
 5147SOL    HW116340   6.591   5.160   6.534
 5147SOL    HW216341   6.491   5.035   6.566
 5148SOL     OW16342   0.617   6.781   1.893
 5148SOL    HW116343   0.566   6.792   1.808
 5148SOL    HW216344   0.705   6.738   1.875
 5149SOL     OW16345   6.727   0.657   5.852
 5149SOL    HW116346   6.751   0.566   5.884
 5149SOL    HW216347   6.808   0.716   5.855
 5150SOL     OW16348   1.851   5.167   3.932
 5150SOL    HW116349   1.860   5.075   3.970
 5150SOL    HW216350   1.928   5.223   3.962
 5151SOL     OW16351   4.335   0.890   6.379
 5151SOL    HW116352   4.431   0.875   6.355
 5151SOL    HW216353   4.317   0.988   6.383
 5152SOL     OW16354   0.724   5.079   0.395
 5152SOL    HW116355   0.658   5.154   0.392
 5152SOL    HW216356   0.708   5.025   0.478
 5153SOL     OW16357   1.845   2.154   1.246
 5153SOL    HW116358   1.933   2.118   1.217
 5153SOL    HW216359   1.777   2.080   1.245
 5154SOL     OW16360   1.848   3.704   5.071
 5154SOL    HW116361   1.930   3.688   5.016
 5154SOL    HW216362   1.873   3.750   5.156
 5155SOL     OW16363   3.812   0.961   2.089
 5155SOL    HW116364   3.814   0.861   2.088
 5155SOL    HW216365   3.900   0.996   2.120
 5156SOL     OW16366   5.827   2.521   6.154
 5156SOL    HW116367   5.777   2.518   6.068
 5156SOL    HW216368   5.867   2.611   6.167
 5157SOL     OW16369   5.908   2.419   4.305
 5157SOL    HW116370   5.960   2.337   4.283
 5157SOL    HW216371   5.838   2.396   4.373
 5158SOL     OW16372   3.770   0.856   0.641
 5158SOL    HW116373   3.777   0.770   0.590
 5158SOL    HW216374   3.762   0.932   0.577
 5159SOL     OW16375   1.795   3.359   4.822
 5159SOL    HW116376   1.782   3.268   4.861
 5159SOL    HW216377   1.758   3.428   4.885
 5160SOL     OW16378   1.615   2.765   4.437
 5160SOL    HW116379   1.585   2.737   4.346
 5160SOL    HW216380   1.715   2.767   4.440
 5161SOL     OW16381   1.448   3.474   6.279
 5161SOL    HW116382   1.440   3.379   6.311
 5161SOL    HW216383   1.449   3.536   6.358
 5162SOL     OW16384   6.275   5.607   4.442
 5162SOL    HW116385   6.235   5.693   4.473
 5162SOL    HW216386   6.346   5.626   4.374
 5163SOL     OW16387   5.410   3.836   1.000
 5163SOL    HW116388   5.436   3.766   1.066
 5163SOL    HW216389   5.311   3.846   1.000
 5164SOL     OW16390   5.622   5.141   5.878
 5164SOL    HW116391   5.657   5.113   5.968
 5164SOL    HW216392   5.670   5.223   5.848
 5165SOL     OW16393   6.353   3.620   4.086
 5165SOL    HW116394   6.292   3.617   4.165
 5165SOL    HW216395   6.299   3.607   4.003
 5166SOL     OW16396   1.392   0.048   1.419
 5166SOL    HW116397   1.293   0.062   1.423
 5166SOL    HW216398   1.436   0.098   1.493
 5167SOL     OW16399   1.303   6.780   5.487
 5167SOL    HW116400   1.294   6.875   5.457
 5167SOL    HW216401   1.346   6.777   5.577
 5168SOL     OW16402   3.946   1.772   2.835
 5168SOL    HW116403   3.937   1.838   2.909
 5168SOL    HW216404   3.923   1.817   2.748
 5169SOL     OW16405   4.000   4.058   6.605
 5169SOL    HW116406   3.975   4.154   6.603
 5169SOL    HW216407   4.091   4.046   6.565
 5170SOL     OW16408   4.269   4.921   4.509
 5170SOL    HW116409   4.236   4.891   4.419
 5170SOL    HW216410   4.365   4.896   4.519
 5171SOL     OW16411   2.447   4.476   4.768
 5171SOL    HW116412   2.481   4.531   4.845
 5171SOL    HW216413   2.454   4.379   4.791
 5172SOL     OW16414   2.157   4.724   6.880
 5172SOL    HW116415   2.224   4.797   6.865
 5172SOL    HW216416   2.174   4.649   6.816
 5173SOL     OW16417   6.479   3.601   5.940
 5173SOL    HW116418   6.421   3.674   5.974
 5173SOL    HW216419   6.541   3.571   6.012
 5174SOL     OW16420   1.824   4.382   6.295
 5174SOL    HW116421   1.873   4.464   6.326
 5174SOL    HW216422   1.755   4.408   6.227
 5175SOL     OW16423   0.522   5.251   6.315
 5175SOL    HW116424   0.598   5.192   6.288
 5175SOL    HW216425   0.457   5.259   6.240
 5176SOL     OW16426   5.422   4.341   6.530
 5176SOL    HW116427   5.413   4.279   6.452
 5176SOL    HW216428   5.385   4.296   6.612
 5177SOL     OW16429   5.110   6.219   6.869
 5177SOL    HW116430   5.075   6.295   6.924
 5177SOL    HW216431   5.128   6.140   6.927
 5178SOL     OW16432   2.904   2.224   1.721
 5178SOL    HW116433   2.889   2.281   1.802
 5178SOL    HW216434   2.977   2.159   1.738
 5179SOL     OW16435   3.448   5.801   4.999
 5179SOL    HW116436   3.545   5.796   5.022
 5179SOL    HW216437   3.395   5.751   5.068
 5180SOL     OW16438   2.773   2.454   0.346
 5180SOL    HW116439   2.677   2.464   0.322
 5180SOL    HW216440   2.811   2.543   0.371
 5181SOL     OW16441   2.796   5.468   2.485
 5181SOL    HW116442   2.831   5.479   2.392
 5181SOL    HW216443   2.711   5.415   2.482
 5182SOL     OW16444   4.652   4.154   1.708
 5182SOL    HW116445   4.593   4.175   1.631
 5182SOL    HW216446   4.613   4.193   1.792
 5183SOL     OW16447   3.983   0.835   2.993
 5183SOL    HW116448   4.037   0.842   2.909
 5183SOL    HW216449   4.042   0.813   3.070
 5184SOL     OW16450   1.224   1.790   2.754
 5184SOL    HW116451   1.211   1.888   2.772
 5184SOL    HW216452   1.242   1.776   2.657
 5185SOL     OW16453   3.918   0.414   2.022
 5185SOL    HW116454   3.982   0.421   1.945
 5185SOL    HW216455   3.960   0.359   2.095
 5186SOL     OW16456   5.705   4.666   6.936
 5186SOL    HW116457   5.697   4.716   0.003
 5186SOL    HW216458   5.798   4.674   6.901
 5187SOL     OW16459   4.978   2.082   4.152
 5187SOL    HW116460   5.025   2.041   4.230
 5187SOL    HW216461   4.933   2.167   4.180
 5188SOL     OW16462   0.990   3.289   4.487
 5188SOL    HW116463   1.031   3.216   4.542
 5188SOL    HW216464   0.892   3.297   4.510
 5189SOL     OW16465   4.121   5.559   6.615
 5189SOL    HW116466   4.114   5.474   6.562
 5189SOL    HW216467   4.215   5.593   6.612
 5190SOL     OW16468   1.984   2.662   3.296
 5190SOL    HW116469   1.925   2.686   3.220
 5190SOL    HW216470   1.929   2.633   3.374
 5191SOL     OW16471   4.829   0.807   2.334
 5191SOL    HW116472   4.813   0.858   2.419
 5191SOL    HW216473   4.747   0.755   2.311
 5192SOL     OW16474   5.847   4.793   1.889
 5192SOL    HW116475   5.888   4.756   1.972
 5192SOL    HW216476   5.842   4.892   1.895
 5193SOL     OW16477   4.824   3.860   2.456
 5193SOL    HW116478   4.825   3.815   2.546
 5193SOL    HW216479   4.777   3.948   2.464
 5194SOL     OW16480   5.186   1.719   6.536
 5194SOL    HW116481   5.156   1.661   6.612
 5194SOL    HW216482   5.111   1.731   6.471
 5195SOL     OW16483   6.235   6.300   5.286
 5195SOL    HW116484   6.254   6.268   5.378
 5195SOL    HW216485   6.222   6.222   5.225
 5196SOL     OW16486   0.644   3.170   1.939
 5196SOL    HW116487   0.595   3.122   1.867
 5196SOL    HW216488   0.592   3.164   2.025
 5197SOL     OW16489   3.698   5.970   5.335
 5197SOL    HW116490   3.773   5.968   5.401
 5197SOL    HW216491   3.630   5.901   5.359
 5198SOL     OW16492   4.079   0.328   5.949
 5198SOL    HW116493   4.134   0.398   5.994
 5198SOL    HW216494   3.989   0.366   5.925
 5199SOL     OW16495   0.074   5.133   1.918
 5199SOL    HW116496   7.001   5.151   1.885
 5199SOL    HW216497   0.122   5.073   1.854
 5200SOL     OW16498   0.005   6.931   5.235
 5200SOL    HW116499   7.011   6.952   5.138
 5200SOL    HW216500   6.936   6.912   5.278
 5201SOL     OW16501   5.810   4.482   4.933
 5201SOL    HW116502   5.782   4.430   4.852
 5201SOL    HW216503   5.740   4.549   4.956
 5202SOL     OW16504   3.289   3.146   5.552
 5202SOL    HW116505   3.285   3.056   5.595
 5202SOL    HW216506   3.199   3.190   5.557
 5203SOL     OW16507   1.632   0.662   6.316
 5203SOL    HW116508   1.573   0.743   6.315
 5203SOL    HW216509   1.672   0.651   6.407
 5204SOL     OW16510   2.244   0.749   0.742
 5204SOL    HW116511   2.330   0.742   0.792
 5204SOL    HW216512   2.262   0.782   0.649
 5205SOL     OW16513   6.838   6.783   1.408
 5205SOL    HW116514   6.779   6.859   1.381
 5205SOL    HW216515   6.786   6.720   1.466
 5206SOL     OW16516   1.099   4.663   3.587
 5206SOL    HW116517   1.164   4.591   3.562
 5206SOL    HW216518   1.148   4.745   3.616
 5207SOL     OW16519   5.856   6.592   4.752
 5207SOL    HW116520   5.767   6.576   4.795
 5207SOL    HW216521   5.929   6.564   4.815
 5208SOL     OW16522   6.506   2.164   0.605
 5208SOL    HW116523   6.432   2.198   0.548
 5208SOL    HW216524   6.550   2.086   0.561
 5209SOL     OW16525   5.426   6.724   3.281
 5209SOL    HW116526   5.381   6.759   3.363
 5209SOL    HW216527   5.497   6.658   3.307
 5210SOL     OW16528   5.654   4.726   0.770
 5210SOL    HW116529   5.684   4.663   0.842
 5210SOL    HW216530   5.597   4.798   0.811
 5211SOL     OW16531   5.361   2.192   4.649
 5211SOL    HW116532   5.399   2.266   4.705
 5211SOL    HW216533   5.264   2.208   4.634
 5212SOL     OW16534   6.955   4.074   0.690
 5212SOL    HW116535   6.948   3.985   0.646
 5212SOL    HW216536   6.975   4.144   0.622
 5213SOL     OW16537   4.106   3.394   2.962
 5213SOL    HW116538   4.140   3.386   3.056
 5213SOL    HW216539   4.085   3.490   2.943
 5214SOL     OW16540   5.370   3.223   5.202
 5214SOL    HW116541   5.350   3.314   5.165
 5214SOL    HW216542   5.284   3.172   5.213
 5215SOL     OW16543   0.439   5.184   5.049
 5215SOL    HW116544   0.421   5.147   4.958
 5215SOL    HW216545   0.496   5.266   5.042
 5216SOL     OW16546   5.047   5.189   1.315
 5216SOL    HW116547   4.982   5.118   1.288
 5216SOL    HW216548   5.058   5.189   1.414
 5217SOL     OW16549   4.811   6.805   3.003
 5217SOL    HW116550   4.902   6.797   3.043
 5217SOL    HW216551   4.818   6.815   2.904
 5218SOL     OW16552   6.191   0.196   0.334
 5218SOL    HW116553   6.100   0.155   0.336
 5218SOL    HW216554   6.184   0.290   0.299
 5219SOL     OW16555   3.169   0.954   5.688
 5219SOL    HW116556   3.210   1.011   5.617
 5219SOL    HW216557   3.224   0.871   5.699
 5220SOL     OW16558   1.900   5.114   4.618
 5220SOL    HW116559   1.898   5.095   4.519
 5220SOL    HW216560   1.873   5.032   4.668
 5221SOL     OW16561   5.809   5.931   1.489
 5221SOL    HW116562   5.739   5.876   1.534
 5221SOL    HW216563   5.786   5.943   1.392
 5222SOL     OW16564   0.015   3.470   1.716
 5222SOL    HW116565   6.990   3.499   1.801
 5222SOL    HW216566   0.020   3.371   1.712
 5223SOL     OW16567   6.090   2.868   0.606
 5223SOL    HW116568   6.131   2.863   0.697
 5223SOL    HW216569   5.991   2.860   0.614
 5224SOL     OW16570   0.624   1.285   5.221
 5224SOL    HW116571   0.672   1.355   5.275
 5224SOL    HW216572   0.527   1.286   5.246
 5225SOL     OW16573   6.790   1.732   4.803
 5225SOL    HW116574   6.860   1.764   4.739
 5225SOL    HW216575   6.757   1.810   4.857
 5226SOL     OW16576   0.393   6.264   4.262
 5226SOL    HW116577   0.353   6.255   4.172
 5226SOL    HW216578   0.490   6.288   4.253
 5227SOL     OW16579   0.830   3.990   6.010
 5227SOL    HW116580   0.890   3.916   6.043
 5227SOL    HW216581   0.886   4.062   5.969
 5228SOL     OW16582   0.704   1.909   5.546
 5228SOL    HW116583   0.759   1.949   5.619
 5228SOL    HW216584   0.679   1.815   5.570
 5229SOL     OW16585   3.080   1.592   6.131
 5229SOL    HW116586   3.123   1.633   6.213
 5229SOL    HW216587   3.019   1.519   6.159
 5230SOL     OW16588   6.875   0.240   2.410
 5230SOL    HW116589   6.866   0.333   2.448
 5230SOL    HW216590   6.894   0.246   2.312
 5231SOL     OW16591   6.261   3.489   2.338
 5231SOL    HW116592   6.338   3.518   2.395
 5231SOL    HW216593   6.181   3.543   2.361
 5232SOL     OW16594   1.567   2.451   5.879
 5232SOL    HW116595   1.484   2.416   5.835
 5232SOL    HW216596   1.642   2.451   5.814
 5233SOL     OW16597   3.802   6.462   2.303
 5233SOL    HW116598   3.851   6.375   2.310
 5233SOL    HW216599   3.752   6.466   2.216
 5234SOL     OW16600   3.056   2.164   5.928
 5234SOL    HW116601   3.151   2.195   5.915
 5234SOL    HW216602   3.004   2.180   5.845
 5235SOL     OW16603   2.963   1.842   1.602
 5235SOL    HW116604   2.917   1.893   1.529
 5235SOL    HW216605   2.894   1.800   1.661
 5236SOL     OW16606   3.153   5.060   1.810
 5236SOL    HW116607   3.149   5.075   1.909
 5236SOL    HW216608   3.215   4.984   1.790
 5237SOL     OW16609   1.956   1.901   2.035
 5237SOL    HW116610   2.008   1.846   2.101
 5237SOL    HW216611   1.965   1.998   2.057
 5238SOL     OW16612   0.293   0.476   3.368
 5238SOL    HW116613   0.390   0.453   3.379
 5238SOL    HW216614   0.238   0.415   3.425
 5239SOL     OW16615   2.575   4.306   0.888
 5239SOL    HW116616   2.645   4.328   0.820
 5239SOL    HW216617   2.514   4.236   0.852
 5240SOL     OW16618   1.920   4.309   5.431
 5240SOL    HW116619   2.002   4.339   5.382
 5240SOL    HW216620   1.935   4.316   5.529
 5241SOL     OW16621   1.892   6.512   2.622
 5241SOL    HW116622   1.804   6.477   2.588
 5241SOL    HW216623   1.876   6.572   2.701
 5242SOL     OW16624   3.570   6.936   6.295
 5242SOL    HW116625   3.481   6.906   6.260
 5242SOL    HW216626   3.639   6.929   6.223
 5243SOL     OW16627   2.801   6.450   2.191
 5243SOL    HW116628   2.727   6.455   2.257
 5243SOL    HW216629   2.884   6.490   2.229
 5244SOL     OW16630   4.561   1.351   0.243
 5244SOL    HW116631   4.473   1.356   0.195
 5244SOL    HW216632   4.546   1.356   0.342
 5245SOL     OW16633   3.264   4.049   1.476
 5245SOL    HW116634   3.199   3.990   1.428
 5245SOL    HW216635   3.215   4.109   1.539
 5246SOL     OW16636   5.850   4.068   6.729
 5246SOL    HW116637   5.932   4.020   6.699
 5246SOL    HW216638   5.782   4.067   6.657
 5247SOL     OW16639   4.695   1.575   6.502
 5247SOL    HW116640   4.606   1.531   6.515
 5247SOL    HW216641   4.728   1.558   6.409
 5248SOL     OW16642   5.364   1.059   4.157
 5248SOL    HW116643   5.313   0.979   4.123
 5248SOL    HW216644   5.364   1.130   4.087
 5249SOL     OW16645   0.147   5.372   1.080
 5249SOL    HW116646   0.093   5.447   1.118
 5249SOL    HW216647   0.094   5.287   1.086
 5250SOL     OW16648   2.452   5.921   1.382
 5250SOL    HW116649   2.531   5.922   1.443
 5250SOL    HW216650   2.423   5.826   1.367
 5251SOL     OW16651   0.302   4.539   0.549
 5251SOL    HW116652   0.264   4.453   0.583
 5251SOL    HW216653   0.401   4.532   0.545
 5252SOL     OW16654   3.856   5.821   2.391
 5252SOL    HW116655   3.809   5.770   2.319
 5252SOL    HW216656   3.876   5.759   2.467
 5253SOL     OW16657   6.884   6.222   4.675
 5253SOL    HW116658   6.902   6.321   4.679
 5253SOL    HW216659   6.970   6.172   4.685
 5254SOL     OW16660   4.716   5.971   3.100
 5254SOL    HW116661   4.777   5.908   3.051
 5254SOL    HW216662   4.770   6.033   3.157
 5255SOL     OW16663   6.396   1.723   5.308
 5255SOL    HW116664   6.368   1.815   5.283
 5255SOL    HW216665   6.401   1.715   5.408
 5256SOL     OW16666   6.343   1.994   2.399
 5256SOL    HW116667   6.254   1.990   2.354
 5256SOL    HW216668   6.413   1.960   2.337
 5257SOL     OW16669   4.275   1.765   6.207
 5257SOL    HW116670   4.324   1.679   6.192
 5257SOL    HW216671   4.223   1.788   6.125
 5258SOL     OW16672   5.017   1.447   4.402
 5258SOL    HW116673   4.937   1.452   4.463
 5258SOL    HW216674   5.063   1.359   4.414
 5259SOL     OW16675   6.068   5.123   3.689
 5259SOL    HW116676   6.102   5.180   3.764
 5259SOL    HW216677   6.081   5.027   3.711
 5260SOL     OW16678   1.832   6.692   1.312
 5260SOL    HW116679   1.892   6.646   1.247
 5260SOL    HW216680   1.787   6.624   1.370
 5261SOL     OW16681   5.474   4.525   6.707
 5261SOL    HW116682   5.438   4.460   6.641
 5261SOL    HW216683   5.422   4.518   6.792
 5262SOL     OW16684   1.588   0.997   1.617
 5262SOL    HW116685   1.509   1.033   1.569
 5262SOL    HW216686   1.585   1.027   1.713
 5263SOL     OW16687   1.572   6.258   2.740
 5263SOL    HW116688   1.510   6.277   2.816
 5263SOL    HW216689   1.666   6.255   2.773
 5264SOL     OW16690   6.742   2.197   1.777
 5264SOL    HW116691   6.740   2.231   1.871
 5264SOL    HW216692   6.821   2.137   1.765
 5265SOL     OW16693   6.615   5.688   5.628
 5265SOL    HW116694   6.571   5.606   5.593
 5265SOL    HW216695   6.694   5.661   5.684
 5266SOL     OW16696   1.588   0.023   6.787
 5266SOL    HW116697   1.574   0.122   6.779
 5266SOL    HW216698   1.623   7.007   6.700
 5267SOL     OW16699   5.233   2.267   3.785
 5267SOL    HW116700   5.228   2.189   3.846
 5267SOL    HW216701   5.287   2.243   3.704
 5268SOL     OW16702   5.444   0.360   6.540
 5268SOL    HW116703   5.412   0.387   6.631
 5268SOL    HW216704   5.538   0.393   6.527
 5269SOL     OW16705   1.229   0.090   3.933
 5269SOL    HW116706   1.241   0.115   4.029
 5269SOL    HW216707   1.227   7.009   3.925
 5270SOL     OW16708   0.472   1.592   6.419
 5270SOL    HW116709   0.481   1.688   6.392
 5270SOL    HW216710   0.455   1.536   6.337
 5271SOL     OW16711   1.223   4.887   3.312
 5271SOL    HW116712   1.165   4.806   3.315
 5271SOL    HW216713   1.224   4.931   3.403
 5272SOL     OW16714   3.978   0.695   7.009
 5272SOL    HW116715   3.974   0.614   0.049
 5272SOL    HW216716   3.945   0.670   6.918
 5273SOL     OW16717   2.647   1.709   2.737
 5273SOL    HW116718   2.734   1.704   2.688
 5273SOL    HW216719   2.653   1.653   2.820
 5274SOL     OW16720   5.770   5.016   1.388
 5274SOL    HW116721   5.780   4.943   1.320
 5274SOL    HW216722   5.705   5.084   1.354
 5275SOL     OW16723   4.373   1.706   6.658
 5275SOL    HW116724   4.273   1.703   6.649
 5275SOL    HW216725   4.406   1.797   6.631
 5276SOL     OW16726   4.167   6.678   1.899
 5276SOL    HW116727   4.165   6.637   1.807
 5276SOL    HW216728   4.124   6.615   1.964
 5277SOL     OW16729   2.146   2.511   2.162
 5277SOL    HW116730   2.124   2.482   2.069
 5277SOL    HW216731   2.067   2.497   2.221
 5278SOL     OW16732   4.038   3.451   1.924
 5278SOL    HW116733   4.104   3.379   1.904
 5278SOL    HW216734   4.048   3.481   2.019
 5279SOL     OW16735   1.809   6.300   2.221
 5279SOL    HW116736   1.876   6.255   2.280
 5279SOL    HW216737   1.718   6.265   2.240
 5280SOL     OW16738   3.648   0.669   5.068
 5280SOL    HW116739   3.733   0.615   5.066
 5280SOL    HW216740   3.594   0.649   4.986
 5281SOL     OW16741   0.114   2.704   3.490
 5281SOL    HW116742   0.174   2.704   3.410
 5281SOL    HW216743   0.156   2.757   3.563
 5282SOL     OW16744   4.815   1.110   1.248
 5282SOL    HW116745   4.749   1.174   1.287
 5282SOL    HW216746   4.908   1.139   1.271
 5283SOL     OW16747   4.750   5.043   5.989
 5283SOL    HW116748   4.824   5.088   5.939
 5283SOL    HW216749   4.708   5.108   6.052
 5284SOL     OW16750   4.799   2.874   3.241
 5284SOL    HW116751   4.789   2.933   3.322
 5284SOL    HW216752   4.895   2.869   3.215
 5285SOL     OW16753   4.113   6.104   2.689
 5285SOL    HW116754   4.024   6.140   2.661
 5285SOL    HW216755   4.169   6.087   2.607
 5286SOL     OW16756   2.550   5.325   2.482
 5286SOL    HW116757   2.537   5.311   2.384
 5286SOL    HW216758   2.462   5.349   2.524
 5287SOL     OW16759   0.484   1.358   2.060
 5287SOL    HW116760   0.446   1.450   2.058
 5287SOL    HW216761   0.439   1.301   1.992
 5288SOL     OW16762   4.143   0.785   0.720
 5288SOL    HW116763   4.097   0.799   0.632
 5288SOL    HW216764   4.216   0.851   0.730
 5289SOL     OW16765   1.730   6.055   0.848
 5289SOL    HW116766   1.810   5.998   0.869
 5289SOL    HW216767   1.753   6.120   0.776
 5290SOL     OW16768   5.356   5.962   0.565
 5290SOL    HW116769   5.270   5.933   0.607
 5290SOL    HW216770   5.348   6.056   0.534
 5291SOL     OW16771   1.038   5.435   6.428
 5291SOL    HW116772   0.998   5.452   6.518
 5291SOL    HW216773   1.116   5.373   6.438
 5292SOL     OW16774   5.337   1.995   0.375
 5292SOL    HW116775   5.291   1.939   0.444
 5292SOL    HW216776   5.307   2.090   0.385
 5293SOL     OW16777   1.465   1.556   3.886
 5293SOL    HW116778   1.510   1.580   3.972
 5293SOL    HW216779   1.520   1.588   3.809
 5294SOL     OW16780   4.762   2.748   5.538
 5294SOL    HW116781   4.780   2.730   5.635
 5294SOL    HW216782   4.718   2.669   5.497
 5295SOL     OW16783   6.212   1.139   2.014
 5295SOL    HW116784   6.190   1.119   1.918
 5295SOL    HW216785   6.225   1.238   2.025
 5296SOL     OW16786   0.592   3.401   6.895
 5296SOL    HW116787   0.502   3.440   6.875
 5296SOL    HW216788   0.589   3.302   6.883
 5297SOL     OW16789   1.480   3.099   2.117
 5297SOL    HW116790   1.496   3.138   2.207
 5297SOL    HW216791   1.527   3.154   2.048
 5298SOL     OW16792   1.003   4.832   1.991
 5298SOL    HW116793   0.948   4.752   1.969
 5298SOL    HW216794   0.999   4.897   1.915
 5299SOL     OW16795   3.194   0.454   1.196
 5299SOL    HW116796   3.147   0.367   1.212
 5299SOL    HW216797   3.168   0.489   1.106
 5300SOL     OW16798   6.961   5.115   3.699
 5300SOL    HW116799   6.894   5.067   3.756
 5300SOL    HW216800   6.954   5.213   3.716
 5301SOL     OW16801   4.747   0.647   0.653
 5301SOL    HW116802   4.714   0.634   0.560
 5301SOL    HW216803   4.675   0.623   0.718
 5302SOL     OW16804   6.454   4.159   3.461
 5302SOL    HW116805   6.436   4.167   3.363
 5302SOL    HW216806   6.373   4.124   3.507
 5303SOL     OW16807   1.503   5.223   2.736
 5303SOL    HW116808   1.586   5.277   2.750
 5303SOL    HW216809   1.424   5.274   2.769
 5304SOL     OW16810   4.750   2.213   5.482
 5304SOL    HW116811   4.667   2.161   5.466
 5304SOL    HW216812   4.817   2.192   5.410
 5305SOL     OW16813   2.823   1.220   3.769
 5305SOL    HW116814   2.840   1.190   3.674
 5305SOL    HW216815   2.891   1.178   3.829
 5306SOL     OW16816   2.752   6.497   4.803
 5306SOL    HW116817   2.728   6.556   4.726
 5306SOL    HW216818   2.733   6.543   4.889
 5307SOL     OW16819   3.843   6.852   0.390
 5307SOL    HW116820   3.891   6.770   0.361
 5307SOL    HW216821   3.760   6.827   0.440
 5308SOL     OW16822   0.092   1.138   2.084
 5308SOL    HW116823   0.174   1.135   2.140
 5308SOL    HW216824   0.044   1.050   2.088
 5309SOL     OW16825   3.297   3.640   4.554
 5309SOL    HW116826   3.249   3.711   4.502
 5309SOL    HW216827   3.232   3.568   4.579
 5310SOL     OW16828   5.679   2.976   0.261
 5310SOL    HW116829   5.654   3.054   0.319
 5310SOL    HW216830   5.779   2.973   0.251
 5311SOL     OW16831   0.892   6.439   6.589
 5311SOL    HW116832   0.961   6.437   6.517
 5311SOL    HW216833   0.801   6.436   6.548
 5312SOL     OW16834   0.182   3.242   1.901
 5312SOL    HW116835   0.186   3.196   1.990
 5312SOL    HW216836   0.245   3.319   1.900
 5313SOL     OW16837   1.114   6.420   0.837
 5313SOL    HW116838   1.023   6.455   0.855
 5313SOL    HW216839   1.128   6.411   0.738
 5314SOL     OW16840   3.750   5.338   1.394
 5314SOL    HW116841   3.662   5.326   1.440
 5314SOL    HW216842   3.761   5.266   1.324
 5315SOL     OW16843   5.810   2.734   1.986
 5315SOL    HW116844   5.842   2.796   1.914
 5315SOL    HW216845   5.839   2.641   1.966
 5316SOL     OW16846   5.673   5.425   4.395
 5316SOL    HW116847   5.642   5.344   4.446
 5316SOL    HW216848   5.643   5.418   4.300
 5317SOL     OW16849   6.690   5.668   2.988
 5317SOL    HW116850   6.647   5.729   3.054
 5317SOL    HW216851   6.687   5.574   3.023
 5318SOL     OW16852   0.363   2.288   4.356
 5318SOL    HW116853   0.282   2.246   4.316
 5318SOL    HW216854   0.338   2.332   4.443
 5319SOL     OW16855   3.691   6.910   1.999
 5319SOL    HW116856   3.754   6.866   1.935
 5319SOL    HW216857   3.736   6.919   2.088
 5320SOL     OW16858   6.223   3.450   5.933
 5320SOL    HW116859   6.263   3.540   5.922
 5320SOL    HW216860   6.286   3.380   5.898
 5321SOL     OW16861   2.162   4.656   5.709
 5321SOL    HW116862   2.231   4.589   5.680
 5321SOL    HW216863   2.097   4.611   5.771
 5322SOL     OW16864   2.343   5.815   0.748
 5322SOL    HW116865   2.332   5.889   0.814
 5322SOL    HW216866   2.254   5.772   0.731
 5323SOL     OW16867   5.538   3.505   0.498
 5323SOL    HW116868   5.484   3.588   0.480
 5323SOL    HW216869   5.521   3.475   0.592
 5324SOL     OW16870   3.841   3.624   1.402
 5324SOL    HW116871   3.752   3.609   1.445
 5324SOL    HW216872   3.913   3.590   1.462
 5325SOL     OW16873   4.248   6.151   4.735
 5325SOL    HW116874   4.304   6.144   4.817
 5325SOL    HW216875   4.194   6.068   4.724
 5326SOL     OW16876   0.010   0.345   2.806
 5326SOL    HW116877   6.944   0.296   2.825
 5326SOL    HW216878   0.011   0.431   2.856
 5327SOL     OW16879   0.190   0.202   3.798
 5327SOL    HW116880   0.167   0.152   3.714
 5327SOL    HW216881   0.250   0.278   3.777
 5328SOL     OW16882   3.729   4.965   0.035
 5328SOL    HW116883   3.731   4.865   0.029
 5328SOL    HW216884   3.720   4.993   0.130
 5329SOL     OW16885   0.274   5.805   0.194
 5329SOL    HW116886   0.334   5.754   0.257
 5329SOL    HW216887   0.249   5.892   0.236
 5330SOL     OW16888   3.424   4.053   0.342
 5330SOL    HW116889   3.428   4.124   0.411
 5330SOL    HW216890   3.513   4.046   0.296
 5331SOL     OW16891   5.079   1.678   6.801
 5331SOL    HW116892   5.149   1.748   6.814
 5331SOL    HW216893   4.990   1.714   6.829
 5332SOL     OW16894   5.644   3.302   0.117
 5332SOL    HW116895   5.661   3.292   0.215
 5332SOL    HW216896   5.547   3.291   0.099
 5333SOL     OW16897   1.355   0.975   4.375
 5333SOL    HW116898   1.287   0.907   4.404
 5333SOL    HW216899   1.429   0.979   4.443
 5334SOL     OW16900   3.265   6.231   1.968
 5334SOL    HW116901   3.313   6.187   2.043
 5334SOL    HW216902   3.264   6.171   1.888
 5335SOL     OW16903   0.256   4.670   1.744
 5335SOL    HW116904   0.223   4.764   1.744
 5335SOL    HW216905   0.345   4.666   1.697
 5336SOL     OW16906   1.874   3.066   5.273
 5336SOL    HW116907   1.925   2.998   5.220
 5336SOL    HW216908   1.915   3.156   5.260
 5337SOL     OW16909   0.094   3.375   1.396
 5337SOL    HW116910   0.102   3.475   1.393
 5337SOL    HW216911   0.179   3.336   1.431
 5338SOL     OW16912   6.826   3.444   0.758
 5338SOL    HW116913   6.842   3.378   0.831
 5338SOL    HW216914   6.854   3.405   0.670
 5339SOL     OW16915   5.643   3.184   2.397
 5339SOL    HW116916   5.602   3.093   2.400
 5339SOL    HW216917   5.630   3.223   2.306
 5340SOL     OW16918   4.486   3.399   1.705
 5340SOL    HW116919   4.555   3.468   1.685
 5340SOL    HW216920   4.526   3.308   1.698
 5341SOL     OW16921   4.771   4.791   3.444
 5341SOL    HW116922   4.797   4.699   3.417
 5341SOL    HW216923   4.698   4.824   3.384
 5342SOL     OW16924   6.233   5.709   4.966
 5342SOL    HW116925   6.140   5.694   4.933
 5342SOL    HW216926   6.235   5.704   5.066
 5343SOL     OW16927   3.850   3.295   6.639
 5343SOL    HW116928   3.935   3.345   6.653
 5343SOL    HW216929   3.842   3.222   6.708
 5344SOL     OW16930   6.909   1.334   6.639
 5344SOL    HW116931   6.849   1.349   6.561
 5344SOL    HW216932   6.991   1.285   6.609
 5345SOL     OW16933   4.381   0.940   6.745
 5345SOL    HW116934   4.326   0.939   6.828
 5345SOL    HW216935   4.470   0.980   6.764
 5346SOL     OW16936   3.151   6.080   3.473
 5346SOL    HW116937   3.180   5.984   3.472
 5346SOL    HW216938   3.055   6.085   3.445
 5347SOL     OW16939   5.343   1.564   4.417
 5347SOL    HW116940   5.263   1.505   4.403
 5347SOL    HW216941   5.311   1.656   4.443
 5348SOL     OW16942   4.803   2.966   5.107
 5348SOL    HW116943   4.720   2.912   5.118
 5348SOL    HW216944   4.779   3.063   5.102
 5349SOL     OW16945   0.806   3.962   1.304
 5349SOL    HW116946   0.710   3.936   1.296
 5349SOL    HW216947   0.851   3.904   1.372
 5350SOL     OW16948   1.184   0.056   6.329
 5350SOL    HW116949   1.163   6.988   6.372
 5350SOL    HW216950   1.188   0.044   6.230
 5351SOL     OW16951   0.360   6.151   3.015
 5351SOL    HW116952   0.383   6.158   2.918
 5351SOL    HW216953   0.264   6.122   3.024
 5352SOL     OW16954   1.416   2.860   6.060
 5352SOL    HW116955   1.478   2.785   6.084
 5352SOL    HW216956   1.411   2.869   5.960
 5353SOL     OW16957   3.675   5.430   3.505
 5353SOL    HW116958   3.603   5.483   3.460
 5353SOL    HW216959   3.636   5.375   3.578
 5354SOL     OW16960   3.741   5.874   1.147
 5354SOL    HW116961   3.748   5.884   1.247
 5354SOL    HW216962   3.745   5.965   1.105
 5355SOL     OW16963   4.954   5.973   4.989
 5355SOL    HW116964   5.025   5.909   4.960
 5355SOL    HW216965   4.985   6.067   4.975
 5356SOL     OW16966   1.374   6.210   1.302
 5356SOL    HW116967   1.473   6.198   1.288
 5356SOL    HW216968   1.325   6.184   1.219
 5357SOL     OW16969   6.470   3.180   3.095
 5357SOL    HW116970   6.562   3.179   3.057
 5357SOL    HW216971   6.415   3.249   3.047
 5358SOL     OW16972   6.227   0.540   6.350
 5358SOL    HW116973   6.299   0.472   6.339
 5358SOL    HW216974   6.168   0.539   6.270
 5359SOL     OW16975   3.059   2.615   0.358
 5359SOL    HW116976   2.994   2.628   0.433
 5359SOL    HW216977   3.107   2.700   0.340
 5360SOL     OW16978   5.134   5.557   3.747
 5360SOL    HW116979   5.124   5.496   3.669
 5360SOL    HW216980   5.218   5.609   3.739
 5361SOL     OW16981   1.386   4.291   3.292
 5361SOL    HW116982   1.341   4.205   3.268
 5361SOL    HW216983   1.483   4.275   3.308
 5362SOL     OW16984   6.129   1.272   2.711
 5362SOL    HW116985   6.172   1.195   2.757
 5362SOL    HW216986   6.153   1.357   2.759
 5363SOL     OW16987   5.818   5.782   3.683
 5363SOL    HW116988   5.852   5.874   3.705
 5363SOL    HW216989   5.821   5.725   3.765
 5364SOL     OW16990   4.631   2.435   2.260
 5364SOL    HW116991   4.610   2.350   2.212
 5364SOL    HW216992   4.642   2.509   2.194
 5365SOL     OW16993   2.974   3.979   5.023
 5365SOL    HW116994   2.966   3.892   5.072
 5365SOL    HW216995   2.883   4.021   5.015
 5366SOL     OW16996   6.663   5.618   3.316
 5366SOL    HW116997   6.576   5.625   3.364
 5366SOL    HW216998   6.650   5.564   3.233
 5367SOL     OW16999   6.221   6.053   1.380
 5367SOL    HW117000   6.304   6.107   1.395
 5367SOL    HW217001   6.180   6.030   1.468
 5368SOL     OW17002   0.382   6.022   4.861
 5368SOL    HW117003   0.408   5.975   4.946
 5368SOL    HW217004   0.464   6.059   4.818
 5369SOL     OW17005   4.450   6.559   2.542
 5369SOL    HW117006   4.448   6.588   2.638
 5369SOL    HW217007   4.400   6.473   2.532
 5370SOL     OW17008   1.703   2.918   0.254
 5370SOL    HW117009   1.636   2.883   0.189
 5370SOL    HW217010   1.795   2.892   0.224
 5371SOL     OW17011   6.478   5.621   4.274
 5371SOL    HW117012   6.517   5.534   4.304
 5371SOL    HW217013   6.493   5.690   4.345
 5372SOL     OW17014   2.393   6.719   3.317
 5372SOL    HW117015   2.409   6.620   3.321
 5372SOL    HW217016   2.449   6.758   3.243
 5373SOL     OW17017   3.140   0.984   6.556
 5373SOL    HW117018   3.058   0.945   6.513
 5373SOL    HW217019   3.204   0.911   6.578
 5374SOL     OW17020   1.217   4.002   1.292
 5374SOL    HW117021   1.229   4.090   1.339
 5374SOL    HW217022   1.162   4.015   1.210
 5375SOL     OW17023   2.177   4.571   4.708
 5375SOL    HW117024   2.098   4.511   4.719
 5375SOL    HW217025   2.261   4.517   4.706
 5376SOL     OW17026   0.910   0.236   0.617
 5376SOL    HW117027   1.003   0.201   0.627
 5376SOL    HW217028   0.914   0.331   0.587
 5377SOL     OW17029   1.262   1.711   2.467
 5377SOL    HW117030   1.332   1.708   2.395
 5377SOL    HW217031   1.177   1.671   2.433
 5378SOL     OW17032   4.829   6.918   2.416
 5378SOL    HW117033   4.743   6.872   2.393
 5378SOL    HW217034   4.821   6.960   2.507
 5379SOL     OW17035   2.110   2.014   3.167
 5379SOL    HW117036   2.174   2.091   3.170
 5379SOL    HW217037   2.027   2.038   3.217
 5380SOL     OW17038   5.068   6.271   1.174
 5380SOL    HW117039   5.009   6.250   1.252
 5380SOL    HW217040   5.143   6.205   1.171
 5381SOL     OW17041   3.444   1.684   3.110
 5381SOL    HW117042   3.484   1.687   3.202
 5381SOL    HW217043   3.460   1.770   3.063
 5382SOL     OW17044   3.967   1.283   2.561
 5382SOL    HW117045   4.047   1.241   2.603
 5382SOL    HW217046   3.995   1.334   2.480
 5383SOL     OW17047   2.135   3.286   4.868
 5383SOL    HW117048   2.153   3.253   4.961
 5383SOL    HW217049   2.036   3.297   4.856
 5384SOL     OW17050   5.165   6.072   6.114
 5384SOL    HW117051   5.072   6.043   6.136
 5384SOL    HW217052   5.179   6.166   6.146
 5385SOL     OW17053   3.978   3.518   7.006
 5385SOL    HW117054   4.042   3.568   0.046
 5385SOL    HW217055   3.885   3.547   0.008
 5386SOL     OW17056   4.637   5.074   3.926
 5386SOL    HW117057   4.567   5.125   3.876
 5386SOL    HW217058   4.727   5.104   3.896
 5387SOL     OW17059   1.145   2.401   4.356
 5387SOL    HW117060   1.075   2.471   4.346
 5387SOL    HW217061   1.103   2.310   4.353
 5388SOL     OW17062   6.398   6.597   4.270
 5388SOL    HW117063   6.446   6.533   4.211
 5388SOL    HW217064   6.389   6.685   4.223
 5389SOL     OW17065   5.373   1.188   4.678
 5389SOL    HW117066   5.324   1.207   4.763
 5389SOL    HW217067   5.382   1.089   4.666
 5390SOL     OW17068   5.643   3.841   3.053
 5390SOL    HW117069   5.630   3.788   2.969
 5390SOL    HW217070   5.596   3.794   3.129
 5391SOL     OW17071   4.068   2.495   1.375
 5391SOL    HW117072   4.136   2.545   1.322
 5391SOL    HW217073   4.018   2.433   1.314
 5392SOL     OW17074   5.404   0.196   4.566
 5392SOL    HW117075   5.423   0.228   4.473
 5392SOL    HW217076   5.473   0.232   4.628
 5393SOL     OW17077   4.749   1.184   3.816
 5393SOL    HW117078   4.682   1.135   3.760
 5393SOL    HW217079   4.710   1.272   3.845
 5394SOL     OW17080   0.204   3.243   2.187
 5394SOL    HW117081   0.168   3.168   2.242
 5394SOL    HW217082   0.135   3.315   2.179
 5395SOL     OW17083   0.378   1.720   1.290
 5395SOL    HW117084   0.438   1.777   1.345
 5395SOL    HW217085   0.351   1.769   1.208
 5396SOL     OW17086   3.385   2.956   0.962
 5396SOL    HW117087   3.307   2.915   1.008
 5396SOL    HW217088   3.361   2.976   0.867
 5397SOL     OW17089   0.102   0.580   2.393
 5397SOL    HW117090   0.018   0.552   2.438
 5397SOL    HW217091   0.117   0.522   2.313
 5398SOL     OW17092   6.731   2.618   3.403
 5398SOL    HW117093   6.760   2.690   3.466
 5398SOL    HW217094   6.726   2.531   3.452
 5399SOL     OW17095   2.214   3.211   1.042
 5399SOL    HW117096   2.195   3.230   0.946
 5399SOL    HW217097   2.212   3.113   1.059
 5400SOL     OW17098   4.830   3.046   1.458
 5400SOL    HW117099   4.894   3.097   1.401
 5400SOL    HW217100   4.742   3.040   1.412
 5401SOL     OW17101   5.347   3.020   0.998
 5401SOL    HW117102   5.428   2.961   0.996
 5401SOL    HW217103   5.333   3.061   0.908
 5402SOL     OW17104   1.191   6.836   1.901
 5402SOL    HW117105   1.240   6.865   1.984
 5402SOL    HW217106   1.235   6.754   1.864
 5403SOL     OW17107   5.241   2.162   5.884
 5403SOL    HW117108   5.237   2.259   5.863
 5403SOL    HW217109   5.326   2.124   5.847
 5404SOL     OW17110   5.120   6.287   0.218
 5404SOL    HW117111   5.088   6.327   0.305
 5404SOL    HW217112   5.220   6.284   0.218
 5405SOL     OW17113   0.216   5.159   6.991
 5405SOL    HW117114   0.147   5.230   6.977
 5405SOL    HW217115   0.174   5.069   6.980
 5406SOL     OW17116   2.783   1.371   5.832
 5406SOL    HW117117   2.773   1.461   5.873
 5406SOL    HW217118   2.829   1.379   5.743
 5407SOL     OW17119   1.453   6.489   3.635
 5407SOL    HW117120   1.441   6.581   3.673
 5407SOL    HW217121   1.542   6.483   3.589
 5408SOL     OW17122   2.475   2.144   4.183
 5408SOL    HW117123   2.409   2.135   4.109
 5408SOL    HW217124   2.533   2.062   4.184
 5409SOL     OW17125   0.577   2.609   2.766
 5409SOL    HW117126   0.559   2.707   2.754
 5409SOL    HW217127   0.593   2.590   2.863
 5410SOL     OW17128   6.765   3.013   0.458
 5410SOL    HW117129   6.690   2.954   0.426
 5410SOL    HW217130   6.775   3.002   0.557
 5411SOL     OW17131   3.583   5.629   0.905
 5411SOL    HW117132   3.664   5.677   0.937
 5411SOL    HW217133   3.509   5.640   0.972
 5412SOL     OW17134   1.129   2.527   5.260
 5412SOL    HW117135   1.069   2.571   5.193
 5412SOL    HW217136   1.179   2.452   5.217
 5413SOL     OW17137   0.238   5.325   5.560
 5413SOL    HW117138   0.177   5.252   5.593
 5413SOL    HW217139   0.211   5.351   5.467
 5414SOL     OW17140   5.590   4.861   5.934
 5414SOL    HW117141   5.611   4.940   5.877
 5414SOL    HW217142   5.548   4.790   5.878
 5415SOL     OW17143   1.827   1.879   6.138
 5415SOL    HW117144   1.766   1.879   6.217
 5415SOL    HW217145   1.912   1.926   6.161
 5416SOL     OW17146   3.105   6.258   6.905
 5416SOL    HW117147   3.027   6.227   6.959
 5416SOL    HW217148   3.123   6.192   6.832
 5417SOL     OW17149   6.084   0.560   3.115
 5417SOL    HW117150   6.090   0.464   3.088
 5417SOL    HW217151   6.054   0.614   3.036
 5418SOL     OW17152   0.046   4.148   5.501
 5418SOL    HW117153   0.111   4.074   5.518
 5418SOL    HW217154   0.074   4.200   5.421
 5419SOL     OW17155   3.781   1.889   6.683
 5419SOL    HW117156   3.860   1.948   6.695
 5419SOL    HW217157   3.792   1.833   6.601
 5420SOL     OW17158   1.499   1.999   1.646
 5420SOL    HW117159   1.478   2.062   1.571
 5420SOL    HW217160   1.478   1.905   1.616
 5421SOL     OW17161   3.988   5.385   1.908
 5421SOL    HW117162   3.960   5.329   1.985
 5421SOL    HW217163   4.077   5.353   1.874
 5422SOL     OW17164   2.784   5.366   3.508
 5422SOL    HW117165   2.851   5.375   3.582
 5422SOL    HW217166   2.699   5.412   3.535
 5423SOL     OW17167   4.910   6.716   1.279
 5423SOL    HW117168   4.958   6.742   1.195
 5423SOL    HW217169   4.966   6.653   1.332
 5424SOL     OW17170   4.347   3.399   5.342
 5424SOL    HW117171   4.315   3.476   5.287
 5424SOL    HW217172   4.389   3.330   5.283
 5425SOL     OW17173   1.335   5.367   5.901
 5425SOL    HW117174   1.402   5.328   5.837
 5425SOL    HW217175   1.329   5.309   5.982
 5426SOL     OW17176   6.515   4.463   1.073
 5426SOL    HW117177   6.572   4.454   1.155
 5426SOL    HW217178   6.571   4.493   0.996
 5427SOL     OW17179   4.899   2.843   0.525
 5427SOL    HW117180   4.933   2.809   0.613
 5427SOL    HW217181   4.903   2.943   0.524
 5428SOL     OW17182   4.829   5.525   3.092
 5428SOL    HW117183   4.838   5.618   3.128
 5428SOL    HW217184   4.772   5.526   3.010
 5429SOL     OW17185   2.955   6.977   4.128
 5429SOL    HW117186   2.940   6.955   4.032
 5429SOL    HW217187   3.053   6.970   4.148
 5430SOL     OW17188   2.060   3.998   5.639
 5430SOL    HW117189   1.998   3.957   5.706
 5430SOL    HW217190   2.039   4.096   5.630
 5431SOL     OW17191   4.993   4.796   0.499
 5431SOL    HW117192   4.956   4.837   0.582
 5431SOL    HW217193   5.032   4.868   0.442
 5432SOL     OW17194   0.149   5.094   6.639
 5432SOL    HW117195   0.236   5.142   6.634
 5432SOL    HW217196   0.115   5.077   6.547
 5433SOL     OW17197   3.496   6.983   1.247
 5433SOL    HW117198   3.504   0.063   1.256
 5433SOL    HW217199   3.401   6.958   1.227
 5434SOL     OW17200   4.884   6.474   4.226
 5434SOL    HW117201   4.855   6.396   4.171
 5434SOL    HW217202   4.940   6.442   4.302
 5435SOL     OW17203   6.811   4.901   6.648
 5435SOL    HW117204   6.734   4.860   6.697
 5435SOL    HW217205   6.840   4.984   6.695
 5436SOL     OW17206   2.130   4.462   2.171
 5436SOL    HW117207   2.086   4.461   2.261
 5436SOL    HW217208   2.192   4.384   2.163
 5437SOL     OW17209   3.198   6.145   0.811
 5437SOL    HW117210   3.290   6.115   0.786
 5437SOL    HW217211   3.141   6.148   0.729
 5438SOL     OW17212   4.471   6.622   2.070
 5438SOL    HW117213   4.400   6.691   2.081
 5438SOL    HW217214   4.550   6.663   2.025
 5439SOL     OW17215   1.391   3.811   1.339
 5439SOL    HW117216   1.453   3.865   1.396
 5439SOL    HW217217   1.315   3.868   1.308
 5440SOL     OW17218   5.708   6.633   3.867
 5440SOL    HW117219   5.766   6.710   3.839
 5440SOL    HW217220   5.716   6.621   3.966
 5441SOL     OW17221   5.752   2.122   4.674
 5441SOL    HW117222   5.699   2.112   4.590
 5441SOL    HW217223   5.810   2.041   4.687
 5442SOL     OW17224   2.578   0.475   6.970
 5442SOL    HW117225   2.636   0.405   6.929
 5442SOL    HW217226   2.626   0.563   6.968
 5443SOL     OW17227   6.061   0.702   2.887
 5443SOL    HW117228   5.987   0.761   2.854
 5443SOL    HW217229   6.123   0.682   2.812
 5444SOL     OW17230   0.702   1.396   6.348
 5444SOL    HW117231   0.733   1.473   6.403
 5444SOL    HW217232   0.653   1.430   6.267
 5445SOL     OW17233   5.731   6.497   5.391
 5445SOL    HW117234   5.684   6.585   5.390
 5445SOL    HW217235   5.665   6.424   5.408
 5446SOL     OW17236   1.142   4.272   6.447
 5446SOL    HW117237   1.149   4.365   6.482
 5446SOL    HW217238   1.062   4.264   6.388
 5447SOL     OW17239   6.484   2.112   1.808
 5447SOL    HW117240   6.491   2.023   1.852
 5447SOL    HW217241   6.575   2.146   1.785
 5448SOL     OW17242   6.038   5.004   2.031
 5448SOL    HW117243   6.041   5.081   1.968
 5448SOL    HW217244   5.960   5.015   2.093
 5449SOL     OW17245   2.061   0.631   1.437
 5449SOL    HW117246   2.111   0.544   1.435
 5449SOL    HW217247   2.037   0.653   1.531
 5450SOL     OW17248   4.614   5.933   1.221
 5450SOL    HW117249   4.539   5.996   1.200
 5450SOL    HW217250   4.580   5.839   1.216
 5451SOL     OW17251   0.304   6.296   3.995
 5451SOL    HW117252   0.317   6.247   3.909
 5451SOL    HW217253   0.272   6.389   3.977
 5452SOL     OW17254   2.311   4.490   2.498
 5452SOL    HW117255   2.360   4.489   2.411
 5452SOL    HW217256   2.349   4.561   2.557
 5453SOL     OW17257   6.079   4.805   4.198
 5453SOL    HW117258   6.027   4.884   4.165
 5453SOL    HW217259   6.024   4.756   4.266
 5454SOL     OW17260   5.645   4.258   2.699
 5454SOL    HW117261   5.564   4.205   2.674
 5454SOL    HW217262   5.679   4.228   2.788
 5455SOL     OW17263   2.792   1.928   3.462
 5455SOL    HW117264   2.843   1.881   3.390
 5455SOL    HW217265   2.818   1.891   3.551
 5456SOL     OW17266   5.935   2.263   0.290
 5456SOL    HW117267   5.936   2.252   0.190
 5456SOL    HW217268   6.005   2.329   0.317
 5457SOL     OW17269   6.146   1.073   6.844
 5457SOL    HW117270   6.082   1.149   6.830
 5457SOL    HW217271   6.232   1.094   6.798
 5458SOL     OW17272   4.907   4.661   6.584
 5458SOL    HW117273   4.875   4.586   6.642
 5458SOL    HW217274   4.866   4.747   6.615
 5459SOL     OW17275   2.415   2.758   5.227
 5459SOL    HW117276   2.476   2.738   5.304
 5459SOL    HW217277   2.409   2.857   5.215
 5460SOL     OW17278   0.672   0.626   1.135
 5460SOL    HW117279   0.744   0.652   1.071
 5460SOL    HW217280   0.596   0.691   1.126
 5461SOL     OW17281   5.626   1.893   6.403
 5461SOL    HW117282   5.554   1.948   6.445
 5461SOL    HW217283   5.591   1.802   6.383
 5462SOL     OW17284   5.033   5.554   6.102
 5462SOL    HW117285   4.998   5.461   6.117
 5462SOL    HW217286   5.052   5.597   6.190
 5463SOL     OW17287   1.548   4.420   5.715
 5463SOL    HW117288   1.527   4.456   5.624
 5463SOL    HW217289   1.546   4.495   5.782
 5464SOL     OW17290   1.719   5.199   5.063
 5464SOL    HW117291   1.666   5.120   5.092
 5464SOL    HW217292   1.763   5.241   5.142
 5465SOL     OW17293   0.715   0.028   5.264
 5465SOL    HW117294   0.786   6.995   5.312
 5465SOL    HW217295   0.625   7.011   5.286
 5466SOL     OW17296   5.243   1.721   4.925
 5466SOL    HW117297   5.257   1.794   4.859
 5466SOL    HW217298   5.332   1.683   4.952
 5467SOL     OW17299   4.892   3.054   4.330
 5467SOL    HW117300   4.888   3.153   4.329
 5467SOL    HW217301   4.866   3.020   4.421
 5468SOL     OW17302   7.003   2.318   1.308
 5468SOL    HW117303   6.998   2.219   1.297
 5468SOL    HW217304   6.955   2.362   1.233
 5469SOL     OW17305   3.448   1.340   4.369
 5469SOL    HW117306   3.416   1.284   4.292
 5469SOL    HW217307   3.506   1.413   4.334
 5470SOL     OW17308   4.319   5.375   3.708
 5470SOL    HW117309   4.225   5.396   3.733
 5470SOL    HW217310   4.368   5.459   3.684
 5471SOL     OW17311   5.339   0.262   2.362
 5471SOL    HW117312   5.353   0.186   2.427
 5471SOL    HW217313   5.381   0.345   2.398
 5472SOL     OW17314   2.411   3.723   0.623
 5472SOL    HW117315   2.344   3.742   0.695
 5472SOL    HW217316   2.466   3.644   0.649
 5473SOL     OW17317   3.060   4.825   2.096
 5473SOL    HW117318   2.965   4.822   2.128
 5473SOL    HW217319   3.073   4.757   2.024
 5474SOL     OW17320   1.770   4.800   2.121
 5474SOL    HW117321   1.746   4.825   2.215
 5474SOL    HW217322   1.800   4.704   2.119
 5475SOL     OW17323   1.390   1.314   5.218
 5475SOL    HW117324   1.356   1.229   5.179
 5475SOL    HW217325   1.485   1.328   5.192
 5476SOL     OW17326   2.162   0.162   4.686
 5476SOL    HW117327   2.073   0.138   4.647
 5476SOL    HW217328   2.169   0.124   4.778
 5477SOL     OW17329   2.133   3.343   3.742
 5477SOL    HW117330   2.114   3.307   3.833
 5477SOL    HW217331   2.150   3.268   3.679
 5478SOL     OW17332   5.312   4.627   5.475
 5478SOL    HW117333   5.336   4.532   5.494
 5478SOL    HW217334   5.356   4.657   5.391
 5479SOL     OW17335   5.414   2.781   4.320
 5479SOL    HW117336   5.511   2.762   4.329
 5479SOL    HW217337   5.362   2.715   4.374
 5480SOL     OW17338   1.207   3.680   4.217
 5480SOL    HW117339   1.272   3.678   4.293
 5480SOL    HW217340   1.254   3.708   4.133
 5481SOL     OW17341   3.385   1.595   6.588
 5481SOL    HW117342   3.350   1.530   6.655
 5481SOL    HW217343   3.483   1.582   6.577
 5482SOL     OW17344   5.665   3.427   1.802
 5482SOL    HW117345   5.613   3.345   1.782
 5482SOL    HW217346   5.750   3.426   1.749
 5483SOL     OW17347   6.998   3.244   6.985
 5483SOL    HW117348   0.003   3.155   6.946
 5483SOL    HW217349   0.020   3.252   0.057
 5484SOL     OW17350   6.594   0.378   5.292
 5484SOL    HW117351   6.502   0.406   5.266
 5484SOL    HW217352   6.619   0.422   5.378
 5485SOL     OW17353   3.285   0.588   5.179
 5485SOL    HW117354   3.228   0.506   5.189
 5485SOL    HW217355   3.330   0.587   5.090
 5486SOL     OW17356   1.113   0.799   4.228
 5486SOL    HW117357   1.180   0.786   4.301
 5486SOL    HW217358   1.021   0.780   4.263
 5487SOL     OW17359   4.184   5.102   0.954
 5487SOL    HW117360   4.247   5.052   0.895
 5487SOL    HW217361   4.120   5.038   0.996
 5488SOL     OW17362   5.247   1.206   6.050
 5488SOL    HW117363   5.249   1.160   5.962
 5488SOL    HW217364   5.152   1.216   6.081
 5489SOL     OW17365   6.747   3.973   3.437
 5489SOL    HW117366   6.691   3.943   3.360
 5489SOL    HW217367   6.712   3.933   3.521
 5490SOL     OW17368   2.141   2.418   6.131
 5490SOL    HW117369   2.111   2.358   6.057
 5490SOL    HW217370   2.135   2.514   6.101
 5491SOL     OW17371   0.070   6.094   1.997
 5491SOL    HW117372   0.082   6.193   1.993
 5491SOL    HW217373   0.140   6.049   1.942
 5492SOL     OW17374   1.467   1.165   4.895
 5492SOL    HW117375   1.415   1.132   4.974
 5492SOL    HW217376   1.466   1.095   4.824
 5493SOL     OW17377   3.014   2.325   0.343
 5493SOL    HW117378   2.917   2.347   0.352
 5493SOL    HW217379   3.066   2.371   0.415
 5494SOL     OW17380   6.028   3.324   2.520
 5494SOL    HW117381   6.054   3.363   2.432
 5494SOL    HW217382   6.044   3.226   2.520
 5495SOL     OW17383   3.854   3.077   3.322
 5495SOL    HW117384   3.918   3.099   3.248
 5495SOL    HW217385   3.768   3.045   3.283
 5496SOL     OW17386   4.205   5.213   1.954
 5496SOL    HW117387   4.239   5.159   2.031
 5496SOL    HW217388   4.281   5.241   1.896
 5497SOL     OW17389   6.117   0.078   1.367
 5497SOL    HW117390   6.170   0.063   1.450
 5497SOL    HW217391   6.080   0.171   1.367
 5498SOL     OW17392   4.317   0.206   4.964
 5498SOL    HW117393   4.324   0.222   4.866
 5498SOL    HW217394   4.338   0.291   5.013
 5499SOL     OW17395   0.785   1.416   5.446
 5499SOL    HW117396   0.826   1.327   5.426
 5499SOL    HW217397   0.848   1.489   5.420
 5500SOL     OW17398   1.939   5.905   0.938
 5500SOL    HW117399   2.021   5.935   0.986
 5500SOL    HW217400   1.965   5.852   0.857
 5501SOL     OW17401   2.990   0.466   2.609
 5501SOL    HW117402   2.955   0.419   2.528
 5501SOL    HW217403   2.916   0.514   2.655
 5502SOL     OW17404   4.402   3.313   0.746
 5502SOL    HW117405   4.309   3.341   0.773
 5502SOL    HW217406   4.405   3.302   0.647
 5503SOL     OW17407   0.848   6.439   4.459
 5503SOL    HW117408   0.791   6.481   4.530
 5503SOL    HW217409   0.791   6.413   4.381
 5504SOL     OW17410   3.544   2.107   4.500
 5504SOL    HW117411   3.640   2.113   4.470
 5504SOL    HW217412   3.532   2.026   4.556
 5505SOL     OW17413   3.819   4.688   6.779
 5505SOL    HW117414   3.745   4.712   6.841
 5505SOL    HW217415   3.904   4.732   6.809
 5506SOL     OW17416   0.299   6.720   5.542
 5506SOL    HW117417   0.311   6.664   5.460
 5506SOL    HW217418   0.368   6.696   5.609
 5507SOL     OW17419   4.064   6.015   4.590
 5507SOL    HW117420   4.016   5.949   4.533
 5507SOL    HW217421   4.005   6.095   4.605
 5508SOL     OW17422   1.986   0.747   6.130
 5508SOL    HW117423   1.985   0.666   6.072
 5508SOL    HW217424   1.901   0.798   6.117
 5509SOL     OW17425   6.100   6.458   6.970
 5509SOL    HW117426   6.170   6.517   6.929
 5509SOL    HW217427   6.145   6.382   7.018
 5510SOL     OW17428   6.027   0.602   6.126
 5510SOL    HW117429   6.039   0.507   6.099
 5510SOL    HW217430   6.083   0.661   6.068
 5511SOL     OW17431   6.988   2.070   1.205
 5511SOL    HW117432   7.019   2.031   1.119
 5511SOL    HW217433   6.931   2.003   1.253
 5512SOL     OW17434   0.367   0.162   0.966
 5512SOL    HW117435   0.372   0.212   0.880
 5512SOL    HW217436   0.419   0.210   1.037
 5513SOL     OW17437   3.438   5.296   4.844
 5513SOL    HW117438   3.338   5.287   4.849
 5513SOL    HW217439   3.461   5.371   4.782
 5514SOL     OW17440   6.154   5.269   3.911
 5514SOL    HW117441   6.099   5.336   3.961
 5514SOL    HW217442   6.205   5.213   3.976
 5515SOL     OW17443   6.690   3.098   2.645
 5515SOL    HW117444   6.676   3.126   2.740
 5515SOL    HW217445   6.780   3.057   2.636
 5516SOL     OW17446   1.470   3.355   6.691
 5516SOL    HW117447   1.527   3.273   6.684
 5516SOL    HW217448   1.427   3.357   6.781
 5517SOL     OW17449   2.305   1.550   1.729
 5517SOL    HW117450   2.277   1.467   1.679
 5517SOL    HW217451   2.397   1.536   1.767
 5518SOL     OW17452   5.443   5.140   5.121
 5518SOL    HW117453   5.492   5.110   5.203
 5518SOL    HW217454   5.370   5.075   5.100
 5519SOL     OW17455   5.365   3.836   3.453
 5519SOL    HW117456   5.271   3.870   3.459
 5519SOL    HW217457   5.428   3.902   3.494
 5520SOL     OW17458   1.921   3.042   0.686
 5520SOL    HW117459   1.876   3.055   0.598
 5520SOL    HW217460   2.015   3.010   0.671
 5521SOL     OW17461   4.908   5.689   1.217
 5521SOL    HW117462   4.889   5.601   1.261
 5521SOL    HW217463   4.938   5.755   1.286
 5522SOL     OW17464   2.058   3.086   2.335
 5522SOL    HW117465   2.097   3.150   2.270
 5522SOL    HW217466   1.976   3.045   2.296
 5523SOL     OW17467   3.188   0.687   1.745
 5523SOL    HW117468   3.211   0.593   1.771
 5523SOL    HW217469   3.271   0.735   1.715
 5524SOL     OW17470   5.994   5.855   6.368
 5524SOL    HW117471   5.925   5.782   6.367
 5524SOL    HW217472   5.983   5.909   6.451
 5525SOL     OW17473   6.619   6.278   4.470
 5525SOL    HW117474   6.523   6.304   4.461
 5525SOL    HW217475   6.661   6.332   4.543
 5526SOL     OW17476   5.362   3.002   4.713
 5526SOL    HW117477   5.425   2.996   4.635
 5526SOL    HW217478   5.413   2.986   4.798
 5527SOL     OW17479   2.440   3.263   0.848
 5527SOL    HW117480   2.344   3.260   0.818
 5527SOL    HW217481   2.472   3.358   0.847
 5528SOL     OW17482   0.155   3.373   2.900
 5528SOL    HW117483   0.123   3.416   2.985
 5528SOL    HW217484   0.076   3.348   2.844
 5529SOL     OW17485   1.645   1.426   4.807
 5529SOL    HW117486   1.723   1.365   4.798
 5529SOL    HW217487   1.562   1.380   4.774
 5530SOL     OW17488   0.369   3.173   0.384
 5530SOL    HW117489   0.387   3.245   0.450
 5530SOL    HW217490   0.456   3.138   0.347
 5531SOL     OW17491   1.254   2.507   6.371
 5531SOL    HW117492   1.310   2.482   6.291
 5531SOL    HW217493   1.183   2.570   6.342
 5532SOL     OW17494   2.435   2.269   1.063
 5532SOL    HW117495   2.504   2.225   1.005
 5532SOL    HW217496   2.350   2.216   1.058
 5533SOL     OW17497   3.993   0.368   0.715
 5533SOL    HW117498   3.908   0.418   0.698
 5533SOL    HW217499   4.005   0.297   0.646
 5534SOL     OW17500   6.647   4.936   5.223
 5534SOL    HW117501   6.611   4.991   5.298
 5534SOL    HW217502   6.637   4.839   5.245
 5535SOL     OW17503   5.502   3.715   3.234
 5535SOL    HW117504   5.480   3.625   3.272
 5535SOL    HW217505   5.473   3.787   3.297
 5536SOL     OW17506   2.516   0.660   4.372
 5536SOL    HW117507   2.551   0.582   4.423
 5536SOL    HW217508   2.480   0.629   4.284
 5537SOL     OW17509   4.579   1.314   4.809
 5537SOL    HW117510   4.495   1.353   4.846
 5537SOL    HW217511   4.611   1.371   4.733
 5538SOL     OW17512   5.369   2.492   1.233
 5538SOL    HW117513   5.378   2.413   1.294
 5538SOL    HW217514   5.326   2.567   1.283
 5539SOL     OW17515   2.660   6.757   0.634
 5539SOL    HW117516   2.688   6.680   0.692
 5539SOL    HW217517   2.571   6.790   0.663
 5540SOL     OW17518   5.192   0.670   6.898
 5540SOL    HW117519   5.262   0.740   6.890
 5540SOL    HW217520   5.231   0.581   6.875
 5541SOL     OW17521   4.846   3.132   6.651
 5541SOL    HW117522   4.807   3.209   6.701
 5541SOL    HW217523   4.831   3.145   6.553
 5542SOL     OW17524   4.129   4.209   6.989
 5542SOL    HW117525   4.193   4.188   6.915
 5542SOL    HW217526   4.064   4.278   6.959
 5543SOL     OW17527   1.777   0.295   0.196
 5543SOL    HW117528   1.868   0.318   0.231
 5543SOL    HW217529   1.767   0.332   0.104
 5544SOL     OW17530   3.867   5.257   6.548
 5544SOL    HW117531   3.838   5.302   6.632
 5544SOL    HW217532   3.862   5.321   6.471
 5545SOL     OW17533   4.953   0.945   3.203
 5545SOL    HW117534   4.892   0.980   3.133
 5545SOL    HW217535   4.962   0.846   3.193
 5546SOL     OW17536   0.301   5.658   4.511
 5546SOL    HW117537   0.340   5.742   4.474
 5546SOL    HW217538   0.374   5.590   4.524
 5547SOL     OW17539   5.121   1.488   4.895
 5547SOL    HW117540   5.048   1.485   4.964
 5547SOL    HW217541   5.159   1.580   4.891
 5548SOL     OW17542   0.403   4.295   4.247
 5548SOL    HW117543   0.465   4.217   4.250
 5548SOL    HW217544   0.397   4.336   4.338
 5549SOL     OW17545   4.726   2.889   0.259
 5549SOL    HW117546   4.786   2.850   0.189
 5549SOL    HW217547   4.764   2.975   0.291
 5550SOL     OW17548   2.078   3.992   1.561
 5550SOL    HW117549   2.082   3.931   1.482
 5550SOL    HW217550   1.993   3.977   1.611
 5551SOL     OW17551   1.723   5.162   3.306
 5551SOL    HW117552   1.660   5.231   3.269
 5551SOL    HW217553   1.743   5.183   3.401
 5552SOL     OW17554   0.166   6.331   6.719
 5552SOL    HW117555   0.175   6.240   6.760
 5552SOL    HW217556   0.101   6.385   6.773
 5553SOL     OW17557   5.214   0.457   6.678
 5553SOL    HW117558   5.220   0.474   6.579
 5553SOL    HW217559   5.119   0.445   6.705
 5554SOL     OW17560   5.883   1.793   1.415
 5554SOL    HW117561   5.974   1.758   1.393
 5554SOL    HW217562   5.816   1.751   1.355
 5555SOL     OW17563   1.876   4.931   2.842
 5555SOL    HW117564   1.882   4.833   2.863
 5555SOL    HW217565   1.781   4.956   2.825
 5556SOL     OW17566   0.894   0.898   4.435
 5556SOL    HW117567   0.831   0.973   4.449
 5556SOL    HW217568   0.843   0.815   4.413
 5557SOL     OW17569   3.490   5.592   3.381
 5557SOL    HW117570   3.482   5.692   3.375
 5557SOL    HW217571   3.426   5.550   3.316
 5558SOL     OW17572   4.340   4.234   6.824
 5558SOL    HW117573   4.346   4.331   6.846
 5558SOL    HW217574   4.429   4.191   6.840
 5559SOL     OW17575   2.813   0.915   2.627
 5559SOL    HW117576   2.716   0.904   2.649
 5559SOL    HW217577   2.833   0.866   2.542
 5560SOL     OW17578   0.869   5.752   3.363
 5560SOL    HW117579   0.829   5.701   3.288
 5560SOL    HW217580   0.802   5.762   3.436
 5561SOL     OW17581   3.828   6.756   3.248
 5561SOL    HW117582   3.899   6.819   3.281
 5561SOL    HW217583   3.741   6.803   3.242
 5562SOL     OW17584   3.645   3.846   0.998
 5562SOL    HW117585   3.743   3.837   0.979
 5562SOL    HW217586   3.628   3.823   1.094
 5563SOL     OW17587   2.268   4.200   2.528
 5563SOL    HW117588   2.281   4.294   2.497
 5563SOL    HW217589   2.316   4.186   2.614
 5564SOL     OW17590   5.368   0.968   6.183
 5564SOL    HW117591   5.358   0.890   6.121
 5564SOL    HW217592   5.368   1.053   6.130
 5565SOL     OW17593   3.181   2.052   6.174
 5565SOL    HW117594   3.161   2.112   6.252
 5565SOL    HW217595   3.116   2.070   6.100
 5566SOL     OW17596   1.308   3.848   6.805
 5566SOL    HW117597   1.365   3.769   6.828
 5566SOL    HW217598   1.332   3.881   6.714
 5567SOL     OW17599   6.912   4.158   0.962
 5567SOL    HW117600   6.839   4.138   1.028
 5567SOL    HW217601   6.904   4.098   0.883
 5568SOL     OW17602   4.539   5.226   1.842
 5568SOL    HW117603   4.535   5.309   1.785
 5568SOL    HW217604   4.619   5.172   1.816
 5569SOL     OW17605   2.431   2.720   3.504
 5569SOL    HW117606   2.482   2.639   3.535
 5569SOL    HW217607   2.450   2.735   3.407
 5570SOL     OW17608   0.280   3.577   2.761
 5570SOL    HW117609   0.257   3.487   2.796
 5570SOL    HW217610   0.264   3.646   2.832
 5571SOL     OW17611   6.069   4.506   1.752
 5571SOL    HW117612   6.097   4.510   1.656
 5571SOL    HW217613   5.970   4.493   1.758
 5572SOL     OW17614   1.818   4.122   4.582
 5572SOL    HW117615   1.891   4.064   4.619
 5572SOL    HW217616   1.750   4.064   4.537
 5573SOL     OW17617   3.284   5.313   4.035
 5573SOL    HW117618   3.317   5.388   4.093
 5573SOL    HW217619   3.358   5.247   4.021
 5574SOL     OW17620   0.405   2.700   5.974
 5574SOL    HW117621   0.381   2.623   6.033
 5574SOL    HW217622   0.502   2.694   5.950
 5575SOL     OW17623   0.225   6.651   2.084
 5575SOL    HW117624   0.207   6.608   2.172
 5575SOL    HW217625   0.138   6.683   2.045
 5576SOL     OW17626   1.227   4.939   3.593
 5576SOL    HW117627   1.156   5.010   3.595
 5576SOL    HW217628   1.313   4.977   3.627
 5577SOL     OW17629   1.897   2.611   5.634
 5577SOL    HW117630   1.968   2.660   5.584
 5577SOL    HW217631   1.939   2.546   5.696
 5578SOL     OW17632   3.956   3.829   3.669
 5578SOL    HW117633   3.951   3.903   3.737
 5578SOL    HW217634   4.034   3.770   3.692
 5579SOL     OW17635   0.372   3.412   1.805
 5579SOL    HW117636   0.324   3.496   1.780
 5579SOL    HW217637   0.459   3.435   1.849
 5580SOL     OW17638   5.191   1.628   5.294
 5580SOL    HW117639   5.248   1.689   5.349
 5580SOL    HW217640   5.228   1.535   5.299
 5581SOL     OW17641   0.985   2.268   6.766
 5581SOL    HW117642   0.991   2.333   6.690
 5581SOL    HW217643   0.890   2.261   6.796
 5582SOL     OW17644   2.410   2.929   6.498
 5582SOL    HW117645   2.395   2.836   6.534
 5582SOL    HW217646   2.352   2.994   6.547
 5583SOL     OW17647   5.419   0.831   2.158
 5583SOL    HW117648   5.443   0.827   2.061
 5583SOL    HW217649   5.492   0.874   2.210
 5584SOL     OW17650   1.271   3.726   4.589
 5584SOL    HW117651   1.267   3.726   4.689
 5584SOL    HW217652   1.366   3.716   4.559
 5585SOL     OW17653   4.852   4.820   2.299
 5585SOL    HW117654   4.848   4.830   2.399
 5585SOL    HW217655   4.908   4.741   2.276
 5586SOL     OW17656   6.205   3.626   6.865
 5586SOL    HW117657   6.147   3.702   6.837
 5586SOL    HW217658   6.297   3.639   6.828
 5587SOL     OW17659   5.705   0.900   6.159
 5587SOL    HW117660   5.656   0.872   6.076
 5587SOL    HW217661   5.791   0.944   6.134
 5588SOL     OW17662   3.769   6.614   1.043
 5588SOL    HW117663   3.860   6.586   1.014
 5588SOL    HW217664   3.709   6.623   0.963
 5589SOL     OW17665   5.653   4.808   5.647
 5589SOL    HW117666   5.750   4.828   5.657
 5589SOL    HW217667   5.641   4.709   5.635
 5590SOL     OW17668   6.063   6.055   3.920
 5590SOL    HW117669   6.057   6.135   3.979
 5590SOL    HW217670   6.130   5.991   3.957
 5591SOL     OW17671   5.578   1.153   1.649
 5591SOL    HW117672   5.668   1.116   1.627
 5591SOL    HW217673   5.581   1.194   1.740
 5592SOL     OW17674   0.454   3.467   3.149
 5592SOL    HW117675   0.453   3.395   3.079
 5592SOL    HW217676   0.545   3.475   3.188
 5593SOL     OW17677   0.051   3.262   0.223
 5593SOL    HW117678   0.123   3.331   0.237
 5593SOL    HW217679   0.033   3.214   0.309
 5594SOL     OW17680   5.752   2.221   5.621
 5594SOL    HW117681   5.680   2.286   5.601
 5594SOL    HW217682   5.712   2.134   5.650
 5595SOL     OW17683   0.775   2.775   5.504
 5595SOL    HW117684   0.749   2.848   5.566
 5595SOL    HW217685   0.762   2.805   5.409
 5596SOL     OW17686   3.777   6.581   3.004
 5596SOL    HW117687   3.692   6.528   3.007
 5596SOL    HW217688   3.801   6.612   3.096
 5597SOL     OW17689   5.109   3.122   2.813
 5597SOL    HW117690   5.191   3.070   2.834
 5597SOL    HW217691   5.130   3.192   2.744
 5598SOL     OW17692   5.567   1.913   4.874
 5598SOL    HW117693   5.622   1.935   4.793
 5598SOL    HW217694   5.615   1.945   4.956
 5599SOL     OW17695   0.764   1.133   3.923
 5599SOL    HW117696   0.736   1.038   3.906
 5599SOL    HW217697   0.820   1.137   4.005
 5600SOL     OW17698   1.399   2.189   4.408
 5600SOL    HW117699   1.431   2.277   4.373
 5600SOL    HW217700   1.417   2.184   4.506
 5601SOL     OW17701   2.521   0.800   6.004
 5601SOL    HW117702   2.516   0.833   5.910
 5601SOL    HW217703   2.436   0.754   6.028
 5602SOL     OW17704   1.346   1.942   0.149
 5602SOL    HW117705   1.334   1.865   0.087
 5602SOL    HW217706   1.269   1.946   0.213
 5603SOL     OW17707   5.593   3.431   6.382
 5603SOL    HW117708   5.623   3.477   6.466
 5603SOL    HW217709   5.595   3.496   6.306
 5604SOL     OW17710   6.575   1.647   6.172
 5604SOL    HW117711   6.596   1.638   6.074
 5604SOL    HW217712   6.559   1.743   6.193
 5605SOL     OW17713   0.666   2.062   5.152
 5605SOL    HW117714   0.661   2.162   5.143
 5605SOL    HW217715   0.591   2.031   5.210
 5606SOL     OW17716   5.130   0.054   2.079
 5606SOL    HW117717   5.052   0.088   2.130
 5606SOL    HW217718   5.108   6.985   2.039
 5607SOL     OW17719   5.905   0.797   1.765
 5607SOL    HW117720   5.994   0.771   1.727
 5607SOL    HW217721   5.872   0.724   1.824
 5608SOL     OW17722   4.285   6.633   5.050
 5608SOL    HW117723   4.333   6.581   5.121
 5608SOL    HW217724   4.251   6.719   5.089
 5609SOL     OW17725   2.281   5.948   5.612
 5609SOL    HW117726   2.311   6.016   5.680
 5609SOL    HW217727   2.225   5.879   5.658
 5610SOL     OW17728   4.994   0.212   6.645
 5610SOL    HW117729   5.035   0.229   6.556
 5610SOL    HW217730   4.906   0.258   6.651
 5611SOL     OW17731   1.556   4.914   2.899
 5611SOL    HW117732   1.595   4.832   2.940
 5611SOL    HW217733   1.543   4.899   2.800
 5612SOL     OW17734   2.629   0.479   5.728
 5612SOL    HW117735   2.644   0.390   5.772
 5612SOL    HW217736   2.635   0.552   5.796
 5613SOL     OW17737   3.814   4.984   1.609
 5613SOL    HW117738   3.736   5.045   1.619
 5613SOL    HW217739   3.878   4.999   1.685
 5614SOL     OW17740   4.077   2.139   3.456
 5614SOL    HW117741   4.159   2.170   3.408
 5614SOL    HW217742   4.079   2.039   3.464
 5615SOL     OW17743   0.852   1.360   1.029
 5615SOL    HW117744   0.855   1.459   1.041
 5615SOL    HW217745   0.775   1.336   0.970
 5616SOL     OW17746   2.800   0.431   4.604
 5616SOL    HW117747   2.835   0.503   4.543
 5616SOL    HW217748   2.847   0.345   4.584
 5617SOL     OW17749   1.674   0.990   5.147
 5617SOL    HW117750   1.598   0.936   5.182
 5617SOL    HW217751   1.757   0.969   5.200
 5618SOL     OW17752   6.716   4.515   2.966
 5618SOL    HW117753   6.770   4.511   3.050
 5618SOL    HW217754   6.775   4.501   2.887
 5619SOL     OW17755   2.131   3.530   5.095
 5619SOL    HW117756   2.108   3.594   5.021
 5619SOL    HW217757   2.173   3.448   5.057
 5620SOL     OW17758   3.898   2.075   6.433
 5620SOL    HW117759   3.828   2.097   6.365
 5620SOL    HW217760   3.892   1.978   6.457
 5621SOL     OW17761   1.895   2.548   5.962
 5621SOL    HW117762   1.903   2.647   5.976
 5621SOL    HW217763   1.857   2.506   6.045
 5622SOL     OW17764   6.112   0.801   5.923
 5622SOL    HW117765   6.134   0.882   5.869
 5622SOL    HW217766   6.128   0.719   5.868
 5623SOL     OW17767   0.695   6.013   0.233
 5623SOL    HW117768   0.730   5.936   0.179
 5623SOL    HW217769   0.597   6.025   0.213
 5624SOL     OW17770   1.117   3.863   3.207
 5624SOL    HW117771   1.078   3.799   3.141
 5624SOL    HW217772   1.054   3.874   3.284
 5625SOL     OW17773   6.689   2.459   5.708
 5625SOL    HW117774   6.778   2.415   5.701
 5625SOL    HW217775   6.699   2.558   5.697
 5626SOL     OW17776   4.157   0.332   4.283
 5626SOL    HW117777   4.177   0.254   4.224
 5626SOL    HW217778   4.058   0.342   4.294
 5627SOL     OW17779   0.951   6.094   0.252
 5627SOL    HW117780   0.993   6.023   0.195
 5627SOL    HW217781   0.855   6.071   0.267
 5628SOL     OW17782   1.734   0.799   4.406
 5628SOL    HW117783   1.643   0.809   4.367
 5628SOL    HW217784   1.791   0.877   4.381
 5629SOL     OW17785   3.617   3.672   2.915
 5629SOL    HW117786   3.691   3.618   2.955
 5629SOL    HW217787   3.629   3.768   2.939
 5630SOL     OW17788   0.138   4.427   1.820
 5630SOL    HW117789   0.177   4.337   1.800
 5630SOL    HW217790   0.202   4.498   1.792
 5631SOL     OW17791   4.791   0.555   0.368
 5631SOL    HW117792   4.711   0.564   0.309
 5631SOL    HW217793   4.855   0.490   0.327
 5632SOL     OW17794   3.794   3.651   0.167
 5632SOL    HW117795   3.843   3.737   0.185
 5632SOL    HW217796   3.710   3.672   0.118
 5633SOL     OW17797   6.239   2.522   4.666
 5633SOL    HW117798   6.249   2.504   4.568
 5633SOL    HW217799   6.187   2.449   4.709
 5634SOL     OW17800   4.275   6.179   4.443
 5634SOL    HW117801   4.340   6.103   4.431
 5634SOL    HW217802   4.227   6.168   4.530
 5635SOL     OW17803   3.244   2.021   5.071
 5635SOL    HW117804   3.182   2.099   5.071
 5635SOL    HW217805   3.247   1.980   5.162
 5636SOL     OW17806   3.572   5.999   3.816
 5636SOL    HW117807   3.496   6.055   3.847
 5636SOL    HW217808   3.589   6.018   3.719
 5637SOL     OW17809   5.599   0.119   3.512
 5637SOL    HW117810   5.652   0.049   3.559
 5637SOL    HW217811   5.554   0.177   3.579
 5638SOL     OW17812   5.070   3.539   6.075
 5638SOL    HW117813   5.124   3.462   6.109
 5638SOL    HW217814   5.129   3.619   6.063
 5639SOL     OW17815   2.793   0.801   6.161
 5639SOL    HW117816   2.866   0.854   6.118
 5639SOL    HW217817   2.717   0.791   6.098
 5640SOL     OW17818   2.748   0.178   3.669
 5640SOL    HW117819   2.660   0.137   3.694
 5640SOL    HW217820   2.766   0.162   3.572
 5641SOL     OW17821   5.780   5.595   4.756
 5641SOL    HW117822   5.709   5.609   4.824
 5641SOL    HW217823   5.773   5.664   4.684
 5642SOL     OW17824   1.475   1.956   6.620
 5642SOL    HW117825   1.432   1.891   6.683
 5642SOL    HW217826   1.403   2.012   6.577
 5643SOL     OW17827   6.100   2.223   5.094
 5643SOL    HW117828   6.172   2.171   5.048
 5643SOL    HW217829   6.020   2.230   5.034
 5644SOL     OW17830   2.964   0.104   5.960
 5644SOL    HW117831   3.006   0.187   5.998
 5644SOL    HW217832   2.959   0.034   6.031
 5645SOL     OW17833   4.795   3.000   4.593
 5645SOL    HW117834   4.749   3.086   4.613
 5645SOL    HW217835   4.858   2.977   4.668
 5646SOL     OW17836   1.696   4.149   2.540
 5646SOL    HW117837   1.750   4.234   2.539
 5646SOL    HW217838   1.599   4.171   2.548
 5647SOL     OW17839   6.690   6.098   2.789
 5647SOL    HW117840   6.713   6.001   2.797
 5647SOL    HW217841   6.646   6.115   2.701
 5648SOL     OW17842   4.512   6.537   3.409
 5648SOL    HW117843   4.500   6.503   3.316
 5648SOL    HW217844   4.549   6.464   3.467
 5649SOL     OW17845   0.987   6.171   4.159
 5649SOL    HW117846   0.932   6.152   4.078
 5649SOL    HW217847   1.056   6.100   4.169
 5650SOL     OW17848   6.407   4.486   6.852
 5650SOL    HW117849   6.407   4.434   6.937
 5650SOL    HW217850   6.477   4.558   6.857
 5651SOL     OW17851   2.301   1.091   1.610
 5651SOL    HW117852   2.232   1.050   1.551
 5651SOL    HW217853   2.366   1.143   1.555
 5652SOL     OW17854   1.031   5.543   1.423
 5652SOL    HW117855   1.060   5.572   1.332
 5652SOL    HW217856   1.008   5.624   1.478
 5653SOL     OW17857   0.012   0.261   1.794
 5653SOL    HW117858   0.013   0.360   1.800
 5653SOL    HW217859   0.102   0.224   1.816
 5654SOL     OW17860   3.220   5.208   4.324
 5654SOL    HW117861   3.173   5.252   4.248
 5654SOL    HW217862   3.302   5.258   4.348
 5655SOL     OW17863   6.315   2.664   5.249
 5655SOL    HW117864   6.413   2.684   5.247
 5655SOL    HW217865   6.300   2.566   5.247
 5656SOL     OW17866   6.641   3.843   0.089
 5656SOL    HW117867   6.638   3.785   0.008
 5656SOL    HW217868   6.548   3.852   0.127
 5657SOL     OW17869   5.175   5.686   5.278
 5657SOL    HW117870   5.145   5.590   5.278
 5657SOL    HW217871   5.122   5.737   5.346
 5658SOL     OW17872   2.459   2.904   6.174
 5658SOL    HW117873   2.552   2.876   6.195
 5658SOL    HW217874   2.406   2.908   6.259
 5659SOL     OW17875   3.433   3.600   6.701
 5659SOL    HW117876   3.499   3.654   6.650
 5659SOL    HW217877   3.465   3.506   6.708
 5660SOL     OW17878   4.683   0.392   6.356
 5660SOL    HW117879   4.688   0.292   6.357
 5660SOL    HW217880   4.714   0.427   6.445
 5661SOL     OW17881   1.203   5.079   5.541
 5661SOL    HW117882   1.171   5.174   5.538
 5661SOL    HW217883   1.175   5.038   5.628
 5662SOL     OW17884   2.703   6.509   1.430
 5662SOL    HW117885   2.754   6.441   1.377
 5662SOL    HW217886   2.706   6.597   1.383
 5663SOL     OW17887   1.342   3.257   6.485
 5663SOL    HW117888   1.365   3.163   6.459
 5663SOL    HW217889   1.403   3.287   6.558
 5664SOL     OW17890   4.650   4.937   4.492
 5664SOL    HW117891   4.603   5.002   4.432
 5664SOL    HW217892   4.688   4.862   4.438
 5665SOL     OW17893   1.584   1.678   0.934
 5665SOL    HW117894   1.486   1.670   0.918
 5665SOL    HW217895   1.606   1.771   0.962
 5666SOL     OW17896   5.506   1.599   4.865
 5666SOL    HW117897   5.541   1.689   4.840
 5666SOL    HW217898   5.478   1.550   4.783
 5667SOL     OW17899   2.085   4.777   4.560
 5667SOL    HW117900   2.110   4.686   4.594
 5667SOL    HW217901   2.161   4.840   4.576
 5668SOL     OW17902   4.898   4.213   4.018
 5668SOL    HW117903   4.840   4.179   4.093
 5668SOL    HW217904   4.868   4.305   3.992
 5669SOL     OW17905   6.112   4.197   5.483
 5669SOL    HW117906   6.152   4.226   5.397
 5669SOL    HW217907   6.051   4.120   5.467
 5670SOL     OW17908   1.034   2.243   3.280
 5670SOL    HW117909   0.959   2.243   3.346
 5670SOL    HW217910   1.084   2.156   3.286
 5671SOL     OW17911   0.491   6.549   3.444
 5671SOL    HW117912   0.457   6.568   3.352
 5671SOL    HW217913   0.485   6.451   3.462
 5672SOL     OW17914   5.408   2.684   4.705
 5672SOL    HW117915   5.347   2.682   4.626
 5672SOL    HW217916   5.468   2.763   4.700
 5673SOL     OW17917   0.566   1.435   0.547
 5673SOL    HW117918   0.520   1.348   0.565
 5673SOL    HW217919   0.529   1.506   0.607
 5674SOL     OW17920   2.590   4.842   5.016
 5674SOL    HW117921   2.567   4.744   5.021
 5674SOL    HW217922   2.675   4.853   4.965
 5675SOL     OW17923   2.681   1.870   0.764
 5675SOL    HW117924   2.685   1.890   0.666
 5675SOL    HW217925   2.759   1.813   0.789
 5676SOL     OW17926   2.354   1.215   2.191
 5676SOL    HW117927   2.258   1.189   2.202
 5676SOL    HW217928   2.404   1.197   2.276
 5677SOL     OW17929   6.461   1.570   0.450
 5677SOL    HW117930   6.455   1.482   0.403
 5677SOL    HW217931   6.459   1.556   0.549
 5678SOL     OW17932   3.263   1.839   2.162
 5678SOL    HW117933   3.298   1.931   2.178
 5678SOL    HW217934   3.294   1.806   2.073
 5679SOL     OW17935   6.240   3.485   4.934
 5679SOL    HW117936   6.232   3.583   4.956
 5679SOL    HW217937   6.180   3.432   4.993
 5680SOL     OW17938   1.143   5.982   5.218
 5680SOL    HW117939   1.132   6.076   5.248
 5680SOL    HW217940   1.226   5.974   5.162
 5681SOL     OW17941   1.124   3.396   4.082
 5681SOL    HW117942   1.058   3.444   4.024
 5681SOL    HW217943   1.208   3.449   4.088
 5682SOL     OW17944   2.252   4.443   1.738
 5682SOL    HW117945   2.273   4.517   1.802
 5682SOL    HW217946   2.283   4.356   1.776
 5683SOL     OW17947   6.485   1.020   6.039
 5683SOL    HW117948   6.460   0.949   5.974
 5683SOL    HW217949   6.501   1.106   5.989
 5684SOL     OW17950   2.222   2.406   4.902
 5684SOL    HW117951   2.284   2.481   4.883
 5684SOL    HW217952   2.241   2.368   4.993
 5685SOL     OW17953   2.657   2.051   2.541
 5685SOL    HW117954   2.636   2.004   2.455
 5685SOL    HW217955   2.744   2.017   2.577
 5686SOL     OW17956   4.303   5.501   6.029
 5686SOL    HW117957   4.239   5.424   6.017
 5686SOL    HW217958   4.296   5.535   6.122
 5687SOL     OW17959   2.125   6.423   6.476
 5687SOL    HW117960   2.196   6.476   6.431
 5687SOL    HW217961   2.096   6.469   6.560
 5688SOL     OW17962   1.578   1.969   2.917
 5688SOL    HW117963   1.660   1.982   2.862
 5688SOL    HW217964   1.518   1.902   2.873
 5689SOL     OW17965   0.230   2.748   1.884
 5689SOL    HW117966   0.202   2.654   1.865
 5689SOL    HW217967   0.154   2.810   1.866
 5690SOL     OW17968   1.653   5.127   6.815
 5690SOL    HW117969   1.736   5.174   6.788
 5690SOL    HW217970   1.591   5.190   6.861
 5691SOL     OW17971   3.401   1.438   3.110
 5691SOL    HW117972   3.406   1.537   3.117
 5691SOL    HW217973   3.466   1.405   3.043
 5692SOL     OW17974   5.014   5.064   1.900
 5692SOL    HW117975   5.042   5.160   1.894
 5692SOL    HW217976   4.971   5.047   1.988
 5693SOL     OW17977   4.306   0.985   1.176
 5693SOL    HW117978   4.219   1.025   1.149
 5693SOL    HW217979   4.312   0.891   1.142
 5694SOL     OW17980   0.878   6.662   1.903
 5694SOL    HW117981   0.919   6.752   1.919
 5694SOL    HW217982   0.949   6.597   1.875
 5695SOL     OW17983   2.512   0.379   1.292
 5695SOL    HW117984   2.470   0.383   1.383
 5695SOL    HW217985   2.452   0.328   1.230
 5696SOL     OW17986   1.685   0.274   4.159
 5696SOL    HW117987   1.725   0.193   4.202
 5696SOL    HW217988   1.757   0.329   4.118
 5697SOL     OW17989   6.520   3.267   0.763
 5697SOL    HW117990   6.548   3.315   0.847
 5697SOL    HW217991   6.428   3.230   0.775
 5698SOL     OW17992   3.223   2.149   4.191
 5698SOL    HW117993   3.169   2.178   4.112
 5698SOL    HW217994   3.169   2.159   4.274
 5699SOL     OW17995   1.844   2.986   2.617
 5699SOL    HW117996   1.896   2.902   2.630
 5699SOL    HW217997   1.892   3.044   2.551
 5700SOL     OW17998   6.341   0.311   3.405
 5700SOL    HW117999   6.317   0.246   3.332
 5700SOL    HW218000   6.429   0.352   3.384
 5701SOL     OW18001   0.269   0.542   1.137
 5701SOL    HW118002   0.358   0.497   1.130
 5701SOL    HW218003   0.269   0.603   1.217
 5702SOL     OW18004   2.421   6.650   4.753
 5702SOL    HW118005   2.446   6.675   4.847
 5702SOL    HW218006   2.372   6.727   4.711
 5703SOL     OW18007   0.180   3.099   6.372
 5703SOL    HW118008   0.259   3.046   6.340
 5703SOL    HW218009   0.104   3.037   6.389
 5704SOL     OW18010   4.160   5.559   4.258
 5704SOL    HW118011   4.209   5.486   4.211
 5704SOL    HW218012   4.167   5.643   4.205
 5705SOL     OW18013   6.262   0.162   5.674
 5705SOL    HW118014   6.197   0.170   5.749
 5705SOL    HW218015   6.289   0.254   5.643
 5706SOL     OW18016   4.960   2.006   0.036
 5706SOL    HW118017   5.018   1.980   0.113
 5706SOL    HW218018   4.929   1.924   7.008
 5707SOL     OW18019   5.246   5.525   1.772
 5707SOL    HW118020   5.209   5.609   1.812
 5707SOL    HW218021   5.222   5.522   1.675
 5708SOL     OW18022   4.699   6.248   2.403
 5708SOL    HW118023   4.646   6.323   2.364
 5708SOL    HW218024   4.792   6.280   2.423
 5709SOL     OW18025   0.273   2.361   2.566
 5709SOL    HW118026   0.192   2.412   2.597
 5709SOL    HW218027   0.245   2.273   2.528
 5710SOL     OW18028   3.397   2.223   0.895
 5710SOL    HW118029   3.372   2.137   0.940
 5710SOL    HW218030   3.472   2.266   0.946
 5711SOL     OW18031   5.473   1.672   2.827
 5711SOL    HW118032   5.435   1.760   2.796
 5711SOL    HW218033   5.444   1.656   2.921
 5712SOL     OW18034   6.123   0.393   0.991
 5712SOL    HW118035   6.185   0.361   1.062
 5712SOL    HW218036   6.117   0.493   0.993
 5713SOL     OW18037   2.479   1.059   0.583
 5713SOL    HW118038   2.469   1.061   0.682
 5713SOL    HW218039   2.487   1.152   0.548
 5714SOL     OW18040   6.092   0.250   0.728
 5714SOL    HW118041   6.075   0.260   0.630
 5714SOL    HW218042   6.140   0.330   0.762
 5715SOL     OW18043   0.278   0.187   1.887
 5715SOL    HW118044   0.276   0.123   1.964
 5715SOL    HW218045   0.360   0.244   1.894
 5716SOL     OW18046   6.373   4.410   4.793
 5716SOL    HW118047   6.332   4.322   4.818
 5716SOL    HW218048   6.373   4.470   4.873
 5717SOL     OW18049   1.789   4.904   3.214
 5717SOL    HW118050   1.723   4.974   3.241
 5717SOL    HW218051   1.751   4.848   3.140
 5718SOL     OW18052   1.144   3.241   0.082
 5718SOL    HW118053   1.147   3.166   0.149
 5718SOL    HW218054   1.088   3.315   0.118
 5719SOL     OW18055   1.952   3.473   0.810
 5719SOL    HW118056   1.948   3.431   0.901
 5719SOL    HW218057   1.868   3.526   0.794
 5720SOL     OW18058   2.686   5.130   5.790
 5720SOL    HW118059   2.679   5.036   5.822
 5720SOL    HW218060   2.644   5.191   5.858
 5721SOL     OW18061   1.846   3.345   0.071
 5721SOL    HW118062   1.883   3.270   0.125
 5721SOL    HW218063   1.892   3.347   7.001
 5722SOL     OW18064   1.535   0.705   6.749
 5722SOL    HW118065   1.587   0.664   6.674
 5722SOL    HW218066   1.599   0.741   6.817
 5723SOL     OW18067   3.961   2.964   0.852
 5723SOL    HW118068   3.991   3.004   0.939
 5723SOL    HW218069   4.039   2.954   0.791
 5724SOL     OW18070   5.445   1.889   5.335
 5724SOL    HW118071   5.502   1.822   5.286
 5724SOL    HW218072   5.403   1.951   5.269
 5725SOL     OW18073   0.186   4.443   4.528
 5725SOL    HW118074   0.273   4.392   4.531
 5725SOL    HW218075   0.114   4.387   4.567
 5726SOL     OW18076   5.824   4.091   2.540
 5726SOL    HW118077   5.819   4.123   2.445
 5726SOL    HW218078   5.754   4.137   2.594
 5727SOL     OW18079   0.502   2.016   5.384
 5727SOL    HW118080   0.483   2.109   5.416
 5727SOL    HW218081   0.570   1.973   5.443
 5728SOL     OW18082   4.896   6.679   5.055
 5728SOL    HW118083   4.860   6.599   5.103
 5728SOL    HW218084   4.972   6.651   4.997
 5729SOL     OW18085   2.689   2.016   4.583
 5729SOL    HW118086   2.650   2.086   4.524
 5729SOL    HW218087   2.618   1.952   4.612
 5730SOL     OW18088   0.004   4.498   4.739
 5730SOL    HW118089   0.077   4.482   4.805
 5730SOL    HW218090   6.988   4.411   4.706
 5731SOL     OW18091   1.255   0.096   2.625
 5731SOL    HW118092   1.307   0.175   2.657
 5731SOL    HW218093   1.177   0.127   2.571
 5732SOL     OW18094   0.471   6.957   3.274
 5732SOL    HW118095   0.524   6.930   3.354
 5732SOL    HW218096   0.525   0.000   3.218
 5733SOL     OW18097   3.127   6.820   5.688
 5733SOL    HW118098   3.131   6.919   5.695
 5733SOL    HW218099   3.032   6.791   5.674
 5734SOL     OW18100   1.901   6.462   3.652
 5734SOL    HW118101   1.922   6.520   3.730
 5734SOL    HW218102   1.904   6.366   3.680
 5735SOL     OW18103   3.189   1.307   1.830
 5735SOL    HW118104   3.256   1.250   1.783
 5735SOL    HW218105   3.102   1.302   1.782
 5736SOL     OW18106   1.264   5.297   6.788
 5736SOL    HW118107   1.345   5.294   6.847
 5736SOL    HW218108   1.287   5.268   6.696
 5737SOL     OW18109   5.379   4.537   0.970
 5737SOL    HW118110   5.469   4.578   0.964
 5737SOL    HW218111   5.323   4.568   0.893
 5738SOL     OW18112   1.178   4.112   6.080
 5738SOL    HW118113   1.166   4.036   6.016
 5738SOL    HW218114   1.095   4.122   6.136
 5739SOL     OW18115   1.157   1.591   1.500
 5739SOL    HW118116   1.112   1.529   1.436
 5739SOL    HW218117   1.135   1.565   1.593
 5740SOL     OW18118   3.825   5.996   6.502
 5740SOL    HW118119   3.797   6.048   6.583
 5740SOL    HW218120   3.910   5.947   6.522
 5741SOL     OW18121   6.919   4.485   2.758
 5741SOL    HW118122   6.922   4.448   2.665
 5741SOL    HW218123   6.989   4.556   2.768
 5742SOL     OW18124   6.683   6.455   4.659
 5742SOL    HW118125   6.774   6.496   4.662
 5742SOL    HW218126   6.623   6.511   4.602
 5743SOL     OW18127   1.876   6.283   4.057
 5743SOL    HW118128   1.862   6.184   4.061
 5743SOL    HW218129   1.789   6.329   4.040
 5744SOL     OW18130   5.595   6.958   2.003
 5744SOL    HW118131   5.582   6.860   2.018
 5744SOL    HW218132   5.515   6.996   1.956
 5745SOL     OW18133   1.557   2.142   3.562
 5745SOL    HW118134   1.514   2.215   3.615
 5745SOL    HW218135   1.651   2.130   3.593
 5746SOL     OW18136   6.471   4.944   6.786
 5746SOL    HW118137   6.394   4.992   6.827
 5746SOL    HW218138   6.554   4.961   6.840
 5747SOL     OW18139   0.679   6.046   2.351
 5747SOL    HW118140   0.742   6.101   2.406
 5747SOL    HW218141   0.731   5.995   2.282
 5748SOL     OW18142   2.417   6.444   3.338
 5748SOL    HW118143   2.373   6.424   3.426
 5748SOL    HW218144   2.400   6.369   3.274
 5749SOL     OW18145   2.582   1.243   2.829
 5749SOL    HW118146   2.581   1.307   2.752
 5749SOL    HW218147   2.635   1.283   2.904
 5750SOL     OW18148   6.154   5.566   2.437
 5750SOL    HW118149   6.225   5.513   2.482
 5750SOL    HW218150   6.195   5.631   2.373
 5751SOL     OW18151   1.154   2.852   6.196
 5751SOL    HW118152   1.239   2.862   6.144
 5751SOL    HW218153   1.174   2.862   6.294
 5752SOL     OW18154   0.377   1.477   0.160
 5752SOL    HW118155   0.456   1.467   0.099
 5752SOL    HW218156   0.293   1.458   0.110
 5753SOL     OW18157   4.434   2.049   0.695
 5753SOL    HW118158   4.455   1.993   0.775
 5753SOL    HW218159   4.445   1.994   0.612
 5754SOL     OW18160   6.486   5.137   0.928
 5754SOL    HW118161   6.460   5.182   1.014
 5754SOL    HW218162   6.468   5.198   0.852
 5755SOL     OW18163   3.114   3.431   1.401
 5755SOL    HW118164   3.089   3.475   1.314
 5755SOL    HW218165   3.129   3.334   1.385
 5756SOL     OW18166   6.716   6.927   4.472
 5756SOL    HW118167   6.704   6.882   4.560
 5756SOL    HW218168   6.777   7.005   4.482
 5757SOL     OW18169   6.989   6.397   2.160
 5757SOL    HW118170   0.036   6.450   2.212
 5757SOL    HW218171   0.007   6.378   2.069
 5758SOL     OW18172   1.765   1.274   5.843
 5758SOL    HW118173   1.680   1.223   5.832
 5758SOL    HW218174   1.838   1.212   5.872
 5759SOL     OW18175   6.371   1.813   5.579
 5759SOL    HW118176   6.286   1.863   5.561
 5759SOL    HW218177   6.349   1.725   5.620
 5760SOL     OW18178   1.190   5.066   1.689
 5760SOL    HW118179   1.095   5.035   1.688
 5760SOL    HW218180   1.251   4.987   1.700
 5761SOL     OW18181   5.391   0.891   4.914
 5761SOL    HW118182   5.484   0.925   4.903
 5761SOL    HW218183   5.369   0.883   5.011
 5762SOL     OW18184   5.619   6.208   1.685
 5762SOL    HW118185   5.595   6.194   1.781
 5762SOL    HW218186   5.664   6.126   1.650
 5763SOL     OW18187   0.785   1.567   1.361
 5763SOL    HW118188   0.861   1.506   1.339
 5763SOL    HW218189   0.814   1.662   1.347
 5764SOL     OW18190   4.522   3.392   5.680
 5764SOL    HW118191   4.584   3.435   5.746
 5764SOL    HW218192   4.574   3.360   5.601
 5765SOL     OW18193   6.439   5.257   0.440
 5765SOL    HW118194   6.392   5.169   0.435
 5765SOL    HW218195   6.533   5.245   0.408
 5766SOL     OW18196   3.047   0.895   3.682
 5766SOL    HW118197   3.000   0.954   3.747
 5766SOL    HW218198   3.077   0.812   3.728
 5767SOL     OW18199   6.327   0.492   0.800
 5767SOL    HW118200   6.399   0.428   0.774
 5767SOL    HW218201   6.280   0.457   0.882
 5768SOL     OW18202   6.105   0.829   2.091
 5768SOL    HW118203   6.049   0.909   2.111
 5768SOL    HW218204   6.073   0.751   2.143
 5769SOL     OW18205   2.261   5.567   3.309
 5769SOL    HW118206   2.268   5.529   3.401
 5769SOL    HW218207   2.353   5.578   3.271
 5770SOL     OW18208   5.851   1.403   1.618
 5770SOL    HW118209   5.942   1.444   1.605
 5770SOL    HW218210   5.805   1.398   1.529
 5771SOL     OW18211   0.434   1.138   1.753
 5771SOL    HW118212   0.513   1.102   1.802
 5771SOL    HW218213   0.463   1.212   1.692
 5772SOL     OW18214   0.021   4.258   6.371
 5772SOL    HW118215   7.008   4.189   6.435
 5772SOL    HW218216   0.052   4.338   6.422
 5773SOL     OW18217   5.242   6.002   4.660
 5773SOL    HW118218   5.238   6.015   4.759
 5773SOL    HW218219   5.153   5.968   4.627
 5774SOL     OW18220   2.905   4.872   3.054
 5774SOL    HW118221   2.955   4.860   3.140
 5774SOL    HW218222   2.925   4.962   3.016
 5775SOL     OW18223   0.737   0.810   0.408
 5775SOL    HW118224   0.814   0.783   0.349
 5775SOL    HW218225   0.652   0.777   0.368
 5776SOL     OW18226   4.709   1.248   6.215
 5776SOL    HW118227   4.651   1.217   6.139
 5776SOL    HW218228   4.682   1.199   6.298
 5777SOL     OW18229   5.403   0.872   5.706
 5777SOL    HW118230   5.361   0.786   5.735
 5777SOL    HW218231   5.348   0.949   5.739
 5778SOL     OW18232   2.739   6.694   3.818
 5778SOL    HW118233   2.753   6.769   3.884
 5778SOL    HW218234   2.748   6.606   3.865
 5779SOL     OW18235   4.158   0.401   1.414
 5779SOL    HW118236   4.239   0.344   1.401
 5779SOL    HW218237   4.114   0.378   1.501
 5780SOL     OW18238   6.090   3.468   0.996
 5780SOL    HW118239   6.003   3.465   0.946
 5780SOL    HW218240   6.124   3.375   1.010
 5781SOL     OW18241   3.150   4.645   5.248
 5781SOL    HW118242   3.068   4.596   5.219
 5781SOL    HW218243   3.223   4.580   5.270
 5782SOL     OW18244   4.144   1.860   3.037
 5782SOL    HW118245   4.058   1.910   3.040
 5782SOL    HW218246   4.130   1.767   3.071
 5783SOL     OW18247   2.390   6.874   1.630
 5783SOL    HW118248   2.428   6.802   1.689
 5783SOL    HW218249   2.294   6.889   1.652
 5784SOL     OW18250   1.243   5.789   6.996
 5784SOL    HW118251   1.216   5.704   6.952
 5784SOL    HW218252   1.340   5.784   0.002
 5785SOL     OW18253   2.305   1.418   0.137
 5785SOL    HW118254   2.394   1.453   0.166
 5785SOL    HW218255   2.286   1.449   0.044
 5786SOL     OW18256   0.403   2.981   6.260
 5786SOL    HW118257   0.438   2.941   6.176
 5786SOL    HW218258   0.468   2.964   6.334
 5787SOL     OW18259   6.706   3.140   5.627
 5787SOL    HW118260   6.697   3.086   5.544
 5787SOL    HW218261   6.649   3.100   5.699
 5788SOL     OW18262   1.333   2.480   2.003
 5788SOL    HW118263   1.249   2.481   1.948
 5788SOL    HW218264   1.412   2.467   1.943
 5789SOL     OW18265   2.973   5.050   6.566
 5789SOL    HW118266   2.946   4.955   6.582
 5789SOL    HW218267   2.909   5.112   6.611
 5790SOL     OW18268   6.720   6.513   3.039
 5790SOL    HW118269   6.801   6.569   3.024
 5790SOL    HW218270   6.668   6.506   2.954
 5791SOL     OW18271   4.103   1.142   1.025
 5791SOL    HW118272   4.006   1.141   1.046
 5791SOL    HW218273   4.142   1.230   1.050
 5792SOL     OW18274   4.095   2.140   2.893
 5792SOL    HW118275   4.073   2.194   2.812
 5792SOL    HW218276   4.162   2.069   2.869
 5793SOL     OW18277   3.615   2.127   0.206
 5793SOL    HW118278   3.690   2.115   0.272
 5793SOL    HW218279   3.591   2.039   0.166
 5794SOL     OW18280   3.358   6.107   6.844
 5794SOL    HW118281   3.313   6.073   6.761
 5794SOL    HW218282   3.293   6.158   6.899
 5795SOL     OW18283   1.359   6.876   1.615
 5795SOL    HW118284   1.382   6.957   1.561
 5795SOL    HW218285   1.260   6.865   1.618
 5796SOL     OW18286   4.859   0.802   6.743
 5796SOL    HW118287   4.887   0.894   6.771
 5796SOL    HW218288   4.926   0.766   6.677
 5797SOL     OW18289   0.160   2.537   0.005
 5797SOL    HW118290   0.089   2.466   0.007
 5797SOL    HW218291   0.219   2.527   0.086
 5798SOL     OW18292   1.756   2.951   4.212
 5798SOL    HW118293   1.817   2.888   4.165
 5798SOL    HW218294   1.805   2.994   4.288
 5799SOL     OW18295   2.811   0.159   3.395
 5799SOL    HW118296   2.852   0.248   3.374
 5799SOL    HW218297   2.865   0.086   3.350
 5800SOL     OW18298   1.295   6.883   2.173
 5800SOL    HW118299   1.298   6.791   2.212
 5800SOL    HW218300   1.387   6.914   2.150
 5801SOL     OW18301   1.783   1.310   2.896
 5801SOL    HW118302   1.735   1.224   2.913
 5801SOL    HW218303   1.764   1.340   2.802
 5802SOL     OW18304   1.177   6.984   2.886
 5802SOL    HW118305   1.238   6.923   2.936
 5802SOL    HW218306   1.228   0.008   2.810
 5803SOL     OW18307   0.476   6.312   4.767
 5803SOL    HW118308   0.533   6.258   4.828
 5803SOL    HW218309   0.450   6.257   4.688
 5804SOL     OW18310   6.618   2.254   3.261
 5804SOL    HW118311   6.551   2.297   3.202
 5804SOL    HW218312   6.582   2.249   3.354
 5805SOL     OW18313   1.221   2.393   1.484
 5805SOL    HW118314   1.305   2.431   1.522
 5805SOL    HW218315   1.179   2.332   1.550
 5806SOL     OW18316   6.475   3.886   2.498
 5806SOL    HW118317   6.389   3.930   2.523
 5806SOL    HW218318   6.459   3.788   2.481
 5807SOL     OW18319   1.124   1.150   2.554
 5807SOL    HW118320   1.163   1.086   2.620
 5807SOL    HW218321   1.025   1.149   2.559
 5808SOL     OW18322   0.287   0.344   5.385
 5808SOL    HW118323   0.376   0.367   5.425
 5808SOL    HW218324   0.267   0.248   5.402
 5809SOL     OW18325   0.440   3.915   4.490
 5809SOL    HW118326   0.397   3.952   4.407
 5809SOL    HW218327   0.481   3.826   4.469
 5810SOL     OW18328   2.529   6.170   5.260
 5810SOL    HW118329   2.530   6.070   5.259
 5810SOL    HW218330   2.435   6.202   5.258
 5811SOL     OW18331   4.182   4.459   6.686
 5811SOL    HW118332   4.170   4.545   6.636
 5811SOL    HW218333   4.134   4.464   6.773
 5812SOL     OW18334   5.729   3.073   6.625
 5812SOL    HW118335   5.681   2.985   6.624
 5812SOL    HW218336   5.778   3.083   6.712
 5813SOL     OW18337   5.207   4.665   0.810
 5813SOL    HW118338   5.168   4.585   0.766
 5813SOL    HW218339   5.174   4.748   0.765
 5814SOL     OW18340   6.335   1.070   2.276
 5814SOL    HW118341   6.296   1.143   2.332
 5814SOL    HW218342   6.294   1.072   2.185
 5815SOL     OW18343   6.349   3.069   4.788
 5815SOL    HW118344   6.374   3.156   4.830
 5815SOL    HW218345   6.417   3.000   4.811
 5816SOL     OW18346   6.724   3.773   1.566
 5816SOL    HW118347   6.647   3.836   1.563
 5816SOL    HW218348   6.788   3.794   1.491
 5817SOL     OW18349   6.534   2.800   3.715
 5817SOL    HW118350   6.449   2.849   3.698
 5817SOL    HW218351   6.599   2.861   3.760
 5818SOL     OW18352   2.732   0.517   4.887
 5818SOL    HW118353   2.751   0.462   4.806
 5818SOL    HW218354   2.638   0.551   4.883
 5819SOL     OW18355   4.322   4.179   0.665
 5819SOL    HW118356   4.386   4.102   0.661
 5819SOL    HW218357   4.309   4.217   0.574
 5820SOL     OW18358   6.534   0.101   3.186
 5820SOL    HW118359   6.505   0.014   3.225
 5820SOL    HW218360   6.455   0.147   3.146
 5821SOL     OW18361   6.570   6.782   2.054
 5821SOL    HW118362   6.646   6.717   2.060
 5821SOL    HW218363   6.533   6.798   2.145
 5822SOL     OW18364   0.669   3.943   2.367
 5822SOL    HW118365   0.610   3.870   2.400
 5822SOL    HW218366   0.641   3.970   2.275
 5823SOL     OW18367   2.659   6.658   4.581
 5823SOL    HW118368   2.568   6.638   4.619
 5823SOL    HW218369   2.649   6.712   4.498
 5824SOL     OW18370   2.266   6.617   2.405
 5824SOL    HW118371   2.171   6.584   2.409
 5824SOL    HW218372   2.327   6.546   2.440
 5825SOL     OW18373   4.469   1.530   4.619
 5825SOL    HW118374   4.448   1.432   4.614
 5825SOL    HW218375   4.402   1.575   4.679
 5826SOL     OW18376   1.614   6.293   5.010
 5826SOL    HW118377   1.670   6.278   4.929
 5826SOL    HW218378   1.666   6.346   5.077
 5827SOL     OW18379   2.093   3.404   3.050
 5827SOL    HW118380   2.090   3.483   3.111
 5827SOL    HW218381   2.023   3.413   2.980
 5828SOL     OW18382   4.859   0.329   5.653
 5828SOL    HW118383   4.798   0.320   5.732
 5828SOL    HW218384   4.866   0.425   5.627
 5829SOL     OW18385   2.529   0.604   3.151
 5829SOL    HW118386   2.490   0.649   3.231
 5829SOL    HW218387   2.469   0.529   3.122
 5830SOL     OW18388   4.076   5.123   4.305
 5830SOL    HW118389   4.151   5.181   4.337
 5830SOL    HW218390   4.036   5.075   4.383
 5831SOL     OW18391   2.410   2.681   4.623
 5831SOL    HW118392   2.413   2.599   4.679
 5831SOL    HW218393   2.452   2.757   4.672
 5832SOL     OW18394   3.124   5.943   3.201
 5832SOL    HW118395   3.064   5.899   3.268
 5832SOL    HW218396   3.128   6.041   3.219
 5833SOL     OW18397   3.340   5.711   0.484
 5833SOL    HW118398   3.309   5.801   0.515
 5833SOL    HW218399   3.379   5.661   0.560
 5834SOL     OW18400   6.754   3.066   6.300
 5834SOL    HW118401   6.714   3.157   6.311
 5834SOL    HW218402   6.729   3.029   6.211
 5835SOL     OW18403   4.606   1.607   3.258
 5835SOL    HW118404   4.663   1.685   3.230
 5835SOL    HW218405   4.601   1.542   3.183
 5836SOL     OW18406   4.861   6.029   1.173
 5836SOL    HW118407   4.910   5.951   1.134
 5836SOL    HW218408   4.764   6.008   1.180
 5837SOL     OW18409   3.377   4.592   6.679
 5837SOL    HW118410   3.420   4.509   6.714
 5837SOL    HW218411   3.283   4.572   6.649
 5838SOL     OW18412   3.496   3.173   0.011
 5838SOL    HW118413   3.492   3.236   0.088
 5838SOL    HW218414   3.472   3.081   0.042
 5839SOL     OW18415   1.971   1.821   0.499
 5839SOL    HW118416   2.050   1.850   0.553
 5839SOL    HW218417   1.994   1.822   0.402
 5840SOL     OW18418   0.981   3.329   3.112
 5840SOL    HW118419   1.070   3.374   3.110
 5840SOL    HW218420   0.909   3.396   3.095
 5841SOL     OW18421   5.513   1.687   0.231
 5841SOL    HW118422   5.601   1.707   0.187
 5841SOL    HW218423   5.438   1.718   0.173
 5842SOL     OW18424   3.346   1.956   1.833
 5842SOL    HW118425   3.397   2.028   1.786
 5842SOL    HW218426   3.403   1.874   1.840
 5843SOL     OW18427   3.539   3.327   0.253
 5843SOL    HW118428   3.504   3.420   0.262
 5843SOL    HW218429   3.639   3.329   0.244
 5844SOL     OW18430   0.748   5.875   5.224
 5844SOL    HW118431   0.801   5.858   5.141
 5844SOL    HW218432   0.807   5.860   5.304
 5845SOL     OW18433   2.208   0.097   2.892
 5845SOL    HW118434   2.184   0.010   2.847
 5845SOL    HW218435   2.151   0.170   2.855
 5846SOL     OW18436   0.530   4.596   5.363
 5846SOL    HW118437   0.505   4.681   5.318
 5846SOL    HW218438   0.527   4.521   5.297
 5847SOL     OW18439   1.949   4.176   6.695
 5847SOL    HW118440   1.945   4.271   6.726
 5847SOL    HW218441   1.858   4.136   6.696
 5848SOL     OW18442   2.379   6.541   1.507
 5848SOL    HW118443   2.461   6.522   1.454
 5848SOL    HW218444   2.370   6.472   1.579
 5849SOL     OW18445   2.749   5.616   6.772
 5849SOL    HW118446   2.757   5.519   6.750
 5849SOL    HW218447   2.652   5.640   6.781
 5850SOL     OW18448   6.836   1.534   1.657
 5850SOL    HW118449   6.895   1.615   1.658
 5850SOL    HW218450   6.891   1.453   1.639
 5851SOL     OW18451   6.922   3.569   4.820
 5851SOL    HW118452   6.943   3.526   4.908
 5851SOL    HW218453   7.007   3.596   4.775
 5852SOL     OW18454   4.728   4.065   2.640
 5852SOL    HW118455   4.790   4.026   2.707
 5852SOL    HW218456   4.679   4.142   2.681
 5853SOL     OW18457   4.666   4.680   0.015
 5853SOL    HW118458   4.666   4.581   7.019
 5853SOL    HW218459   4.693   4.699   0.110
 5854SOL     OW18460   3.413   4.612   5.564
 5854SOL    HW118461   3.340   4.675   5.538
 5854SOL    HW218462   3.390   4.519   5.533
 5855SOL     OW18463   2.626   2.475   3.915
 5855SOL    HW118464   2.703   2.431   3.868
 5855SOL    HW218465   2.625   2.445   4.011
 5856SOL     OW18466   1.241   0.113   3.193
 5856SOL    HW118467   1.262   0.028   3.145
 5856SOL    HW218468   1.323   0.149   3.237
 5857SOL     OW18469   5.484   4.839   6.773
 5857SOL    HW118470   5.535   4.899   6.834
 5857SOL    HW218471   5.519   4.745   6.782
 5858SOL     OW18472   2.192   1.440   2.628
 5858SOL    HW118473   2.170   1.346   2.654
 5858SOL    HW218474   2.204   1.495   2.711
 5859SOL     OW18475   5.049   5.357   1.898
 5859SOL    HW118476   5.123   5.423   1.883
 5859SOL    HW218477   4.965   5.405   1.921
 5860SOL     OW18478   1.024   3.849   2.576
 5860SOL    HW118479   1.090   3.883   2.644
 5860SOL    HW218480   1.052   3.880   2.485
 5861SOL     OW18481   5.261   0.635   5.783
 5861SOL    HW118482   5.200   0.622   5.704
 5861SOL    HW218483   5.343   0.579   5.771
 5862SOL     OW18484   6.762   4.968   3.559
 5862SOL    HW118485   6.783   4.940   3.652
 5862SOL    HW218486   6.832   5.033   3.527
 5863SOL     OW18487   3.960   6.680   6.100
 5863SOL    HW118488   3.883   6.675   6.036
 5863SOL    HW218489   4.029   6.613   6.074
 5864SOL     OW18490   4.145   3.513   2.186
 5864SOL    HW118491   4.234   3.505   2.142
 5864SOL    HW218492   4.149   3.475   2.278
 5865SOL     OW18493   6.631   0.003   0.330
 5865SOL    HW118494   6.718   0.052   0.322
 5865SOL    HW218495   6.558   0.057   0.288
 5866SOL     OW18496   3.695   3.315   2.705
 5866SOL    HW118497   3.757   3.245   2.739
 5866SOL    HW218498   3.746   3.399   2.688
 5867SOL     OW18499   3.460   1.554   1.560
 5867SOL    HW118500   3.399   1.608   1.618
 5867SOL    HW218501   3.547   1.602   1.548
 5868SOL     OW18502   1.062   0.677   0.745
 5868SOL    HW118503   1.132   0.703   0.678
 5868SOL    HW218504   1.087   0.590   0.788
 5869SOL     OW18505   1.341   5.678   2.897
 5869SOL    HW118506   1.248   5.709   2.881
 5869SOL    HW218507   1.405   5.740   2.852
 5870SOL     OW18508   4.518   0.821   3.877
 5870SOL    HW118509   4.476   0.831   3.787
 5870SOL    HW218510   4.485   0.737   3.920
 5871SOL     OW18511   3.881   3.327   4.438
 5871SOL    HW118512   3.865   3.243   4.490
 5871SOL    HW218513   3.969   3.321   4.391
 5872SOL     OW18514   4.292   6.020   0.862
 5872SOL    HW118515   4.320   6.041   0.768
 5872SOL    HW218516   4.281   5.921   0.872
 5873SOL     OW18517   3.672   6.046   2.180
 5873SOL    HW118518   3.636   6.030   2.272
 5873SOL    HW218519   3.769   6.069   2.186
 5874SOL     OW18520   0.777   4.440   5.124
 5874SOL    HW118521   0.859   4.493   5.145
 5874SOL    HW218522   0.776   4.356   5.180
 5875SOL     OW18523   3.788   1.716   0.934
 5875SOL    HW118524   3.760   1.716   0.838
 5875SOL    HW218525   3.849   1.639   0.951
 5876SOL     OW18526   3.183   3.570   2.004
 5876SOL    HW118527   3.259   3.521   1.960
 5876SOL    HW218528   3.171   3.536   2.097
 5877SOL     OW18529   5.383   4.475   1.473
 5877SOL    HW118530   5.350   4.407   1.539
 5877SOL    HW218531   5.324   4.475   1.393
 5878SOL     OW18532   1.772   3.701   2.465
 5878SOL    HW118533   1.743   3.712   2.561
 5878SOL    HW218534   1.853   3.643   2.462
 5879SOL     OW18535   1.463   3.527   3.843
 5879SOL    HW118536   1.426   3.503   3.753
 5879SOL    HW218537   1.561   3.544   3.835
 5880SOL     OW18538   3.704   6.218   0.345
 5880SOL    HW118539   3.733   6.207   0.251
 5880SOL    HW218540   3.604   6.215   0.350
 5881SOL     OW18541   1.140   5.955   4.150
 5881SOL    HW118542   1.102   5.910   4.069
 5881SOL    HW218543   1.108   5.908   4.233
 5882SOL     OW18544   5.197   0.636   2.607
 5882SOL    HW118545   5.243   0.719   2.640
 5882SOL    HW218546   5.209   0.563   2.674
 5883SOL     OW18547   0.810   3.633   5.340
 5883SOL    HW118548   0.784   3.550   5.390
 5883SOL    HW218549   0.909   3.646   5.346
 5884SOL     OW18550   1.019   0.441   3.498
 5884SOL    HW118551   1.077   0.521   3.514
 5884SOL    HW218552   0.952   0.434   3.572
 5885SOL     OW18553   6.056   5.974   1.171
 5885SOL    HW118554   6.085   6.000   1.263
 5885SOL    HW218555   5.967   5.928   1.175
 5886SOL     OW18556   6.933   1.474   6.234
 5886SOL    HW118557   6.919   1.411   6.310
 5886SOL    HW218558   6.865   1.547   6.238
 5887SOL     OW18559   3.834   5.860   3.002
 5887SOL    HW118560   3.744   5.873   3.043
 5887SOL    HW218561   3.860   5.942   2.951
 5888SOL     OW18562   0.471   0.640   3.037
 5888SOL    HW118563   0.538   0.619   3.109
 5888SOL    HW218564   0.507   0.712   2.978
 5889SOL     OW18565   2.275   7.016   6.645
 5889SOL    HW118566   2.344   6.992   6.576
 5889SOL    HW218567   2.208   0.058   6.604
 5890SOL     OW18568   3.811   4.553   5.973
 5890SOL    HW118569   3.800   4.634   6.030
 5890SOL    HW218570   3.742   4.552   5.901
 5891SOL     OW18571   2.149   3.393   6.461
 5891SOL    HW118572   2.104   3.482   6.471
 5891SOL    HW218573   2.230   3.389   6.519
 5892SOL     OW18574   2.431   6.159   2.335
 5892SOL    HW118575   2.439   6.210   2.249
 5892SOL    HW218576   2.412   6.223   2.410
 5893SOL     OW18577   1.852   1.599   3.367
 5893SOL    HW118578   1.923   1.551   3.419
 5893SOL    HW218579   1.837   1.690   3.407
 5894SOL     OW18580   0.685   3.250   3.334
 5894SOL    HW118581   0.700   3.168   3.390
 5894SOL    HW218582   0.771   3.299   3.323
 5895SOL     OW18583   5.759   4.018   3.354
 5895SOL    HW118584   5.823   4.075   3.304
 5895SOL    HW218585   5.776   3.921   3.333
 5896SOL     OW18586   5.415   2.874   5.192
 5896SOL    HW118587   5.460   2.922   5.266
 5896SOL    HW218588   5.473   2.875   5.111
 5897SOL     OW18589   4.623   5.640   1.172
 5897SOL    HW118590   4.612   5.580   1.092
 5897SOL    HW218591   4.711   5.687   1.166
 5898SOL     OW18592   2.860   6.224   3.104
 5898SOL    HW118593   2.910   6.227   3.018
 5898SOL    HW218594   2.773   6.178   3.090
 5899SOL     OW18595   5.440   0.539   3.730
 5899SOL    HW118596   5.459   0.562   3.825
 5899SOL    HW218597   5.524   0.547   3.676
 5900SOL     OW18598   3.658   5.158   2.631
 5900SOL    HW118599   3.673   5.071   2.677
 5900SOL    HW218600   3.566   5.159   2.590
 5901SOL     OW18601   2.956   6.307   4.799
 5901SOL    HW118602   2.941   6.290   4.701
 5901SOL    HW218603   2.901   6.386   4.827
 5902SOL     OW18604   5.692   2.408   6.850
 5902SOL    HW118605   5.679   2.475   6.923
 5902SOL    HW218606   5.675   2.451   6.761
 5903SOL     OW18607   0.005   3.563   6.484
 5903SOL    HW118608   0.048   3.474   6.499
 5903SOL    HW218609   6.931   3.550   6.450
 5904SOL     OW18610   0.793   3.626   2.134
 5904SOL    HW118611   0.855   3.621   2.212
 5904SOL    HW218612   0.754   3.536   2.117
 5905SOL     OW18613   6.758   4.795   2.654
 5905SOL    HW118614   6.753   4.786   2.554
 5905SOL    HW218615   6.666   4.794   2.692
 5906SOL     OW18616   1.117   1.018   3.234
 5906SOL    HW118617   1.113   0.923   3.262
 5906SOL    HW218618   1.144   1.024   3.138
 5907SOL     OW18619   2.214   0.215   2.188
 5907SOL    HW118620   2.196   0.157   2.109
 5907SOL    HW218621   2.311   0.239   2.191
 5908SOL     OW18622   0.027   3.317   5.934
 5908SOL    HW118623   0.034   3.411   5.969
 5908SOL    HW218624   0.053   3.253   6.007
 5909SOL     OW18625   6.176   4.418   0.484
 5909SOL    HW118626   6.258   4.474   0.489
 5909SOL    HW218627   6.103   4.469   0.440
 5910SOL     OW18628   1.549   1.592   3.387
 5910SOL    HW118629   1.633   1.558   3.345
 5910SOL    HW218630   1.487   1.625   3.316
 5911SOL     OW18631   6.390   5.686   6.858
 5911SOL    HW118632   6.417   5.628   6.935
 5911SOL    HW218633   6.465   5.691   6.792
 5912SOL     OW18634   0.699   0.231   3.878
 5912SOL    HW118635   0.756   0.150   3.893
 5912SOL    HW218636   0.603   0.205   3.880
 5913SOL     OW18637   6.116   1.943   0.372
 5913SOL    HW118638   6.181   1.867   0.368
 5913SOL    HW218639   6.032   1.918   0.325
 5914SOL     OW18640   1.137   6.313   0.574
 5914SOL    HW118641   1.230   6.330   0.540
 5914SOL    HW218642   1.071   6.347   0.508
 5915SOL     OW18643   3.625   1.613   5.963
 5915SOL    HW118644   3.528   1.596   5.947
 5915SOL    HW218645   3.649   1.704   5.929
 5916SOL     OW18646   0.904   7.007   2.224
 5916SOL    HW118647   0.883   6.973   2.132
 5916SOL    HW218648   0.823   6.998   2.282
 5917SOL     OW18649   3.476   3.630   0.178
 5917SOL    HW118650   3.403   3.609   0.113
 5917SOL    HW218651   3.535   3.701   0.140
 5918SOL     OW18652   3.167   0.159   4.963
 5918SOL    HW118653   3.103   0.136   4.890
 5918SOL    HW218654   3.222   0.079   4.986
 5919SOL     OW18655   3.481   3.408   4.593
 5919SOL    HW118656   3.443   3.499   4.574
 5919SOL    HW218657   3.406   3.344   4.607
 5920SOL     OW18658   6.935   0.126   5.627
 5920SOL    HW118659   6.897   0.106   5.537
 5920SOL    HW218660   6.963   0.041   5.671
 5921SOL     OW18661   2.871   4.116   6.720
 5921SOL    HW118662   2.897   4.099   6.625
 5921SOL    HW218663   2.852   4.028   6.765
 5922SOL     OW18664   5.327   3.121   2.261
 5922SOL    HW118665   5.410   3.109   2.208
 5922SOL    HW218666   5.298   3.033   2.298
 5923SOL     OW18667   6.093   1.134   3.818
 5923SOL    HW118668   6.155   1.174   3.750
 5923SOL    HW218669   6.007   1.185   3.818
 5924SOL     OW18670   5.158   6.514   3.759
 5924SOL    HW118671   5.073   6.489   3.805
 5924SOL    HW218672   5.143   6.515   3.660
 5925SOL     OW18673   4.515   1.008   0.983
 5925SOL    HW118674   4.574   1.050   0.915
 5925SOL    HW218675   4.491   1.075   1.053
 5926SOL     OW18676   5.500   4.165   3.342
 5926SOL    HW118677   5.539   4.217   3.417
 5926SOL    HW218678   5.566   4.161   3.266
 5927SOL     OW18679   0.390   5.379   2.367
 5927SOL    HW118680   0.447   5.335   2.297
 5927SOL    HW218681   0.445   5.445   2.418
 5928SOL     OW18682   2.572   6.574   6.884
 5928SOL    HW118683   2.664   6.536   6.896
 5928SOL    HW218684   2.517   6.556   6.966
 5929SOL     OW18685   0.995   0.691   0.286
 5929SOL    HW118686   1.020   0.602   0.326
 5929SOL    HW218687   1.078   0.743   0.267
 5930SOL     OW18688   1.855   3.978   2.097
 5930SOL    HW118689   1.884   4.073   2.089
 5930SOL    HW218690   1.819   3.962   2.189
 5931SOL     OW18691   5.356   6.872   2.676
 5931SOL    HW118692   5.324   6.924   2.597
 5931SOL    HW218693   5.301   6.896   2.756
 5932SOL     OW18694   2.937   0.226   0.035
 5932SOL    HW118695   2.999   0.181   6.991
 5932SOL    HW218696   2.968   0.320   0.050
 5933SOL     OW18697   5.822   6.294   4.227
 5933SOL    HW118698   5.764   6.213   4.225
 5933SOL    HW218699   5.893   6.283   4.296
 5934SOL     OW18700   2.376   3.440   0.102
 5934SOL    HW118701   2.472   3.457   0.121
 5934SOL    HW218702   2.321   3.467   0.181
 5935SOL     OW18703   1.430   6.952   5.708
 5935SOL    HW118704   1.339   6.985   5.733
 5935SOL    HW218705   1.490   0.011   5.688
 5936SOL     OW18706   3.748   2.971   2.372
 5936SOL    HW118707   3.837   2.941   2.405
 5936SOL    HW218708   3.758   3.059   2.325
 5937SOL     OW18709   0.137   2.735   1.408
 5937SOL    HW118710   0.096   2.646   1.426
 5937SOL    HW218711   0.210   2.752   1.474
 5938SOL     OW18712   0.183   4.146   4.360
 5938SOL    HW118713   0.248   4.208   4.317
 5938SOL    HW218714   0.205   4.137   4.457
 5939SOL     OW18715   3.704   1.486   5.599
 5939SOL    HW118716   3.624   1.427   5.606
 5939SOL    HW218717   3.678   1.581   5.619
 5940SOL     OW18718   4.719   5.847   1.530
 5940SOL    HW118719   4.779   5.773   1.562
 5940SOL    HW218720   4.773   5.920   1.490
 5941SOL     OW18721   0.159   2.216   3.024
 5941SOL    HW118722   0.177   2.295   2.965
 5941SOL    HW218723   0.070   2.178   3.001
 5942SOL     OW18724   5.069   2.825   6.143
 5942SOL    HW118725   5.069   2.910   6.091
 5942SOL    HW218726   4.981   2.814   6.190
 5943SOL     OW18727   2.538   4.577   1.588
 5943SOL    HW118728   2.457   4.547   1.637
 5943SOL    HW218729   2.590   4.640   1.645
 5944SOL     OW18730   6.329   3.111   5.436
 5944SOL    HW118731   6.239   3.072   5.418
 5944SOL    HW218732   6.332   3.145   5.530
 5945SOL     OW18733   6.538   6.965   4.751
 5945SOL    HW118734   6.615   6.904   4.773
 5945SOL    HW218735   6.456   6.910   4.736
 5946SOL     OW18736   2.199   3.825   6.461
 5946SOL    HW118737   2.220   3.800   6.367
 5946SOL    HW218738   2.108   3.790   6.485
 5947SOL     OW18739   3.728   3.375   4.746
 5947SOL    HW118740   3.650   3.388   4.685
 5947SOL    HW218741   3.708   3.303   4.812
 5948SOL     OW18742   5.032   3.417   1.439
 5948SOL    HW118743   5.125   3.385   1.423
 5948SOL    HW218744   4.997   3.377   1.524
 5949SOL     OW18745   0.522   4.494   3.232
 5949SOL    HW118746   0.508   4.471   3.328
 5949SOL    HW218747   0.550   4.412   3.182
 5950SOL     OW18748   4.012   0.335   4.741
 5950SOL    HW118749   4.033   0.382   4.826
 5950SOL    HW218750   3.948   0.390   4.687
 5951SOL     OW18751   6.733   4.209   6.659
 5951SOL    HW118752   6.639   4.227   6.689
 5951SOL    HW218753   6.797   4.233   6.732
 5952SOL     OW18754   4.222   4.657   1.471
 5952SOL    HW118755   4.242   4.755   1.471
 5952SOL    HW218756   4.183   4.631   1.559
 5953SOL     OW18757   6.929   3.198   5.215
 5953SOL    HW118758   0.001   3.183   5.178
 5953SOL    HW218759   6.934   3.203   5.315
 5954SOL     OW18760   1.818   5.550   4.036
 5954SOL    HW118761   1.785   5.471   4.089
 5954SOL    HW218762   1.740   5.608   4.011
 5955SOL     OW18763   5.293   3.372   0.464
 5955SOL    HW118764   5.393   3.377   0.473
 5955SOL    HW218765   5.269   3.364   0.368
 5956SOL     OW18766   5.538   2.884   4.920
 5956SOL    HW118767   5.596   2.803   4.914
 5956SOL    HW218768   5.594   2.966   4.907
 5957SOL     OW18769   6.933   1.334   3.516
 5957SOL    HW118770   6.988   1.414   3.539
 5957SOL    HW218771   6.865   1.318   3.588
 5958SOL     OW18772   3.168   6.396   3.287
 5958SOL    HW118773   3.146   6.308   3.330
 5958SOL    HW218774   3.139   6.471   3.346
 5959SOL     OW18775   5.328   2.331   3.161
 5959SOL    HW118776   5.288   2.356   3.249
 5959SOL    HW218777   5.390   2.253   3.173
 5960SOL     OW18778   4.082   0.828   6.030
 5960SOL    HW118779   4.053   0.822   6.125
 5960SOL    HW218780   4.126   0.742   6.003
 5961SOL     OW18781   2.991   2.254   3.558
 5961SOL    HW118782   2.949   2.168   3.532
 5961SOL    HW218783   2.977   2.322   3.486
 5962SOL     OW18784   4.773   5.508   0.184
 5962SOL    HW118785   4.674   5.505   0.197
 5962SOL    HW218786   4.816   5.434   0.237
 5963SOL     OW18787   2.469   4.259   0.571
 5963SOL    HW118788   2.528   4.279   0.492
 5963SOL    HW218789   2.388   4.318   0.569
 5964SOL     OW18790   2.564   6.418   2.720
 5964SOL    HW118791   2.642   6.423   2.658
 5964SOL    HW218792   2.562   6.500   2.778
 5965SOL     OW18793   2.482   0.411   0.498
 5965SOL    HW118794   2.525   0.326   0.466
 5965SOL    HW218795   2.385   0.411   0.472
 5966SOL     OW18796   2.962   1.838   5.257
 5966SOL    HW118797   2.875   1.883   5.277
 5966SOL    HW218798   3.007   1.813   5.342
 5967SOL     OW18799   4.523   2.260   4.825
 5967SOL    HW118800   4.518   2.229   4.731
 5967SOL    HW218801   4.614   2.243   4.862
 5968SOL     OW18802   5.953   2.846   1.722
 5968SOL    HW118803   5.860   2.882   1.712
 5968SOL    HW218804   5.965   2.770   1.659
 5969SOL     OW18805   5.251   0.495   0.437
 5969SOL    HW118806   5.215   0.524   0.525
 5969SOL    HW218807   5.293   0.404   0.447
 5970SOL     OW18808   0.129   3.307   0.709
 5970SOL    HW118809   0.181   3.390   0.729
 5970SOL    HW218810   0.068   3.287   0.786
 5971SOL     OW18811   6.753   6.382   4.149
 5971SOL    HW118812   6.757   6.287   4.177
 5971SOL    HW218813   6.789   6.441   4.221
 5972SOL     OW18814   5.961   5.026   0.479
 5972SOL    HW118815   6.051   5.049   0.441
 5972SOL    HW218816   5.971   5.002   0.576
 5973SOL     OW18817   2.675   1.331   2.376
 5973SOL    HW118818   2.717   1.372   2.456
 5973SOL    HW218819   2.619   1.253   2.404
 5974SOL     OW18820   5.469   1.457   5.098
 5974SOL    HW118821   5.414   1.374   5.097
 5974SOL    HW218822   5.479   1.493   5.005
 5975SOL     OW18823   4.040   5.182   1.511
 5975SOL    HW118824   3.982   5.108   1.546
 5975SOL    HW218825   4.066   5.242   1.587
 5976SOL     OW18826   1.706   3.686   5.414
 5976SOL    HW118827   1.624   3.631   5.398
 5976SOL    HW218828   1.787   3.631   5.396
 5977SOL     OW18829   6.851   4.530   0.538
 5977SOL    HW118830   6.818   4.567   0.625
 5977SOL    HW218831   6.924   4.587   0.502
 5978SOL     OW18832   2.926   3.589   6.297
 5978SOL    HW118833   2.966   3.667   6.248
 5978SOL    HW218834   2.826   3.593   6.290
 5979SOL     OW18835   6.364   0.335   1.531
 5979SOL    HW118836   6.359   0.396   1.609
 5979SOL    HW218837   6.276   0.337   1.482
 5980SOL     OW18838   2.807   2.968   1.173
 5980SOL    HW118839   2.795   2.939   1.078
 5980SOL    HW218840   2.790   2.890   1.233
 5981SOL     OW18841   2.769   1.512   0.852
 5981SOL    HW118842   2.834   1.485   0.923
 5981SOL    HW218843   2.680   1.470   0.871
 5982SOL     OW18844   5.103   2.970   1.086
 5982SOL    HW118845   5.068   3.024   1.162
 5982SOL    HW218846   5.199   2.995   1.068
 5983SOL     OW18847   0.339   0.674   3.648
 5983SOL    HW118848   0.424   0.679   3.596
 5983SOL    HW218849   0.290   0.761   3.640
 5984SOL     OW18850   6.329   6.317   4.429
 5984SOL    HW118851   6.328   6.335   4.331
 5984SOL    HW218852   6.240   6.342   4.468
 5985SOL     OW18853   6.404   3.264   2.262
 5985SOL    HW118854   6.500   3.269   2.291
 5985SOL    HW218855   6.357   3.348   2.288
 5986SOL     OW18856   4.051   3.342   3.990
 5986SOL    HW118857   3.951   3.350   3.995
 5986SOL    HW218858   4.078   3.334   3.894
 5987SOL     OW18859   0.280   5.998   5.685
 5987SOL    HW118860   0.367   5.950   5.676
 5987SOL    HW218861   0.279   6.050   5.771
 5988SOL     OW18862   0.779   2.833   6.877
 5988SOL    HW118863   0.787   2.733   6.875
 5988SOL    HW218864   0.811   2.870   6.789
 5989SOL     OW18865   0.647   6.307   6.174
 5989SOL    HW118866   0.729   6.254   6.193
 5989SOL    HW218867   0.622   6.297   6.078
 5990SOL     OW18868   2.630   4.699   1.859
 5990SOL    HW118869   2.719   4.678   1.900
 5990SOL    HW218870   2.559   4.696   1.930
 5991SOL     OW18871   4.997   0.355   0.294
 5991SOL    HW118872   5.068   0.380   0.229
 5991SOL    HW218873   5.039   0.325   0.379
 5992SOL     OW18874   3.677   6.022   2.477
 5992SOL    HW118875   3.725   5.935   2.487
 5992SOL    HW218876   3.594   6.021   2.533
 5993SOL     OW18877   5.787   1.655   0.108
 5993SOL    HW118878   5.777   1.679   0.012
 5993SOL    HW218879   5.837   1.568   0.116
 5994SOL     OW18880   6.784   3.382   0.050
 5994SOL    HW118881   6.713   3.412   7.006
 5994SOL    HW218882   6.861   3.343   7.018
 5995SOL     OW18883   4.978   3.708   1.406
 5995SOL    HW118884   4.899   3.748   1.452
 5995SOL    HW218885   4.988   3.613   1.434
 5996SOL     OW18886   2.617   6.224   1.567
 5996SOL    HW118887   2.691   6.283   1.601
 5996SOL    HW218888   2.638   6.129   1.587
 5997SOL     OW18889   6.581   0.424   3.963
 5997SOL    HW118890   6.581   0.505   3.904
 5997SOL    HW218891   6.669   0.378   3.958
 5998SOL     OW18892   6.400   5.986   0.014
 5998SOL    HW118893   6.492   5.979   6.995
 5998SOL    HW218894   6.387   5.914   0.082
 5999SOL     OW18895   5.287   3.269   1.287
 5999SOL    HW118896   5.335   3.353   1.262
 5999SOL    HW218897   5.342   3.190   1.260
 6000SOL     OW18898   0.581   3.786   1.217
 6000SOL    HW118899   0.592   3.872   1.168
 6000SOL    HW218900   0.647   3.719   1.183
 6001SOL     OW18901   5.740   5.409   5.860
 6001SOL    HW118902   5.812   5.471   5.830
 6001SOL    HW218903   5.650   5.449   5.841
 6002SOL     OW18904   5.583   4.988   5.315
 6002SOL    HW118905   5.672   5.028   5.341
 6002SOL    HW218906   5.598   4.914   5.250
 6003SOL     OW18907   2.463   2.433   4.735
 6003SOL    HW118908   2.537   2.421   4.802
 6003SOL    HW218909   2.400   2.356   4.741
 6004SOL     OW18910   5.691   2.640   4.412
 6004SOL    HW118911   5.729   2.688   4.491
 6004SOL    HW218912   5.646   2.556   4.442
 6005SOL     OW18913   4.259   4.198   6.563
 6005SOL    HW118914   4.282   4.264   6.491
 6005SOL    HW218915   4.256   4.245   6.651
 6006SOL     OW18916   3.298   5.934   0.079
 6006SOL    HW118917   3.239   5.989   0.138
 6006SOL    HW218918   3.324   5.987   7.018
 6007SOL     OW18919   2.231   6.058   4.916
 6007SOL    HW118920   2.154   6.091   4.970
 6007SOL    HW218921   2.230   6.100   4.826
 6008SOL     OW18922   2.750   3.790   6.436
 6008SOL    HW118923   2.705   3.788   6.525
 6008SOL    HW218924   2.848   3.774   6.448
 6009SOL     OW18925   4.128   5.363   2.750
 6009SOL    HW118926   4.136   5.441   2.688
 6009SOL    HW218927   4.103   5.395   2.842
 6010SOL     OW18928   0.419   4.666   4.228
 6010SOL    HW118929   0.321   4.656   4.246
 6010SOL    HW218930   0.469   4.664   4.314
 6011SOL     OW18931   6.061   1.689   2.464
 6011SOL    HW118932   6.079   1.591   2.455
 6011SOL    HW218933   6.017   1.722   2.380
 6012SOL     OW18934   6.864   0.462   5.968
 6012SOL    HW118935   6.829   0.369   5.957
 6012SOL    HW218936   6.963   0.462   5.958
 6013SOL     OW18937   6.040   1.579   2.057
 6013SOL    HW118938   5.942   1.601   2.053
 6013SOL    HW218939   6.092   1.662   2.076
 6014SOL     OW18940   2.909   3.609   3.737
 6014SOL    HW118941   2.815   3.585   3.761
 6014SOL    HW218942   2.956   3.648   3.816
 6015SOL     OW18943   6.129   0.550   4.011
 6015SOL    HW118944   6.157   0.587   4.100
 6015SOL    HW218945   6.194   0.579   3.941
 6016SOL     OW18946   4.276   1.757   4.231
 6016SOL    HW118947   4.232   1.766   4.321
 6016SOL    HW218948   4.368   1.722   4.242
 6017SOL     OW18949   0.999   1.195   5.679
 6017SOL    HW118950   1.076   1.151   5.726
 6017SOL    HW218951   1.034   1.256   5.608
 6018SOL     OW18952   2.785   1.011   4.393
 6018SOL    HW118953   2.831   1.097   4.370
 6018SOL    HW218954   2.687   1.027   4.404
 6019SOL     OW18955   6.617   4.455   6.320
 6019SOL    HW118956   6.604   4.552   6.340
 6019SOL    HW218957   6.569   4.400   6.388
 6020SOL     OW18958   0.654   5.055   5.840
 6020SOL    HW118959   0.673   5.103   5.926
 6020SOL    HW218960   0.599   5.114   5.781
 6021SOL     OW18961   6.052   6.869   3.617
 6021SOL    HW118962   6.126   6.805   3.634
 6021SOL    HW218963   6.086   6.963   3.624
 6022SOL     OW18964   6.274   2.796   1.470
 6022SOL    HW118965   6.367   2.782   1.503
 6022SOL    HW218966   6.271   2.876   1.409
 6023SOL     OW18967   3.896   6.823   1.861
 6023SOL    HW118968   3.875   6.880   1.782
 6023SOL    HW218969   3.989   6.787   1.852
 6024SOL     OW18970   1.232   5.880   6.716
 6024SOL    HW118971   1.194   5.806   6.660
 6024SOL    HW218972   1.244   5.848   6.810
 6025SOL     OW18973   2.952   0.589   5.146
 6025SOL    HW118974   3.000   0.502   5.160
 6025SOL    HW218975   2.899   0.584   5.061
 6026SOL     OW18976   5.392   6.403   4.363
 6026SOL    HW118977   5.480   6.447   4.383
 6026SOL    HW218978   5.392   6.310   4.399
 6027SOL     OW18979   5.045   4.913   6.304
 6027SOL    HW118980   5.104   4.972   6.248
 6027SOL    HW218981   5.097   4.833   6.333
 6028SOL     OW18982   5.798   5.132   6.167
 6028SOL    HW118983   5.699   5.136   6.181
 6028SOL    HW218984   5.833   5.044   6.198
 6029SOL     OW18985   2.893   0.961   2.928
 6029SOL    HW118986   2.852   1.035   2.980
 6029SOL    HW218987   2.841   0.947   2.843
 6030SOL     OW18988   5.764   2.970   4.409
 6030SOL    HW118989   5.756   3.060   4.364
 6030SOL    HW218990   5.803   2.904   4.344
 6031SOL     OW18991   0.194   6.347   5.429
 6031SOL    HW118992   0.113   6.302   5.464
 6031SOL    HW218993   0.184   6.363   5.330
 6032SOL     OW18994   3.877   6.575   3.513
 6032SOL    HW118995   3.892   6.622   3.426
 6032SOL    HW218996   3.845   6.640   3.582
 6033SOL     OW18997   1.387   1.257   2.457
 6033SOL    HW118998   1.308   1.204   2.484
 6033SOL    HW218999   1.390   1.343   2.508
 6034SOL     OW19000   0.662   6.500   1.265
 6034SOL    HW119001   0.608   6.430   1.220
 6034SOL    HW219002   0.685   6.573   1.200
 6035SOL     OW19003   2.934   0.326   2.353
 6035SOL    HW119004   2.843   0.286   2.346
 6035SOL    HW219005   3.001   0.264   2.311
 6036SOL     OW19006   6.575   3.397   0.992
 6036SOL    HW119007   6.548   3.438   1.079
 6036SOL    HW219008   6.644   3.455   0.948
 6037SOL     OW19009   4.774   1.528   6.239
 6037SOL    HW119010   4.751   1.439   6.199
 6037SOL    HW219011   4.783   1.596   6.167
 6038SOL     OW19012   1.459   1.535   6.097
 6038SOL    HW119013   1.401   1.457   6.075
 6038SOL    HW219014   1.553   1.516   6.068
 6039SOL     OW19015   3.776   3.709   3.524
 6039SOL    HW119016   3.831   3.740   3.602
 6039SOL    HW219017   3.701   3.773   3.508
 6040SOL     OW19018   0.261   1.831   0.492
 6040SOL    HW119019   0.225   1.909   0.441
 6040SOL    HW219020   0.261   1.750   0.433
 6041SOL     OW19021   2.241   3.777   5.837
 6041SOL    HW119022   2.284   3.781   5.747
 6041SOL    HW219023   2.305   3.741   5.904
 6042SOL     OW19024   3.312   5.649   4.413
 6042SOL    HW119025   3.228   5.699   4.392
 6042SOL    HW219026   3.288   5.563   4.458
 6043SOL     OW19027   2.433   0.402   2.958
 6043SOL    HW119028   2.353   0.358   3.000
 6043SOL    HW219029   2.490   0.333   2.913
 6044SOL     OW19030   0.473   3.280   0.915
 6044SOL    HW119031   0.391   3.239   0.954
 6044SOL    HW219032   0.481   3.253   0.819
 6045SOL     OW19033   5.648   1.930   3.224
 6045SOL    HW119034   5.724   1.991   3.244
 6045SOL    HW219035   5.645   1.910   3.126
 6046SOL     OW19036   3.479   2.859   2.941
 6046SOL    HW119037   3.502   2.925   2.870
 6046SOL    HW219038   3.427   2.783   2.902
 6047SOL     OW19039   6.871   1.679   0.456
 6047SOL    HW119040   6.916   1.648   0.372
 6047SOL    HW219041   6.867   1.603   0.521
 6048SOL     OW19042   5.663   6.040   3.056
 6048SOL    HW119043   5.741   6.029   3.117
 6048SOL    HW219044   5.684   6.109   2.986
 6049SOL     OW19045   4.656   4.636   6.316
 6049SOL    HW119046   4.581   4.631   6.251
 6049SOL    HW219047   4.708   4.720   6.301
 6050SOL     OW19048   2.857   6.026   2.291
 6050SOL    HW119049   2.791   5.991   2.225
 6050SOL    HW219050   2.949   5.997   2.263
 6051SOL     OW19051   0.564   1.384   3.076
 6051SOL    HW119052   0.619   1.304   3.049
 6051SOL    HW219053   0.512   1.416   2.997
 6052SOL     OW19054   5.169   5.397   0.712
 6052SOL    HW119055   5.127   5.309   0.688
 6052SOL    HW219056   5.115   5.441   0.783
 6053SOL     OW19057   4.381   2.815   5.866
 6053SOL    HW119058   4.455   2.760   5.906
 6053SOL    HW219059   4.303   2.816   5.929
 6054SOL     OW19060   4.054   4.205   0.706
 6054SOL    HW119061   4.153   4.217   0.694
 6054SOL    HW219062   4.009   4.216   0.618
 6055SOL     OW19063   2.694   3.813   1.018
 6055SOL    HW119064   2.732   3.850   0.933
 6055SOL    HW219065   2.595   3.803   1.009
 6056SOL     OW19066   5.192   5.807   3.145
 6056SOL    HW119067   5.277   5.755   3.150
 6056SOL    HW219068   5.166   5.839   3.237
 6057SOL     OW19069   5.235   0.559   4.412
 6057SOL    HW119070   5.225   0.482   4.348
 6057SOL    HW219071   5.321   0.607   4.394
 6058SOL     OW19072   6.622   2.980   5.849
 6058SOL    HW119073   6.685   3.021   5.915
 6058SOL    HW219074   6.571   2.906   5.892
 6059SOL     OW19075   4.135   2.749   0.393
 6059SOL    HW119076   4.061   2.682   0.386
 6059SOL    HW219077   4.185   2.753   0.307
 6060SOL     OW19078   2.328   3.182   0.084
 6060SOL    HW119079   2.252   3.184   0.019
 6060SOL    HW219080   2.352   3.276   0.110
 6061SOL     OW19081   3.532   4.393   6.768
 6061SOL    HW119082   3.538   4.328   6.844
 6061SOL    HW219083   3.524   4.344   6.682
 6062SOL     OW19084   2.239   2.030   6.427
 6062SOL    HW119085   2.186   2.072   6.354
 6062SOL    HW219086   2.203   2.060   6.516
 6063SOL     OW19087   4.063   3.729   6.253
 6063SOL    HW119088   4.098   3.680   6.174
 6063SOL    HW219089   4.090   3.682   6.337
 6064SOL     OW19090   6.218   5.296   0.899
 6064SOL    HW119091   6.271   5.302   0.814
 6064SOL    HW219092   6.274   5.254   0.970
 6065SOL     OW19093   1.806   7.004   1.697
 6065SOL    HW119094   1.862   6.986   1.616
 6065SOL    HW219095   1.843   0.062   1.747
 6066SOL     OW19096   5.227   5.693   3.493
 6066SOL    HW119097   5.217   5.791   3.479
 6066SOL    HW219098   5.295   5.657   3.430
 6067SOL     OW19099   6.449   6.278   5.907
 6067SOL    HW119100   6.541   6.298   5.873
 6067SOL    HW219101   6.435   6.323   5.995
 6068SOL     OW19102   4.633   2.417   4.367
 6068SOL    HW119103   4.591   2.462   4.289
 6068SOL    HW219104   4.620   2.473   4.449
 6069SOL     OW19105   0.078   4.291   5.764
 6069SOL    HW119106   0.080   4.222   5.836
 6069SOL    HW219107   0.041   4.250   5.680
 6070SOL     OW19108   1.978   1.501   0.892
 6070SOL    HW119109   1.937   1.589   0.916
 6070SOL    HW219110   1.993   1.497   0.793
 6071SOL     OW19111   6.341   1.122   5.642
 6071SOL    HW119112   6.320   1.161   5.552
 6071SOL    HW219113   6.396   1.188   5.694
 6072SOL     OW19114   0.092   2.893   6.816
 6072SOL    HW119115   0.129   2.896   6.910
 6072SOL    HW219116   0.164   2.865   6.753
 6073SOL     OW19117   5.149   3.796   6.977
 6073SOL    HW119118   5.248   3.797   6.961
 6073SOL    HW219119   5.132   3.801   0.056
 6074SOL     OW19120   1.108   6.416   2.510
 6074SOL    HW119121   1.192   6.418   2.456
 6074SOL    HW219122   1.119   6.352   2.587
 6075SOL     OW19123   5.762   0.651   6.759
 6075SOL    HW119124   5.819   0.694   6.689
 6075SOL    HW219125   5.715   0.722   6.812
 6076SOL     OW19126   0.918   5.853   2.537
 6076SOL    HW119127   0.822   5.855   2.562
 6076SOL    HW219128   0.934   5.917   2.461
 6077SOL     OW19129   5.466   6.569   2.629
 6077SOL    HW119130   5.419   6.619   2.702
 6077SOL    HW219131   5.430   6.597   2.540
 6078SOL     OW19132   4.528   4.349   0.676
 6078SOL    HW119133   4.470   4.268   0.689
 6078SOL    HW219134   4.590   4.358   0.753
 6079SOL     OW19135   2.589   2.872   0.662
 6079SOL    HW119136   2.553   2.876   0.755
 6079SOL    HW219137   2.557   2.951   0.610
 6080SOL     OW19138   6.818   4.332   6.185
 6080SOL    HW119139   6.744   4.373   6.238
 6080SOL    HW219140   6.890   4.301   6.247
 6081SOL     OW19141   1.647   3.880   3.449
 6081SOL    HW119142   1.723   3.818   3.467
 6081SOL    HW219143   1.606   3.907   3.536
 6082SOL     OW19144   4.968   1.461   1.366
 6082SOL    HW119145   4.917   1.466   1.280
 6082SOL    HW219146   4.923   1.517   1.434
 6083SOL     OW19147   4.757   0.585   6.543
 6083SOL    HW119148   4.781   0.649   6.470
 6083SOL    HW219149   4.677   0.619   6.592
 6084SOL     OW19150   6.999   5.776   2.520
 6084SOL    HW119151   6.997   5.694   2.577
 6084SOL    HW219152   6.965   5.754   2.429
 6085SOL     OW19153   0.426   6.691   0.206
 6085SOL    HW119154   0.361   6.686   0.129
 6085SOL    HW219155   0.504   6.632   0.187
 6086SOL     OW19156   3.537   4.157   6.976
 6086SOL    HW119157   3.445   4.155   7.014
 6086SOL    HW219158   3.604   4.143   0.030
 6087SOL     OW19159   4.940   0.250   0.565
 6087SOL    HW119160   4.947   0.281   0.660
 6087SOL    HW219161   4.922   0.152   0.563
 6088SOL     OW19162   4.837   5.778   2.934
 6088SOL    HW119163   4.821   5.784   2.835
 6088SOL    HW219164   4.909   5.711   2.952
 6089SOL     OW19165   6.078   3.769   4.152
 6089SOL    HW119166   6.117   3.840   4.210
 6089SOL    HW219167   6.066   3.805   4.059
 6090SOL     OW19168   3.834   5.716   4.203
 6090SOL    HW119169   3.754   5.706   4.144
 6090SOL    HW219170   3.890   5.634   4.197
 6091SOL     OW19171   1.547   1.447   1.610
 6091SOL    HW119172   1.504   1.498   1.684
 6091SOL    HW219173   1.477   1.396   1.560
 6092SOL     OW19174   2.371   6.614   1.154
 6092SOL    HW119175   2.414   6.693   1.198
 6092SOL    HW219176   2.429   6.583   1.078
 6093SOL     OW19177   2.553   2.387   2.682
 6093SOL    HW119178   2.516   2.440   2.606
 6093SOL    HW219179   2.555   2.444   2.765
 6094SOL     OW19180   0.458   6.231   5.116
 6094SOL    HW119181   0.538   6.189   5.074
 6094SOL    HW219182   0.394   6.161   5.146
 6095SOL     OW19183   4.447   4.770   1.822
 6095SOL    HW119184   4.404   4.719   1.897
 6095SOL    HW219185   4.486   4.706   1.757
 6096SOL     OW19186   5.464   5.583   2.977
 6096SOL    HW119187   5.483   5.586   2.880
 6096SOL    HW219188   5.444   5.489   3.005
 6097SOL     OW19189   2.396   4.800   2.730
 6097SOL    HW119190   2.431   4.707   2.721
 6097SOL    HW219191   2.378   4.838   2.640
 6098SOL     OW19192   0.041   0.738   4.873
 6098SOL    HW119193   0.005   0.796   4.946
 6098SOL    HW219194   6.987   0.717   4.808
 6099SOL     OW19195   3.365   0.777   5.974
 6099SOL    HW119196   3.304   0.698   5.976
 6099SOL    HW219197   3.418   0.776   5.890
 6100SOL     OW19198   0.536   5.876   5.027
 6100SOL    HW119199   0.592   5.879   5.109
 6100SOL    HW219200   0.574   5.809   4.963
 6101SOL     OW19201   6.863   3.563   1.933
 6101SOL    HW119202   6.869   3.652   1.887
 6101SOL    HW219203   6.815   3.572   2.019
 6102SOL     OW19204   3.846   0.175   2.574
 6102SOL    HW119205   3.856   0.161   2.672
 6102SOL    HW219206   3.937   0.183   2.533
 6103SOL     OW19207   6.454   1.658   2.016
 6103SOL    HW119208   6.426   1.592   1.947
 6103SOL    HW219209   6.510   1.611   2.085
 6104SOL     OW19210   6.994   0.624   4.649
 6104SOL    HW119211   6.997   0.658   4.555
 6104SOL    HW219212   6.931   0.548   4.655
 6105SOL     OW19213   3.037   4.517   5.709
 6105SOL    HW119214   3.092   4.570   5.775
 6105SOL    HW219215   2.995   4.580   5.643
 6106SOL     OW19216   5.868   4.929   5.313
 6106SOL    HW119217   5.928   4.940   5.233
 6106SOL    HW219218   5.838   5.019   5.344
 6107SOL     OW19219   5.443   5.665   5.197
 6107SOL    HW119220   5.486   5.610   5.268
 6107SOL    HW219221   5.345   5.671   5.214
 6108SOL     OW19222   1.826   1.496   0.095
 6108SOL    HW119223   1.905   1.474   0.152
 6108SOL    HW219224   1.853   1.558   0.023
 6109SOL     OW19225   7.015   6.834   3.668
 6109SOL    HW119226   6.968   6.821   3.581
 6109SOL    HW219227   7.001   6.753   3.726
 6110SOL     OW19228   1.975   1.662   4.250
 6110SOL    HW119229   2.060   1.704   4.281
 6110SOL    HW219230   1.926   1.624   4.328
 6111SOL     OW19231   1.942   3.939   1.194
 6111SOL    HW119232   2.040   3.941   1.212
 6111SOL    HW219233   1.926   3.934   1.095
 6112SOL     OW19234   4.934   6.339   3.371
 6112SOL    HW119235   4.880   6.316   3.452
 6112SOL    HW219236   5.004   6.406   3.395
 6113SOL     OW19237   2.749   5.390   1.071
 6113SOL    HW119238   2.796   5.302   1.063
 6113SOL    HW219239   2.653   5.380   1.043
 6114SOL     OW19240   5.597   2.324   0.182
 6114SOL    HW119241   5.663   2.342   0.255
 6114SOL    HW219242   5.584   2.406   0.127
 6115SOL     OW19243   0.854   0.702   6.170
 6115SOL    HW119244   0.812   0.778   6.220
 6115SOL    HW219245   0.786   0.661   6.109
 6116SOL     OW19246   5.640   2.811   6.376
 6116SOL    HW119247   5.596   2.723   6.395
 6116SOL    HW219248   5.728   2.815   6.424
 6117SOL     OW19249   2.110   2.091   1.153
 6117SOL    HW119250   2.149   2.066   1.064
 6117SOL    HW219251   2.128   2.017   1.218
 6118SOL     OW19252   5.847   0.622   1.341
 6118SOL    HW119253   5.836   0.523   1.329
 6118SOL    HW219254   5.804   0.650   1.427
 6119SOL     OW19255   0.010   1.610   0.232
 6119SOL    HW119256   0.098   1.576   0.266
 6119SOL    HW219257   0.026   1.683   0.166
 6120SOL     OW19258   2.764   0.807   4.718
 6120SOL    HW119259   2.794   0.811   4.813
 6120SOL    HW219260   2.841   0.778   4.660
 6121SOL     OW19261   1.327   2.122   5.340
 6121SOL    HW119262   1.422   2.136   5.367
 6121SOL    HW219263   1.297   2.200   5.284
 6122SOL     OW19264   4.956   4.748   5.452
 6122SOL    HW119265   5.000   4.659   5.464
 6122SOL    HW219266   4.917   4.777   5.540
 6123SOL     OW19267   5.528   1.287   5.438
 6123SOL    HW119268   5.498   1.258   5.347
 6123SOL    HW219269   5.621   1.324   5.433
 6124SOL     OW19270   2.531   6.159   4.125
 6124SOL    HW119271   2.461   6.154   4.197
 6124SOL    HW219272   2.558   6.254   4.113
 6125SOL     OW19273   2.961   2.281   6.187
 6125SOL    HW119274   2.892   2.229   6.237
 6125SOL    HW219275   2.955   2.260   6.090
 6126SOL     OW19276   6.088   2.997   5.408
 6126SOL    HW119277   6.081   2.899   5.427
 6126SOL    HW219278   6.001   3.041   5.429
 6127SOL     OW19279   4.613   2.180   2.156
 6127SOL    HW119280   4.690   2.124   2.125
 6127SOL    HW219281   4.563   2.131   2.227
 6128SOL     OW19282   5.716   5.594   7.001
 6128SOL    HW119283   5.722   5.628   0.075
 6128SOL    HW219284   5.652   5.651   6.949
 6129SOL     OW19285   1.657   5.744   2.159
 6129SOL    HW119286   1.673   5.835   2.121
 6129SOL    HW219287   1.588   5.696   2.105
 6130SOL     OW19288   6.145   2.463   0.009
 6130SOL    HW119289   6.065   2.403   0.005
 6130SOL    HW219290   6.116   2.554   0.041
 6131SOL     OW19291   6.751   1.857   2.775
 6131SOL    HW119292   6.659   1.839   2.741
 6131SOL    HW219293   6.783   1.946   2.743
 6132SOL     OW19294   3.813   1.383   5.951
 6132SOL    HW119295   3.731   1.441   5.952
 6132SOL    HW219296   3.827   1.348   5.858
 6133SOL     OW19297   1.007   2.215   2.988
 6133SOL    HW119298   0.961   2.289   2.939
 6133SOL    HW219299   0.997   2.229   3.087
 6134SOL     OW19300   0.018   6.912   5.761
 6134SOL    HW119301   0.058   6.884   5.848
 6134SOL    HW219302   0.022   6.835   5.697
 6135SOL     OW19303   6.875   6.699   6.806
 6135SOL    HW119304   6.944   6.721   6.737
 6135SOL    HW219305   6.859   6.778   6.864
 6136SOL     OW19306   0.908   2.548   2.346
 6136SOL    HW119307   0.932   2.600   2.427
 6136SOL    HW219308   0.811   2.526   2.347
 6137SOL     OW19309   6.731   4.268   2.287
 6137SOL    HW119310   6.655   4.314   2.242
 6137SOL    HW219311   6.805   4.252   2.222
 6138SOL     OW19312   4.533   0.413   1.869
 6138SOL    HW119313   4.598   0.481   1.902
 6138SOL    HW219314   4.471   0.455   1.803
 6139SOL     OW19315   1.394   0.713   5.066
 6139SOL    HW119316   1.469   0.658   5.029
 6139SOL    HW219317   1.307   0.679   5.030
 6140SOL     OW19318   2.237   0.282   3.088
 6140SOL    HW119319   2.270   0.251   3.177
 6140SOL    HW219320   2.204   0.204   3.035
 6141SOL     OW19321   0.509   0.722   6.370
 6141SOL    HW119322   0.411   0.739   6.359
 6141SOL    HW219323   0.561   0.795   6.327
 6142SOL     OW19324   6.828   0.349   1.597
 6142SOL    HW119325   6.891   0.341   1.675
 6142SOL    HW219326   6.879   0.380   1.517
 6143SOL     OW19327   6.856   4.045   5.334
 6143SOL    HW119328   6.939   4.077   5.380
 6143SOL    HW219329   6.882   3.990   5.254
 6144SOL     OW19330   4.434   5.129   2.863
 6144SOL    HW119331   4.365   5.130   2.790
 6144SOL    HW219332   4.416   5.051   2.923
 6145SOL     OW19333   4.884   3.501   3.830
 6145SOL    HW119334   4.896   3.430   3.899
 6145SOL    HW219335   4.946   3.577   3.849
 6146SOL     OW19336   5.727   0.371   5.284
 6146SOL    HW119337   5.773   0.377   5.372
 6146SOL    HW219338   5.795   0.359   5.212
 6147SOL     OW19339   1.539   2.519   4.909
 6147SOL    HW119340   1.465   2.462   4.874
 6147SOL    HW219341   1.509   2.566   4.992
 6148SOL     OW19342   3.278   5.642   0.060
 6148SOL    HW119343   3.287   5.603   0.152
 6148SOL    HW219344   3.298   5.740   0.064
 6149SOL     OW19345   2.877   0.905   1.184
 6149SOL    HW119346   2.833   0.988   1.217
 6149SOL    HW219347   2.854   0.829   1.246
 6150SOL     OW19348   0.972   4.144   5.853
 6150SOL    HW119349   1.068   4.166   5.868
 6150SOL    HW219350   0.965   4.071   5.785
 6151SOL     OW19351   4.762   5.310   3.724
 6151SOL    HW119352   4.745   5.336   3.629
 6151SOL    HW219353   4.734   5.384   3.784
 6152SOL     OW19354   1.350   3.981   4.015
 6152SOL    HW119355   1.346   3.882   4.000
 6152SOL    HW219356   1.439   4.006   4.052
 6153SOL     OW19357   5.456   5.458   1.076
 6153SOL    HW119358   5.356   5.459   1.077
 6153SOL    HW219359   5.491   5.493   1.163
 6154SOL     OW19360   4.901   3.421   2.322
 6154SOL    HW119361   4.912   3.391   2.227
 6154SOL    HW219362   4.942   3.512   2.333
 6155SOL     OW19363   1.594   1.436   3.099
 6155SOL    HW119364   1.605   1.535   3.101
 6155SOL    HW219365   1.677   1.394   3.062
 6156SOL     OW19366   4.989   4.765   1.458
 6156SOL    HW119367   4.971   4.813   1.372
 6156SOL    HW219368   5.086   4.773   1.481
 6157SOL     OW19369   1.099   2.471   1.837
 6157SOL    HW119370   1.029   2.447   1.905
 6157SOL    HW219371   1.118   2.391   1.780
 6158SOL     OW19372   3.081   2.169   4.810
 6158SOL    HW119373   3.123   2.225   4.881
 6158SOL    HW219374   3.110   2.201   4.720
 6159SOL     OW19375   6.667   3.138   1.031
 6159SOL    HW119376   6.625   3.224   1.001
 6159SOL    HW219377   6.670   3.135   1.131
 6160SOL     OW19378   1.586   0.766   0.947
 6160SOL    HW119379   1.531   0.715   0.881
 6160SOL    HW219380   1.632   0.842   0.900
 6161SOL     OW19381   4.330   3.178   6.436
 6161SOL    HW119382   4.304   3.086   6.405
 6161SOL    HW219383   4.386   3.222   6.366
 6162SOL     OW19384   6.192   5.127   2.712
 6162SOL    HW119385   6.218   5.173   2.797
 6162SOL    HW219386   6.170   5.031   2.733
 6163SOL     OW19387   5.839   6.270   3.574
 6163SOL    HW119388   5.792   6.233   3.655
 6163SOL    HW219389   5.897   6.346   3.601
 6164SOL     OW19390   2.898   3.296   4.685
 6164SOL    HW119391   2.847   3.360   4.743
 6164SOL    HW219392   2.953   3.236   4.742
 6165SOL     OW19393   3.744   1.565   6.943
 6165SOL    HW119394   3.774   1.548   6.849
 6165SOL    HW219395   3.818   1.606   6.996
 6166SOL     OW19396   2.013   3.069   6.717
 6166SOL    HW119397   1.951   3.024   6.782
 6166SOL    HW219398   2.010   3.020   6.630
 6167SOL     OW19399   1.731   3.544   3.172
 6167SOL    HW119400   1.681   3.457   3.181
 6167SOL    HW219401   1.772   3.568   3.260
 6168SOL     OW19402   0.716   3.746   3.597
 6168SOL    HW119403   0.720   3.646   3.593
 6168SOL    HW219404   0.657   3.780   3.523
 6169SOL     OW19405   2.113   0.676   6.893
 6169SOL    HW119406   2.127   0.596   6.952
 6169SOL    HW219407   2.183   0.677   6.821
 6170SOL     OW19408   3.051   3.911   0.130
 6170SOL    HW119409   2.983   3.923   0.057
 6170SOL    HW219410   3.131   3.864   0.094
 6171SOL     OW19411   2.073   3.827   2.103
 6171SOL    HW119412   1.991   3.883   2.088
 6171SOL    HW219413   2.073   3.750   2.039
 6172SOL     OW19414   2.136   5.562   2.638
 6172SOL    HW119415   2.123   5.561   2.737
 6172SOL    HW219416   2.056   5.523   2.593
 6173SOL     OW19417   1.293   5.458   2.163
 6173SOL    HW119418   1.302   5.530   2.232
 6173SOL    HW219419   1.372   5.396   2.168
 6174SOL     OW19420   5.305   5.129   2.823
 6174SOL    HW119421   5.267   5.038   2.807
 6174SOL    HW219422   5.293   5.185   2.741
 6175SOL     OW19423   5.234   0.169   3.210
 6175SOL    HW119424   5.328   0.202   3.218
 6175SOL    HW219425   5.187   0.221   3.138
 6176SOL     OW19426   6.370   3.255   5.735
 6176SOL    HW119427   6.401   3.306   5.655
 6176SOL    HW219428   6.449   3.222   5.786
 6177SOL     OW19429   6.989   2.886   1.044
 6177SOL    HW119430   6.908   2.900   0.986
 6177SOL    HW219431   6.991   2.791   1.076
 6178SOL     OW19432   5.954   3.085   1.128
 6178SOL    HW119433   5.914   3.003   1.168
 6178SOL    HW219434   5.960   3.157   1.197
 6179SOL     OW19435   0.448   1.767   5.822
 6179SOL    HW119436   0.511   1.778   5.899
 6179SOL    HW219437   0.424   1.858   5.787
 6180SOL     OW19438   3.417   6.832   6.952
 6180SOL    HW119439   3.458   6.923   6.943
 6180SOL    HW219440   3.322   6.841   6.982
 6181SOL     OW19441   5.142   5.893   6.953
 6181SOL    HW119442   5.189   5.861   0.016
 6181SOL    HW219443   5.202   5.955   6.902
 6182SOL     OW19444   4.130   6.399   6.785
 6182SOL    HW119445   4.031   6.384   6.779
 6182SOL    HW219446   4.153   6.432   6.876
 6183SOL     OW19447   3.404   0.427   3.371
 6183SOL    HW119448   3.346   0.356   3.410
 6183SOL    HW219449   3.495   0.422   3.414
 6184SOL     OW19450   0.199   0.334   6.777
 6184SOL    HW119451   0.281   0.277   6.765
 6184SOL    HW219452   0.195   0.366   6.871
 6185SOL     OW19453   0.996   3.702   5.672
 6185SOL    HW119454   1.045   3.669   5.592
 6185SOL    HW219455   0.983   3.626   5.736
 6186SOL     OW19456   6.110   0.084   4.697
 6186SOL    HW119457   6.082   0.178   4.712
 6186SOL    HW219458   6.167   0.078   4.615
 6187SOL     OW19459   3.895   4.926   4.190
 6187SOL    HW119460   3.941   4.873   4.119
 6187SOL    HW219461   3.958   4.994   4.227
 6188SOL     OW19462   2.873   6.389   1.227
 6188SOL    HW119463   2.950   6.407   1.289
 6188SOL    HW219464   2.890   6.434   1.140
 6189SOL     OW19465   6.141   4.855   3.383
 6189SOL    HW119466   6.056   4.861   3.434
 6189SOL    HW219467   6.134   4.782   3.315
 6190SOL     OW19468   5.279   2.793   0.041
 6190SOL    HW119469   5.373   2.823   0.057
 6190SOL    HW219470   5.269   2.767   6.964
 6191SOL     OW19471   6.557   2.562   6.667
 6191SOL    HW119472   6.481   2.511   6.708
 6191SOL    HW219473   6.630   2.498   6.641
 6192SOL     OW19474   3.157   3.089   0.162
 6192SOL    HW119475   3.239   3.041   0.130
 6192SOL    HW219476   3.182   3.180   0.194
 6193SOL     OW19477   6.183   7.018   1.105
 6193SOL    HW119478   6.156   0.035   1.195
 6193SOL    HW219479   6.280   0.016   1.091
 6194SOL     OW19480   2.319   0.572   0.333
 6194SOL    HW119481   2.229   0.582   0.290
 6194SOL    HW219482   2.370   0.499   0.288
 6195SOL     OW19483   2.984   7.001   6.210
 6195SOL    HW119484   3.076   7.004   6.249
 6195SOL    HW219485   2.917   7.018   6.281
 6196SOL     OW19486   0.178   1.238   6.571
 6196SOL    HW119487   0.250   1.232   6.502
 6196SOL    HW219488   0.214   1.208   6.659
 6197SOL     OW19489   2.431   3.404   0.406
 6197SOL    HW119490   2.477   3.381   0.492
 6197SOL    HW219491   2.499   3.414   0.333
 6198SOL     OW19492   4.035   4.761   2.844
 6198SOL    HW119493   4.100   4.714   2.784
 6198SOL    HW219494   3.946   4.767   2.798
 6199SOL     OW19495   1.696   0.268   6.304
 6199SOL    HW119496   1.764   0.203   6.341
 6199SOL    HW219497   1.658   0.321   6.379
 6200SOL     OW19498   3.972   0.062   6.077
 6200SOL    HW119499   4.011   0.147   6.042
 6200SOL    HW219500   3.960   0.069   6.176
 6201SOL     OW19501   1.910   4.455   4.963
 6201SOL    HW119502   1.851   4.468   4.884
 6201SOL    HW219503   1.874   4.507   5.040
 6202SOL     OW19504   3.310   2.160   1.220
 6202SOL    HW119505   3.274   2.171   1.313
 6202SOL    HW219506   3.409   2.143   1.225
 6203SOL     OW19507   4.524   1.634   5.450
 6203SOL    HW119508   4.561   1.596   5.365
 6203SOL    HW219509   4.598   1.679   5.500
 6204SOL     OW19510   1.665   6.748   5.738
 6204SOL    HW119511   1.688   6.714   5.829
 6204SOL    HW219512   1.655   6.848   5.742
 6205SOL     OW19513   5.403   5.580   0.065
 6205SOL    HW119514   5.433   5.674   0.081
 6205SOL    HW219515   5.339   5.552   0.137
 6206SOL     OW19516   5.421   0.514   3.326
 6206SOL    HW119517   5.369   0.537   3.409
 6206SOL    HW219518   5.363   0.528   3.246
 6207SOL     OW19519   1.559   3.733   4.617
 6207SOL    HW119520   1.545   3.731   4.716
 6207SOL    HW219521   1.644   3.684   4.595
 6208SOL     OW19522   5.593   6.710   5.733
 6208SOL    HW119523   5.515   6.767   5.759
 6208SOL    HW219524   5.656   6.763   5.677
 6209SOL     OW19525   3.369   5.405   1.065
 6209SOL    HW119526   3.372   5.456   1.151
 6209SOL    HW219527   3.462   5.383   1.035
 6210SOL     OW19528   5.860   4.366   3.767
 6210SOL    HW119529   5.947   4.415   3.775
 6210SOL    HW219530   5.874   4.283   3.712
 6211SOL     OW19531   2.822   0.271   5.083
 6211SOL    HW119532   2.914   0.306   5.101
 6211SOL    HW219533   2.772   0.337   5.027
 6212SOL     OW19534   6.915   6.647   3.293
 6212SOL    HW119535   7.007   6.677   3.266
 6212SOL    HW219536   6.847   6.698   3.241
 6213SOL     OW19537   0.381   6.158   6.181
 6213SOL    HW119538   0.403   6.246   6.222
 6213SOL    HW219539   0.461   6.122   6.133
 6214SOL     OW19540   6.389   4.977   3.038
 6214SOL    HW119541   6.401   5.052   3.103
 6214SOL    HW219542   6.444   4.899   3.066
 6215SOL     OW19543   2.813   3.912   0.788
 6215SOL    HW119544   2.771   3.980   0.728
 6215SOL    HW219545   2.860   3.843   0.733
 6216SOL     OW19546   5.858   1.337   2.686
 6216SOL    HW119547   5.925   1.288   2.742
 6216SOL    HW219548   5.899   1.363   2.599
 6217SOL     OW19549   5.489   3.287   1.624
 6217SOL    HW119550   5.496   3.217   1.552
 6217SOL    HW219551   5.393   3.312   1.637
 6218SOL     OW19552   3.627   5.161   5.468
 6218SOL    HW119553   3.613   5.089   5.537
 6218SOL    HW219554   3.540   5.206   5.448
 6219SOL     OW19555   1.008   1.893   4.560
 6219SOL    HW119556   0.985   1.795   4.557
 6219SOL    HW219557   1.032   1.924   4.468
 6220SOL     OW19558   1.849   4.190   5.022
 6220SOL    HW119559   1.851   4.284   5.054
 6220SOL    HW219560   1.941   4.163   4.991
 6221SOL     OW19561   3.645   5.073   4.871
 6221SOL    HW119562   3.588   5.146   4.832
 6221SOL    HW219563   3.605   5.042   4.957
 6222SOL     OW19564   6.817   1.128   0.911
 6222SOL    HW119565   6.769   1.172   0.986
 6222SOL    HW219566   6.881   1.060   0.947
 6223SOL     OW19567   4.905   3.288   4.627
 6223SOL    HW119568   4.988   3.247   4.664
 6223SOL    HW219569   4.880   3.368   4.682
 6224SOL     OW19570   2.641   1.059   5.341
 6224SOL    HW119571   2.616   0.964   5.359
 6224SOL    HW219572   2.563   1.118   5.360
 6225SOL     OW19573   3.869   2.614   0.392
 6225SOL    HW119574   3.930   2.538   0.415
 6225SOL    HW219575   3.826   2.649   0.475
 6226SOL     OW19576   5.809   0.377   4.851
 6226SOL    HW119577   5.828   0.329   4.936
 6226SOL    HW219578   5.837   0.473   4.860
 6227SOL     OW19579   3.332   4.852   6.107
 6227SOL    HW119580   3.404   4.920   6.107
 6227SOL    HW219581   3.343   4.791   6.029
 6228SOL     OW19582   6.653   0.952   3.759
 6228SOL    HW119583   6.728   0.984   3.818
 6228SOL    HW219584   6.664   0.992   3.668
 6229SOL     OW19585   2.278   2.762   2.127
 6229SOL    HW119586   2.235   2.672   2.137
 6229SOL    HW219587   2.367   2.750   2.082
 6230SOL     OW19588   2.509   2.111   3.336
 6230SOL    HW119589   2.543   2.204   3.352
 6230SOL    HW219590   2.494   2.097   3.238
 6231SOL     OW19591   0.160   4.910   1.735
 6231SOL    HW119592   0.074   4.884   1.778
 6231SOL    HW219593   0.144   4.986   1.672
 6232SOL     OW19594   1.032   1.222   6.564
 6232SOL    HW119595   1.070   1.183   6.648
 6232SOL    HW219596   0.949   1.273   6.586
 6233SOL     OW19597   4.821   2.242   0.040
 6233SOL    HW119598   4.828   2.272   0.136
 6233SOL    HW219599   4.849   2.147   0.032
 6234SOL     OW19600   2.576   2.158   3.631
 6234SOL    HW119601   2.499   2.132   3.688
 6234SOL    HW219602   2.592   2.088   3.561
 6235SOL     OW19603   2.686   6.547   3.402
 6235SOL    HW119604   2.605   6.560   3.345
 6235SOL    HW219605   2.664   6.573   3.496
 6236SOL     OW19606   6.802   4.326   0.361
 6236SOL    HW119607   6.805   4.235   0.401
 6236SOL    HW219608   6.792   4.394   0.433
 6237SOL     OW19609   4.303   0.001   0.678
 6237SOL    HW119610   4.275   6.957   0.750
 6237SOL    HW219611   4.402   0.001   0.670
 6238SOL     OW19612   4.644   4.573   1.273
 6238SOL    HW119613   4.647   4.483   1.317
 6238SOL    HW219614   4.726   4.586   1.217
 6239SOL     OW19615   2.907   0.409   3.601
 6239SOL    HW119616   2.874   0.500   3.627
 6239SOL    HW219617   2.831   0.344   3.601
 6240SOL     OW19618   1.876   4.006   0.913
 6240SOL    HW119619   1.895   3.928   0.853
 6240SOL    HW219620   1.938   4.080   0.891
 6241SOL     OW19621   4.422   0.282   1.407
 6241SOL    HW119622   4.430   0.358   1.471
 6241SOL    HW219623   4.442   0.196   1.454
 6242SOL     OW19624   4.106   1.871   3.438
 6242SOL    HW119625   4.018   1.835   3.409
 6242SOL    HW219626   4.174   1.798   3.437
 6243SOL     OW19627   6.303   5.435   3.616
 6243SOL    HW119628   6.327   5.527   3.648
 6243SOL    HW219629   6.318   5.429   3.518
 6244SOL     OW19630   2.197   1.478   2.324
 6244SOL    HW119631   2.288   1.444   2.299
 6244SOL    HW219632   2.196   1.503   2.421
 6245SOL     OW19633   2.663   4.527   0.565
 6245SOL    HW119634   2.698   4.452   0.622
 6245SOL    HW219635   2.629   4.600   0.624
 6246SOL     OW19636   2.598   1.049   6.049
 6246SOL    HW119637   2.667   1.060   5.977
 6246SOL    HW219638   2.560   0.957   6.045
 6247SOL     OW19639   0.159   6.267   2.602
 6247SOL    HW119640   0.163   6.246   2.504
 6247SOL    HW219641   0.064   6.270   2.632
 6248SOL     OW19642   0.447   4.871   1.415
 6248SOL    HW119643   0.474   4.796   1.476
 6248SOL    HW219644   0.528   4.904   1.366
 6249SOL     OW19645   5.162   3.650   6.495
 6249SOL    HW119646   5.207   3.567   6.463
 6249SOL    HW219647   5.161   3.651   6.595
 6250SOL     OW19648   5.215   5.717   6.515
 6250SOL    HW119649   5.250   5.684   6.603
 6250SOL    HW219650   5.284   5.776   6.472
 6251SOL     OW19651   4.402   1.877   0.930
 6251SOL    HW119652   4.406   1.933   1.013
 6251SOL    HW219653   4.311   1.836   0.923
 6252SOL     OW19654   2.236   6.195   5.221
 6252SOL    HW119655   2.153   6.211   5.275
 6252SOL    HW219656   2.213   6.200   5.124
 6253SOL     OW19657   1.686   3.798   1.169
 6253SOL    HW119658   1.784   3.809   1.181
 6253SOL    HW219659   1.646   3.761   1.254
 6254SOL     OW19660   5.365   0.683   0.269
 6254SOL    HW119661   5.310   0.625   0.328
 6254SOL    HW219662   5.401   0.630   0.193
 6255SOL     OW19663   0.585   1.313   2.565
 6255SOL    HW119664   0.487   1.313   2.585
 6255SOL    HW219665   0.599   1.317   2.466
 6256SOL     OW19666   3.251   4.879   3.038
 6256SOL    HW119667   3.244   4.977   3.057
 6256SOL    HW219668   3.198   4.828   3.105
 6257SOL     OW19669   5.045   2.650   6.479
 6257SOL    HW119670   5.088   2.698   6.401
 6257SOL    HW219671   4.981   2.711   6.524
 6258SOL     OW19672   5.521   1.645   2.571
 6258SOL    HW119673   5.506   1.623   2.667
 6258SOL    HW219674   5.446   1.702   2.538
 6259SOL     OW19675   2.977   2.557   1.641
 6259SOL    HW119676   2.982   2.546   1.740
 6259SOL    HW219677   2.886   2.528   1.609
 6260SOL     OW19678   3.709   3.319   6.972
 6260SOL    HW119679   3.792   3.265   6.958
 6260SOL    HW219680   3.634   3.257   6.995
 6261SOL     OW19681   4.029   1.113   0.258
 6261SOL    HW119682   4.008   1.120   0.356
 6261SOL    HW219683   4.116   1.158   0.239
 6262SOL     OW19684   0.396   5.271   6.074
 6262SOL    HW119685   0.395   5.177   6.040
 6262SOL    HW219686   0.367   5.333   6.001
 6263SOL     OW19687   6.147   0.654   0.676
 6263SOL    HW119688   6.052   0.633   0.699
 6263SOL    HW219689   6.208   0.591   0.722
 6264SOL     OW19690   2.373   1.634   0.504
 6264SOL    HW119691   2.344   1.697   0.576
 6264SOL    HW219692   2.326   1.546   0.516
 6265SOL     OW19693   3.740   2.787   1.284
 6265SOL    HW119694   3.718   2.782   1.187
 6265SOL    HW219695   3.789   2.704   1.311
 6266SOL     OW19696   2.501   0.164   2.729
 6266SOL    HW119697   2.446   0.234   2.684
 6266SOL    HW219698   2.480   0.163   2.827
 6267SOL     OW19699   2.679   6.871   6.646
 6267SOL    HW119700   2.688   6.853   6.744
 6267SOL    HW219701   2.742   6.945   6.619
 6268SOL     OW19702   3.297   4.898   2.726
 6268SOL    HW119703   3.315   4.876   2.822
 6268SOL    HW219704   3.221   4.962   2.720
 6269SOL     OW19705   6.403   4.584   0.511
 6269SOL    HW119706   6.415   4.606   0.608
 6269SOL    HW219707   6.493   4.577   0.468
 6270SOL     OW19708   0.492   1.171   4.445
 6270SOL    HW119709   0.504   1.243   4.378
 6270SOL    HW219710   0.581   1.134   4.472
 6271SOL     OW19711   5.780   1.760   0.744
 6271SOL    HW119712   5.700   1.735   0.798
 6271SOL    HW219713   5.753   1.773   0.649
 6272SOL     OW19714   1.430   2.122   3.321
 6272SOL    HW119715   1.460   2.186   3.251
 6272SOL    HW219716   1.485   2.134   3.404
 6273SOL     OW19717   3.830   0.978   1.605
 6273SOL    HW119718   3.773   0.904   1.569
 6273SOL    HW219719   3.870   1.029   1.529
 6274SOL     OW19720   3.751   6.912   6.693
 6274SOL    HW119721   3.842   6.902   6.651
 6274SOL    HW219722   3.681   6.888   6.626
 6275SOL     OW19723   2.777   1.102   4.708
 6275SOL    HW119724   2.859   1.129   4.658
 6275SOL    HW219725   2.749   1.011   4.679
 6276SOL     OW19726   1.152   5.549   3.902
 6276SOL    HW119727   1.174   5.512   3.811
 6276SOL    HW219728   1.214   5.508   3.969
 6277SOL     OW19729   5.494   3.167   2.895
 6277SOL    HW119730   5.593   3.153   2.893
 6277SOL    HW219731   5.463   3.202   2.807
 6278SOL     OW19732   5.514   0.273   4.329
 6278SOL    HW119733   5.476   0.310   4.244
 6278SOL    HW219734   5.614   0.280   4.327
 6279SOL     OW19735   4.984   1.655   0.153
 6279SOL    HW119736   4.980   1.650   0.054
 6279SOL    HW219737   4.914   1.595   0.193
 6280SOL     OW19738   0.457   4.719   5.770
 6280SOL    HW119739   0.434   4.622   5.776
 6280SOL    HW219740   0.544   4.735   5.816
 6281SOL     OW19741   2.674   6.790   5.522
 6281SOL    HW119742   2.635   6.849   5.451
 6281SOL    HW219743   2.762   6.826   5.551
 6282SOL     OW19744   1.932   6.830   3.863
 6282SOL    HW119745   1.882   6.778   3.794
 6282SOL    HW219746   1.867   6.876   3.924
 6283SOL     OW19747   0.082   2.383   5.053
 6283SOL    HW119748   0.120   2.292   5.070
 6283SOL    HW219749   0.155   2.451   5.050
 6284SOL     OW19750   1.981   4.211   6.137
 6284SOL    HW119751   1.934   4.270   6.203
 6284SOL    HW219752   2.065   4.255   6.106
 6285SOL     OW19753   1.728   4.435   2.232
 6285SOL    HW119754   1.769   4.362   2.177
 6285SOL    HW219755   1.759   4.524   2.197
 6286SOL     OW19756   5.727   0.924   4.362
 6286SOL    HW119757   5.768   0.976   4.287
 6286SOL    HW219758   5.629   0.916   4.346
 6287SOL     OW19759   4.810   4.274   2.021
 6287SOL    HW119760   4.712   4.269   2.036
 6287SOL    HW219761   4.857   4.218   2.089
 6288SOL     OW19762   5.151   3.250   0.909
 6288SOL    HW119763   5.207   3.328   0.880
 6288SOL    HW219764   5.082   3.282   0.975
 6289SOL     OW19765   1.413   0.768   3.196
 6289SOL    HW119766   1.510   0.756   3.176
 6289SOL    HW219767   1.388   0.864   3.183
 6290SOL     OW19768   5.809   3.753   3.321
 6290SOL    HW119769   5.893   3.736   3.269
 6290SOL    HW219770   5.731   3.713   3.274
 6291SOL     OW19771   3.653   4.098   3.098
 6291SOL    HW119772   3.575   4.124   3.041
 6291SOL    HW219773   3.731   4.076   3.040
 6292SOL     OW19774   1.164   1.960   1.918
 6292SOL    HW119775   1.068   1.978   1.941
 6292SOL    HW219776   1.182   1.993   1.825
 6293SOL     OW19777   5.055   6.450   0.435
 6293SOL    HW119778   5.132   6.501   0.395
 6293SOL    HW219779   5.061   6.452   0.534
 6294SOL     OW19780   4.462   5.313   2.339
 6294SOL    HW119781   4.489   5.224   2.378
 6294SOL    HW219782   4.472   5.384   2.408
 6295SOL     OW19783   5.679   6.751   6.219
 6295SOL    HW119784   5.762   6.806   6.220
 6295SOL    HW219785   5.682   6.687   6.142
 6296SOL     OW19786   6.203   0.996   2.728
 6296SOL    HW119787   6.117   0.953   2.702
 6296SOL    HW219788   6.274   0.973   2.661
 6297SOL     OW19789   5.122   0.287   6.089
 6297SOL    HW119790   5.125   0.206   6.030
 6297SOL    HW219791   5.085   0.364   6.038
 6298SOL     OW19792   1.338   1.806   4.783
 6298SOL    HW119793   1.242   1.782   4.776
 6298SOL    HW219794   1.374   1.776   4.871
 6299SOL     OW19795   6.379   3.064   0.052
 6299SOL    HW119796   6.447   3.076   0.124
 6299SOL    HW219797   6.300   3.122   0.072
 6300SOL     OW19798   5.475   0.635   3.966
 6300SOL    HW119799   5.574   0.640   3.956
 6300SOL    HW219800   5.441   0.716   4.013
 6301SOL     OW19801   2.985   6.897   0.643
 6301SOL    HW119802   2.971   6.898   0.742
 6301SOL    HW219803   3.047   6.822   0.619
 6302SOL     OW19804   1.158   0.705   3.617
 6302SOL    HW119805   1.250   0.678   3.644
 6302SOL    HW219806   1.134   0.792   3.661
 6303SOL     OW19807   2.088   6.043   5.462
 6303SOL    HW119808   2.177   6.022   5.502
 6303SOL    HW219809   2.074   5.989   5.379
 6304SOL     OW19810   3.194   1.235   6.493
 6304SOL    HW119811   3.170   1.147   6.534
 6304SOL    HW219812   3.286   1.230   6.455
 6305SOL     OW19813   5.729   1.120   1.339
 6305SOL    HW119814   5.725   1.219   1.353
 6305SOL    HW219815   5.774   1.077   1.417
 6306SOL     OW19816   5.824   2.626   4.123
 6306SOL    HW119817   5.861   2.592   4.209
 6306SOL    HW219818   5.808   2.550   4.060
 6307SOL     OW19819   2.820   4.742   0.805
 6307SOL    HW119820   2.722   4.751   0.791
 6307SOL    HW219821   2.869   4.794   0.735
 6308SOL     OW19822   3.038   2.294   5.347
 6308SOL    HW119823   2.961   2.273   5.287
 6308SOL    HW219824   3.115   2.327   5.293
 6309SOL     OW19825   5.822   1.730   4.485
 6309SOL    HW119826   5.784   1.797   4.421
 6309SOL    HW219827   5.919   1.748   4.498
 6310SOL     OW19828   1.457   4.708   4.762
 6310SOL    HW119829   1.437   4.703   4.664
 6310SOL    HW219830   1.484   4.618   4.795
 6311SOL     OW19831   6.153   6.918   4.913
 6311SOL    HW119832   6.233   6.915   4.854
 6311SOL    HW219833   6.091   6.991   4.882
 6312SOL     OW19834   4.639   4.789   5.969
 6312SOL    HW119835   4.661   4.886   5.970
 6312SOL    HW219836   4.637   4.756   5.874
 6313SOL     OW19837   2.955   5.003   3.459
 6313SOL    HW119838   2.902   5.041   3.534
 6313SOL    HW219839   3.021   5.071   3.427
 6314SOL     OW19840   3.157   6.234   3.703
 6314SOL    HW119841   3.161   6.180   3.619
 6314SOL    HW219842   3.238   6.215   3.759
 6315SOL     OW19843   3.092   3.518   0.697
 6315SOL    HW119844   3.036   3.437   0.717
 6315SOL    HW219845   3.165   3.493   0.633
 6316SOL     OW19846   5.411   1.621   6.134
 6316SOL    HW119847   5.374   1.588   6.047
 6316SOL    HW219848   5.509   1.641   6.124
 6317SOL     OW19849   6.255   5.872   4.191
 6317SOL    HW119850   6.234   5.785   4.146
 6317SOL    HW219851   6.317   5.926   4.133
 6318SOL     OW19852   2.579   1.778   4.689
 6318SOL    HW119853   2.653   1.795   4.754
 6318SOL    HW219854   2.533   1.693   4.713
 6319SOL     OW19855   0.774   1.704   2.825
 6319SOL    HW119856   0.809   1.640   2.894
 6319SOL    HW219857   0.783   1.663   2.735
 6320SOL     OW19858   6.897   2.802   3.532
 6320SOL    HW119859   6.903   2.894   3.572
 6320SOL    HW219860   6.988   2.772   3.503
 6321SOL     OW19861   2.197   3.709   0.429
 6321SOL    HW119862   2.277   3.721   0.488
 6321SOL    HW219863   2.210   3.629   0.371
 6322SOL     OW19864   1.175   1.071   0.039
 6322SOL    HW119865   1.243   1.004   0.010
 6322SOL    HW219866   1.174   1.148   6.994
 6323SOL     OW19867   4.123   1.724   1.041
 6323SOL    HW119868   4.066   1.651   1.004
 6323SOL    HW219869   4.202   1.684   1.087
 6324SOL     OW19870   4.118   1.295   6.509
 6324SOL    HW119871   4.025   1.275   6.541
 6324SOL    HW219872   4.116   1.371   6.444
 6325SOL     OW19873   1.503   2.464   1.810
 6325SOL    HW119874   1.461   2.489   1.723
 6325SOL    HW219875   1.602   2.454   1.798
 6326SOL     OW19876   5.022   5.892   1.347
 6326SOL    HW119877   4.973   5.973   1.317
 6326SOL    HW219878   5.002   5.875   1.444
 6327SOL     OW19879   4.818   5.358   5.962
 6327SOL    HW119880   4.889   5.293   5.934
 6327SOL    HW219881   4.773   5.394   5.880
 6328SOL     OW19882   2.993   4.046   6.451
 6328SOL    HW119883   3.089   4.063   6.427
 6328SOL    HW219884   2.935   4.072   6.374
 6329SOL     OW19885   1.237   1.582   3.438
 6329SOL    HW119886   1.228   1.594   3.339
 6329SOL    HW219887   1.326   1.617   3.468
 6330SOL     OW19888   3.131   1.827   0.567
 6330SOL    HW119889   3.151   1.923   0.582
 6330SOL    HW219890   3.174   1.772   0.638
 6331SOL     OW19891   5.915   3.410   1.664
 6331SOL    HW119892   5.988   3.472   1.694
 6331SOL    HW219893   5.947   3.315   1.674
 6332SOL     OW19894   5.678   6.184   1.985
 6332SOL    HW119895   5.736   6.266   1.985
 6332SOL    HW219896   5.582   6.210   1.975
 6333SOL     OW19897   2.447   5.082   3.374
 6333SOL    HW119898   2.543   5.105   3.354
 6333SOL    HW219899   2.394   5.087   3.289
 6334SOL     OW19900   2.483   1.439   2.658
 6334SOL    HW119901   2.519   1.532   2.652
 6334SOL    HW219902   2.384   1.441   2.643
 6335SOL     OW19903   6.547   1.303   0.372
 6335SOL    HW119904   6.498   1.228   0.416
 6335SOL    HW219905   6.646   1.285   0.376
 6336SOL     OW19906   0.608   2.643   5.222
 6336SOL    HW119907   0.655   2.731   5.227
 6336SOL    HW219908   0.534   2.641   5.289
 6337SOL     OW19909   6.556   4.690   5.294
 6337SOL    HW119910   6.457   4.679   5.301
 6337SOL    HW219911   6.597   4.605   5.261
 6338SOL     OW19912   4.292   1.276   3.458
 6338SOL    HW119913   4.258   1.254   3.550
 6338SOL    HW219914   4.281   1.196   3.399
 6339SOL     OW19915   6.946   2.051   4.551
 6339SOL    HW119916   6.919   2.039   4.456
 6339SOL    HW219917   0.025   2.069   4.556
 6340SOL     OW19918   1.804   5.129   4.358
 6340SOL    HW119919   1.708   5.150   4.375
 6340SOL    HW219920   1.812   5.035   4.325
 6341SOL     OW19921   6.657   4.245   2.816
 6341SOL    HW119922   6.666   4.305   2.895
 6341SOL    HW219923   6.743   4.197   2.800
 6342SOL     OW19924   1.672   2.579   0.687
 6342SOL    HW119925   1.728   2.632   0.752
 6342SOL    HW219926   1.638   2.641   0.616
 6343SOL     OW19927   3.654   1.330   0.017
 6343SOL    HW119928   3.681   1.420   7.002
 6343SOL    HW219929   3.727   1.264   7.018
 6344SOL     OW19930   0.705   4.131   4.235
 6344SOL    HW119931   0.682   4.165   4.143
 6344SOL    HW219932   0.747   4.041   4.228
 6345SOL     OW19933   2.980   1.986   2.362
 6345SOL    HW119934   3.012   1.941   2.279
 6345SOL    HW219935   2.938   2.074   2.339
 6346SOL     OW19936   0.762   5.134   4.000
 6346SOL    HW119937   0.851   5.102   3.967
 6346SOL    HW219938   0.693   5.064   3.982
 6347SOL     OW19939   3.772   0.525   1.672
 6347SOL    HW119940   3.814   0.444   1.631
 6347SOL    HW219941   3.716   0.497   1.750
 6348SOL     OW19942   1.534   2.670   4.223
 6348SOL    HW119943   1.493   2.579   4.224
 6348SOL    HW219944   1.520   2.712   4.133
 6349SOL     OW19945   2.341   7.006   0.424
 6349SOL    HW119946   2.374   7.008   0.330
 6349SOL    HW219947   2.312   6.913   0.448
 6350SOL     OW19948   1.235   6.291   2.217
 6350SOL    HW119949   1.188   6.376   2.194
 6350SOL    HW219950   1.304   6.271   2.148
 6351SOL     OW19951   0.392   1.431   2.861
 6351SOL    HW119952   0.297   1.443   2.890
 6351SOL    HW219953   0.399   1.352   2.801
 6352SOL     OW19954   6.906   6.005   2.182
 6352SOL    HW119955   6.973   6.034   2.113
 6352SOL    HW219956   6.825   6.064   2.177
 6353SOL     OW19957   0.152   6.915   2.316
 6353SOL    HW119958   0.209   6.842   2.352
 6353SOL    HW219959   0.056   6.897   2.338
 6354SOL     OW19960   0.709   6.696   3.544
 6354SOL    HW119961   0.655   6.769   3.585
 6354SOL    HW219962   0.648   6.634   3.494
 6355SOL     OW19963   1.912   2.626   2.853
 6355SOL    HW119964   1.863   2.703   2.895
 6355SOL    HW219965   1.923   2.643   2.755
 6356SOL     OW19966   3.256   3.538   1.089
 6356SOL    HW119967   3.162   3.530   1.123
 6356SOL    HW219968   3.306   3.454   1.109
 6357SOL     OW19969   4.621   2.096   0.298
 6357SOL    HW119970   4.657   2.189   0.308
 6357SOL    HW219971   4.608   2.076   0.201
 6358SOL     OW19972   0.578   2.288   3.991
 6358SOL    HW119973   0.478   2.286   3.983
 6358SOL    HW219974   0.604   2.339   4.073
 6359SOL     OW19975   0.214   0.953   6.582
 6359SOL    HW119976   0.234   0.855   6.578
 6359SOL    HW219977   0.138   0.968   6.646
 6360SOL     OW19978   2.961   5.959   4.149
 6360SOL    HW119979   2.978   5.871   4.194
 6360SOL    HW219980   2.863   5.979   4.152
 6361SOL     OW19981   4.080   6.198   5.937
 6361SOL    HW119982   4.105   6.143   6.016
 6361SOL    HW219983   4.130   6.167   5.857
 6362SOL     OW19984   6.133   5.139   6.487
 6362SOL    HW119985   6.143   5.187   6.574
 6362SOL    HW219986   6.184   5.188   6.416
 6363SOL     OW19987   0.887   6.004   3.699
 6363SOL    HW119988   0.809   5.952   3.664
 6363SOL    HW219989   0.970   5.948   3.693
 6364SOL     OW19990   2.161   2.728   6.048
 6364SOL    HW119991   2.219   2.701   5.970
 6364SOL    HW219992   2.220   2.761   6.122
 6365SOL     OW19993   5.162   5.781   2.499
 6365SOL    HW119994   5.117   5.849   2.442
 6365SOL    HW219995   5.176   5.819   2.591
 6366SOL     OW19996   6.845   4.815   6.117
 6366SOL    HW119997   6.812   4.828   6.211
 6366SOL    HW219998   6.896   4.730   6.111
 6367SOL     OW19999   6.061   6.397   3.007
 6367SOL    HW120000   6.135   6.439   2.955
 6367SOL    HW220001   6.099   6.348   3.085
 6368SOL     OW20002   2.728   0.561   3.975
 6368SOL    HW120003   2.741   0.470   3.935
 6368SOL    HW220004   2.639   0.564   4.022
 6369SOL     OW20005   2.296   5.267   4.624
 6369SOL    HW120006   2.377   5.219   4.659
 6369SOL    HW220007   2.220   5.255   4.688
 6370SOL     OW20008   6.368   2.936   1.821
 6370SOL    HW120009   6.297   2.873   1.852
 6370SOL    HW220010   6.388   3.002   1.894
 6371SOL     OW20011   5.122   2.182   3.044
 6371SOL    HW120012   5.032   2.207   3.007
 6371SOL    HW220013   5.171   2.265   3.070
 6372SOL     OW20014   2.758   6.464   2.495
 6372SOL    HW120015   2.760   6.368   2.465
 6372SOL    HW220016   2.847   6.505   2.481
 6373SOL     OW20017   3.627   4.547   0.352
 6373SOL    HW120018   3.567   4.487   0.299
 6373SOL    HW220019   3.702   4.493   0.391
 6374SOL     OW20020   3.326   2.912   2.620
 6374SOL    HW120021   3.229   2.900   2.596
 6374SOL    HW220022   3.383   2.883   2.544
 6375SOL     OW20023   2.058   6.268   2.608
 6375SOL    HW120024   1.994   6.343   2.624
 6375SOL    HW220025   2.055   6.241   2.512
 6376SOL     OW20026   0.662   2.699   5.852
 6376SOL    HW120027   0.760   2.713   5.835
 6376SOL    HW220028   0.636   2.606   5.823
 6377SOL     OW20029   0.765   0.672   4.363
 6377SOL    HW120030   0.696   0.700   4.296
 6377SOL    HW220031   0.834   0.615   4.317
 6378SOL     OW20032   4.810   4.462   3.598
 6378SOL    HW120033   4.731   4.503   3.645
 6378SOL    HW220034   4.796   4.363   3.590
 6379SOL     OW20035   2.318   4.443   3.259
 6379SOL    HW120036   2.386   4.470   3.328
 6379SOL    HW220037   2.365   4.420   3.174
 6380SOL     OW20038   0.801   0.448   5.780
 6380SOL    HW120039   0.823   0.405   5.693
 6380SOL    HW220040   0.830   0.388   5.855
 6381SOL     OW20041   2.919   3.794   2.396
 6381SOL    HW120042   2.977   3.859   2.348
 6381SOL    HW220043   2.888   3.723   2.333
 6382SOL     OW20044   1.212   3.899   5.099
 6382SOL    HW120045   1.129   3.924   5.051
 6382SOL    HW220046   1.274   3.977   5.103
 6383SOL     OW20047   4.004   1.412   3.980
 6383SOL    HW120048   4.094   1.456   3.982
 6383SOL    HW220049   3.985   1.380   3.887
 6384SOL     OW20050   6.334   4.413   3.296
 6384SOL    HW120051   6.286   4.443   3.214
 6384SOL    HW220052   6.276   4.349   3.347
 6385SOL     OW20053   0.690   6.142   4.994
 6385SOL    HW120054   0.680   6.056   4.943
 6385SOL    HW220055   0.787   6.158   5.013
 6386SOL     OW20056   3.099   5.388   1.801
 6386SOL    HW120057   3.105   5.428   1.709
 6386SOL    HW220058   3.191   5.369   1.835
 6387SOL     OW20059   6.284   1.339   5.036
 6387SOL    HW120060   6.198   1.340   5.087
 6387SOL    HW220061   6.264   1.356   4.939
 6388SOL     OW20062   2.539   4.563   2.733
 6388SOL    HW120063   2.635   4.591   2.739
 6388SOL    HW220064   2.518   4.501   2.809
 6389SOL     OW20065   0.980   4.784   2.600
 6389SOL    HW120066   0.907   4.795   2.532
 6389SOL    HW220067   0.949   4.820   2.688
 6390SOL     OW20068   0.570   3.617   4.091
 6390SOL    HW120069   0.604   3.707   4.065
 6390SOL    HW220070   0.477   3.626   4.128
 6391SOL     OW20071   3.305   1.325   0.025
 6391SOL    HW120072   3.371   1.263   7.000
 6391SOL    HW220073   3.227   1.339   6.983
 6392SOL     OW20074   1.517   6.276   3.872
 6392SOL    HW120075   1.554   6.333   3.798
 6392SOL    HW220076   1.527   6.179   3.847
 6393SOL     OW20077   5.444   0.689   0.572
 6393SOL    HW120078   5.441   0.687   0.472
 6393SOL    HW220079   5.498   0.611   0.605
 6394SOL     OW20080   3.340   4.550   1.349
 6394SOL    HW120081   3.340   4.601   1.435
 6394SOL    HW220082   3.267   4.481   1.351
 6395SOL     OW20083   5.855   1.647   1.040
 6395SOL    HW120084   5.815   1.560   1.012
 6395SOL    HW220085   5.901   1.688   0.962
 6396SOL     OW20086   5.876   4.007   5.465
 6396SOL    HW120087   5.823   4.054   5.535
 6396SOL    HW220088   5.905   3.918   5.499
 6397SOL     OW20089   0.073   0.639   0.943
 6397SOL    HW120090   0.152   0.594   0.984
 6397SOL    HW220091   0.079   0.632   0.843
 6398SOL     OW20092   3.925   1.510   1.456
 6398SOL    HW120093   3.950   1.440   1.389
 6398SOL    HW220094   3.902   1.466   1.543
 6399SOL     OW20095   2.560   5.462   0.300
 6399SOL    HW120096   2.480   5.521   0.296
 6399SOL    HW220097   2.642   5.517   0.310
 6400SOL     OW20098   2.737   5.631   4.188
 6400SOL    HW120099   2.773   5.589   4.270
 6400SOL    HW220100   2.704   5.723   4.209
 6401SOL     OW20101   0.664   4.653   3.832
 6401SOL    HW120102   0.738   4.706   3.791
 6401SOL    HW220103   0.625   4.593   3.762
 6402SOL     OW20104   1.633   1.974   3.187
 6402SOL    HW120105   1.550   1.980   3.243
 6402SOL    HW220106   1.608   1.948   3.094
 6403SOL     OW20107   0.341   5.957   1.238
 6403SOL    HW120108   0.301   5.983   1.151
 6403SOL    HW220109   0.302   5.870   1.268
 6404SOL     OW20110   4.929   0.520   3.135
 6404SOL    HW120111   5.003   0.554   3.192
 6404SOL    HW220112   4.843   0.525   3.186
 6405SOL     OW20113   2.841   1.374   1.857
 6405SOL    HW120114   2.855   1.341   1.950
 6405SOL    HW220115   2.885   1.463   1.846
 6406SOL     OW20116   2.518   1.867   3.716
 6406SOL    HW120117   2.525   1.846   3.618
 6406SOL    HW220118   2.547   1.788   3.769
 6407SOL     OW20119   4.133   5.090   6.379
 6407SOL    HW120120   4.085   5.116   6.296
 6407SOL    HW220121   4.185   5.168   6.413
 6408SOL     OW20122   6.327   2.068   0.266
 6408SOL    HW120123   6.259   2.008   0.308
 6408SOL    HW220124   6.297   2.093   0.174
 6409SOL     OW20125   0.845   4.655   2.344
 6409SOL    HW120126   0.839   4.557   2.327
 6409SOL    HW220127   0.935   4.689   2.316
 6410SOL     OW20128   1.066   1.564   1.738
 6410SOL    HW120129   1.068   1.465   1.751
 6410SOL    HW220130   1.097   1.609   1.822
 6411SOL     OW20131   1.987   0.513   3.636
 6411SOL    HW120132   2.040   0.512   3.551
 6411SOL    HW220133   1.996   0.602   3.680
 6412SOL     OW20134   0.203   1.779   4.779
 6412SOL    HW120135   0.137   1.817   4.714
 6412SOL    HW220136   0.272   1.728   4.729
 6413SOL     OW20137   0.035   4.472   0.770
 6413SOL    HW120138   0.064   4.391   0.820
 6413SOL    HW220139   0.043   4.456   0.671
 6414SOL     OW20140   6.235   6.781   2.444
 6414SOL    HW120141   6.158   6.799   2.383
 6414SOL    HW220142   6.214   6.702   2.501
 6415SOL     OW20143   1.583   1.604   2.243
 6415SOL    HW120144   1.493   1.577   2.207
 6415SOL    HW220145   1.654   1.577   2.178
 6416SOL     OW20146   1.999   6.936   6.666
 6416SOL    HW120147   1.993   6.990   6.582
 6416SOL    HW220148   2.093   6.903   6.677
 6417SOL     OW20149   1.026   6.855   3.304
 6417SOL    HW120150   0.961   6.870   3.230
 6417SOL    HW220151   1.028   6.934   3.364
 6418SOL     OW20152   6.433   5.873   2.376
 6418SOL    HW120153   6.410   5.904   2.284
 6418SOL    HW220154   6.466   5.779   2.373
 6419SOL     OW20155   2.997   5.065   1.320
 6419SOL    HW120156   2.957   4.973   1.322
 6419SOL    HW220157   2.998   5.103   1.412
 6420SOL     OW20158   0.591   3.382   6.489
 6420SOL    HW120159   0.511   3.433   6.521
 6420SOL    HW220160   0.671   3.408   6.542
 6421SOL     OW20161   5.615   1.906   0.902
 6421SOL    HW120162   5.539   1.888   0.963
 6421SOL    HW220163   5.676   1.974   0.943
 6422SOL     OW20164   6.139   1.788   3.517
 6422SOL    HW120165   6.169   1.698   3.485
 6422SOL    HW220166   6.086   1.833   3.445
 6423SOL     OW20167   4.908   4.201   0.672
 6423SOL    HW120168   4.879   4.140   0.746
 6423SOL    HW220169   4.829   4.224   0.614
 6424SOL     OW20170   6.653   5.458   5.042
 6424SOL    HW120171   6.705   5.529   4.994
 6424SOL    HW220172   6.556   5.465   5.016
 6425SOL     OW20173   0.108   5.143   1.599
 6425SOL    HW120174   0.042   5.218   1.590
 6425SOL    HW220175   0.155   5.130   1.511
 6426SOL     OW20176   6.595   3.014   3.508
 6426SOL    HW120177   6.563   2.923   3.535
 6426SOL    HW220178   6.670   3.005   3.443
 6427SOL     OW20179   1.210   3.301   5.612
 6427SOL    HW120180   1.261   3.386   5.628
 6427SOL    HW220181   1.249   3.228   5.669
 6428SOL     OW20182   6.299   2.716   2.662
 6428SOL    HW120183   6.235   2.726   2.586
 6428SOL    HW220184   6.275   2.636   2.716
 6429SOL     OW20185   0.987   0.513   4.537
 6429SOL    HW120186   1.029   0.579   4.599
 6429SOL    HW220187   0.921   0.457   4.587
 6430SOL     OW20188   6.016   3.735   0.573
 6430SOL    HW120189   5.923   3.765   0.592
 6430SOL    HW220190   6.064   3.717   0.658
 6431SOL     OW20191   5.380   0.525   3.060
 6431SOL    HW120192   5.457   0.477   3.017
 6431SOL    HW220193   5.359   0.608   3.008
 6432SOL     OW20194   5.899   3.387   0.131
 6432SOL    HW120195   5.801   3.366   0.134
 6432SOL    HW220196   5.916   3.471   0.181
 6433SOL     OW20197   2.609   3.877   1.694
 6433SOL    HW120198   2.577   3.963   1.734
 6433SOL    HW220199   2.560   3.801   1.735
 6434SOL     OW20200   1.723   5.195   0.421
 6434SOL    HW120201   1.708   5.213   0.324
 6434SOL    HW220202   1.781   5.114   0.431
 6435SOL     OW20203   4.703   4.017   0.488
 6435SOL    HW120204   4.730   3.946   0.553
 6435SOL    HW220205   4.717   3.984   0.394
 6436SOL     OW20206   1.531   3.075   2.423
 6436SOL    HW120207   1.541   2.977   2.438
 6436SOL    HW220208   1.467   3.113   2.490
 6437SOL     OW20209   0.882   0.872   0.059
 6437SOL    HW120210   0.891   0.806   0.134
 6437SOL    HW220211   0.799   0.926   0.073
 6438SOL     OW20212   1.257   3.178   3.004
 6438SOL    HW120213   1.164   3.149   2.980
 6438SOL    HW220214   1.257   3.277   3.021
 6439SOL     OW20215   0.149   0.417   2.163
 6439SOL    HW120216   0.228   0.361   2.138
 6439SOL    HW220217   0.068   0.358   2.170
 6440SOL     OW20218   0.842   1.145   2.522
 6440SOL    HW120219   0.761   1.203   2.530
 6440SOL    HW220220   0.845   1.106   2.430
 6441SOL     OW20221   3.626   1.377   3.432
 6441SOL    HW120222   3.654   1.405   3.523
 6441SOL    HW220223   3.654   1.446   3.365
 6442SOL     OW20224   3.392   0.718   3.440
 6442SOL    HW120225   3.423   0.627   3.413
 6442SOL    HW220226   3.297   0.713   3.470
 6443SOL     OW20227   2.698   1.445   0.410
 6443SOL    HW120228   2.766   1.499   0.461
 6443SOL    HW220229   2.744   1.371   0.361
 6444SOL     OW20230   0.746   0.933   3.619
 6444SOL    HW120231   0.682   1.009   3.613
 6444SOL    HW220232   0.766   0.914   3.715
 6445SOL     OW20233   4.146   3.125   5.252
 6445SOL    HW120234   4.223   3.124   5.315
 6445SOL    HW220235   4.066   3.084   5.297
 6446SOL     OW20236   6.230   1.709   0.668
 6446SOL    HW120237   6.283   1.741   0.589
 6446SOL    HW220238   6.137   1.687   0.640
 6447SOL     OW20239   1.644   0.760   2.934
 6447SOL    HW120240   1.722   0.793   2.880
 6447SOL    HW220241   1.592   0.694   2.880
 6448SOL     OW20242   6.125   2.349   2.531
 6448SOL    HW120243   6.030   2.348   2.562
 6448SOL    HW220244   6.129   2.378   2.436
 6449SOL     OW20245   3.435   3.307   1.034
 6449SOL    HW120246   3.386   3.266   0.958
 6449SOL    HW220247   3.425   3.249   1.116
 6450SOL     OW20248   6.836   3.760   0.285
 6450SOL    HW120249   6.844   3.661   0.301
 6450SOL    HW220250   6.753   3.778   0.232
 6451SOL     OW20251   2.165   6.688   4.143
 6451SOL    HW120252   2.129   6.596   4.133
 6451SOL    HW220253   2.251   6.696   4.093
 6452SOL     OW20254   4.404   6.472   3.159
 6452SOL    HW120255   4.333   6.534   3.189
 6452SOL    HW220256   4.449   6.509   3.078
 6453SOL     OW20257   2.006   4.572   6.341
 6453SOL    HW120258   2.041   4.653   6.390
 6453SOL    HW220259   2.070   4.496   6.354
 6454SOL     OW20260   3.420   1.603   4.670
 6454SOL    HW120261   3.467   1.545   4.737
 6454SOL    HW220262   3.328   1.566   4.653
 6455SOL     OW20263   6.737   3.044   5.373
 6455SOL    HW120264   6.657   2.991   5.402
 6455SOL    HW220265   6.765   3.015   5.281
 6456SOL     OW20266   6.786   0.958   4.281
 6456SOL    HW120267   6.770   0.892   4.208
 6456SOL    HW220268   6.884   0.975   4.290
 6457SOL     OW20269   6.578   3.326   1.933
 6457SOL    HW120270   6.589   3.257   1.862
 6457SOL    HW220271   6.667   3.364   1.958
 6458SOL     OW20272   1.344   5.621   2.377
 6458SOL    HW120273   1.430   5.667   2.399
 6458SOL    HW220274   1.305   5.581   2.460
 6459SOL     OW20275   4.875   4.870   0.722
 6459SOL    HW120276   4.874   4.812   0.804
 6459SOL    HW220277   4.790   4.924   0.719
 6460SOL     OW20278   3.509   5.047   6.664
 6460SOL    HW120279   3.483   4.952   6.679
 6460SOL    HW220280   3.549   5.085   6.748
 6461SOL     OW20281   3.527   5.564   4.690
 6461SOL    HW120282   3.611   5.547   4.741
 6461SOL    HW220283   3.521   5.661   4.667
 6462SOL     OW20284   2.062   3.147   3.943
 6462SOL    HW120285   2.103   3.060   3.915
 6462SOL    HW220286   2.072   3.158   4.041
 6463SOL     OW20287   1.474   4.307   5.236
 6463SOL    HW120288   1.458   4.251   5.154
 6463SOL    HW220289   1.564   4.349   5.230
 6464SOL     OW20290   0.930   5.410   2.476
 6464SOL    HW120291   0.952   5.350   2.552
 6464SOL    HW220292   0.996   5.485   2.472
 6465SOL     OW20293   6.208   0.671   2.638
 6465SOL    HW120294   6.256   0.758   2.630
 6465SOL    HW220295   6.207   0.624   2.550
 6466SOL     OW20296   0.816   2.364   5.334
 6466SOL    HW120297   0.826   2.429   5.259
 6466SOL    HW220298   0.898   2.366   5.392
 6467SOL     OW20299   2.477   0.934   6.527
 6467SOL    HW120300   2.472   0.872   6.449
 6467SOL    HW220301   2.389   0.979   6.540
 6468SOL     OW20302   4.854   4.599   1.105
 6468SOL    HW120303   4.926   4.667   1.107
 6468SOL    HW220304   4.831   4.577   1.011
 6469SOL     OW20305   0.087   1.387   5.373
 6469SOL    HW120306   0.064   1.390   5.276
 6469SOL    HW220307   0.063   1.474   5.416
 6470SOL     OW20308   6.792   6.088   5.602
 6470SOL    HW120309   6.763   6.011   5.544
 6470SOL    HW220310   6.713   6.147   5.619
 6471SOL     OW20311   5.349   5.193   5.957
 6471SOL    HW120312   5.368   5.259   6.029
 6471SOL    HW220313   5.433   5.172   5.908
 6472SOL     OW20314   1.056   5.714   0.926
 6472SOL    HW120315   1.150   5.717   0.893
 6472SOL    HW220316   0.999   5.774   0.870
 6473SOL     OW20317   2.481   1.438   5.539
 6473SOL    HW120318   2.481   1.537   5.554
 6473SOL    HW220319   2.506   1.392   5.625
 6474SOL     OW20320   2.220   3.248   5.446
 6474SOL    HW120321   2.197   3.151   5.456
 6474SOL    HW220322   2.139   3.304   5.463
 6475SOL     OW20323   4.332   6.353   3.948
 6475SOL    HW120324   4.431   6.349   3.957
 6475SOL    HW220325   4.306   6.432   3.892
 6476SOL     OW20326   4.646   5.205   3.023
 6476SOL    HW120327   4.624   5.266   3.099
 6476SOL    HW220328   4.563   5.187   2.970
 6477SOL     OW20329   0.206   5.827   6.607
 6477SOL    HW120330   0.235   5.905   6.552
 6477SOL    HW220331   0.286   5.778   6.641
 6478SOL     OW20332   5.057   6.696   0.614
 6478SOL    HW120333   5.125   6.753   0.661
 6478SOL    HW220334   4.992   6.660   0.681
 6479SOL     OW20335   3.942   5.740   2.666
 6479SOL    HW120336   4.010   5.671   2.642
 6479SOL    HW220337   3.988   5.826   2.687
 6480SOL     OW20338   3.234   2.051   0.123
 6480SOL    HW120339   3.143   2.016   0.102
 6480SOL    HW220340   3.289   1.978   0.165
 6481SOL     OW20341   4.731   0.851   1.118
 6481SOL    HW120342   4.776   0.931   1.156
 6481SOL    HW220343   4.658   0.879   1.057
 6482SOL     OW20344   0.271   0.905   6.939
 6482SOL    HW120345   0.350   0.844   6.942
 6482SOL    HW220346   0.266   0.957   0.005
 6483SOL     OW20347   2.019   6.173   2.354
 6483SOL    HW120348   2.097   6.177   2.291
 6483SOL    HW220349   1.973   6.084   2.344
 6484SOL     OW20350   5.627   6.270   3.399
 6484SOL    HW120351   5.715   6.282   3.445
 6484SOL    HW220352   5.625   6.326   3.316
 6485SOL     OW20353   0.929   2.436   2.798
 6485SOL    HW120354   1.016   2.475   2.767
 6485SOL    HW220355   0.853   2.487   2.756
 6486SOL     OW20356   1.769   2.715   3.150
 6486SOL    HW120357   1.732   2.760   3.069
 6486SOL    HW220358   1.706   2.726   3.227
 6487SOL     OW20359   5.997   6.040   3.649
 6487SOL    HW120360   5.966   6.124   3.603
 6487SOL    HW220361   6.019   6.060   3.744
 6488SOL     OW20362   3.504   5.415   6.123
 6488SOL    HW120363   3.513   5.387   6.218
 6488SOL    HW220364   3.501   5.333   6.065
 6489SOL     OW20365   1.846   1.970   5.659
 6489SOL    HW120366   1.882   1.916   5.735
 6489SOL    HW220367   1.917   2.030   5.623
 6490SOL     OW20368   3.326   1.392   0.298
 6490SOL    HW120369   3.334   1.393   0.198
 6490SOL    HW220370   3.318   1.297   0.329
 6491SOL     OW20371   3.425   1.571   6.197
 6491SOL    HW120372   3.391   1.536   6.109
 6491SOL    HW220373   3.348   1.607   6.250
 6492SOL     OW20374   6.050   5.560   0.220
 6492SOL    HW120375   6.150   5.563   0.215
 6492SOL    HW220376   6.013   5.649   0.196
 6493SOL     OW20377   0.994   6.392   6.133
 6493SOL    HW120378   1.071   6.386   6.070
 6493SOL    HW220379   0.909   6.370   6.084
 6494SOL     OW20380   1.690   6.886   3.675
 6494SOL    HW120381   1.678   6.983   3.696
 6494SOL    HW220382   1.613   6.834   3.714
 6495SOL     OW20383   5.365   4.837   2.753
 6495SOL    HW120384   5.313   4.774   2.696
 6495SOL    HW220385   5.462   4.832   2.729
 6496SOL     OW20386   2.397   6.474   2.993
 6496SOL    HW120387   2.313   6.513   2.957
 6496SOL    HW220388   2.476   6.523   2.955
 6497SOL     OW20389   0.588   4.614   6.791
 6497SOL    HW120390   0.499   4.657   6.805
 6497SOL    HW220391   0.587   4.521   6.828
 6498SOL     OW20392   1.450   4.640   3.915
 6498SOL    HW120393   1.493   4.643   4.005
 6498SOL    HW220394   1.351   4.639   3.925
 6499SOL     OW20395   6.043   1.662   3.863
 6499SOL    HW120396   5.997   1.573   3.872
 6499SOL    HW220397   5.986   1.724   3.810
 6500SOL     OW20398   5.458   4.597   3.716
 6500SOL    HW120399   5.419   4.687   3.733
 6500SOL    HW220400   5.385   4.531   3.701
 6501SOL     OW20401   6.964   3.810   0.977
 6501SOL    HW120402   6.939   3.760   1.060
 6501SOL    HW220403   6.881   3.832   0.926
 6502SOL     OW20404   1.625   4.940   2.341
 6502SOL    HW120405   1.657   5.032   2.315
 6502SOL    HW220406   1.542   4.918   2.290
 6503SOL     OW20407   4.381   0.233   4.683
 6503SOL    HW120408   4.309   0.272   4.625
 6503SOL    HW220409   4.421   0.154   4.638
 6504SOL     OW20410   2.479   0.968   0.840
 6504SOL    HW120411   2.550   1.038   0.845
 6504SOL    HW220412   2.396   1.000   0.886
 6505SOL     OW20413   5.703   5.256   0.938
 6505SOL    HW120414   5.766   5.179   0.922
 6505SOL    HW220415   5.625   5.225   0.991
 6506SOL     OW20416   1.969   2.440   0.673
 6506SOL    HW120417   1.891   2.399   0.627
 6506SOL    HW220418   1.993   2.526   0.628
 6507SOL     OW20419   2.846   0.782   2.119
 6507SOL    HW120420   2.799   0.865   2.090
 6507SOL    HW220421   2.866   0.724   2.040
 6508SOL     OW20422   1.921   1.641   2.785
 6508SOL    HW120423   1.948   1.558   2.834
 6508SOL    HW220424   1.883   1.707   2.850
 6509SOL     OW20425   0.665   2.247   4.855
 6509SOL    HW120426   0.705   2.330   4.815
 6509SOL    HW220427   0.726   2.170   4.837
 6510SOL     OW20428   5.444   4.902   6.168
 6510SOL    HW120429   5.483   4.857   6.088
 6510SOL    HW220430   5.486   4.864   6.251
 6511SOL     OW20431   6.346   6.173   5.498
 6511SOL    HW120432   6.387   6.210   5.582
 6511SOL    HW220433   6.308   6.082   5.517
 6512SOL     OW20434   5.115   6.506   3.483
 6512SOL    HW120435   5.087   6.602   3.487
 6512SOL    HW220436   5.214   6.501   3.466
 6513SOL     OW20437   3.118   0.175   2.727
 6513SOL    HW120438   3.139   0.083   2.695
 6513SOL    HW220439   3.031   0.205   2.689
 6514SOL     OW20440   3.569   6.874   3.247
 6514SOL    HW120441   3.554   6.855   3.150
 6514SOL    HW220442   3.498   6.937   3.280
 6515SOL     OW20443   1.490   0.840   4.803
 6515SOL    HW120444   1.400   0.881   4.820
 6515SOL    HW220445   1.533   0.886   4.726
 6516SOL     OW20446   1.341   1.299   5.821
 6516SOL    HW120447   1.332   1.382   5.766
 6516SOL    HW220448   1.282   1.228   5.784
 6517SOL     OW20449   1.267   2.221   6.755
 6517SOL    HW120450   1.278   2.195   6.659
 6517SOL    HW220451   1.170   2.226   6.777
 6518SOL     OW20452   6.040   5.934   0.912
 6518SOL    HW120453   6.074   5.848   0.873
 6518SOL    HW220454   6.049   5.932   1.011
 6519SOL     OW20455   2.114   2.087   3.541
 6519SOL    HW120456   2.151   2.175   3.569
 6519SOL    HW220457   2.063   2.097   3.456
 6520SOL     OW20458   5.272   5.179   1.769
 6520SOL    HW120459   5.268   5.274   1.738
 6520SOL    HW220460   5.251   5.174   1.866
 6521SOL     OW20461   0.947   1.944   5.708
 6521SOL    HW120462   0.964   1.846   5.714
 6521SOL    HW220463   1.018   1.986   5.651
 6522SOL     OW20464   2.260   5.317   5.310
 6522SOL    HW120465   2.297   5.375   5.382
 6522SOL    HW220466   2.305   5.339   5.223
 6523SOL     OW20467   1.291   2.154   6.501
 6523SOL    HW120468   1.274   2.249   6.477
 6523SOL    HW220469   1.324   2.104   6.421
 6524SOL     OW20470   3.546   3.745   4.052
 6524SOL    HW120471   3.520   3.699   3.967
 6524SOL    HW220472   3.466   3.791   4.091
 6525SOL     OW20473   0.345   2.638   4.534
 6525SOL    HW120474   0.268   2.702   4.540
 6525SOL    HW220475   0.315   2.548   4.564
 6526SOL     OW20476   2.039   6.025   4.618
 6526SOL    HW120477   1.999   6.041   4.528
 6526SOL    HW220478   2.092   6.106   4.646
 6527SOL     OW20479   2.175   1.419   4.540
 6527SOL    HW120480   2.161   1.327   4.502
 6527SOL    HW220481   2.273   1.434   4.555
 6528SOL     OW20482   6.631   0.024   3.492
 6528SOL    HW120483   6.643   0.098   3.559
 6528SOL    HW220484   6.576   0.056   3.415
 6529SOL     OW20485   6.593   2.480   1.534
 6529SOL    HW120486   6.664   2.500   1.601
 6529SOL    HW220487   6.517   2.433   1.578
 6530SOL     OW20488   0.092   2.083   0.716
 6530SOL    HW120489   0.174   2.114   0.669
 6530SOL    HW220490   0.030   2.040   0.651
 6531SOL     OW20491   4.988   2.899   4.148
 6531SOL    HW120492   5.074   2.930   4.108
 6531SOL    HW220493   4.957   2.967   4.215
 6532SOL     OW20494   0.648   1.866   6.474
 6532SOL    HW120495   0.624   1.927   6.398
 6532SOL    HW220496   0.689   1.920   6.547
 6533SOL     OW20497   4.995   1.213   0.926
 6533SOL    HW120498   5.006   1.223   0.827
 6533SOL    HW220499   4.912   1.260   0.956
 6534SOL     OW20500   1.720   3.638   0.798
 6534SOL    HW120501   1.657   3.658   0.873
 6534SOL    HW220502   1.667   3.616   0.716
 6535SOL     OW20503   1.990   3.397   5.527
 6535SOL    HW120504   2.054   3.454   5.579
 6535SOL    HW220505   1.967   3.442   5.441
 6536SOL     OW20506   6.972   2.312   7.006
 6536SOL    HW120507   6.881   2.333   0.023
 6536SOL    HW220508   6.998   2.219   0.014
 6537SOL     OW20509   0.259   6.907   6.925
 6537SOL    HW120510   0.264   6.984   6.988
 6537SOL    HW220511   0.271   6.822   6.976
 6538SOL     OW20512   1.961   3.233   5.775
 6538SOL    HW120513   1.892   3.303   5.797
 6538SOL    HW220514   1.985   3.240   5.678
 6539SOL     OW20515   2.217   1.511   6.869
 6539SOL    HW120516   2.267   1.509   6.782
 6539SOL    HW220517   2.236   1.597   6.916
 6540SOL     OW20518   3.600   1.151   4.029
 6540SOL    HW120519   3.573   1.140   3.933
 6540SOL    HW220520   3.597   1.249   4.052
 6541SOL     OW20521   2.558   2.671   5.443
 6541SOL    HW120522   2.649   2.709   5.460
 6541SOL    HW220523   2.512   2.654   5.530
 6542SOL     OW20524   5.742   4.380   3.441
 6542SOL    HW120525   5.828   4.389   3.491
 6542SOL    HW220526   5.693   4.467   3.443
 6543SOL     OW20527   0.048   5.643   6.828
 6543SOL    HW120528   0.047   5.696   6.913
 6543SOL    HW220529   0.093   5.696   6.756
 6544SOL     OW20530   6.136   6.111   4.279
 6544SOL    HW120531   6.084   6.108   4.365
 6544SOL    HW220532   6.181   6.023   4.264
 6545SOL     OW20533   5.521   2.464   5.559
 6545SOL    HW120534   5.467   2.506   5.487
 6545SOL    HW220535   5.598   2.524   5.582
 6546SOL     OW20536   3.190   4.383   6.034
 6546SOL    HW120537   3.104   4.368   5.985
 6546SOL    HW220538   3.170   4.413   6.127
 6547SOL     OW20539   4.732   1.807   6.651
 6547SOL    HW120540   4.641   1.844   6.669
 6547SOL    HW220541   4.726   1.707   6.643
 6548SOL     OW20542   6.211   4.964   5.292
 6548SOL    HW120543   6.147   4.961   5.216
 6548SOL    HW220544   6.172   5.019   5.366
 6549SOL     OW20545   3.344   1.432   1.314
 6549SOL    HW120546   3.414   1.372   1.275
 6549SOL    HW220547   3.376   1.466   1.403
 6550SOL     OW20548   0.446   5.378   3.438
 6550SOL    HW120549   0.475   5.294   3.392
 6550SOL    HW220550   0.424   5.447   3.369
 6551SOL     OW20551   2.223   5.129   2.278
 6551SOL    HW120552   2.313   5.099   2.244
 6551SOL    HW220553   2.218   5.229   2.274
 6552SOL     OW20554   4.222   4.667   6.270
 6552SOL    HW120555   4.233   4.599   6.197
 6552SOL    HW220556   4.279   4.747   6.251
 6553SOL     OW20557   0.113   2.772   2.735
 6553SOL    HW120558   0.196   2.769   2.679
 6553SOL    HW220559   0.127   2.831   2.814
 6554SOL     OW20560   0.425   3.063   5.134
 6554SOL    HW120561   0.354   3.114   5.183
 6554SOL    HW220562   0.514   3.103   5.155
 6555SOL     OW20563   0.639   1.275   2.312
 6555SOL    HW120564   0.582   1.294   2.233
 6555SOL    HW220565   0.699   1.197   2.291
 6556SOL     OW20566   3.674   0.230   4.544
 6556SOL    HW120567   3.618   0.166   4.597
 6556SOL    HW220568   3.720   0.181   4.470
 6557SOL     OW20569   6.359   6.255   0.922
 6557SOL    HW120570   6.283   6.256   0.988
 6557SOL    HW220571   6.437   6.207   0.962
 6558SOL     OW20572   6.263   5.502   6.677
 6558SOL    HW120573   6.236   5.407   6.692
 6558SOL    HW220574   6.328   5.531   6.747
 6559SOL     OW20575   3.263   3.255   0.806
 6559SOL    HW120576   3.266   3.164   0.765
 6559SOL    HW220577   3.267   3.325   0.734
 6560SOL     OW20578   4.040   2.108   0.437
 6560SOL    HW120579   3.942   2.098   0.421
 6560SOL    HW220580   4.079   2.019   0.460
 6561SOL     OW20581   3.866   4.066   4.559
 6561SOL    HW120582   3.824   3.986   4.515
 6561SOL    HW220583   3.862   4.144   4.496
 6562SOL     OW20584   5.824   3.584   5.528
 6562SOL    HW120585   5.788   3.629   5.446
 6562SOL    HW220586   5.761   3.511   5.555
 6563SOL     OW20587   1.913   4.804   2.423
 6563SOL    HW120588   1.872   4.765   2.506
 6563SOL    HW220589   1.889   4.901   2.417
 6564SOL     OW20590   1.509   5.803   2.733
 6564SOL    HW120591   1.518   5.813   2.633
 6564SOL    HW220592   1.601   5.799   2.774
 6565SOL     OW20593   5.953   3.300   5.082
 6565SOL    HW120594   5.884   3.286   5.154
 6565SOL    HW220595   5.943   3.392   5.044
 6566SOL     OW20596   3.878   6.820   0.835
 6566SOL    HW120597   3.849   6.732   0.797
 6566SOL    HW220598   3.827   6.839   0.919
 6567SOL     OW20599   5.820   2.981   1.433
 6567SOL    HW120600   5.904   3.018   1.474
 6567SOL    HW220601   5.844   2.916   1.360
 6568SOL     OW20602   4.122   4.490   1.647
 6568SOL    HW120603   4.042   4.453   1.601
 6568SOL    HW220604   4.184   4.416   1.671
 6569SOL     OW20605   0.610   4.360   6.290
 6569SOL    HW120606   0.637   4.265   6.306
 6569SOL    HW220607   0.620   4.411   6.376
 6570SOL     OW20608   6.072   2.849   0.877
 6570SOL    HW120609   6.141   2.804   0.934
 6570SOL    HW220610   5.984   2.804   0.890
 6571SOL     OW20611   2.756   6.104   3.695
 6571SOL    HW120612   2.800   6.032   3.640
 6571SOL    HW220613   2.826   6.161   3.737
 6572SOL     OW20614   0.821   3.417   6.628
 6572SOL    HW120615   0.896   3.377   6.575
 6572SOL    HW220616   0.845   3.416   6.725
 6573SOL     OW20617   2.010   1.855   2.512
 6573SOL    HW120618   1.944   1.919   2.551
 6573SOL    HW220619   1.968   1.764   2.504
 6574SOL     OW20620   2.475   4.516   3.032
 6574SOL    HW120621   2.434   4.588   2.977
 6574SOL    HW220622   2.563   4.547   3.068
 6575SOL     OW20623   1.181   0.989   2.963
 6575SOL    HW120624   1.230   0.997   2.876
 6575SOL    HW220625   1.131   0.902   2.964
 6576SOL     OW20626   1.151   6.297   5.266
 6576SOL    HW120627   1.207   6.291   5.349
 6576SOL    HW220628   1.062   6.336   5.289
 6577SOL     OW20629   6.333   2.283   4.459
 6577SOL    HW120630   6.388   2.333   4.527
 6577SOL    HW220631   6.310   2.193   4.494
 6578SOL     OW20632   6.699   5.410   3.094
 6578SOL    HW120633   6.635   5.347   3.138
 6578SOL    HW220634   6.765   5.358   3.039
 6579SOL     OW20635   0.700   3.620   2.443
 6579SOL    HW120636   0.653   3.581   2.364
 6579SOL    HW220637   0.788   3.656   2.415
 6580SOL     OW20638   6.316   2.490   1.371
 6580SOL    HW120639   6.310   2.540   1.457
 6580SOL    HW220640   6.357   2.400   1.386
 6581SOL     OW20641   2.644   2.171   5.558
 6581SOL    HW120642   2.619   2.105   5.629
 6581SOL    HW220643   2.677   2.123   5.477
 6582SOL     OW20644   0.166   0.144   3.068
 6582SOL    HW120645   0.123   0.231   3.042
 6582SOL    HW220646   0.232   0.118   2.998
 6583SOL     OW20647   5.558   1.616   5.307
 6583SOL    HW120648   5.648   1.582   5.335
 6583SOL    HW220649   5.526   1.564   5.227
 6584SOL     OW20650   5.452   1.630   6.543
 6584SOL    HW120651   5.364   1.676   6.542
 6584SOL    HW220652   5.445   1.542   6.497
 6585SOL     OW20653   2.136   1.150   0.485
 6585SOL    HW120654   2.184   1.066   0.507
 6585SOL    HW220655   2.040   1.130   0.467
 6586SOL     OW20656   7.018   2.356   6.751
 6586SOL    HW120657   6.987   2.439   6.704
 6586SOL    HW220658   7.001   2.366   6.849
 6587SOL     OW20659   2.296   6.856   2.269
 6587SOL    HW120660   2.211   6.852   2.218
 6587SOL    HW220661   2.290   6.798   2.350
 6588SOL     OW20662   2.217   2.752   6.763
 6588SOL    HW120663   2.271   2.714   6.688
 6588SOL    HW220664   2.274   2.755   6.846
 6589SOL     OW20665   4.946   1.685   5.478
 6589SOL    HW120666   4.854   1.705   5.512
 6589SOL    HW220667   4.940   1.629   5.396
 6590SOL     OW20668   6.518   1.231   5.125
 6590SOL    HW120669   6.588   1.246   5.055
 6590SOL    HW220670   6.432   1.275   5.097
 6591SOL     OW20671   5.933   1.035   2.186
 6591SOL    HW120672   6.002   1.005   2.251
 6591SOL    HW220673   5.942   1.134   2.171
 6592SOL     OW20674   5.146   5.596   4.780
 6592SOL    HW120675   5.151   5.670   4.847
 6592SOL    HW220676   5.196   5.622   4.697
 6593SOL     OW20677   4.147   1.107   2.654
 6593SOL    HW120678   4.224   1.152   2.699
 6593SOL    HW220679   4.174   1.077   2.563
 6594SOL     OW20680   5.468   0.767   6.358
 6594SOL    HW120681   5.453   0.851   6.306
 6594SOL    HW220682   5.566   0.751   6.370
 6595SOL     OW20683   1.177   3.535   0.932
 6595SOL    HW120684   1.099   3.582   0.890
 6595SOL    HW220685   1.188   3.567   1.026
 6596SOL     OW20686   3.660   6.943   4.938
 6596SOL    HW120687   3.714   6.905   4.864
 6596SOL    HW220688   3.587   6.880   4.963
 6597SOL     OW20689   6.990   4.914   5.738
 6597SOL    HW120690   0.063   4.878   5.752
 6597SOL    HW220691   6.952   4.944   5.825
 6598SOL     OW20692   2.089   5.836   5.296
 6598SOL    HW120693   2.084   5.755   5.355
 6598SOL    HW220694   2.175   5.835   5.244
 6599SOL     OW20695   4.661   4.048   6.027
 6599SOL    HW120696   4.615   3.960   6.036
 6599SOL    HW220697   4.753   4.034   5.988
 6600SOL     OW20698   4.563   5.820   4.530
 6600SOL    HW120699   4.532   5.873   4.452
 6600SOL    HW220700   4.509   5.735   4.536
 6601SOL     OW20701   1.110   0.060   1.463
 6601SOL    HW120702   1.059   0.100   1.539
 6601SOL    HW220703   1.088   0.108   1.379
 6602SOL     OW20704   6.446   1.875   1.443
 6602SOL    HW120705   6.516   1.947   1.445
 6602SOL    HW220706   6.382   1.893   1.368
 6603SOL     OW20707   2.235   2.898   3.029
 6603SOL    HW120708   2.175   2.961   3.078
 6603SOL    HW220709   2.282   2.840   3.095
 6604SOL     OW20710   3.981   6.198   3.421
 6604SOL    HW120711   4.065   6.224   3.469
 6604SOL    HW220712   4.004   6.161   3.331
 6605SOL     OW20713   5.837   6.496   6.988
 6605SOL    HW120714   5.798   6.425   0.027
 6605SOL    HW220715   5.934   6.477   6.972
 6606SOL     OW20716   5.753   1.532   2.866
 6606SOL    HW120717   5.796   1.483   2.790
 6606SOL    HW220718   5.770   1.483   2.951
 6607SOL     OW20719   1.063   2.455   3.684
 6607SOL    HW120720   1.039   2.386   3.615
 6607SOL    HW220721   1.084   2.409   3.771
 6608SOL     OW20722   5.372   3.493   4.368
 6608SOL    HW120723   5.429   3.414   4.392
 6608SOL    HW220724   5.429   3.575   4.360
 6609SOL     OW20725   5.861   1.988   6.585
 6609SOL    HW120726   5.762   1.976   6.589
 6609SOL    HW220727   5.907   1.908   6.621
 6610SOL     OW20728   2.877   1.120   0.039
 6610SOL    HW120729   2.838   1.131   6.967
 6610SOL    HW220730   2.836   1.187   0.101
 6611SOL     OW20731   5.763   3.219   2.873
 6611SOL    HW120732   5.833   3.174   2.929
 6611SOL    HW220733   5.781   3.201   2.776
 6612SOL     OW20734   1.178   6.064   6.499
 6612SOL    HW120735   1.200   6.002   6.423
 6612SOL    HW220736   1.191   6.016   6.586
 6613SOL     OW20737   4.896   5.314   1.631
 6613SOL    HW120738   4.936   5.328   1.721
 6613SOL    HW220739   4.808   5.267   1.641
 6614SOL     OW20740   5.253   6.045   5.844
 6614SOL    HW120741   5.229   6.046   5.941
 6614SOL    HW220742   5.350   6.021   5.834
 6615SOL     OW20743   0.951   4.033   5.371
 6615SOL    HW120744   1.036   4.086   5.375
 6615SOL    HW220745   0.913   4.041   5.279
 6616SOL     OW20746   4.477   0.510   4.728
 6616SOL    HW120747   4.442   0.419   4.705
 6616SOL    HW220748   4.428   0.579   4.673
 6617SOL     OW20749   4.647   0.363   4.911
 6617SOL    HW120750   4.623   0.397   4.820
 6617SOL    HW220751   4.703   0.281   4.902
 6618SOL     OW20752   0.836   4.444   1.601
 6618SOL    HW120753   0.924   4.418   1.561
 6618SOL    HW220754   0.793   4.364   1.643
 6619SOL     OW20755   5.474   5.911   2.424
 6619SOL    HW120756   5.485   5.812   2.417
 6619SOL    HW220757   5.504   5.953   2.338
 6620SOL     OW20758   3.407   2.796   5.583
 6620SOL    HW120759   3.344   2.856   5.631
 6620SOL    HW220760   3.390   2.701   5.607
 6621SOL     OW20761   2.754   4.113   0.136
 6621SOL    HW120762   2.821   4.185   0.117
 6621SOL    HW220763   2.673   4.153   0.179
 6622SOL     OW20764   5.970   6.862   0.056
 6622SOL    HW120765   6.046   6.914   0.096
 6622SOL    HW220766   5.888   6.874   0.112
 6623SOL     OW20767   3.530   3.579   2.453
 6623SOL    HW120768   3.487   3.551   2.367
 6623SOL    HW220769   3.500   3.518   2.526
 6624SOL     OW20770   4.235   4.866   4.219
 6624SOL    HW120771   4.277   4.957   4.210
 6624SOL    HW220772   4.176   4.849   4.140
 6625SOL     OW20773   6.171   0.502   0.277
 6625SOL    HW120774   6.156   0.493   0.179
 6625SOL    HW220775   6.133   0.589   0.309
 6626SOL     OW20776   3.457   4.929   3.724
 6626SOL    HW120777   3.546   4.884   3.726
 6626SOL    HW220778   3.424   4.943   3.817
 6627SOL     OW20779   2.066   6.328   1.439
 6627SOL    HW120780   2.074   6.354   1.535
 6627SOL    HW220781   2.153   6.344   1.392
 6628SOL     OW20782   4.072   6.057   3.191
 6628SOL    HW120783   4.051   6.057   3.093
 6628SOL    HW220784   4.160   6.102   3.206
 6629SOL     OW20785   3.337   4.129   0.114
 6629SOL    HW120786   3.303   4.050   0.064
 6629SOL    HW220787   3.356   4.103   0.209
 6630SOL     OW20788   2.902   2.458   5.755
 6630SOL    HW120789   2.810   2.469   5.793
 6630SOL    HW220790   2.969   2.498   5.818
 6631SOL     OW20791   4.175   0.738   2.236
 6631SOL    HW120792   4.096   0.707   2.184
 6631SOL    HW220793   4.163   0.714   2.333
 6632SOL     OW20794   6.889   2.452   2.405
 6632SOL    HW120795   6.872   2.362   2.365
 6632SOL    HW220796   6.871   2.450   2.503
 6633SOL     OW20797   0.387   6.932   1.247
 6633SOL    HW120798   0.390   0.011   1.263
 6633SOL    HW220799   0.479   6.894   1.253
 6634SOL     OW20800   6.803   3.113   6.040
 6634SOL    HW120801   6.864   3.116   6.120
 6634SOL    HW220802   6.856   3.090   5.959
 6635SOL     OW20803   4.360   4.595   3.532
 6635SOL    HW120804   4.288   4.663   3.547
 6635SOL    HW220805   4.384   4.592   3.435
 6636SOL     OW20806   1.242   2.560   3.966
 6636SOL    HW120807   1.331   2.515   3.967
 6636SOL    HW220808   1.248   2.645   3.914
 6637SOL     OW20809   6.806   1.271   1.768
 6637SOL    HW120810   6.802   1.171   1.772
 6637SOL    HW220811   6.767   1.302   1.681
 6638SOL     OW20812   2.509   5.716   5.907
 6638SOL    HW120813   2.449   5.654   5.958
 6638SOL    HW220814   2.502   5.696   5.810
 6639SOL     OW20815   5.342   5.540   6.797
 6639SOL    HW120816   5.436   5.533   6.764
 6639SOL    HW220817   5.343   5.570   6.893
 6640SOL     OW20818   6.192   3.224   3.573
 6640SOL    HW120819   6.171   3.142   3.627
 6640SOL    HW220820   6.290   3.230   3.560
 6641SOL     OW20821   2.023   4.053   6.937
 6641SOL    HW120822   2.007   4.107   6.854
 6641SOL    HW220823   2.105   3.996   6.924
 6642SOL     OW20824   6.995   6.378   0.141
 6642SOL    HW120825   6.915   6.421   0.099
 6642SOL    HW220826   6.965   6.303   0.200
 6643SOL     OW20827   4.312   5.320   6.853
 6643SOL    HW120828   4.343   5.415   6.853
 6643SOL    HW220829   4.233   5.312   6.914
 6644SOL     OW20830   2.787   4.757   2.211
 6644SOL    HW120831   2.756   4.844   2.173
 6644SOL    HW220832   2.795   4.690   2.137
 6645SOL     OW20833   6.417   5.006   5.085
 6645SOL    HW120834   6.355   4.972   5.156
 6645SOL    HW220835   6.512   4.993   5.114
 6646SOL     OW20836   2.012   5.987   3.483
 6646SOL    HW120837   2.004   5.916   3.554
 6646SOL    HW220838   2.077   5.956   3.413
 6647SOL     OW20839   3.737   2.045   2.277
 6647SOL    HW120840   3.726   2.109   2.201
 6647SOL    HW220841   3.655   1.988   2.285
 6648SOL     OW20842   4.925   6.007   2.459
 6648SOL    HW120843   4.857   6.009   2.386
 6648SOL    HW220844   4.926   6.095   2.505
 6649SOL     OW20845   3.661   2.185   6.283
 6649SOL    HW120846   3.586   2.214   6.224
 6649SOL    HW220847   3.626   2.167   6.375
 6650SOL     OW20848   3.054   2.216   3.219
 6650SOL    HW120849   3.127   2.274   3.182
 6650SOL    HW220850   3.090   2.124   3.237
 6651SOL     OW20851   1.089   2.656   6.726
 6651SOL    HW120852   1.057   2.745   6.758
 6651SOL    HW220853   1.179   2.638   6.765
 6652SOL     OW20854   0.186   5.220   3.080
 6652SOL    HW120855   0.177   5.287   3.154
 6652SOL    HW220856   0.272   5.234   3.032
 6653SOL     OW20857   2.934   3.352   3.549
 6653SOL    HW120858   2.895   3.379   3.461
 6653SOL    HW220859   2.955   3.433   3.603
 6654SOL     OW20860   2.192   3.462   1.630
 6654SOL    HW120861   2.135   3.403   1.688
 6654SOL    HW220862   2.287   3.456   1.660
 6655SOL     OW20863   2.219   0.480   0.806
 6655SOL    HW120864   2.151   0.455   0.875
 6655SOL    HW220865   2.222   0.579   0.796
 6656SOL     OW20866   6.187   2.045   1.437
 6656SOL    HW120867   6.119   1.978   1.409
 6656SOL    HW220868   6.198   2.041   1.537
 6657SOL     OW20869   2.684   5.672   6.149
 6657SOL    HW120870   2.619   5.687   6.224
 6657SOL    HW220871   2.637   5.682   6.062
 6658SOL     OW20872   4.730   0.755   5.827
 6658SOL    HW120873   4.681   0.830   5.782
 6658SOL    HW220874   4.778   0.791   5.907
 6659SOL     OW20875   1.056   3.329   6.517
 6659SOL    HW120876   1.052   3.417   6.469
 6659SOL    HW220877   1.152   3.300   6.525
 6660SOL     OW20878   0.124   6.781   3.208
 6660SOL    HW120879   0.120   6.769   3.109
 6660SOL    HW220880   0.080   6.867   3.234
 6661SOL     OW20881   0.099   5.985   3.698
 6661SOL    HW120882   0.037   6.018   3.626
 6661SOL    HW220883   0.175   6.050   3.708
 6662SOL     OW20884   0.810   3.535   6.001
 6662SOL    HW120885   0.900   3.508   5.968
 6662SOL    HW220886   0.820   3.589   6.085
 6663SOL     OW20887   0.310   6.061   1.856
 6663SOL    HW120888   0.278   5.990   1.794
 6663SOL    HW220889   0.378   6.022   1.918
 6664SOL     OW20890   0.833   1.525   3.027
 6664SOL    HW120891   0.743   1.488   3.052
 6664SOL    HW220892   0.883   1.549   3.110
 6665SOL     OW20893   2.994   6.571   2.431
 6665SOL    HW120894   2.993   6.615   2.520
 6665SOL    HW220895   3.045   6.627   2.366
 6666SOL     OW20896   6.348   0.148   0.542
 6666SOL    HW120897   6.273   0.176   0.482
 6666SOL    HW220898   6.402   0.077   0.498
 6667SOL     OW20899   6.780   5.547   4.413
 6667SOL    HW120900   6.868   5.532   4.367
 6667SOL    HW220901   6.729   5.461   4.416
 6668SOL     OW20902   0.495   5.521   1.695
 6668SOL    HW120903   0.589   5.517   1.662
 6668SOL    HW220904   0.470   5.433   1.736
 6669SOL     OW20905   1.742   5.320   2.865
 6669SOL    HW120906   1.789   5.329   2.777
 6669SOL    HW220907   1.805   5.282   2.932
 6670SOL     OW20908   3.458   4.801   0.352
 6670SOL    HW120909   3.471   4.829   0.257
 6670SOL    HW220910   3.497   4.710   0.365
 6671SOL     OW20911   0.294   2.571   5.426
 6671SOL    HW120912   0.385   2.586   5.465
 6671SOL    HW220913   0.303   2.531   5.335
 6672SOL     OW20914   1.461   0.866   5.263
 6672SOL    HW120915   1.378   0.888   5.316
 6672SOL    HW220916   1.438   0.803   5.189
 6673SOL     OW20917   4.772   4.845   1.619
 6673SOL    HW120918   4.856   4.827   1.569
 6673SOL    HW220919   4.703   4.776   1.594
 6674SOL     OW20920   1.088   0.110   4.350
 6674SOL    HW120921   1.174   0.078   4.309
 6674SOL    HW220922   1.027   0.033   4.366
 6675SOL     OW20923   6.379   5.769   0.550
 6675SOL    HW120924   6.468   5.804   0.579
 6675SOL    HW220925   6.375   5.764   0.450
 6676SOL     OW20926   1.071   2.441   6.563
 6676SOL    HW120927   1.125   2.463   6.482
 6676SOL    HW220928   1.094   2.505   6.637
 6677SOL     OW20929   6.917   4.129   0.179
 6677SOL    HW120930   6.961   4.215   0.203
 6677SOL    HW220931   6.844   4.109   0.245
 6678SOL     OW20932   1.161   3.101   5.067
 6678SOL    HW120933   1.212   3.108   5.153
 6678SOL    HW220934   1.213   3.047   5.001
 6679SOL     OW20935   1.640   2.143   4.614
 6679SOL    HW120936   1.640   2.189   4.702
 6679SOL    HW220937   1.703   2.189   4.552
 6680SOL     OW20938   2.447   6.561   6.634
 6680SOL    HW120939   2.430   6.464   6.615
 6680SOL    HW220940   2.476   6.571   6.730
 6681SOL     OW20941   5.742   5.171   0.361
 6681SOL    HW120942   5.814   5.122   0.410
 6681SOL    HW220943   5.773   5.264   0.341
 6682SOL     OW20944   6.932   6.026   2.591
 6682SOL    HW120945   6.982   5.948   2.553
 6682SOL    HW220946   6.837   6.022   2.563
 6683SOL     OW20947   5.138   2.042   3.918
 6683SOL    HW120948   5.106   2.016   3.827
 6683SOL    HW220949   5.060   2.048   3.980
 6684SOL     OW20950   2.091   6.862   2.095
 6684SOL    HW120951   2.081   6.956   2.063
 6684SOL    HW220952   2.054   6.799   2.027
 6685SOL     OW20953   4.815   3.418   6.133
 6685SOL    HW120954   4.902   3.466   6.123
 6685SOL    HW220955   4.793   3.409   6.230
 6686SOL     OW20956   5.703   3.923   3.987
 6686SOL    HW120957   5.607   3.952   3.986
 6686SOL    HW220958   5.716   3.851   3.918
 6687SOL     OW20959   1.313   1.582   0.297
 6687SOL    HW120960   1.403   1.624   0.300
 6687SOL    HW220961   1.323   1.482   0.302
 6688SOL     OW20962   0.622   4.835   3.139
 6688SOL    HW120963   0.654   4.800   3.227
 6688SOL    HW220964   0.529   4.869   3.149
 6689SOL     OW20965   4.458   5.086   6.920
 6689SOL    HW120966   4.428   5.087   7.015
 6689SOL    HW220967   4.439   5.174   6.878
 6690SOL     OW20968   1.595   2.297   0.785
 6690SOL    HW120969   1.596   2.389   0.745
 6690SOL    HW220970   1.660   2.293   0.860
 6691SOL     OW20971   2.169   5.194   1.100
 6691SOL    HW120972   2.257   5.146   1.106
 6691SOL    HW220973   2.108   5.160   1.172
 6692SOL     OW20974   3.446   4.024   5.884
 6692SOL    HW120975   3.479   3.940   5.842
 6692SOL    HW220976   3.523   4.085   5.903
 6693SOL     OW20977   3.658   3.880   4.766
 6693SOL    HW120978   3.653   3.960   4.707
 6693SOL    HW220979   3.571   3.830   4.762
 6694SOL     OW20980   2.832   6.446   0.569
 6694SOL    HW120981   2.749   6.475   0.617
 6694SOL    HW220982   2.912   6.486   0.614
 6695SOL     OW20983   1.331   1.472   6.945
 6695SOL    HW120984   1.363   1.429   6.861
 6695SOL    HW220985   1.250   1.423   6.979
 6696SOL     OW20986   2.097   3.223   2.088
 6696SOL    HW120987   2.167   3.289   2.062
 6696SOL    HW220988   2.129   3.131   2.067
 6697SOL     OW20989   5.187   1.566   2.991
 6697SOL    HW120990   5.125   1.637   2.958
 6697SOL    HW220991   5.256   1.607   3.051
 6698SOL     OW20992   3.792   3.754   0.641
 6698SOL    HW120993   3.701   3.783   0.613
 6698SOL    HW220994   3.784   3.686   0.714
 6699SOL     OW20995   1.073   3.722   6.880
 6699SOL    HW120996   1.019   3.699   6.799
 6699SOL    HW220997   1.154   3.775   6.853
 6700SOL     OW20998   6.312   6.592   6.402
 6700SOL    HW120999   6.306   6.603   6.501
 6700SOL    HW221000   6.239   6.531   6.370
 6701SOL     OW21001   0.825   2.316   0.568
 6701SOL    HW121002   0.763   2.387   0.601
 6701SOL    HW221003   0.908   2.315   0.624
 6702SOL     OW21004   2.073   2.403   1.197
 6702SOL    HW121005   2.033   2.434   1.111
 6702SOL    HW221006   2.071   2.303   1.200
 6703SOL     OW21007   0.328   2.063   6.440
 6703SOL    HW121008   0.413   2.105   6.410
 6703SOL    HW221009   0.312   2.086   6.536
 6704SOL     OW21010   5.348   1.979   3.095
 6704SOL    HW121011   5.262   2.030   3.088
 6704SOL    HW221012   5.376   1.947   3.005
 6705SOL     OW21013   6.095   1.315   0.365
 6705SOL    HW121014   6.009   1.338   0.319
 6705SOL    HW221015   6.172   1.337   0.305
 6706SOL     OW21016   0.713   5.129   6.164
 6706SOL    HW121017   0.795   5.182   6.187
 6706SOL    HW221018   0.741   5.042   6.122
 6707SOL     OW21019   1.463   5.899   1.977
 6707SOL    HW121020   1.396   5.860   2.040
 6707SOL    HW221021   1.507   5.825   1.925
 6708SOL     OW21022   2.161   5.956   1.207
 6708SOL    HW121023   2.237   5.975   1.269
 6708SOL    HW221024   2.138   6.039   1.155
 6709SOL     OW21025   5.528   1.298   2.791
 6709SOL    HW121026   5.538   1.211   2.840
 6709SOL    HW221027   5.543   1.374   2.854
 6710SOL     OW21028   2.386   2.764   1.311
 6710SOL    HW121029   2.442   2.729   1.236
 6710SOL    HW221030   2.325   2.691   1.343
 6711SOL     OW21031   3.947   3.849   0.255
 6711SOL    HW121032   3.965   3.924   0.192
 6711SOL    HW221033   3.993   3.867   0.342
 6712SOL     OW21034   3.459   6.073   0.757
 6712SOL    HW121035   3.554   6.060   0.729
 6712SOL    HW221036   3.452   6.066   0.857
 6713SOL     OW21037   2.049   1.423   2.067
 6713SOL    HW121038   2.078   1.343   2.014
 6713SOL    HW221039   2.111   1.435   2.145
 6714SOL     OW21040   6.800   0.276   3.909
 6714SOL    HW121041   6.861   0.346   3.873
 6714SOL    HW221042   6.853   0.205   3.955
 6715SOL     OW21043   0.517   1.944   0.910
 6715SOL    HW121044   0.465   2.022   0.877
 6715SOL    HW221045   0.574   1.908   0.836
 6716SOL     OW21046   2.677   5.473   0.594
 6716SOL    HW121047   2.759   5.415   0.594
 6716SOL    HW221048   2.613   5.439   0.525
 6717SOL     OW21049   3.858   1.786   6.439
 6717SOL    HW121050   3.953   1.763   6.422
 6717SOL    HW221051   3.799   1.733   6.377
 6718SOL     OW21052   3.422   0.008   0.199
 6718SOL    HW121053   3.436   0.093   0.252
 6718SOL    HW221054   3.445   0.025   0.103
 6719SOL     OW21055   0.692   0.464   5.281
 6719SOL    HW121056   0.603   0.452   5.324
 6719SOL    HW221057   0.705   0.394   5.210
 6720SOL     OW21058   1.995   4.762   1.475
 6720SOL    HW121059   2.011   4.821   1.395
 6720SOL    HW221060   1.949   4.678   1.446
 6721SOL     OW21061   6.555   6.789   3.559
 6721SOL    HW121062   6.630   6.854   3.546
 6721SOL    HW221063   6.577   6.726   3.633
 6722SOL     OW21064   4.647   3.753   0.034
 6722SOL    HW121065   4.665   3.801   6.968
 6722SOL    HW221066   4.550   3.755   0.055
 6723SOL     OW21067   3.714   6.722   1.549
 6723SOL    HW121068   3.711   6.694   1.453
 6723SOL    HW221069   3.671   6.812   1.558
 6724SOL     OW21070   3.668   4.637   5.513
 6724SOL    HW121071   3.568   4.643   5.522
 6724SOL    HW221072   3.691   4.566   5.447
 6725SOL     OW21073   0.597   4.757   2.400
 6725SOL    HW121074   0.548   4.705   2.470
 6725SOL    HW221075   0.687   4.717   2.385
 6726SOL     OW21076   2.486   2.555   2.491
 6726SOL    HW121077   2.479   2.543   2.392
 6726SOL    HW221078   2.473   2.652   2.514
 6727SOL     OW21079   3.885   4.024   7.011
 6727SOL    HW121080   3.973   4.057   6.977
 6727SOL    HW221081   3.856   3.945   6.957
 6728SOL     OW21082   4.929   1.059   3.963
 6728SOL    HW121083   5.011   1.109   3.936
 6728SOL    HW221084   4.849   1.098   3.917
 6729SOL     OW21085   6.137   6.746   2.800
 6729SOL    HW121086   6.219   6.713   2.848
 6729SOL    HW221087   6.126   6.695   2.715
 6730SOL     OW21088   1.385   6.765   1.049
 6730SOL    HW121089   1.326   6.686   1.062
 6730SOL    HW221090   1.457   6.765   1.118
 6731SOL     OW21091   2.407   4.811   2.166
 6731SOL    HW121092   2.319   4.805   2.213
 6731SOL    HW221093   2.481   4.792   2.231
 6732SOL     OW21094   1.775   4.875   1.083
 6732SOL    HW121095   1.737   4.784   1.063
 6732SOL    HW221096   1.775   4.930   0.999
 6733SOL     OW21097   5.405   5.679   5.573
 6733SOL    HW121098   5.378   5.761   5.522
 6733SOL    HW221099   5.462   5.622   5.514
 6734SOL     OW21100   2.533   3.588   5.497
 6734SOL    HW121101   2.533   3.524   5.420
 6734SOL    HW221102   2.488   3.673   5.468
 6735SOL     OW21103   0.000   5.096   6.399
 6735SOL    HW121104   0.013   5.195   6.401
 6735SOL    HW221105   6.926   5.075   6.371
 6736SOL     OW21106   2.003   3.554   2.469
 6736SOL    HW121107   2.006   3.525   2.374
 6736SOL    HW221108   2.027   3.477   2.528
 6737SOL     OW21109   2.152   1.176   1.295
 6737SOL    HW121110   2.141   1.094   1.351
 6737SOL    HW221111   2.063   1.219   1.280
 6738SOL     OW21112   3.878   1.442   2.239
 6738SOL    HW121113   3.834   1.516   2.290
 6738SOL    HW221114   3.815   1.365   2.230
 6739SOL     OW21115   4.444   6.763   4.869
 6739SOL    HW121116   4.462   6.858   4.894
 6739SOL    HW221117   4.387   6.721   4.938
 6740SOL     OW21118   6.018   2.904   4.534
 6740SOL    HW121119   6.017   2.808   4.561
 6740SOL    HW221120   5.926   2.931   4.504
 6741SOL     OW21121   0.188   0.132   5.900
 6741SOL    HW121122   0.133   0.080   5.965
 6741SOL    HW221123   0.169   0.101   5.807
 6742SOL     OW21124   6.280   5.914   5.626
 6742SOL    HW121125   6.306   5.850   5.697
 6742SOL    HW221126   6.186   5.896   5.597
 6743SOL     OW21127   4.541   3.046   0.751
 6743SOL    HW121128   4.487   3.129   0.762
 6743SOL    HW221129   4.633   3.063   0.787
 6744SOL     OW21130   5.368   5.264   5.461
 6744SOL    HW121131   5.397   5.179   5.504
 6744SOL    HW221132   5.279   5.291   5.497
 6745SOL     OW21133   0.375   3.684   3.767
 6745SOL    HW121134   0.351   3.703   3.862
 6745SOL    HW221135   0.413   3.592   3.759
 6746SOL     OW21136   6.629   1.313   1.506
 6746SOL    HW121137   6.593   1.283   1.418
 6746SOL    HW221138   6.710   1.369   1.492
 6747SOL     OW21139   5.241   6.349   6.167
 6747SOL    HW121140   5.272   6.405   6.244
 6747SOL    HW221141   5.320   6.314   6.117
 6748SOL     OW21142   6.732   6.567   2.063
 6748SOL    HW121143   6.765   6.521   1.981
 6748SOL    HW221144   6.781   6.534   2.143
 6749SOL     OW21145   3.355   5.709   1.007
 6749SOL    HW121146   3.296   5.734   0.930
 6749SOL    HW221147   3.314   5.739   1.093
 6750SOL     OW21148   2.436   3.339   5.302
 6750SOL    HW121149   2.350   3.336   5.353
 6750SOL    HW221150   2.458   3.248   5.267
 6751SOL     OW21151   3.338   2.230   5.581
 6751SOL    HW121152   3.276   2.151   5.579
 6751SOL    HW221153   3.337   2.275   5.492
 6752SOL     OW21154   6.322   2.302   0.451
 6752SOL    HW121155   6.320   2.242   0.371
 6752SOL    HW221156   6.235   2.352   0.457
 6753SOL     OW21157   5.258   1.451   5.957
 6753SOL    HW121158   5.279   1.360   5.993
 6753SOL    HW221159   5.159   1.464   5.955
 6754SOL     OW21160   5.025   1.104   0.376
 6754SOL    HW121161   5.101   1.040   0.363
 6754SOL    HW221162   4.940   1.062   0.342
 6755SOL     OW21163   5.404   1.675   3.091
 6755SOL    HW121164   5.406   1.774   3.104
 6755SOL    HW221165   5.460   1.631   3.161
 6756SOL     OW21166   5.098   4.492   3.614
 6756SOL    HW121167   5.142   4.426   3.554
 6756SOL    HW221168   4.999   4.489   3.600
 6757SOL     OW21169   5.106   4.897   2.489
 6757SOL    HW121170   5.165   4.888   2.408
 6757SOL    HW221171   5.091   4.994   2.508
 6758SOL     OW21172   6.175   1.877   2.885
 6758SOL    HW121173   6.242   1.802   2.879
 6758SOL    HW221174   6.204   1.941   2.956
 6759SOL     OW21175   1.140   4.417   3.251
 6759SOL    HW121176   1.106   4.340   3.198
 6759SOL    HW221177   1.240   4.413   3.256
 6760SOL     OW21178   0.279   4.541   4.958
 6760SOL    HW121179   0.333   4.456   4.954
 6760SOL    HW221180   0.307   4.595   5.037
 6761SOL     OW21181   5.872   3.530   6.485
 6761SOL    HW121182   5.868   3.605   6.419
 6761SOL    HW221183   5.810   3.551   6.561
 6762SOL     OW21184   5.646   4.693   3.467
 6762SOL    HW121185   5.601   4.782   3.466
 6762SOL    HW221186   5.672   4.669   3.560
 6763SOL     OW21187   5.983   6.432   5.492
 6763SOL    HW121188   5.983   6.332   5.496
 6763SOL    HW221189   5.897   6.464   5.452
 6764SOL     OW21190   2.160   3.421   0.309
 6764SOL    HW121191   2.075   3.401   0.359
 6764SOL    HW221192   2.237   3.381   0.359
 6765SOL     OW21193   4.949   5.035   2.930
 6765SOL    HW121194   4.849   5.027   2.930
 6765SOL    HW221195   4.975   5.118   2.979
 6766SOL     OW21196   1.406   1.721   5.439
 6766SOL    HW121197   1.413   1.802   5.497
 6766SOL    HW221198   1.496   1.679   5.429
 6767SOL     OW21199   1.124   2.937   5.416
 6767SOL    HW121200   1.068   3.013   5.450
 6767SOL    HW221201   1.091   2.851   5.454
 6768SOL     OW21202   0.496   6.968   5.402
 6768SOL    HW121203   0.535   0.014   5.467
 6768SOL    HW221204   0.409   7.003   5.368
 6769SOL     OW21205   0.900   2.880   6.630
 6769SOL    HW121206   0.866   2.821   6.556
 6769SOL    HW221207   0.867   2.973   6.615
 6770SOL     OW21208   6.694   1.178   4.155
 6770SOL    HW121209   6.686   1.248   4.227
 6770SOL    HW221210   6.714   1.089   4.197
 6771SOL     OW21211   4.360   1.730   2.178
 6771SOL    HW121212   4.424   1.783   2.123
 6771SOL    HW221213   4.326   1.787   2.253
 6772SOL     OW21214   1.120   0.809   1.593
 6772SOL    HW121215   1.219   0.823   1.598
 6772SOL    HW221216   1.077   0.888   1.549
 6773SOL     OW21217   0.857   0.638   1.916
 6773SOL    HW121218   0.798   0.600   1.987
 6773SOL    HW221219   0.809   0.714   1.871
 6774SOL     OW21220   3.146   1.101   5.900
 6774SOL    HW121221   3.141   1.201   5.889
 6774SOL    HW221222   3.179   1.060   5.815
 6775SOL     OW21223   1.128   3.372   4.961
 6775SOL    HW121224   1.163   3.282   4.988
 6775SOL    HW221225   1.155   3.391   4.866
 6776SOL     OW21226   3.210   3.984   2.968
 6776SOL    HW121227   3.158   3.979   2.882
 6776SOL    HW221228   3.156   4.032   3.037
 6777SOL     OW21229   0.546   6.962   6.390
 6777SOL    HW121230   0.590   0.033   6.390
 6777SOL    HW221231   0.601   6.899   6.445
 6778SOL     OW21232   6.220   6.186   2.471
 6778SOL    HW121233   6.214   6.142   2.560
 6778SOL    HW221234   6.154   6.261   2.466
 6779SOL     OW21235   4.644   4.517   6.730
 6779SOL    HW121236   4.648   4.607   6.686
 6779SOL    HW221237   4.574   4.519   6.802
 6780SOL     OW21238   3.909   0.928   2.644
 6780SOL    HW121239   3.967   0.933   2.725
 6780SOL    HW221240   3.831   0.990   2.655
 6781SOL     OW21241   6.242   2.766   3.148
 6781SOL    HW121242   6.289   2.755   3.060
 6781SOL    HW221243   6.161   2.709   3.150
 6782SOL     OW21244   0.311   1.387   3.258
 6782SOL    HW121245   0.389   1.392   3.196
 6782SOL    HW221246   0.310   1.468   3.316
 6783SOL     OW21247   0.587   5.983   6.044
 6783SOL    HW121248   0.685   6.002   6.053
 6783SOL    HW221249   0.570   5.936   5.957
 6784SOL     OW21250   1.628   4.682   0.955
 6784SOL    HW121251   1.571   4.763   0.967
 6784SOL    HW221252   1.587   4.620   0.889
 6785SOL     OW21253   5.782   4.679   3.216
 6785SOL    HW121254   5.731   4.646   3.296
 6785SOL    HW221255   5.718   4.719   3.150
 6786SOL     OW21256   6.387   1.994   6.035
 6786SOL    HW121257   6.450   1.933   5.987
 6786SOL    HW221258   6.292   1.966   6.017
 6787SOL     OW21259   3.162   1.423   0.531
 6787SOL    HW121260   3.236   1.402   0.466
 6787SOL    HW221261   3.108   1.340   0.546
 6788SOL     OW21262   0.565   4.155   1.556
 6788SOL    HW121263   0.541   4.118   1.466
 6788SOL    HW221264   0.664   4.153   1.568
 6789SOL     OW21265   5.907   4.506   2.620
 6789SOL    HW121266   5.864   4.555   2.696
 6789SOL    HW221267   5.991   4.461   2.653
 6790SOL     OW21268   0.633   6.096   1.367
 6790SOL    HW121269   0.595   6.041   1.441
 6790SOL    HW221270   0.569   6.170   1.344
 6791SOL     OW21271   2.480   6.161   3.600
 6791SOL    HW121272   2.484   6.117   3.690
 6791SOL    HW221273   2.559   6.134   3.546
 6792SOL     OW21274   3.377   6.724   6.194
 6792SOL    HW121275   3.374   6.642   6.251
 6792SOL    HW221276   3.426   6.704   6.109
 6793SOL     OW21277   2.430   3.687   5.975
 6793SOL    HW121278   2.399   3.647   6.061
 6793SOL    HW221279   2.501   3.755   5.993
 6794SOL     OW21280   5.190   2.640   4.508
 6794SOL    HW121281   5.170   2.665   4.413
 6794SOL    HW221282   5.105   2.641   4.561
 6795SOL     OW21283   0.688   0.656   1.640
 6795SOL    HW121284   0.684   0.726   1.711
 6795SOL    HW221285   0.782   0.649   1.606
 6796SOL     OW21286   6.868   2.209   2.298
 6796SOL    HW121287   6.933   2.187   2.224
 6796SOL    HW221288   6.852   2.127   2.353
 6797SOL     OW21289   1.554   2.943   1.037
 6797SOL    HW121290   1.606   2.981   0.960
 6797SOL    HW221291   1.540   3.014   1.106
 6798SOL     OW21292   4.818   1.355   2.008
 6798SOL    HW121293   4.821   1.388   1.914
 6798SOL    HW221294   4.911   1.336   2.040
 6799SOL     OW21295   6.578   0.156   2.720
 6799SOL    HW121296   6.529   0.222   2.663
 6799SOL    HW221297   6.512   0.093   2.761
 6800SOL     OW21298   6.720   2.981   2.010
 6800SOL    HW121299   6.720   2.948   1.915
 6800SOL    HW221300   6.627   3.005   2.037
 6801SOL     OW21301   1.660   5.648   6.124
 6801SOL    HW121302   1.733   5.604   6.073
 6801SOL    HW221303   1.579   5.658   6.066
 6802SOL     OW21304   3.094   4.716   1.853
 6802SOL    HW121305   3.055   4.626   1.874
 6802SOL    HW221306   3.022   4.784   1.847
 6803SOL     OW21307   5.272   5.126   6.606
 6803SOL    HW121308   5.234   5.079   6.526
 6803SOL    HW221309   5.314   5.058   6.667
 6804SOL     OW21310   3.219   5.588   2.201
 6804SOL    HW121311   3.230   5.630   2.111
 6804SOL    HW221312   3.307   5.554   2.233
 6805SOL     OW21313   0.838   3.937   3.752
 6805SOL    HW121314   0.811   3.874   3.679
 6805SOL    HW221315   0.831   4.031   3.720
 6806SOL     OW21316   5.836   3.536   2.589
 6806SOL    HW121317   5.900   3.460   2.579
 6806SOL    HW221318   5.859   3.590   2.670
 6807SOL     OW21319   2.861   3.567   2.243
 6807SOL    HW121320   2.846   3.580   2.145
 6807SOL    HW221321   2.776   3.538   2.286
 6808SOL     OW21322   3.657   0.392   3.473
 6808SOL    HW121323   3.711   0.458   3.526
 6808SOL    HW221324   3.696   0.301   3.484
 6809SOL     OW21325   5.736   2.636   0.693
 6809SOL    HW121326   5.690   2.648   0.605
 6809SOL    HW221327   5.794   2.554   0.689
 6810SOL     OW21328   2.737   0.922   5.060
 6810SOL    HW121329   2.810   0.987   5.041
 6810SOL    HW221330   2.776   0.837   5.095
 6811SOL     OW21331   6.750   1.716   1.262
 6811SOL    HW121332   6.698   1.635   1.235
 6811SOL    HW221333   6.693   1.797   1.254
 6812SOL     OW21334   3.290   4.442   5.334
 6812SOL    HW121335   3.296   4.372   5.263
 6812SOL    HW221336   3.241   4.405   5.413
 6813SOL     OW21337   6.957   4.235   2.107
 6813SOL    HW121338   7.006   4.148   2.110
 6813SOL    HW221339   7.013   4.306   2.148
 6814SOL     OW21340   5.683   1.431   0.936
 6814SOL    HW121341   5.634   1.350   0.970
 6814SOL    HW221342   5.632   1.470   0.860
 6815SOL     OW21343   0.690   5.895   6.719
 6815SOL    HW121344   0.760   5.847   6.771
 6815SOL    HW221345   0.695   5.993   6.738
 6816SOL     OW21346   6.665   6.843   4.052
 6816SOL    HW121347   6.698   6.805   4.138
 6816SOL    HW221348   6.732   6.909   4.017
 6817SOL     OW21349   4.966   1.784   1.774
 6817SOL    HW121350   4.956   1.735   1.860
 6817SOL    HW221351   5.027   1.732   1.713
 6818SOL     OW21352   1.153   0.106   5.008
 6818SOL    HW121353   1.074   0.149   5.052
 6818SOL    HW221354   1.234   0.120   5.064
 6819SOL     OW21355   4.934   4.023   1.402
 6819SOL    HW121356   5.016   4.069   1.435
 6819SOL    HW221357   4.904   4.066   1.317
 6820SOL     OW21358   2.808   5.215   1.486
 6820SOL    HW121359   2.750   5.228   1.567
 6820SOL    HW221360   2.900   5.248   1.504
 6821SOL     OW21361   2.717   2.603   6.166
 6821SOL    HW121362   2.755   2.695   6.152
 6821SOL    HW221363   2.782   2.547   6.217
 6822SOL     OW21364   6.085   3.532   5.440
 6822SOL    HW121365   6.070   3.444   5.486
 6822SOL    HW221366   5.998   3.581   5.434
 6823SOL     OW21367   0.112   3.076   6.101
 6823SOL    HW121368   0.139   2.983   6.124
 6823SOL    HW221369   0.108   3.131   6.184
 6824SOL     OW21370   1.595   0.611   4.905
 6824SOL    HW121371   1.566   0.705   4.892
 6824SOL    HW221372   1.681   0.596   4.856
 6825SOL     OW21373   4.316   4.393   1.449
 6825SOL    HW121374   4.339   4.353   1.537
 6825SOL    HW221375   4.295   4.490   1.461
 6826SOL     OW21376   5.731   0.513   3.119
 6826SOL    HW121377   5.805   0.552   3.174
 6826SOL    HW221378   5.646   0.511   3.173
 6827SOL     OW21379   4.660   5.648   5.527
 6827SOL    HW121380   4.713   5.590   5.465
 6827SOL    HW221381   4.563   5.641   5.505
 6828SOL     OW21382   3.287   2.083   2.238
 6828SOL    HW121383   3.209   2.103   2.178
 6828SOL    HW221384   3.372   2.100   2.188
 6829SOL     OW21385   4.619   6.588   4.275
 6829SOL    HW121386   4.716   6.562   4.278
 6829SOL    HW221387   4.575   6.558   4.360
 6830SOL     OW21388   3.849   5.489   2.397
 6830SOL    HW121389   3.868   5.509   2.301
 6830SOL    HW221390   3.775   5.422   2.404
 6831SOL     OW21391   1.329   1.565   6.512
 6831SOL    HW121392   1.260   1.498   6.482
 6831SOL    HW221393   1.405   1.566   6.447
 6832SOL     OW21394   2.730   2.869   6.696
 6832SOL    HW121395   2.662   2.824   6.638
 6832SOL    HW221396   2.816   2.877   6.646
 6833SOL     OW21397   4.426   5.130   6.461
 6833SOL    HW121398   4.403   5.223   6.490
 6833SOL    HW221399   4.354   5.067   6.492
 6834SOL     OW21400   5.876   6.243   6.023
 6834SOL    HW121401   5.929   6.186   6.085
 6834SOL    HW221402   5.843   6.188   5.946
 6835SOL     OW21403   3.573   0.908   3.510
 6835SOL    HW121404   3.528   0.825   3.477
 6835SOL    HW221405   3.563   0.914   3.610
 6836SOL     OW21406   0.345   4.349   6.335
 6836SOL    HW121407   0.316   4.427   6.390
 6836SOL    HW221408   0.439   4.362   6.305
 6837SOL     OW21409   6.438   0.700   1.935
 6837SOL    HW121410   6.534   0.716   1.960
 6837SOL    HW221411   6.397   0.786   1.906
 6838SOL     OW21412   3.167   3.950   5.918
 6838SOL    HW121413   3.121   4.032   5.954
 6838SOL    HW221414   3.257   3.975   5.883
 6839SOL     OW21415   5.903   2.972   4.868
 6839SOL    HW121416   5.973   3.038   4.843
 6839SOL    HW221417   5.946   2.886   4.897
 6840SOL     OW21418   2.634   5.980   4.659
 6840SOL    HW121419   2.721   6.020   4.688
 6840SOL    HW221420   2.575   5.968   4.739
 6841SOL     OW21421   4.743   6.793   0.684
 6841SOL    HW121422   4.695   6.774   0.770
 6841SOL    HW221423   4.790   6.710   0.653
 6842SOL     OW21424   0.353   3.946   4.218
 6842SOL    HW121425   0.400   3.955   4.130
 6842SOL    HW221426   0.271   4.003   4.218
 6843SOL     OW21427   4.657   2.750   1.796
 6843SOL    HW121428   4.675   2.848   1.797
 6843SOL    HW221429   4.583   2.730   1.732
 6844SOL     OW21430   3.214   6.136   4.494
 6844SOL    HW121431   3.249   6.085   4.573
 6844SOL    HW221432   3.230   6.083   4.411
 6845SOL     OW21433   4.279   4.258   0.413
 6845SOL    HW121434   4.268   4.208   0.327
 6845SOL    HW221435   4.291   4.355   0.394
 6846SOL     OW21436   4.128   3.298   2.684
 6846SOL    HW121437   4.055   3.235   2.711
 6846SOL    HW221438   4.175   3.332   2.766
 6847SOL     OW21439   6.543   3.374   1.548
 6847SOL    HW121440   6.569   3.278   1.554
 6847SOL    HW221441   6.598   3.428   1.611
 6848SOL     OW21442   0.332   6.202   4.527
 6848SOL    HW121443   0.359   6.211   4.431
 6848SOL    HW221444   0.269   6.275   4.552
 6849SOL     OW21445   3.183   6.721   4.567
 6849SOL    HW121446   3.188   6.695   4.663
 6849SOL    HW221447   3.231   6.654   4.511
 6850SOL     OW21448   5.742   3.420   1.472
 6850SOL    HW121449   5.822   3.444   1.529
 6850SOL    HW221450   5.688   3.351   1.519
 6851SOL     OW21451   1.195   5.381   5.656
 6851SOL    HW121452   1.248   5.364   5.739
 6851SOL    HW221453   1.098   5.367   5.675
 6852SOL     OW21454   6.483   5.050   2.453
 6852SOL    HW121455   6.525   5.086   2.536
 6852SOL    HW221456   6.410   4.986   2.477
 6853SOL     OW21457   6.296   4.162   4.921
 6853SOL    HW121458   6.374   4.103   4.944
 6853SOL    HW221459   6.230   4.161   4.996
 6854SOL     OW21460   6.843   1.881   6.151
 6854SOL    HW121461   6.831   1.824   6.233
 6854SOL    HW221462   6.845   1.823   6.070
 6855SOL     OW21463   2.999   6.688   2.111
 6855SOL    HW121464   2.935   6.764   2.109
 6855SOL    HW221465   3.088   6.719   2.144
 6856SOL     OW21466   6.869   4.651   5.628
 6856SOL    HW121467   6.880   4.743   5.665
 6856SOL    HW221468   6.772   4.629   5.617
 6857SOL     OW21469   3.650   0.948   6.289
 6857SOL    HW121470   3.701   1.033   6.303
 6857SOL    HW221471   3.606   0.921   6.375
 6858SOL     OW21472   3.673   2.897   5.728
 6858SOL    HW121473   3.769   2.889   5.755
 6858SOL    HW221474   3.667   2.945   5.640
 6859SOL     OW21475   3.258   0.919   0.457
 6859SOL    HW121476   3.182   0.890   0.515
 6859SOL    HW221477   3.258   0.864   0.373
 6860SOL     OW21478   4.420   3.965   6.595
 6860SOL    HW121479   4.356   4.040   6.577
 6860SOL    HW221480   4.501   3.976   6.538
 6861SOL     OW21481   5.378   4.163   0.757
 6861SOL    HW121482   5.454   4.102   0.779
 6861SOL    HW221483   5.400   4.216   0.675
 6862SOL     OW21484   2.655   5.166   4.198
 6862SOL    HW121485   2.738   5.212   4.167
 6862SOL    HW221486   2.657   5.157   4.298
 6863SOL     OW21487   0.681   2.727   4.180
 6863SOL    HW121488   0.694   2.655   4.112
 6863SOL    HW221489   0.770   2.765   4.205
 6864SOL     OW21490   4.684   5.816   6.008
 6864SOL    HW121491   4.727   5.785   5.923
 6864SOL    HW221492   4.676   5.739   6.071
 6865SOL     OW21493   0.122   3.236   4.492
 6865SOL    HW121494   0.156   3.300   4.424
 6865SOL    HW221495   0.041   3.189   4.457
 6866SOL     OW21496   0.470   3.145   2.154
 6866SOL    HW121497   0.415   3.062   2.139
 6866SOL    HW221498   0.409   3.220   2.180
 6867SOL     OW21499   2.745   5.311   2.927
 6867SOL    HW121500   2.668   5.358   2.969
 6867SOL    HW221501   2.714   5.263   2.845
 6868SOL     OW21502   1.496   5.580   4.922
 6868SOL    HW121503   1.574   5.526   4.953
 6868SOL    HW221504   1.425   5.519   4.887
 6869SOL     OW21505   6.734   3.430   4.691
 6869SOL    HW121506   6.712   3.355   4.753
 6869SOL    HW221507   6.816   3.476   4.724
 6870SOL     OW21508   5.562   3.611   2.534
 6870SOL    HW121509   5.512   3.528   2.513
 6870SOL    HW221510   5.660   3.593   2.528
 6871SOL     OW21511   5.261   6.949   1.672
 6871SOL    HW121512   5.222   6.868   1.629
 6871SOL    HW221513   5.225   0.012   1.626
 6872SOL     OW21514   3.009   3.603   6.701
 6872SOL    HW121515   3.036   3.676   6.638
 6872SOL    HW221516   2.918   3.569   6.676
 6873SOL     OW21517   5.873   4.175   5.217
 6873SOL    HW121518   5.834   4.263   5.245
 6873SOL    HW221519   5.860   4.108   5.289
 6874SOL     OW21520   1.144   2.100   5.558
 6874SOL    HW121521   1.100   2.178   5.513
 6874SOL    HW221522   1.234   2.084   5.517
 6875SOL     OW21523   3.287   1.928   3.972
 6875SOL    HW121524   3.313   1.917   4.068
 6875SOL    HW221525   3.362   1.973   3.923
 6876SOL     OW21526   3.496   6.409   4.626
 6876SOL    HW121527   3.567   6.375   4.564
 6876SOL    HW221528   3.497   6.356   4.710
 6877SOL     OW21529   1.978   3.674   6.560
 6877SOL    HW121530   1.972   3.730   6.643
 6877SOL    HW221531   1.892   3.625   6.546
 6878SOL     OW21532   1.670   2.266   4.848
 6878SOL    HW121533   1.637   2.361   4.843
 6878SOL    HW221534   1.727   2.255   4.929
 6879SOL     OW21535   0.870   1.076   6.108
 6879SOL    HW121536   0.850   1.153   6.047
 6879SOL    HW221537   0.846   0.990   6.062
 6880SOL     OW21538   2.116   4.077   4.377
 6880SOL    HW121539   2.051   4.010   4.411
 6880SOL    HW221540   2.204   4.064   4.422
 6881SOL     OW21541   5.678   5.742   2.104
 6881SOL    HW121542   5.613   5.667   2.117
 6881SOL    HW221543   5.769   5.712   2.132
 6882SOL     OW21544   2.651   6.161   5.002
 6882SOL    HW121545   2.621   6.177   5.096
 6882SOL    HW221546   2.748   6.184   4.993
 6883SOL     OW21547   3.422   6.570   1.403
 6883SOL    HW121548   3.343   6.513   1.382
 6883SOL    HW221549   3.449   6.556   1.499
 6884SOL     OW21550   2.719   5.142   3.367
 6884SOL    HW121551   2.799   5.086   3.344
 6884SOL    HW221552   2.748   5.225   3.414
 6885SOL     OW21553   3.863   5.351   5.357
 6885SOL    HW121554   3.928   5.330   5.283
 6885SOL    HW221555   3.772   5.317   5.332
 6886SOL     OW21556   5.458   1.851   2.119
 6886SOL    HW121557   5.404   1.880   2.039
 6886SOL    HW221558   5.547   1.896   2.117
 6887SOL     OW21559   4.538   0.897   5.236
 6887SOL    HW121560   4.607   0.860   5.173
 6887SOL    HW221561   4.483   0.965   5.189
 6888SOL     OW21562   5.844   6.787   5.045
 6888SOL    HW121563   5.861   6.827   5.136
 6888SOL    HW221564   5.871   6.852   4.975
 6889SOL     OW21565   1.421   4.236   6.202
 6889SOL    HW121566   1.378   4.150   6.175
 6889SOL    HW221567   1.355   4.311   6.192
 6890SOL     OW21568   1.953   0.514   0.470
 6890SOL    HW121569   2.026   0.450   0.495
 6890SOL    HW221570   1.896   0.533   0.550
 6891SOL     OW21571   3.967   5.046   4.937
 6891SOL    HW121572   3.889   4.985   4.954
 6891SOL    HW221573   4.026   5.006   4.867
 6892SOL     OW21574   3.591   1.489   4.839
 6892SOL    HW121575   3.647   1.407   4.848
 6892SOL    HW221576   3.606   1.548   4.919
 6893SOL     OW21577   5.719   6.978   1.585
 6893SOL    HW121578   5.805   6.946   1.546
 6893SOL    HW221579   5.650   6.906   1.578
 6894SOL     OW21580   5.947   4.892   5.589
 6894SOL    HW121581   5.923   4.906   5.493
 6894SOL    HW221582   6.027   4.832   5.595
 6895SOL     OW21583   4.053   4.879   6.214
 6895SOL    HW121584   4.098   4.790   6.218
 6895SOL    HW221585   4.044   4.917   6.306
 6896SOL     OW21586   4.546   0.624   3.025
 6896SOL    HW121587   4.450   0.595   3.025
 6896SOL    HW221588   4.599   0.563   3.083
 6897SOL     OW21589   3.531   1.972   0.495
 6897SOL    HW121590   3.437   1.998   0.516
 6897SOL    HW221591   3.545   1.875   0.518
 6898SOL     OW21592   3.842   1.358   3.192
 6898SOL    HW121593   3.769   1.291   3.183
 6898SOL    HW221594   3.908   1.346   3.118
 6899SOL     OW21595   5.440   6.225   6.501
 6899SOL    HW121596   5.493   6.211   6.418
 6899SOL    HW221597   5.450   6.320   6.531
 6900SOL     OW21598   3.872   1.220   5.727
 6900SOL    HW121599   3.925   1.157   5.784
 6900SOL    HW221600   3.807   1.168   5.671
 6901SOL     OW21601   1.240   0.766   0.542
 6901SOL    HW121602   1.310   0.695   0.532
 6901SOL    HW221603   1.225   0.810   0.454
 6902SOL     OW21604   6.502   5.344   1.913
 6902SOL    HW121605   6.471   5.339   1.818
 6902SOL    HW221606   6.429   5.381   1.970
 6903SOL     OW21607   4.306   4.545   0.628
 6903SOL    HW121608   4.326   4.642   0.646
 6903SOL    HW221609   4.392   4.493   0.629
 6904SOL     OW21610   0.847   1.811   3.316
 6904SOL    HW121611   0.870   1.778   3.408
 6904SOL    HW221612   0.918   1.782   3.251
 6905SOL     OW21613   4.035   4.875   1.105
 6905SOL    HW121614   3.947   4.909   1.070
 6905SOL    HW221615   4.075   4.813   1.037
 6906SOL     OW21616   5.120   5.923   3.382
 6906SOL    HW121617   5.148   6.013   3.347
 6906SOL    HW221618   5.029   5.930   3.422
 6907SOL     OW21619   3.610   0.913   1.306
 6907SOL    HW121620   3.644   0.892   1.214
 6907SOL    HW221621   3.643   0.844   1.370
 6908SOL     OW21622   6.958   0.022   6.578
 6908SOL    HW121623   6.930   0.101   6.523
 6908SOL    HW221624   6.997   0.054   6.664
 6909SOL     OW21625   3.415   3.004   6.763
 6909SOL    HW121626   3.350   3.078   6.770
 6909SOL    HW221627   3.376   2.920   6.802
 6910SOL     OW21628   6.245   1.171   1.516
 6910SOL    HW121629   6.302   1.107   1.464
 6910SOL    HW221630   6.206   1.239   1.455
 6911SOL     OW21631   4.300   0.820   4.933
 6911SOL    HW121632   4.371   0.751   4.925
 6911SOL    HW221633   4.267   0.846   4.842
 6912SOL     OW21634   4.497   5.024   2.030
 6912SOL    HW121635   4.497   4.950   1.963
 6912SOL    HW221636   4.491   5.112   1.983
 6913SOL     OW21637   4.141   5.823   5.947
 6913SOL    HW121638   4.214   5.853   5.885
 6913SOL    HW221639   4.179   5.810   6.039
 6914SOL     OW21640   6.277   5.091   7.011
 6914SOL    HW121641   6.261   5.189   0.000
 6914SOL    HW221642   6.216   5.042   0.055
 6915SOL     OW21643   1.715   5.489   0.844
 6915SOL    HW121644   1.736   5.398   0.808
 6915SOL    HW221645   1.619   5.493   0.872
 6916SOL     OW21646   6.498   0.812   5.841
 6916SOL    HW121647   6.573   0.746   5.843
 6916SOL    HW221648   6.474   0.833   5.746
 6917SOL     OW21649   4.738   0.293   6.715
 6917SOL    HW121650   4.647   0.273   6.750
 6917SOL    HW221651   4.738   0.384   6.672
 6918SOL     OW21652   2.146   2.836   3.934
 6918SOL    HW121653   2.202   2.826   4.016
 6918SOL    HW221654   2.206   2.840   3.854
 6919SOL     OW21655   1.140   6.313   3.244
 6919SOL    HW121656   1.227   6.276   3.211
 6919SOL    HW221657   1.156   6.394   3.300
 6920SOL     OW21658   5.135   6.754   4.696
 6920SOL    HW121659   5.150   6.852   4.710
 6920SOL    HW221660   5.206   6.718   4.636
 6921SOL     OW21661   0.857   6.284   2.755
 6921SOL    HW121662   0.809   6.366   2.725
 6921SOL    HW221663   0.855   6.279   2.855
 6922SOL     OW21664   1.736   5.716   0.074
 6922SOL    HW121665   1.818   5.699   0.020
 6922SOL    HW221666   1.705   5.809   0.059
 6923SOL     OW21667   4.251   6.974   3.899
 6923SOL    HW121668   4.329   6.937   3.951
 6923SOL    HW221669   4.222   6.908   3.831
 6924SOL     OW21670   6.761   6.284   1.708
 6924SOL    HW121671   6.677   6.247   1.668
 6924SOL    HW221672   6.756   6.280   1.808
 6925SOL     OW21673   6.379   5.515   3.098
 6925SOL    HW121674   6.399   5.597   3.152
 6925SOL    HW221675   6.360   5.540   3.004
 6926SOL     OW21676   2.720   4.182   5.312
 6926SOL    HW121677   2.644   4.201   5.374
 6926SOL    HW221678   2.719   4.085   5.287
 6927SOL     OW21679   3.813   2.960   0.346
 6927SOL    HW121680   3.811   2.981   0.248
 6927SOL    HW221681   3.826   3.045   0.398
 6928SOL     OW21682   0.015   6.773   6.564
 6928SOL    HW121683   0.038   6.737   6.474
 6928SOL    HW221684   7.013   6.871   6.557
 6929SOL     OW21685   3.464   5.201   0.607
 6929SOL    HW121686   3.527   5.273   0.577
 6929SOL    HW221687   3.373   5.239   0.622
 6930SOL     OW21688   1.491   0.235   3.317
 6930SOL    HW121689   1.419   0.227   3.385
 6930SOL    HW221690   1.572   0.185   3.347
 6931SOL     OW21691   2.174   0.450   1.109
 6931SOL    HW121692   2.263   0.405   1.106
 6931SOL    HW221693   2.185   0.544   1.141
 6932SOL     OW21694   2.425   2.168   0.081
 6932SOL    HW121695   2.517   2.205   0.067
 6932SOL    HW221696   2.429   2.088   0.140
 6933SOL     OW21697   2.883   6.369   6.708
 6933SOL    HW121698   2.977   6.389   6.738
 6933SOL    HW221699   2.879   6.368   6.608
 6934SOL     OW21700   5.580   4.500   6.182
 6934SOL    HW121701   5.495   4.547   6.160
 6934SOL    HW221702   5.634   4.555   6.245
 6935SOL     OW21703   4.371   6.039   2.948
 6935SOL    HW121704   4.315   5.981   2.888
 6935SOL    HW221705   4.442   6.083   2.894
 6936SOL     OW21706   0.505   5.104   0.990
 6936SOL    HW121707   0.588   5.070   1.036
 6936SOL    HW221708   0.486   5.048   0.909
 6937SOL     OW21709   4.397   6.302   6.111
 6937SOL    HW121710   4.336   6.320   6.188
 6937SOL    HW221711   4.483   6.351   6.125
 6938SOL     OW21712   5.919   1.702   5.002
 6938SOL    HW121713   5.874   1.727   5.087
 6938SOL    HW221714   6.015   1.733   5.004
 6939SOL     OW21715   6.970   4.595   1.937
 6939SOL    HW121716   6.903   4.567   2.006
 6939SOL    HW221717   0.028   4.531   1.936
 6940SOL     OW21718   3.934   0.778   5.249
 6940SOL    HW121719   4.001   0.717   5.292
 6940SOL    HW221720   3.979   0.836   5.182
 6941SOL     OW21721   4.088   3.328   4.259
 6941SOL    HW121722   4.072   3.337   4.161
 6941SOL    HW221723   4.162   3.389   4.287
 6942SOL     OW21724   6.629   1.766   0.346
 6942SOL    HW121725   6.586   1.698   0.405
 6942SOL    HW221726   6.728   1.756   0.348
 6943SOL     OW21727   5.929   6.279   6.740
 6943SOL    HW121728   5.932   6.305   6.836
 6943SOL    HW221729   6.011   6.313   6.693
 6944SOL     OW21730   1.247   6.388   6.025
 6944SOL    HW121731   1.270   6.301   5.980
 6944SOL    HW221732   1.301   6.397   6.109
 6945SOL     OW21733   4.457   1.924   5.226
 6945SOL    HW121734   4.365   1.886   5.217
 6945SOL    HW221735   4.524   1.851   5.231
 6946SOL     OW21736   6.013   3.829   3.528
 6946SOL    HW121737   6.085   3.764   3.551
 6946SOL    HW221738   5.952   3.789   3.459
 6947SOL     OW21739   3.572   7.003   2.666
 6947SOL    HW121740   3.491   0.035   2.696
 6947SOL    HW221741   3.632   0.043   2.613
 6948SOL     OW21742   3.773   2.099   4.725
 6948SOL    HW121743   3.867   2.122   4.701
 6948SOL    HW221744   3.712   2.130   4.652
 6949SOL     OW21745   5.069   1.014   2.388
 6949SOL    HW121746   5.075   1.090   2.453
 6949SOL    HW221747   5.026   0.936   2.433
 6950SOL     OW21748   2.547   1.223   3.901
 6950SOL    HW121749   2.646   1.214   3.895
 6950SOL    HW221750   2.518   1.207   3.996
 6951SOL     OW21751   5.123   5.326   5.573
 6951SOL    HW121752   5.089   5.405   5.623
 6951SOL    HW221753   5.090   5.242   5.616
 6952SOL     OW21754   6.995   5.200   5.038
 6952SOL    HW121755   0.045   5.194   4.966
 6952SOL    HW221756   6.904   5.190   4.998
 6953SOL     OW21757   5.615   2.396   4.985
 6953SOL    HW121758   5.591   2.364   5.077
 6953SOL    HW221759   5.535   2.388   4.925
 6954SOL     OW21760   0.546   5.189   2.882
 6954SOL    HW121761   0.480   5.263   2.892
 6954SOL    HW221762   0.499   5.101   2.885
 6955SOL     OW21763   6.796   6.118   3.304
 6955SOL    HW121764   6.706   6.137   3.345
 6955SOL    HW221765   6.794   6.143   3.207
 6956SOL     OW21766   3.202   5.195   0.899
 6956SOL    HW121767   3.296   5.229   0.897
 6956SOL    HW221768   3.202   5.096   0.891
 6957SOL     OW21769   0.529   3.857   0.237
 6957SOL    HW121770   0.572   3.792   0.299
 6957SOL    HW221771   0.461   3.911   0.287
 6958SOL     OW21772   2.223   3.869   6.166
 6958SOL    HW121773   2.249   3.776   6.142
 6958SOL    HW221774   2.124   3.877   6.172
 6959SOL     OW21775   4.030   1.334   3.698
 6959SOL    HW121776   3.948   1.286   3.669
 6959SOL    HW221777   4.109   1.274   3.689
 6960SOL     OW21778   6.886   5.062   0.041
 6960SOL    HW121779   6.968   5.005   0.032
 6960SOL    HW221780   6.818   5.013   0.097
 6961SOL     OW21781   0.142   1.379   2.931
 6961SOL    HW121782   0.111   1.355   3.023
 6961SOL    HW221783   0.067   1.425   2.882
 6962SOL     OW21784   3.341   3.462   0.588
 6962SOL    HW121785   3.342   3.549   0.539
 6962SOL    HW221786   3.428   3.448   0.635
 6963SOL     OW21787   6.249   5.830   2.573
 6963SOL    HW121788   6.328   5.835   2.511
 6963SOL    HW221789   6.205   5.741   2.564
 6964SOL     OW21790   3.479   6.083   5.087
 6964SOL    HW121791   3.416   6.011   5.061
 6964SOL    HW221792   3.564   6.043   5.122
 6965SOL     OW21793   6.491   2.882   5.455
 6965SOL    HW121794   6.462   2.827   5.533
 6965SOL    HW221795   6.419   2.948   5.432
 6966SOL     OW21796   4.979   2.635   3.746
 6966SOL    HW121797   4.960   2.724   3.786
 6966SOL    HW221798   4.894   2.594   3.712
 6967SOL     OW21799   2.076   2.174   6.260
 6967SOL    HW121800   2.072   2.252   6.322
 6967SOL    HW221801   2.060   2.204   6.166
 6968SOL     OW21802   4.102   6.854   2.366
 6968SOL    HW121803   4.131   6.904   2.447
 6968SOL    HW221804   4.066   6.764   2.393
 6969SOL     OW21805   2.794   2.215   1.258
 6969SOL    HW121806   2.716   2.238   1.199
 6969SOL    HW221807   2.874   2.266   1.228
 6970SOL     OW21808   4.337   3.864   0.477
 6970SOL    HW121809   4.382   3.904   0.557
 6970SOL    HW221810   4.382   3.778   0.453
 6971SOL     OW21811   5.838   0.641   2.066
 6971SOL    HW121812   5.786   0.706   2.122
 6971SOL    HW221813   5.894   0.583   2.125
 6972SOL     OW21814   5.409   5.021   4.802
 6972SOL    HW121815   5.335   5.027   4.868
 6972SOL    HW221816   5.496   5.011   4.850
 6973SOL     OW21817   1.978   4.238   3.199
 6973SOL    HW121818   1.912   4.163   3.202
 6973SOL    HW221819   1.986   4.272   3.105
 6974SOL     OW21820   3.359   4.123   4.845
 6974SOL    HW121821   3.261   4.110   4.831
 6974SOL    HW221822   3.381   4.108   4.942
 6975SOL     OW21823   3.310   1.021   6.123
 6975SOL    HW121824   3.228   1.023   6.065
 6975SOL    HW221825   3.368   0.943   6.098
 6976SOL     OW21826   1.886   5.677   0.340
 6976SOL    HW121827   1.800   5.663   0.389
 6976SOL    HW221828   1.867   5.694   0.243
 6977SOL     OW21829   4.036   2.264   2.672
 6977SOL    HW121830   4.066   2.359   2.679
 6977SOL    HW221831   3.979   2.253   2.591
 6978SOL     OW21832   6.137   1.166   2.455
 6978SOL    HW121833   6.115   1.221   2.535
 6978SOL    HW221834   6.138   1.069   2.479
 6979SOL     OW21835   0.670   4.395   3.451
 6979SOL    HW121836   0.750   4.446   3.482
 6979SOL    HW221837   0.684   4.365   3.357
 6980SOL     OW21838   3.629   1.517   4.264
 6980SOL    HW121839   3.572   1.585   4.218
 6980SOL    HW221840   3.725   1.534   4.243
 6981SOL     OW21841   3.258   4.956   6.521
 6981SOL    HW121842   3.340   5.011   6.509
 6981SOL    HW221843   3.206   4.991   6.599
 6982SOL     OW21844   0.489   6.905   4.399
 6982SOL    HW121845   0.537   6.978   4.350
 6982SOL    HW221846   0.555   6.847   4.446
 6983SOL     OW21847   5.976   0.691   4.478
 6983SOL    HW121848   5.993   0.725   4.386
 6983SOL    HW221849   5.879   0.698   4.499
 6984SOL     OW21850   2.173   1.309   5.758
 6984SOL    HW121851   2.201   1.213   5.759
 6984SOL    HW221852   2.252   1.368   5.773
 6985SOL     OW21853   5.023   6.582   2.219
 6985SOL    HW121854   5.055   6.569   2.313
 6985SOL    HW221855   5.076   6.522   2.158
 6986SOL     OW21856   2.415   6.773   5.002
 6986SOL    HW121857   2.467   6.730   5.076
 6986SOL    HW221858   2.362   6.850   5.038
 6987SOL     OW21859   6.689   3.653   6.563
 6987SOL    HW121860   6.764   3.586   6.569
 6987SOL    HW221861   6.726   3.745   6.570
 6988SOL     OW21862   5.151   1.026   5.379
 6988SOL    HW121863   5.088   0.948   5.382
 6988SOL    HW221864   5.180   1.050   5.471
 6989SOL     OW21865   1.435   2.832   3.991
 6989SOL    HW121866   1.474   2.758   3.938
 6989SOL    HW221867   1.409   2.907   3.930
 6990SOL     OW21868   3.972   3.163   0.518
 6990SOL    HW121869   4.017   3.251   0.504
 6990SOL    HW221870   4.039   3.089   0.516
 6991SOL     OW21871   4.506   4.574   5.364
 6991SOL    HW121872   4.575   4.516   5.321
 6991SOL    HW221873   4.473   4.530   5.448
 6992SOL     OW21874   5.836   6.146   5.240
 6992SOL    HW121875   5.763   6.185   5.296
 6992SOL    HW221876   5.796   6.112   5.154
 6993SOL     OW21877   0.784   6.475   3.266
 6993SOL    HW121878   0.755   6.384   3.298
 6993SOL    HW221879   0.827   6.525   3.341
 6994SOL     OW21880   1.576   3.298   0.043
 6994SOL    HW121881   1.672   3.320   0.058
 6994SOL    HW221882   1.525   3.314   0.127
 6995SOL     OW21883   0.493   4.782   3.558
 6995SOL    HW121884   0.484   4.687   3.588
 6995SOL    HW221885   0.550   4.785   3.475
 6996SOL     OW21886   2.399   0.133   6.016
 6996SOL    HW121887   2.419   0.230   6.008
 6996SOL    HW221888   2.352   0.102   5.932
 6997SOL     OW21889   5.266   6.872   4.362
 6997SOL    HW121890   5.242   6.952   4.306
 6997SOL    HW221891   5.209   6.794   4.334
 6998SOL     OW21892   1.257   2.457   3.270
 6998SOL    HW121893   1.236   2.554   3.276
 6998SOL    HW221894   1.173   2.404   3.278
 6999SOL     OW21895   4.499   1.979   6.657
 6999SOL    HW121896   4.549   2.024   6.583
 6999SOL    HW221897   4.519   2.023   6.744
 7000SOL     OW21898   6.713   6.686   0.783
 7000SOL    HW121899   6.645   6.614   0.792
 7000SOL    HW221900   6.688   6.747   0.707
 7001SOL     OW21901   2.936   2.207   5.697
 7001SOL    HW121902   2.850   2.165   5.668
 7001SOL    HW221903   2.923   2.306   5.707
 7002SOL     OW21904   2.020   4.374   2.755
 7002SOL    HW121905   2.058   4.461   2.723
 7002SOL    HW221906   2.094   4.314   2.785
 7003SOL     OW21907   1.591   6.604   6.616
 7003SOL    HW121908   1.559   6.695   6.642
 7003SOL    HW221909   1.577   6.590   6.517
 7004SOL     OW21910   1.226   4.610   0.852
 7004SOL    HW121911   1.321   4.586   0.833
 7004SOL    HW221912   1.165   4.556   0.794
 7005SOL     OW21913   5.689   6.810   5.414
 7005SOL    HW121914   5.660   6.881   5.478
 7005SOL    HW221915   5.761   6.847   5.355
 7006SOL     OW21916   4.557   5.356   4.812
 7006SOL    HW121917   4.566   5.388   4.718
 7006SOL    HW221918   4.623   5.282   4.828
 7007SOL     OW21919   5.066   5.124   2.669
 7007SOL    HW121920   5.033   5.080   2.753
 7007SOL    HW221921   4.992   5.175   2.627
 7008SOL     OW21922   1.266   4.361   4.107
 7008SOL    HW121923   1.179   4.337   4.064
 7008SOL    HW221924   1.341   4.336   4.046
 7009SOL     OW21925   0.133   4.366   2.265
 7009SOL    HW121926   0.196   4.431   2.307
 7009SOL    HW221927   0.184   4.290   2.225
 7010SOL     OW21928   4.042   4.400   6.301
 7010SOL    HW121929   4.036   4.460   6.221
 7010SOL    HW221930   3.974   4.428   6.368
 7011SOL     OW21931   1.853   1.257   4.779
 7011SOL    HW121932   1.921   1.199   4.826
 7011SOL    HW221933   1.820   1.210   4.697
 7012SOL     OW21934   1.475   1.197   1.248
 7012SOL    HW121935   1.465   1.098   1.237
 7012SOL    HW221936   1.510   1.236   1.163
 7013SOL     OW21937   0.343   1.143   2.195
 7013SOL    HW121938   0.412   1.071   2.208
 7013SOL    HW221939   0.386   1.223   2.155
 7014SOL     OW21940   2.237   4.916   0.789
 7014SOL    HW121941   2.172   4.986   0.756
 7014SOL    HW221942   2.209   4.886   0.880
 7015SOL     OW21943   5.491   2.410   2.229
 7015SOL    HW121944   5.527   2.359   2.307
 7015SOL    HW221945   5.424   2.354   2.181
 7016SOL     OW21946   3.518   4.587   1.143
 7016SOL    HW121947   3.606   4.563   1.184
 7016SOL    HW221948   3.445   4.567   1.207
 7017SOL     OW21949   4.240   1.476   4.357
 7017SOL    HW121950   4.334   1.509   4.365
 7017SOL    HW221951   4.227   1.437   4.266
 7018SOL     OW21952   0.550   4.503   3.662
 7018SOL    HW121953   0.594   4.449   3.591
 7018SOL    HW221954   0.455   4.475   3.672
 7019SOL     OW21955   1.777   5.919   1.292
 7019SOL    HW121956   1.848   5.851   1.272
 7019SOL    HW221957   1.729   5.942   1.207
 7020SOL     OW21958   6.928   6.199   6.091
 7020SOL    HW121959   6.938   6.176   6.188
 7020SOL    HW221960   6.905   6.117   6.039
 7021SOL     OW21961   3.737   6.885   5.695
 7021SOL    HW121962   3.695   6.836   5.618
 7021SOL    HW221963   3.751   6.981   5.669
 7022SOL     OW21964   4.633   5.547   6.171
 7022SOL    HW121965   4.567   5.520   6.100
 7022SOL    HW221966   4.712   5.486   6.168
 7023SOL     OW21967   5.865   4.175   2.888
 7023SOL    HW121968   5.904   4.094   2.931
 7023SOL    HW221969   5.899   4.257   2.935
 7024SOL     OW21970   0.194   6.153   1.557
 7024SOL    HW121971   0.255   6.131   1.480
 7024SOL    HW221972   0.176   6.070   1.609
 7025SOL     OW21973   2.503   0.441   6.563
 7025SOL    HW121974   2.574   0.510   6.576
 7025SOL    HW221975   2.484   0.429   6.466
 7026SOL     OW21976   3.619   1.640   1.142
 7026SOL    HW121977   3.690   1.693   1.095
 7026SOL    HW221978   3.572   1.699   1.208
 7027SOL     OW21979   4.476   0.258   4.159
 7027SOL    HW121980   4.470   0.324   4.233
 7027SOL    HW221981   4.535   0.182   4.187
 7028SOL     OW21982   3.337   6.950   4.465
 7028SOL    HW121983   3.403   6.978   4.535
 7028SOL    HW221984   3.281   6.875   4.499
 7029SOL     OW21985   3.724   0.935   4.877
 7029SOL    HW121986   3.720   0.995   4.957
 7029SOL    HW221987   3.637   0.888   4.867
 7030SOL     OW21988   2.170   3.343   3.395
 7030SOL    HW121989   2.131   3.423   3.349
 7030SOL    HW221990   2.241   3.303   3.338
 7031SOL     OW21991   1.663   0.322   5.058
 7031SOL    HW121992   1.744   0.299   5.004
 7031SOL    HW221993   1.608   0.389   5.009
 7032SOL     OW21994   6.805   2.114   3.390
 7032SOL    HW121995   6.898   2.124   3.355
 7032SOL    HW221996   6.745   2.179   3.344
 7033SOL     OW21997   0.195   0.048   4.554
 7033SOL    HW121998   0.281   0.033   4.603
 7033SOL    HW221999   0.208   0.117   4.483
 7034SOL     OW22000   0.084   5.862   2.822
 7034SOL    HW122001   0.095   5.927   2.897
 7034SOL    HW222002   0.003   5.888   2.768
 7035SOL     OW22003   6.557   4.955   2.212
 7035SOL    HW122004   6.560   5.005   2.299
 7035SOL    HW222005   6.464   4.953   2.177
 7036SOL     OW22006   6.300   4.522   0.879
 7036SOL    HW122007   6.275   4.612   0.844
 7036SOL    HW222008   6.370   4.532   0.949
 7037SOL     OW22009   0.429   0.309   7.013
 7037SOL    HW122010   0.506   0.363   0.028
 7037SOL    HW222011   0.444   0.287   6.917
 7038SOL     OW22012   1.755   3.442   4.361
 7038SOL    HW122013   1.711   3.373   4.419
 7038SOL    HW222014   1.762   3.407   4.267
 7039SOL     OW22015   4.404   2.322   6.284
 7039SOL    HW122016   4.318   2.309   6.333
 7039SOL    HW222017   4.469   2.372   6.341
 7040SOL     OW22018   5.367   2.611   6.470
 7040SOL    HW122019   5.269   2.631   6.464
 7040SOL    HW222020   5.388   2.529   6.417
 7041SOL     OW22021   2.824   1.349   2.598
 7041SOL    HW122022   2.864   1.266   2.559
 7041SOL    HW222023   2.811   1.336   2.697
 7042SOL     OW22024   1.659   0.451   7.006
 7042SOL    HW122025   1.738   0.436   6.946
 7042SOL    HW222026   1.666   0.541   0.029
 7043SOL     OW22027   1.145   2.588   2.715
 7043SOL    HW122028   1.219   2.569   2.651
 7043SOL    HW222029   1.177   2.649   2.788
 7044SOL     OW22030   5.094   6.119   2.129
 7044SOL    HW122031   5.003   6.086   2.105
 7044SOL    HW222032   5.149   6.044   2.166
 7045SOL     OW22033   6.295   4.701   1.157
 7045SOL    HW122034   6.208   4.683   1.112
 7045SOL    HW222035   6.289   4.786   1.209
 7046SOL     OW22036   2.719   0.971   3.961
 7046SOL    HW122037   2.640   0.990   3.903
 7046SOL    HW222038   2.691   0.911   4.036
 7047SOL     OW22039   1.827   1.487   3.721
 7047SOL    HW122040   1.921   1.452   3.727
 7047SOL    HW222041   1.784   1.483   3.811
 7048SOL     OW22042   6.644   6.122   0.389
 7048SOL    HW122043   6.576   6.156   0.324
 7048SOL    HW222044   6.697   6.198   0.426
 7049SOL     OW22045   1.512   0.935   0.448
 7049SOL    HW122046   1.607   0.942   0.479
 7049SOL    HW222047   1.492   1.010   0.385
 7050SOL     OW22048   3.985   3.795   4.683
 7050SOL    HW122049   4.006   3.711   4.635
 7050SOL    HW222050   3.973   3.870   4.617
 7051SOL     OW22051   6.900   6.644   2.520
 7051SOL    HW122052   6.886   6.729   2.469
 7051SOL    HW222053   6.971   6.658   2.589
 7052SOL     OW22054   6.937   1.604   3.908
 7052SOL    HW122055   6.883   1.520   3.914
 7052SOL    HW222056   6.932   1.640   3.815
 7053SOL     OW22057   6.428   4.471   5.981
 7053SOL    HW122058   6.501   4.530   6.016
 7053SOL    HW222059   6.468   4.399   5.924
 7054SOL     OW22060   6.789   0.179   1.843
 7054SOL    HW122061   6.749   0.088   1.831
 7054SOL    HW222062   6.884   0.178   1.813
 7055SOL     OW22063   3.795   6.769   5.354
 7055SOL    HW122064   3.706   6.809   5.372
 7055SOL    HW222065   3.785   6.670   5.338
 7056SOL     OW22066   4.551   4.926   4.174
 7056SOL    HW122067   4.608   4.848   4.200
 7056SOL    HW222068   4.570   4.951   4.079
 7057SOL     OW22069   0.869   6.058   2.971
 7057SOL    HW122070   0.909   6.094   3.056
 7057SOL    HW222071   0.846   6.133   2.910
 7058SOL     OW22072   6.977   4.939   5.475
 7058SOL    HW122073   0.000   5.030   5.470
 7058SOL    HW222074   6.947   4.922   5.568
 7059SOL     OW22075   2.219   0.780   2.607
 7059SOL    HW122076   2.258   0.692   2.631
 7059SOL    HW222077   2.160   0.813   2.681
 7060SOL     OW22078   3.121   7.010   1.198
 7060SOL    HW122079   3.090   0.083   1.220
 7060SOL    HW222080   3.135   6.958   1.282
 7061SOL     OW22081   0.332   1.008   3.248
 7061SOL    HW122082   0.294   1.070   3.179
 7061SOL    HW222083   0.307   1.041   3.339
 7062SOL     OW22084   6.547   1.457   5.481
 7062SOL    HW122085   6.617   1.454   5.410
 7062SOL    HW222086   6.470   1.398   5.455
 7063SOL     OW22087   2.540   0.086   1.574
 7063SOL    HW122088   2.512   7.011   1.556
 7063SOL    HW222089   2.544   0.103   1.672
 7064SOL     OW22090   4.263   2.214   0.549
 7064SOL    HW122091   4.191   2.167   0.497
 7064SOL    HW222092   4.314   2.147   0.602
 7065SOL     OW22093   4.343   3.907   1.732
 7065SOL    HW122094   4.328   3.827   1.789
 7065SOL    HW222095   4.258   3.934   1.688
 7066SOL     OW22096   3.350   6.274   1.014
 7066SOL    HW122097   3.271   6.221   0.983
 7066SOL    HW222098   3.394   6.226   1.091
 7067SOL     OW22099   0.287   4.102   4.640
 7067SOL    HW122100   0.366   4.054   4.602
 7067SOL    HW222101   0.268   4.068   4.732
 7068SOL     OW22102   0.881   0.787   2.419
 7068SOL    HW122103   0.816   0.806   2.493
 7068SOL    HW222104   0.906   0.690   2.420
 7069SOL     OW22105   1.591   3.981   4.486
 7069SOL    HW122106   1.531   4.058   4.510
 7069SOL    HW222107   1.558   3.898   4.529
 7070SOL     OW22108   5.025   5.844   4.626
 7070SOL    HW122109   5.018   5.750   4.658
 7070SOL    HW222110   4.956   5.861   4.555
 7071SOL     OW22111   1.498   6.741   5.305
 7071SOL    HW122112   1.513   6.644   5.286
 7071SOL    HW222113   1.414   6.752   5.358
 7072SOL     OW22114   0.015   6.116   6.390
 7072SOL    HW122115   0.057   6.207   6.401
 7072SOL    HW222116   7.001   6.084   6.478
 7073SOL     OW22117   1.244   1.937   6.770
 7073SOL    HW122118   1.192   1.919   6.686
 7073SOL    HW222119   1.186   1.988   6.834
 7074SOL     OW22120   2.995   1.754   0.858
 7074SOL    HW122121   3.094   1.747   0.859
 7074SOL    HW222122   2.955   1.662   0.860
 7075SOL     OW22123   1.269   5.383   2.799
 7075SOL    HW122124   1.235   5.354   2.888
 7075SOL    HW222125   1.308   5.475   2.805
 7076SOL     OW22126   3.177   2.426   6.644
 7076SOL    HW122127   3.224   2.396   6.727
 7076SOL    HW222128   3.224   2.390   6.564
 7077SOL     OW22129   1.831   4.701   5.528
 7077SOL    HW122130   1.911   4.752   5.496
 7077SOL    HW222131   1.756   4.712   5.463
 7078SOL     OW22132   6.674   0.479   2.654
 7078SOL    HW122133   6.634   0.414   2.590
 7078SOL    HW222134   6.603   0.539   2.691
 7079SOL     OW22135   4.974   5.174   5.838
 7079SOL    HW122136   5.060   5.125   5.854
 7079SOL    HW222137   4.943   5.158   5.745
 7080SOL     OW22138   5.978   0.163   4.163
 7080SOL    HW122139   6.034   0.132   4.240
 7080SOL    HW222140   5.933   0.085   4.120
 7081SOL     OW22141   3.558   1.038   5.515
 7081SOL    HW122142   3.592   0.984   5.438
 7081SOL    HW222143   3.626   1.040   5.588
 7082SOL     OW22144   5.165   1.074   6.611
 7082SOL    HW122145   5.096   1.108   6.549
 7082SOL    HW222146   5.250   1.056   6.561
 7083SOL     OW22147   3.203   6.645   5.910
 7083SOL    HW122148   3.142   6.660   5.988
 7083SOL    HW222149   3.192   6.719   5.844
 7084SOL     OW22150   6.420   6.321   0.475
 7084SOL    HW122151   6.457   6.409   0.505
 7084SOL    HW222152   6.399   6.265   0.555
 7085SOL     OW22153   2.759   2.546   0.795
 7085SOL    HW122154   2.763   2.447   0.805
 7085SOL    HW222155   2.772   2.590   0.884
 7086SOL     OW22156   6.632   0.877   6.716
 7086SOL    HW122157   6.583   0.843   6.636
 7086SOL    HW222158   6.657   0.800   6.775
 7087SOL     OW22159   1.699   2.606   4.661
 7087SOL    HW122160   1.647   2.655   4.591
 7087SOL    HW222161   1.643   2.596   4.743
 7088SOL     OW22162   0.118   2.306   5.458
 7088SOL    HW122163   0.161   2.365   5.390
 7088SOL    HW222164   0.116   2.212   5.425
 7089SOL     OW22165   2.732   1.901   0.497
 7089SOL    HW122166   2.766   1.992   0.472
 7089SOL    HW222167   2.775   1.832   0.439
 7090SOL     OW22168   2.246   3.005   4.814
 7090SOL    HW122169   2.294   2.986   4.900
 7090SOL    HW222170   2.226   3.103   4.808
 7091SOL     OW22171   0.076   6.555   0.383
 7091SOL    HW122172   0.053   6.517   0.294
 7091SOL    HW222173   0.037   6.497   0.455
 7092SOL     OW22174   3.204   3.186   6.762
 7092SOL    HW122175   3.234   3.172   6.668
 7092SOL    HW222176   3.118   3.136   6.778
 7093SOL     OW22177   4.020   2.893   5.492
 7093SOL    HW122178   4.050   2.797   5.488
 7093SOL    HW222179   4.082   2.945   5.550
 7094SOL     OW22180   0.333   0.300   6.394
 7094SOL    HW122181   0.364   0.243   6.318
 7094SOL    HW222182   0.307   0.241   6.471
 7095SOL     OW22183   0.188   3.795   6.675
 7095SOL    HW122184   0.200   3.819   6.578
 7095SOL    HW222185   0.278   3.787   6.718
 7096SOL     OW22186   5.741   0.778   2.304
 7096SOL    HW122187   5.714   0.756   2.398
 7096SOL    HW222188   5.713   0.871   2.282
 7097SOL     OW22189   1.150   0.419   1.343
 7097SOL    HW122190   1.092   0.500   1.345
 7097SOL    HW222191   1.105   0.346   1.291
 7098SOL     OW22192   1.935   6.920   5.763
 7098SOL    HW122193   1.950   6.826   5.730
 7098SOL    HW222194   1.990   6.936   5.845
 7099SOL     OW22195   0.277   0.867   6.284
 7099SOL    HW122196   0.285   0.958   6.325
 7099SOL    HW222197   0.212   0.812   6.337
 7100SOL     OW22198   5.423   2.654   0.740
 7100SOL    HW122199   5.434   2.570   0.687
 7100SOL    HW222200   5.492   2.657   0.812
 7101SOL     OW22201   1.911   0.133   4.531
 7101SOL    HW122202   1.880   0.223   4.500
 7101SOL    HW222203   1.837   0.088   4.581
 7102SOL     OW22204   4.674   2.458   0.719
 7102SOL    HW122205   4.647   2.472   0.623
 7102SOL    HW222206   4.624   2.521   0.777
 7103SOL     OW22207   2.669   6.640   6.458
 7103SOL    HW122208   2.711   6.549   6.456
 7103SOL    HW222209   2.592   6.639   6.521
 7104SOL     OW22210   0.903   2.016   2.124
 7104SOL    HW122211   0.821   2.073   2.130
 7104SOL    HW222212   0.984   2.075   2.115
 7105SOL     OW22213   2.442   4.119   5.409
 7105SOL    HW122214   2.400   4.206   5.384
 7105SOL    HW222215   2.443   4.058   5.330
 7106SOL     OW22216   3.153   2.633   5.323
 7106SOL    HW122217   3.081   2.601   5.385
 7106SOL    HW222218   3.188   2.557   5.270
 7107SOL     OW22219   2.712   0.730   6.952
 7107SOL    HW122220   2.797   0.700   6.910
 7107SOL    HW222221   2.727   0.747   0.030
 7108SOL     OW22222   4.562   6.408   1.837
 7108SOL    HW122223   4.584   6.413   1.934
 7108SOL    HW222224   4.465   6.427   1.824
 7109SOL     OW22225   3.604   6.180   6.225
 7109SOL    HW122226   3.686   6.123   6.217
 7109SOL    HW222227   3.599   6.244   6.149
 7110SOL     OW22228   3.731   5.097   3.484
 7110SOL    HW122229   3.798   5.034   3.524
 7110SOL    HW222230   3.679   5.141   3.557
 7111SOL     OW22231   1.292   2.618   3.634
 7111SOL    HW122232   1.270   2.681   3.560
 7111SOL    HW222233   1.209   2.568   3.660
 7112SOL     OW22234   1.475   6.679   2.487
 7112SOL    HW122235   1.514   6.612   2.549
 7112SOL    HW222236   1.544   6.709   2.421
 7113SOL     OW22237   3.522   4.131   4.633
 7113SOL    HW122238   3.468   4.142   4.717
 7113SOL    HW222239   3.555   4.220   4.603
 7114SOL     OW22240   4.059   0.763   0.996
 7114SOL    HW122241   4.081   0.672   1.031
 7114SOL    HW222242   4.092   0.771   0.902
 7115SOL     OW22243   4.103   1.908   1.674
 7115SOL    HW122244   4.155   1.984   1.635
 7115SOL    HW222245   4.114   1.909   1.774
 7116SOL     OW22246   5.559   3.448   2.809
 7116SOL    HW122247   5.578   3.375   2.875
 7116SOL    HW222248   5.635   3.455   2.745
 7117SOL     OW22249   6.389   6.317   1.577
 7117SOL    HW122250   6.362   6.333   1.482
 7117SOL    HW222251   6.446   6.235   1.582
 7118SOL     OW22252   6.783   2.658   1.888
 7118SOL    HW122253   6.734   2.736   1.848
 7118SOL    HW222254   6.727   2.617   1.960
 7119SOL     OW22255   6.669   1.461   2.927
 7119SOL    HW122256   6.650   1.382   2.985
 7119SOL    HW222257   6.701   1.537   2.984
 7120SOL     OW22258   5.263   0.071   3.637
 7120SOL    HW122259   5.359   0.097   3.645
 7120SOL    HW222260   5.245   7.011   3.695
 7121SOL     OW22261   3.768   6.539   1.749
 7121SOL    HW122262   3.744   6.616   1.690
 7121SOL    HW222263   3.825   6.571   1.824
 7122SOL     OW22264   6.488   7.019   6.930
 7122SOL    HW122265   6.426   6.948   6.964
 7122SOL    HW222266   6.468   0.018   6.834
 7123SOL     OW22267   2.403   5.116   0.884
 7123SOL    HW122268   2.346   5.037   0.863
 7123SOL    HW222269   2.492   5.085   0.919
 7124SOL     OW22270   0.389   5.710   1.511
 7124SOL    HW122271   0.442   5.684   1.431
 7124SOL    HW222272   0.404   5.643   1.584
 7125SOL     OW22273   6.878   6.938   2.801
 7125SOL    HW122274   6.827   6.852   2.800
 7125SOL    HW222275   6.967   6.924   2.844
 7126SOL     OW22276   0.704   4.850   0.611
 7126SOL    HW122277   0.728   4.863   0.707
 7126SOL    HW222278   0.787   4.829   0.559
 7127SOL     OW22279   3.546   0.018   4.699
 7127SOL    HW122280   3.597   6.974   4.641
 7127SOL    HW222281   3.569   0.002   4.795
 7128SOL     OW22282   2.857   4.700   1.629
 7128SOL    HW122283   2.877   4.626   1.693
 7128SOL    HW222284   2.825   4.780   1.679
 7129SOL     OW22285   2.869   1.525   1.553
 7129SOL    HW122286   2.872   1.583   1.634
 7129SOL    HW222287   2.941   1.553   1.489
 7130SOL     OW22288   2.396   6.023   1.757
 7130SOL    HW122289   2.460   6.020   1.834
 7130SOL    HW222290   2.307   6.057   1.788
 7131SOL     OW22291   2.913   1.076   3.528
 7131SOL    HW122292   2.953   1.159   3.488
 7131SOL    HW222293   2.985   1.007   3.539
 7132SOL     OW22294   3.089   3.952   2.736
 7132SOL    HW122295   3.099   4.002   2.649
 7132SOL    HW222296   3.037   3.868   2.720
 7133SOL     OW22297   4.964   4.770   2.782
 7133SOL    HW122298   5.038   4.714   2.821
 7133SOL    HW222299   4.968   4.862   2.820
 7134SOL     OW22300   5.314   4.335   3.835
 7134SOL    HW122301   5.230   4.334   3.781
 7134SOL    HW222302   5.371   4.256   3.809
 7135SOL     OW22303   0.825   1.817   5.327
 7135SOL    HW122304   0.861   1.886   5.266
 7135SOL    HW222305   0.770   1.861   5.398
 7136SOL     OW22306   2.284   1.733   0.010
 7136SOL    HW122307   2.380   1.758   0.027
 7136SOL    HW222308   2.232   1.746   0.094
 7137SOL     OW22309   4.071   1.216   5.117
 7137SOL    HW122310   3.977   1.209   5.148
 7137SOL    HW222311   4.121   1.281   5.175
 7138SOL     OW22312   2.247   3.763   0.124
 7138SOL    HW122313   2.215   3.804   0.210
 7138SOL    HW222314   2.179   3.697   0.092
 7139SOL     OW22315   3.412   2.322   0.659
 7139SOL    HW122316   3.505   2.360   0.651
 7139SOL    HW222317   3.400   2.284   0.750
 7140SOL     OW22318   6.159   3.411   5.202
 7140SOL    HW122319   6.090   3.344   5.176
 7140SOL    HW222320   6.135   3.450   5.291
 7141SOL     OW22321   2.259   6.752   0.485
 7141SOL    HW122322   2.258   6.715   0.578
 7141SOL    HW222323   2.180   6.718   0.434
 7142SOL     OW22324   3.876   6.579   4.516
 7142SOL    HW122325   3.832   6.666   4.539
 7142SOL    HW222326   3.959   6.597   4.463
 7143SOL     OW22327   1.792   3.751   3.961
 7143SOL    HW122328   1.787   3.666   3.909
 7143SOL    HW222329   1.799   3.730   4.059
 7144SOL     OW22330   0.788   2.584   3.978
 7144SOL    HW122331   0.853   2.659   3.978
 7144SOL    HW222332   0.739   2.583   3.890
 7145SOL     OW22333   3.882   6.710   6.374
 7145SOL    HW122334   3.948   6.674   6.440
 7145SOL    HW222335   3.897   6.667   6.285
 7146SOL     OW22336   3.008   4.486   0.631
 7146SOL    HW122337   3.033   4.462   0.537
 7146SOL    HW222338   3.018   4.584   0.644
 7147SOL     OW22339   6.933   0.618   4.023
 7147SOL    HW122340   7.012   0.675   4.001
 7147SOL    HW222341   6.930   0.540   3.960
 7148SOL     OW22342   0.682   1.393   0.294
 7148SOL    HW122343   0.644   1.427   0.381
 7148SOL    HW222344   0.734   1.310   0.311
 7149SOL     OW22345   6.610   0.814   3.470
 7149SOL    HW122346   6.691   0.769   3.510
 7149SOL    HW222347   6.600   0.784   3.375
 7150SOL     OW22348   5.385   3.615   6.827
 7150SOL    HW122349   5.304   3.584   6.778
 7150SOL    HW222350   5.391   3.569   6.915
 7151SOL     OW22351   2.171   6.171   1.037
 7151SOL    HW122352   2.153   6.213   0.947
 7151SOL    HW222353   2.207   6.240   1.099
 7152SOL     OW22354   1.382   2.322   3.652
 7152SOL    HW122355   1.314   2.368   3.595
 7152SOL    HW222356   1.448   2.388   3.686
 7153SOL     OW22357   3.361   1.836   3.627
 7153SOL    HW122358   3.378   1.926   3.667
 7153SOL    HW222359   3.412   1.767   3.677
 7154SOL     OW22360   4.611   6.265   4.568
 7154SOL    HW122361   4.591   6.171   4.594
 7154SOL    HW222362   4.710   6.277   4.559
 7155SOL     OW22363   2.615   7.012   1.835
 7155SOL    HW122364   2.707   6.987   1.804
 7155SOL    HW222365   2.561   6.930   1.849
 7156SOL     OW22366   0.599   6.073   4.677
 7156SOL    HW122367   0.656   5.993   4.660
 7156SOL    HW222368   0.574   6.115   4.589
 7157SOL     OW22369   4.888   4.355   1.475
 7157SOL    HW122370   4.884   4.286   1.547
 7157SOL    HW222371   4.944   4.432   1.504
 7158SOL     OW22372   5.634   6.551   4.449
 7158SOL    HW122373   5.581   6.634   4.463
 7158SOL    HW222374   5.727   6.575   4.423
 7159SOL     OW22375   0.452   5.707   0.367
 7159SOL    HW122376   0.533   5.660   0.333
 7159SOL    HW222377   0.456   5.713   0.467
 7160SOL     OW22378   6.212   0.806   1.790
 7160SOL    HW122379   6.189   0.784   1.885
 7160SOL    HW222380   6.200   0.905   1.775
 7161SOL     OW22381   3.722   4.140   3.623
 7161SOL    HW122382   3.694   4.167   3.531
 7161SOL    HW222383   3.641   4.138   3.682
 7162SOL     OW22384   2.933   4.806   3.691
 7162SOL    HW122385   2.863   4.853   3.638
 7162SOL    HW222386   3.022   4.851   3.676
 7163SOL     OW22387   2.718   6.950   2.954
 7163SOL    HW122388   2.764   6.867   2.988
 7163SOL    HW222389   2.786   0.001   2.936
 7164SOL     OW22390   2.549   1.825   3.433
 7164SOL    HW122391   2.632   1.879   3.421
 7164SOL    HW222392   2.473   1.870   3.387
 7165SOL     OW22393   5.313   0.416   1.689
 7165SOL    HW122394   5.251   0.373   1.754
 7165SOL    HW222395   5.369   0.484   1.737
 7166SOL     OW22396   5.123   5.125   2.262
 7166SOL    HW122397   5.038   5.081   2.233
 7166SOL    HW222398   5.198   5.095   2.203
 7167SOL     OW22399   4.991   2.854   5.278
 7167SOL    HW122400   4.914   2.866   5.215
 7167SOL    HW222401   4.956   2.842   5.371
 7168SOL     OW22402   1.224   1.373   4.589
 7168SOL    HW122403   1.286   1.451   4.600
 7168SOL    HW222404   1.217   1.350   4.492
 7169SOL     OW22405   1.401   2.717   6.617
 7169SOL    HW122406   1.378   2.797   6.672
 7169SOL    HW222407   1.337   2.710   6.540
 7170SOL     OW22408   6.575   5.259   4.628
 7170SOL    HW122409   6.552   5.162   4.624
 7170SOL    HW222410   6.671   5.272   4.603
 7171SOL     OW22411   4.271   2.532   5.683
 7171SOL    HW122412   4.190   2.530   5.742
 7171SOL    HW222413   4.353   2.541   5.740
 7172SOL     OW22414   1.237   6.769   0.711
 7172SOL    HW122415   1.272   6.675   0.707
 7172SOL    HW222416   1.313   6.833   0.706
 7173SOL     OW22417   5.670   6.018   5.454
 7173SOL    HW122418   5.720   5.944   5.410
 7173SOL    HW222419   5.575   5.992   5.468
 7174SOL     OW22420   0.803   5.586   0.263
 7174SOL    HW122421   0.855   5.556   0.183
 7174SOL    HW222422   0.861   5.644   0.320
 7175SOL     OW22423   6.546   2.956   4.999
 7175SOL    HW122424   6.488   3.033   5.025
 7175SOL    HW222425   6.491   2.873   4.995
 7176SOL     OW22426   6.062   3.784   1.297
 7176SOL    HW122427   6.097   3.877   1.296
 7176SOL    HW222428   5.972   3.783   1.342
 7177SOL     OW22429   1.157   5.925   2.077
 7177SOL    HW122430   1.139   5.831   2.049
 7177SOL    HW222431   1.089   5.986   2.035
 7178SOL     OW22432   0.097   2.644   6.151
 7178SOL    HW122433   0.060   2.663   6.061
 7178SOL    HW222434   0.171   2.577   6.143
 7179SOL     OW22435   2.460   4.474   6.087
 7179SOL    HW122436   2.507   4.415   6.153
 7179SOL    HW222437   2.528   4.532   6.041
 7180SOL     OW22438   1.192   6.563   3.000
 7180SOL    HW122439   1.212   6.599   3.091
 7180SOL    HW222440   1.137   6.630   2.949
 7181SOL     OW22441   5.200   7.014   2.511
 7181SOL    HW122442   5.133   0.069   2.516
 7181SOL    HW222443   5.231   7.003   2.417
 7182SOL     OW22444   2.927   3.723   5.165
 7182SOL    HW122445   2.896   3.640   5.121
 7182SOL    HW222446   2.848   3.775   5.198
 7183SOL     OW22447   1.414   5.082   3.065
 7183SOL    HW122448   1.323   5.043   3.057
 7183SOL    HW222449   1.476   5.035   3.002
 7184SOL     OW22450   1.834   6.282   3.125
 7184SOL    HW122451   1.901   6.353   3.145
 7184SOL    HW222452   1.878   6.192   3.133
 7185SOL     OW22453   4.151   2.390   6.814
 7185SOL    HW122454   4.155   2.490   6.819
 7185SOL    HW222455   4.098   2.355   6.892
 7186SOL     OW22456   0.565   6.610   4.266
 7186SOL    HW122457   0.471   6.643   4.257
 7186SOL    HW222458   0.623   6.683   4.303
 7187SOL     OW22459   2.005   5.597   1.282
 7187SOL    HW122460   2.097   5.572   1.252
 7187SOL    HW222461   1.942   5.592   1.205
 7188SOL     OW22462   5.543   0.841   1.937
 7188SOL    HW122463   5.478   0.909   1.904
 7188SOL    HW222464   5.632   0.884   1.952
 7189SOL     OW22465   6.709   0.522   4.908
 7189SOL    HW122466   6.677   0.463   4.983
 7189SOL    HW222467   6.782   0.477   4.858
 7190SOL     OW22468   4.533   4.924   3.371
 7190SOL    HW122469   4.612   4.951   3.316
 7190SOL    HW222470   4.455   4.981   3.345
 7191SOL     OW22471   1.331   2.954   1.853
 7191SOL    HW122472   1.402   2.925   1.918
 7191SOL    HW222473   1.244   2.914   1.880
 7192SOL     OW22474   3.816   5.434   6.004
 7192SOL    HW122475   3.782   5.343   5.981
 7192SOL    HW222476   3.878   5.465   5.932
 7193SOL     OW22477   5.258   1.252   3.013
 7193SOL    HW122478   5.332   1.215   3.069
 7193SOL    HW222479   5.252   1.351   3.027
 7194SOL     OW22480   3.070   1.804   1.265
 7194SOL    HW122481   2.975   1.832   1.268
 7194SOL    HW222482   3.089   1.741   1.342
 7195SOL     OW22483   0.452   5.326   2.043
 7195SOL    HW122484   0.410   5.371   1.964
 7195SOL    HW222485   0.552   5.324   2.031
 7196SOL     OW22486   3.563   3.263   1.722
 7196SOL    HW122487   3.516   3.193   1.775
 7196SOL    HW222488   3.657   3.274   1.755
 7197SOL     OW22489   1.652   1.641   4.973
 7197SOL    HW122490   1.567   1.674   5.015
 7197SOL    HW222491   1.632   1.559   4.919
 7198SOL     OW22492   0.864   6.115   6.548
 7198SOL    HW122493   0.837   6.181   6.618
 7198SOL    HW222494   0.963   6.110   6.542
 7199SOL     OW22495   6.528   6.419   2.831
 7199SOL    HW122496   6.482   6.335   2.860
 7199SOL    HW222497   6.556   6.411   2.736
 7200SOL     OW22498   2.506   1.851   1.727
 7200SOL    HW122499   2.445   1.772   1.726
 7200SOL    HW222500   2.506   1.893   1.817
 7201SOL     OW22501   2.515   4.539   3.429
 7201SOL    HW122502   2.469   4.542   3.518
 7201SOL    HW222503   2.612   4.560   3.441
 7202SOL     OW22504   3.828   0.325   5.873
 7202SOL    HW122505   3.762   0.250   5.877
 7202SOL    HW222506   3.844   0.351   5.778
 7203SOL     OW22507   6.148   0.467   6.620
 7203SOL    HW122508   6.129   0.508   6.532
 7203SOL    HW222509   6.208   0.527   6.673
 7204SOL     OW22510   5.766   1.542   2.185
 7204SOL    HW122511   5.793   1.618   2.243
 7204SOL    HW222512   5.666   1.543   2.172
 7205SOL     OW22513   2.302   5.127   1.815
 7205SOL    HW122514   2.238   5.075   1.759
 7205SOL    HW222515   2.342   5.201   1.760
 7206SOL     OW22516   5.690   1.415   1.392
 7206SOL    HW122517   5.697   1.473   1.312
 7206SOL    HW222518   5.606   1.435   1.442
 7207SOL     OW22519   4.737   0.015   1.514
 7207SOL    HW122520   4.774   7.012   1.604
 7207SOL    HW222521   4.809   0.007   1.445
 7208SOL     OW22522   3.033   6.933   5.268
 7208SOL    HW122523   3.066   6.892   5.183
 7208SOL    HW222524   3.109   6.978   5.315
 7209SOL     OW22525   3.980   3.513   4.622
 7209SOL    HW122526   3.915   3.497   4.696
 7209SOL    HW222527   3.954   3.458   4.543
 7210SOL     OW22528   4.768   0.557   3.902
 7210SOL    HW122529   4.772   0.657   3.901
 7210SOL    HW222530   4.754   0.524   3.809
 7211SOL     OW22531   1.787   5.261   2.260
 7211SOL    HW122532   1.703   5.242   2.208
 7211SOL    HW222533   1.849   5.315   2.204
 7212SOL     OW22534   4.923   0.064   4.018
 7212SOL    HW122535   4.903   7.002   4.072
 7212SOL    HW222536   4.850   0.078   3.951
 7213SOL     OW22537   5.189   0.221   5.608
 7213SOL    HW122538   5.090   0.209   5.609
 7213SOL    HW222539   5.211   0.318   5.603
 7214SOL     OW22540   0.593   4.951   5.115
 7214SOL    HW122541   0.541   5.035   5.097
 7214SOL    HW222542   0.643   4.925   5.033
 7215SOL     OW22543   1.019   3.310   2.479
 7215SOL    HW122544   1.013   3.320   2.380
 7215SOL    HW222545   0.950   3.367   2.523
 7216SOL     OW22546   2.487   1.542   1.498
 7216SOL    HW122547   2.394   1.508   1.492
 7216SOL    HW222548   2.496   1.601   1.579
 7217SOL     OW22549   1.105   3.207   1.776
 7217SOL    HW122550   1.030   3.170   1.830
 7217SOL    HW222551   1.189   3.204   1.830
 7218SOL     OW22552   6.247   2.126   6.252
 7218SOL    HW122553   6.201   2.038   6.248
 7218SOL    HW222554   6.254   2.156   6.347
 7219SOL     OW22555   3.837   1.120   1.077
 7219SOL    HW122556   3.849   1.038   1.133
 7219SOL    HW222557   3.740   1.139   1.066
 7220SOL     OW22558   6.936   1.116   2.874
 7220SOL    HW122559   6.993   1.079   2.801
 7220SOL    HW222560   6.928   1.215   2.863
 7221SOL     OW22561   5.724   4.989   4.856
 7221SOL    HW122562   5.744   4.994   4.758
 7221SOL    HW222563   5.805   5.017   4.908
 7222SOL     OW22564   5.687   6.707   2.900
 7222SOL    HW122565   5.686   6.613   2.935
 7222SOL    HW222566   5.776   6.749   2.918
 7223SOL     OW22567   3.684   0.901   5.306
 7223SOL    HW122568   3.647   0.938   5.221
 7223SOL    HW222569   3.774   0.861   5.289
 7224SOL     OW22570   4.807   0.407   4.277
 7224SOL    HW122571   4.862   0.450   4.205
 7224SOL    HW222572   4.713   0.441   4.272
 7225SOL     OW22573   2.038   0.218   0.284
 7225SOL    HW122574   2.099   0.166   0.224
 7225SOL    HW222575   2.088   0.248   0.365
 7226SOL     OW22576   5.650   6.767   6.838
 7226SOL    HW122577   5.592   6.761   6.757
 7226SOL    HW222578   5.746   6.763   6.810
 7227SOL     OW22579   6.601   2.528   6.358
 7227SOL    HW122580   6.517   2.575   6.382
 7227SOL    HW222581   6.654   2.584   6.294
 7228SOL     OW22582   1.889   0.669   2.698
 7228SOL    HW122583   1.957   0.639   2.764
 7228SOL    HW222584   1.834   0.591   2.668
 7229SOL     OW22585   0.792   0.351   4.088
 7229SOL    HW122586   0.726   0.416   4.126
 7229SOL    HW222587   0.756   0.314   4.002
 7230SOL     OW22588   5.541   4.901   2.258
 7230SOL    HW122589   5.603   4.831   2.292
 7230SOL    HW222590   5.541   4.900   2.158
 7231SOL     OW22591   5.311   1.349   6.676
 7231SOL    HW122592   5.246   1.278   6.706
 7231SOL    HW222593   5.340   1.330   6.582
 7232SOL     OW22594   3.784   4.104   0.785
 7232SOL    HW122595   3.805   4.008   0.770
 7232SOL    HW222596   3.860   4.161   0.752
 7233SOL     OW22597   0.151   2.585   5.711
 7233SOL    HW122598   0.129   2.587   5.613
 7233SOL    HW222599   0.207   2.665   5.734
 7234SOL     OW22600   5.615   1.920   2.507
 7234SOL    HW122601   5.648   1.855   2.575
 7234SOL    HW222602   5.529   1.888   2.469
 7235SOL     OW22603   6.242   2.681   4.438
 7235SOL    HW122604   6.259   2.766   4.489
 7235SOL    HW222605   6.155   2.642   4.467
 7236SOL     OW22606   3.263   1.139   3.218
 7236SOL    HW122607   3.294   1.172   3.307
 7236SOL    HW222608   3.300   1.048   3.201
 7237SOL     OW22609   6.055   5.723   6.009
 7237SOL    HW122610   6.108   5.800   6.043
 7237SOL    HW222611   6.013   5.674   6.085
 7238SOL     OW22612   0.763   1.306   1.579
 7238SOL    HW122613   0.665   1.319   1.566
 7238SOL    HW222614   0.802   1.388   1.621
 7239SOL     OW22615   4.515   0.981   2.366
 7239SOL    HW122616   4.515   0.894   2.316
 7239SOL    HW222617   4.456   1.046   2.317
 7240SOL     OW22618   2.726   3.529   1.052
 7240SOL    HW122619   2.700   3.625   1.064
 7240SOL    HW222620   2.688   3.474   1.127
 7241SOL     OW22621   4.381   6.839   4.591
 7241SOL    HW122622   4.420   6.932   4.584
 7241SOL    HW222623   4.414   6.796   4.675
 7242SOL     OW22624   5.216   5.050   0.476
 7242SOL    HW122625   5.208   4.983   0.402
 7242SOL    HW222626   5.305   5.096   0.468
 7243SOL     OW22627   0.589   5.996   0.491
 7243SOL    HW122628   0.519   6.066   0.499
 7243SOL    HW222629   0.628   5.998   0.398
 7244SOL     OW22630   5.546   2.043   0.629
 7244SOL    HW122631   5.479   1.971   0.612
 7244SOL    HW222632   5.614   2.011   0.696
 7245SOL     OW22633   6.501   1.942   4.712
 7245SOL    HW122634   6.513   1.849   4.748
 7245SOL    HW222635   6.581   1.997   4.737
 7246SOL     OW22636   1.225   5.715   5.395
 7246SOL    HW122637   1.255   5.692   5.303
 7246SOL    HW222638   1.133   5.755   5.391
 7247SOL     OW22639   3.235   5.890   2.931
 7247SOL    HW122640   3.233   5.959   2.859
 7247SOL    HW222641   3.200   5.928   3.016
 7248SOL     OW22642   3.379   0.852   5.088
 7248SOL    HW122643   3.320   0.817   5.160
 7248SOL    HW222644   3.400   0.779   5.023
 7249SOL     OW22645   5.904   4.507   6.303
 7249SOL    HW122646   5.982   4.552   6.259
 7249SOL    HW222647   5.827   4.571   6.307
 7250SOL     OW22648   3.238   4.065   6.671
 7250SOL    HW122649   3.195   3.983   6.710
 7250SOL    HW222650   3.330   4.042   6.640
 7251SOL     OW22651   5.596   0.657   5.138
 7251SOL    HW122652   5.569   0.714   5.061
 7251SOL    HW222653   5.533   0.579   5.145
 7252SOL     OW22654   4.461   3.758   5.328
 7252SOL    HW122655   4.365   3.733   5.314
 7252SOL    HW222656   4.519   3.699   5.270
 7253SOL     OW22657   5.041   4.810   1.078
 7253SOL    HW122658   5.090   4.854   1.153
 7253SOL    HW222659   5.106   4.777   1.010
 7254SOL     OW22660   5.121   6.916   5.266
 7254SOL    HW122661   5.131   6.855   5.344
 7254SOL    HW222662   5.203   6.973   5.257
 7255SOL     OW22663   3.851   3.815   1.777
 7255SOL    HW122664   3.918   3.867   1.830
 7255SOL    HW222665   3.856   3.843   1.681
 7256SOL     OW22666   3.943   5.001   3.856
 7256SOL    HW122667   3.853   4.975   3.822
 7256SOL    HW222668   3.978   5.078   3.802
 7257SOL     OW22669   6.214   3.676   3.604
 7257SOL    HW122670   6.160   3.591   3.606
 7257SOL    HW222671   6.265   3.682   3.519
 7258SOL     OW22672   2.200   6.929   5.524
 7258SOL    HW122673   2.120   6.988   5.534
 7258SOL    HW222674   2.255   6.959   5.446
 7259SOL     OW22675   2.265   5.179   6.219
 7259SOL    HW122676   2.207   5.223   6.288
 7259SOL    HW222677   2.207   5.140   6.147
 7260SOL     OW22678   4.568   1.724   2.339
 7260SOL    HW122679   4.485   1.725   2.283
 7260SOL    HW222680   4.551   1.770   2.426
 7261SOL     OW22681   1.805   4.563   1.459
 7261SOL    HW122682   1.729   4.620   1.427
 7261SOL    HW222683   1.777   4.467   1.458
 7262SOL     OW22684   6.481   1.496   5.933
 7262SOL    HW122685   6.444   1.442   6.009
 7262SOL    HW222686   6.574   1.464   5.913
 7263SOL     OW22687   5.235   5.972   1.851
 7263SOL    HW122688   5.259   5.929   1.938
 7263SOL    HW222689   5.312   5.963   1.787
 7264SOL     OW22690   1.835   6.811   4.430
 7264SOL    HW122691   1.851   6.720   4.468
 7264SOL    HW222692   1.806   6.803   4.335
 7265SOL     OW22693   4.413   3.514   6.137
 7265SOL    HW122694   4.435   3.583   6.206
 7265SOL    HW222695   4.436   3.548   6.046
 7266SOL     OW22696   4.500   1.250   1.093
 7266SOL    HW122697   4.539   1.272   1.182
 7266SOL    HW222698   4.401   1.245   1.101
 7267SOL     OW22699   0.259   2.978   4.192
 7267SOL    HW122700   0.203   3.007   4.270
 7267SOL    HW222701   0.339   2.928   4.226
 7268SOL     OW22702   3.265   0.258   0.608
 7268SOL    HW122703   3.174   0.226   0.581
 7268SOL    HW222704   3.268   0.358   0.601
 7269SOL     OW22705   1.049   6.791   2.344
 7269SOL    HW122706   1.074   6.865   2.282
 7269SOL    HW222707   1.095   6.804   2.432
 7270SOL     OW22708   3.310   1.650   2.374
 7270SOL    HW122709   3.262   1.711   2.311
 7270SOL    HW222710   3.317   1.559   2.334
 7271SOL     OW22711   6.333   4.722   4.146
 7271SOL    HW122712   6.371   4.803   4.101
 7271SOL    HW222713   6.233   4.730   4.149
 7272SOL     OW22714   6.335   1.595   1.455
 7272SOL    HW122715   6.240   1.598   1.423
 7272SOL    HW222716   6.373   1.687   1.455
 7273SOL     OW22717   5.530   6.002   5.866
 7273SOL    HW122718   5.578   6.057   5.799
 7273SOL    HW222719   5.587   5.925   5.894
 7274SOL     OW22720   6.906   4.859   4.377
 7274SOL    HW122721   6.886   4.935   4.438
 7274SOL    HW222722   6.932   4.779   4.432
 7275SOL     OW22723   5.414   6.316   1.180
 7275SOL    HW122724   5.375   6.241   1.233
 7275SOL    HW222725   5.467   6.278   1.104
 7276SOL     OW22726   2.849   1.472   3.890
 7276SOL    HW122727   2.847   1.385   3.841
 7276SOL    HW222728   2.852   1.547   3.824
 7277SOL     OW22729   5.674   1.615   3.884
 7277SOL    HW122730   5.696   1.656   3.973
 7277SOL    HW222731   5.605   1.670   3.838
 7278SOL     OW22732   2.278   1.676   3.570
 7278SOL    HW122733   2.335   1.619   3.631
 7278SOL    HW222734   2.334   1.710   3.495
 7279SOL     OW22735   3.977   4.425   0.949
 7279SOL    HW122736   4.019   4.393   0.863
 7279SOL    HW222737   4.011   4.370   1.025
 7280SOL     OW22738   6.543   2.304   5.499
 7280SOL    HW122739   6.604   2.358   5.557
 7280SOL    HW222740   6.551   2.334   5.404
 7281SOL     OW22741   4.032   5.915   2.020
 7281SOL    HW122742   3.949   5.891   1.970
 7281SOL    HW222743   4.079   5.990   1.973
 7282SOL     OW22744   6.656   3.842   2.285
 7282SOL    HW122745   6.643   3.901   2.205
 7282SOL    HW222746   6.575   3.847   2.344
 7283SOL     OW22747   3.602   5.925   3.137
 7283SOL    HW122748   3.553   5.877   3.210
 7283SOL    HW222749   3.618   6.020   3.165
 7284SOL     OW22750   0.834   1.569   2.556
 7284SOL    HW122751   0.892   1.626   2.497
 7284SOL    HW222752   0.887   1.537   2.634
 7285SOL     OW22753   4.915   2.899   1.859
 7285SOL    HW122754   4.852   2.958   1.909
 7285SOL    HW222755   4.907   2.805   1.893
 7286SOL     OW22756   6.280   1.212   3.579
 7286SOL    HW122757   6.316   1.133   3.530
 7286SOL    HW222758   6.346   1.240   3.649
 7287SOL     OW22759   3.424   0.894   3.822
 7287SOL    HW122760   3.450   0.798   3.834
 7287SOL    HW222761   3.337   0.899   3.772
 7288SOL     OW22762   3.011   1.620   1.858
 7288SOL    HW122763   2.942   1.656   1.921
 7288SOL    HW222764   3.098   1.612   1.906
 7289SOL     OW22765   6.197   3.302   2.067
 7289SOL    HW122766   6.116   3.270   2.117
 7289SOL    HW222767   6.279   3.269   2.113
 7290SOL     OW22768   4.260   1.606   5.450
 7290SOL    HW122769   4.212   1.691   5.430
 7290SOL    HW222770   4.358   1.617   5.432
 7291SOL     OW22771   1.614   1.226   0.588
 7291SOL    HW122772   1.525   1.193   0.559
 7291SOL    HW222773   1.666   1.151   0.628
 7292SOL     OW22774   2.548   0.972   2.734
 7292SOL    HW122775   2.478   0.983   2.663
 7292SOL    HW222776   2.578   1.063   2.765
 7293SOL     OW22777   6.390   1.331   3.794
 7293SOL    HW122778   6.430   1.301   3.880
 7293SOL    HW222779   6.386   1.430   3.792
 7294SOL     OW22780   4.046   6.511   2.088
 7294SOL    HW122781   3.957   6.551   2.112
 7294SOL    HW222782   4.038   6.412   2.083
 7295SOL     OW22783   5.184   4.150   1.444
 7295SOL    HW122784   5.174   4.209   1.524
 7295SOL    HW222785   5.262   4.181   1.389
 7296SOL     OW22786   3.667   6.092   1.900
 7296SOL    HW122787   3.574   6.111   1.870
 7296SOL    HW222788   3.668   6.075   1.998
 7297SOL     OW22789   4.392   6.444   0.748
 7297SOL    HW122790   4.369   6.387   0.828
 7297SOL    HW222791   4.374   6.539   0.770
 7298SOL     OW22792   4.088   5.464   1.149
 7298SOL    HW122793   4.028   5.542   1.170
 7298SOL    HW222794   4.151   5.450   1.224
 7299SOL     OW22795   0.405   3.357   5.427
 7299SOL    HW122796   0.449   3.293   5.491
 7299SOL    HW222797   0.362   3.431   5.478
 7300SOL     OW22798   0.557   5.023   2.439
 7300SOL    HW122799   0.590   4.932   2.416
 7300SOL    HW222800   0.477   5.044   2.383
 7301SOL     OW22801   4.122   2.225   6.356
 7301SOL    HW122802   4.055   2.153   6.371
 7301SOL    HW222803   4.082   2.313   6.382
 7302SOL     OW22804   5.277   2.700   6.795
 7302SOL    HW122805   5.293   2.775   6.730
 7302SOL    HW222806   5.260   2.616   6.745
 7303SOL     OW22807   3.276   1.938   1.446
 7303SOL    HW122808   3.194   1.887   1.419
 7303SOL    HW222809   3.249   2.028   1.480
 7304SOL     OW22810   2.317   5.397   0.552
 7304SOL    HW122811   2.368   5.322   0.594
 7304SOL    HW222812   2.312   5.382   0.453
 7305SOL     OW22813   6.187   0.852   6.624
 7305SOL    HW122814   6.230   0.937   6.655
 7305SOL    HW222815   6.218   0.776   6.681
 7306SOL     OW22816   1.469   2.850   1.316
 7306SOL    HW122817   1.406   2.845   1.239
 7306SOL    HW222818   1.537   2.777   1.309
 7307SOL     OW22819   2.355   0.267   1.853
 7307SOL    HW122820   2.383   0.269   1.949
 7307SOL    HW222821   2.313   0.355   1.829
 7308SOL     OW22822   3.588   1.200   3.218
 7308SOL    HW122823   3.562   1.236   3.307
 7308SOL    HW222824   3.551   1.258   3.146
 7309SOL     OW22825   2.037   5.437   3.743
 7309SOL    HW122826   2.102   5.508   3.717
 7309SOL    HW222827   2.035   5.365   3.674
 7310SOL     OW22828   2.714   2.644   6.469
 7310SOL    HW122829   2.619   2.631   6.440
 7310SOL    HW222830   2.752   2.556   6.498
 7311SOL     OW22831   0.313   6.172   5.894
 7311SOL    HW122832   0.260   6.196   5.976
 7311SOL    HW222833   0.391   6.234   5.885
 7312SOL     OW22834   5.949   2.183   3.988
 7312SOL    HW122835   6.031   2.151   4.035
 7312SOL    HW222836   5.904   2.106   3.943
 7313SOL     OW22837   3.043   0.727   2.912
 7313SOL    HW122838   3.137   0.753   2.932
 7313SOL    HW222839   2.985   0.808   2.910
 7314SOL     OW22840   1.556   4.634   5.895
 7314SOL    HW122841   1.638   4.675   5.855
 7314SOL    HW222842   1.485   4.704   5.904
 7315SOL     OW22843   2.749   5.099   2.298
 7315SOL    HW122844   2.680   5.155   2.252
 7315SOL    HW222845   2.706   5.047   2.372
 7316SOL     OW22846   4.235   1.360   1.329
 7316SOL    HW122847   4.274   1.272   1.356
 7316SOL    HW222848   4.140   1.347   1.301
 7317SOL     OW22849   4.471   1.900   0.474
 7317SOL    HW122850   4.516   1.811   0.460
 7317SOL    HW222851   4.515   1.969   0.417
 7318SOL     OW22852   5.090   6.908   0.339
 7318SOL    HW122853   5.124   6.902   0.245
 7318SOL    HW222854   5.132   6.987   0.384
 7319SOL     OW22855   5.372   6.041   6.883
 7319SOL    HW122856   5.391   6.004   6.793
 7319SOL    HW222857   5.439   6.112   6.905
 7320SOL     OW22858   0.623   2.924   0.348
 7320SOL    HW122859   0.572   2.900   0.265
 7320SOL    HW222860   0.718   2.897   0.338
 7321SOL     OW22861   2.105   2.403   6.462
 7321SOL    HW122862   2.024   2.409   6.521
 7321SOL    HW222863   2.137   2.495   6.440
 7322SOL     OW22864   1.230   2.825   3.471
 7322SOL    HW122865   1.171   2.905   3.465
 7322SOL    HW222866   1.258   2.797   3.379
 7323SOL     OW22867   1.740   2.293   0.521
 7323SOL    HW122868   1.692   2.264   0.604
 7323SOL    HW222869   1.806   2.224   0.494
 7324SOL     OW22870   4.860   3.863   3.950
 7324SOL    HW122871   4.788   3.925   3.977
 7324SOL    HW222872   4.869   3.789   4.017
 7325SOL     OW22873   3.693   1.610   6.296
 7325SOL    HW122874   3.765   1.611   6.226
 7325SOL    HW222875   3.604   1.601   6.251
 7326SOL     OW22876   3.892   0.059   0.700
 7326SOL    HW122877   3.792   0.061   0.694
 7326SOL    HW222878   3.920   6.998   0.752
 7327SOL     OW22879   1.784   4.172   3.495
 7327SOL    HW122880   1.727   4.089   3.491
 7327SOL    HW222881   1.881   4.146   3.496
 7328SOL     OW22882   4.458   5.285   5.922
 7328SOL    HW122883   4.442   5.306   6.018
 7328SOL    HW222884   4.472   5.371   5.871
 7329SOL     OW22885   2.800   3.874   0.450
 7329SOL    HW122886   2.793   3.974   0.449
 7329SOL    HW222887   2.871   3.847   0.515
 7330SOL     OW22888   2.198   2.930   0.993
 7330SOL    HW122889   2.153   2.891   1.073
 7330SOL    HW222890   2.230   2.856   0.934
 7331SOL     OW22891   5.366   1.824   2.420
 7331SOL    HW122892   5.291   1.881   2.452
 7331SOL    HW222893   5.356   1.808   2.322
 7332SOL     OW22894   2.820   6.132   6.007
 7332SOL    HW122895   2.888   6.189   6.054
 7332SOL    HW222896   2.804   6.169   5.916
 7333SOL     OW22897   0.237   0.902   1.380
 7333SOL    HW122898   0.245   0.931   1.475
 7333SOL    HW222899   0.242   0.802   1.375
 7334SOL     OW22900   1.320   4.860   4.254
 7334SOL    HW122901   1.338   4.912   4.170
 7334SOL    HW222902   1.327   4.762   4.235
 7335SOL     OW22903   0.436   3.770   2.122
 7335SOL    HW122904   0.393   3.803   2.206
 7335SOL    HW222905   0.493   3.690   2.144
 7336SOL     OW22906   2.297   6.972   1.149
 7336SOL    HW122907   2.216   6.915   1.150
 7336SOL    HW222908   2.364   6.937   1.214
 7337SOL     OW22909   3.526   1.141   3.745
 7337SOL    HW122910   3.500   1.054   3.787
 7337SOL    HW222911   3.445   1.196   3.728
 7338SOL     OW22912   4.897   3.820   1.156
 7338SOL    HW122913   4.883   3.916   1.180
 7338SOL    HW222914   4.917   3.767   1.238
 7339SOL     OW22915   0.118   6.134   4.770
 7339SOL    HW122916   0.190   6.153   4.703
 7339SOL    HW222917   0.152   6.069   4.838
 7340SOL     OW22918   2.573   5.879   0.465
 7340SOL    HW122919   2.581   5.834   0.376
 7340SOL    HW222920   2.610   5.819   0.536
 7341SOL     OW22921   6.370   5.819   4.776
 7341SOL    HW122922   6.319   5.775   4.850
 7341SOL    HW222923   6.308   5.874   4.721
 7342SOL     OW22924   0.975   5.238   1.054
 7342SOL    HW122925   0.986   5.152   1.004
 7342SOL    HW222926   0.971   5.314   0.990
 7343SOL     OW22927   5.822   2.469   2.953
 7343SOL    HW122928   5.776   2.487   2.866
 7343SOL    HW222929   5.754   2.451   3.024
 7344SOL     OW22930   2.086   1.476   0.277
 7344SOL    HW122931   2.107   1.479   0.375
 7344SOL    HW222932   2.169   1.454   0.226
 7345SOL     OW22933   2.533   6.247   0.014
 7345SOL    HW122934   2.495   6.330   6.994
 7345SOL    HW222935   2.598   6.271   0.087
 7346SOL     OW22936   4.255   4.975   2.459
 7346SOL    HW122937   4.244   4.875   2.458
 7346SOL    HW222938   4.247   5.010   2.365
 7347SOL     OW22939   6.484   3.052   2.105
 7347SOL    HW122940   6.462   3.143   2.141
 7347SOL    HW222941   6.488   2.987   2.180
 7348SOL     OW22942   6.965   1.134   4.965
 7348SOL    HW122943   6.973   1.137   4.865
 7348SOL    HW222944   6.912   1.053   4.991
 7349SOL     OW22945   3.518   1.498   0.713
 7349SOL    HW122946   3.521   1.399   0.699
 7349SOL    HW222947   3.474   1.519   0.800
 7350SOL     OW22948   2.235   1.191   2.910
 7350SOL    HW122949   2.235   1.214   3.007
 7350SOL    HW222950   2.329   1.181   2.878
 7351SOL     OW22951   4.149   4.923   0.329
 7351SOL    HW122952   4.208   4.877   0.263
 7351SOL    HW222953   4.179   5.017   0.342
 7352SOL     OW22954   6.573   0.727   3.168
 7352SOL    HW122955   6.487   0.682   3.192
 7352SOL    HW222956   6.635   0.660   3.126
 7353SOL     OW22957   5.108   2.301   4.584
 7353SOL    HW122958   5.146   2.315   4.492
 7353SOL    HW222959   5.061   2.384   4.613
 7354SOL     OW22960   6.564   3.902   4.461
 7354SOL    HW122961   6.497   3.829   4.446
 7354SOL    HW222962   6.517   3.986   4.486
 7355SOL     OW22963   0.625   5.232   1.294
 7355SOL    HW122964   0.679   5.290   1.355
 7355SOL    HW222965   0.664   5.140   1.293
 7356SOL     OW22966   0.135   2.154   6.112
 7356SOL    HW122967   0.225   2.110   6.103
 7356SOL    HW222968   0.084   2.110   6.185
 7357SOL     OW22969   0.689   1.664   0.223
 7357SOL    HW122970   0.685   1.575   0.268
 7357SOL    HW222971   0.750   1.724   0.274
 7358SOL     OW22972   3.523   0.626   3.869
 7358SOL    HW122973   3.465   0.554   3.830
 7358SOL    HW222974   3.551   0.599   3.961
 7359SOL     OW22975   3.599   2.977   3.147
 7359SOL    HW122976   3.537   3.028   3.207
 7359SOL    HW222977   3.546   2.912   3.093
 7360SOL     OW22978   0.168   3.833   5.824
 7360SOL    HW122979   0.265   3.807   5.828
 7360SOL    HW222980   0.155   3.920   5.871
 7361SOL     OW22981   4.993   6.439   1.603
 7361SOL    HW122982   5.070   6.472   1.548
 7361SOL    HW222983   4.914   6.499   1.590
 7362SOL     OW22984   1.561   6.653   6.320
 7362SOL    HW122985   1.542   6.749   6.301
 7362SOL    HW222986   1.659   6.635   6.308
 7363SOL     OW22987   4.904   2.886   6.521
 7363SOL    HW122988   4.881   2.931   6.434
 7363SOL    HW222989   4.861   2.936   6.596
 7364SOL     OW22990   5.300   0.886   1.073
 7364SOL    HW122991   5.338   0.855   0.986
 7364SOL    HW222992   5.210   0.927   1.058
 7365SOL     OW22993   3.845   0.732   1.865
 7365SOL    HW122994   3.798   0.816   1.839
 7365SOL    HW222995   3.842   0.667   1.788
 7366SOL     OW22996   0.759   5.802   0.047
 7366SOL    HW122997   0.754   5.708   0.083
 7366SOL    HW222998   0.787   5.799   6.970
 7367SOL     OW22999   4.514   3.246   6.652
 7367SOL    HW123000   4.498   3.177   6.723
 7367SOL    HW223001   4.443   3.239   6.582
 7368SOL     OW23002   3.108   3.139   3.560
 7368SOL    HW123003   3.130   3.145   3.462
 7368SOL    HW223004   3.041   3.210   3.583
 7369SOL     OW23005   4.768   1.738   6.051
 7369SOL    HW123006   4.838   1.809   6.045
 7369SOL    HW223007   4.682   1.778   6.081
 7370SOL     OW23008   1.318   5.500   1.085
 7370SOL    HW123009   1.275   5.417   1.119
 7370SOL    HW223010   1.397   5.523   1.142
 7371SOL     OW23011   2.211   5.136   4.308
 7371SOL    HW123012   2.302   5.095   4.302
 7371SOL    HW223013   2.208   5.200   4.385
 7372SOL     OW23014   3.134   6.406   5.449
 7372SOL    HW123015   3.093   6.495   5.426
 7372SOL    HW223016   3.065   6.346   5.489
 7373SOL     OW23017   3.462   0.482   0.802
 7373SOL    HW123018   3.389   0.491   0.734
 7373SOL    HW223019   3.484   0.572   0.840
 7374SOL     OW23020   2.433   3.401   6.650
 7374SOL    HW123021   2.462   3.306   6.636
 7374SOL    HW223022   2.447   3.453   6.566
 7375SOL     OW23023   2.146   6.210   2.938
 7375SOL    HW123024   2.203   6.167   2.868
 7375SOL    HW223025   2.130   6.306   2.913
 7376SOL     OW23026   3.469   4.589   6.214
 7376SOL    HW123027   3.534   4.513   6.203
 7376SOL    HW223028   3.458   4.636   6.127
 7377SOL     OW23029   5.742   5.207   1.919
 7377SOL    HW123030   5.778   5.188   1.828
 7377SOL    HW223031   5.784   5.291   1.954
 7378SOL     OW23032   6.788   2.751   6.286
 7378SOL    HW123033   6.752   2.776   6.376
 7378SOL    HW223034   6.881   2.784   6.277
 7379SOL     OW23035   4.344   1.031   0.770
 7379SOL    HW123036   4.426   1.000   0.819
 7379SOL    HW223037   4.290   1.091   0.829
 7380SOL     OW23038   6.202   2.444   5.576
 7380SOL    HW123039   6.238   2.475   5.664
 7380SOL    HW223040   6.254   2.364   5.545
 7381SOL     OW23041   4.582   2.380   0.114
 7381SOL    HW123042   4.505   2.324   0.085
 7381SOL    HW223043   4.666   2.346   0.071
 7382SOL     OW23044   0.643   5.915   3.581
 7382SOL    HW123045   0.650   5.970   3.498
 7382SOL    HW223046   0.620   5.821   3.557
 7383SOL     OW23047   0.110   5.036   3.268
 7383SOL    HW123048   0.205   5.014   3.290
 7383SOL    HW223049   0.106   5.090   3.184
 7384SOL     OW23050   6.310   1.937   1.666
 7384SOL    HW123051   6.359   1.930   1.579
 7384SOL    HW223052   6.368   1.981   1.734
 7385SOL     OW23053   5.249   0.842   1.624
 7385SOL    HW123054   5.235   0.756   1.672
 7385SOL    HW223055   5.205   0.916   1.676
 7386SOL     OW23056   6.959   2.858   5.701
 7386SOL    HW123057   6.965   2.787   5.771
 7386SOL    HW223058   6.949   2.948   5.744
 7387SOL     OW23059   5.375   6.332   3.798
 7387SOL    HW123060   5.453   6.367   3.746
 7387SOL    HW223061   5.297   6.394   3.789
 7388SOL     OW23062   5.373   4.048   4.782
 7388SOL    HW123063   5.428   4.004   4.711
 7388SOL    HW223064   5.310   3.980   4.822
 7389SOL     OW23065   0.710   4.351   4.395
 7389SOL    HW123066   0.629   4.345   4.453
 7389SOL    HW223067   0.709   4.278   4.327
 7390SOL     OW23068   2.965   0.352   6.209
 7390SOL    HW123069   2.950   0.310   6.298
 7390SOL    HW223070   3.048   0.315   6.168
 7391SOL     OW23071   6.938   4.501   0.131
 7391SOL    HW123072   6.947   4.595   0.164
 7391SOL    HW223073   6.892   4.445   0.200
 7392SOL     OW23074   2.202   4.197   2.898
 7392SOL    HW123075   2.250   4.222   2.982
 7392SOL    HW223076   2.174   4.101   2.903
 7393SOL     OW23077   0.292   3.679   0.196
 7393SOL    HW123078   0.313   3.771   0.229
 7393SOL    HW223079   0.326   3.668   0.103
 7394SOL     OW23080   2.730   2.853   6.301
 7394SOL    HW123081   2.730   2.937   6.355
 7394SOL    HW223082   2.753   2.775   6.359
 7395SOL     OW23083   2.200   6.410   0.160
 7395SOL    HW123084   2.123   6.414   0.224
 7395SOL    HW223085   2.171   6.365   0.075
 7396SOL     OW23086   6.886   6.838   2.066
 7396SOL    HW123087   6.894   6.741   2.043
 7396SOL    HW223088   6.887   6.892   1.982
 7397SOL     OW23089   5.946   4.386   4.561
 7397SOL    HW123090   5.954   4.305   4.619
 7397SOL    HW223091   6.009   4.378   4.484
 7398SOL     OW23092   4.710   6.374   3.031
 7398SOL    HW123093   4.744   6.318   3.106
 7398SOL    HW223094   4.678   6.315   2.957
 7399SOL     OW23095   5.247   4.680   4.900
 7399SOL    HW123096   5.164   4.658   4.950
 7399SOL    HW223097   5.249   4.626   4.815
 7400SOL     OW23098   2.545   4.447   6.931
 7400SOL    HW123099   2.618   4.405   6.877
 7400SOL    HW223100   2.542   4.406   0.002
 7401SOL     OW23101   5.806   1.444   4.895
 7401SOL    HW123102   5.811   1.528   4.949
 7401SOL    HW223103   5.784   1.467   4.800
 7402SOL     OW23104   2.231   6.302   4.364
 7402SOL    HW123105   2.294   6.225   4.361
 7402SOL    HW223106   2.273   6.378   4.415
 7403SOL     OW23107   2.049   3.267   1.232
 7403SOL    HW123108   1.955   3.269   1.198
 7403SOL    HW223109   2.113   3.269   1.155
 7404SOL     OW23110   1.020   1.694   2.380
 7404SOL    HW123111   1.053   1.782   2.413
 7404SOL    HW223112   0.966   1.709   2.297
 7405SOL     OW23113   3.737   5.006   6.488
 7405SOL    HW123114   3.665   4.990   6.555
 7405SOL    HW223115   3.764   5.103   6.490
 7406SOL     OW23116   0.703   5.985   1.778
 7406SOL    HW123117   0.644   5.976   1.858
 7406SOL    HW223118   0.726   6.081   1.763
 7407SOL     OW23119   2.220   1.020   5.782
 7407SOL    HW123120   2.307   0.978   5.756
 7407SOL    HW223121   2.152   1.004   5.710
 7408SOL     OW23122   0.474   4.050   5.026
 7408SOL    HW123123   0.433   4.096   5.105
 7408SOL    HW223124   0.404   4.033   4.957
 7409SOL     OW23125   2.663   6.519   5.511
 7409SOL    HW123126   2.711   6.519   5.598
 7409SOL    HW223127   2.646   6.613   5.482
 7410SOL     OW23128   5.024   4.895   6.808
 7410SOL    HW123129   5.043   4.911   6.711
 7410SOL    HW223130   4.970   4.971   6.844
 7411SOL     OW23131   5.124   4.955   5.877
 7411SOL    HW123132   5.171   4.893   5.814
 7411SOL    HW223133   5.075   4.902   5.946
 7412SOL     OW23134   1.409   1.370   6.706
 7412SOL    HW123135   1.498   1.327   6.686
 7412SOL    HW223136   1.375   1.416   6.623
 7413SOL     OW23137   0.229   3.438   4.313
 7413SOL    HW123138   0.249   3.510   4.247
 7413SOL    HW223139   0.314   3.397   4.344
 7414SOL     OW23140   6.866   5.551   2.639
 7414SOL    HW123141   6.874   5.462   2.593
 7414SOL    HW223142   6.880   5.540   2.737
 7415SOL     OW23143   2.647   1.607   3.273
 7415SOL    HW123144   2.613   1.701   3.264
 7415SOL    HW223145   2.641   1.579   3.369
 7416SOL     OW23146   5.780   0.313   3.406
 7416SOL    HW123147   5.858   0.309   3.469
 7416SOL    HW223148   5.712   0.245   3.434
 7417SOL     OW23149   0.929   5.959   1.107
 7417SOL    HW123150   0.967   5.879   1.154
 7417SOL    HW223151   0.981   6.040   1.132
 7418SOL     OW23152   0.805   3.665   0.338
 7418SOL    HW123153   0.740   3.596   0.305
 7418SOL    HW223154   0.882   3.671   0.275
 7419SOL     OW23155   5.892   1.185   5.705
 7419SOL    HW123156   5.937   1.267   5.740
 7419SOL    HW223157   5.794   1.190   5.723
 7420SOL     OW23158   6.775   5.785   2.276
 7420SOL    HW123159   6.829   5.850   2.223
 7420SOL    HW223160   6.713   5.735   2.215
 7421SOL     OW23161   3.878   2.557   1.555
 7421SOL    HW123162   3.947   2.553   1.483
 7421SOL    HW223163   3.834   2.647   1.554
 7422SOL     OW23164   0.719   1.812   1.074
 7422SOL    HW123165   0.734   1.836   1.170
 7422SOL    HW223166   0.647   1.870   1.036
 7423SOL     OW23167   2.465   4.998   0.096
 7423SOL    HW123168   2.452   5.064   0.021
 7423SOL    HW223169   2.459   4.905   0.060
 7424SOL     OW23170   5.497   0.490   4.680
 7424SOL    HW123171   5.425   0.437   4.726
 7424SOL    HW223172   5.578   0.432   4.667
 7425SOL     OW23173   4.053   0.340   5.180
 7425SOL    HW123174   4.128   0.372   5.122
 7425SOL    HW223175   4.090   0.305   5.266
 7426SOL     OW23176   0.669   1.448   0.027
 7426SOL    HW123177   0.683   1.382   0.100
 7426SOL    HW223178   0.676   1.541   0.063
 7427SOL     OW23179   4.615   5.738   5.117
 7427SOL    HW123180   4.631   5.641   5.138
 7427SOL    HW223181   4.588   5.747   5.021
 7428SOL     OW23182   3.138   1.379   5.872
 7428SOL    HW123183   3.097   1.395   5.782
 7428SOL    HW223184   3.065   1.376   5.941
 7429SOL     OW23185   6.887   0.000   3.892
 7429SOL    HW123186   6.886   6.972   3.804
 7429SOL    HW223187   6.970   6.995   3.942
 7430SOL     OW23188   0.299   4.716   4.582
 7430SOL    HW123189   0.302   4.787   4.511
 7430SOL    HW223190   0.230   4.648   4.559
 7431SOL     OW23191   0.978   4.448   2.091
 7431SOL    HW123192   1.052   4.491   2.144
 7431SOL    HW223193   0.907   4.416   2.154
 7432SOL     OW23194   1.404   6.420   4.866
 7432SOL    HW123195   1.473   6.371   4.919
 7432SOL    HW223196   1.438   6.510   4.842
 7433SOL     OW23197   7.012   6.388   1.293
 7433SOL    HW123198   6.940   6.441   1.247
 7433SOL    HW223199   6.972   6.333   1.366
 7434SOL     OW23200   4.090   6.942   7.015
 7434SOL    HW123201   4.026   6.880   6.969
 7434SOL    HW223202   4.136   6.998   6.947
 7435SOL     OW23203   1.261   5.577   6.845
 7435SOL    HW123204   1.356   5.602   6.827
 7435SOL    HW223205   1.256   5.481   6.871
 7436SOL     OW23206   4.556   3.384   6.992
 7436SOL    HW123207   4.614   3.434   0.037
 7436SOL    HW223208   4.491   3.448   6.949
 7437SOL     OW23209   7.008   5.548   5.546
 7437SOL    HW123210   0.037   5.555   5.633
 7437SOL    HW223211   6.978   5.453   5.532
 7438SOL     OW23212   6.044   4.189   1.971
 7438SOL    HW123213   6.019   4.106   2.021
 7438SOL    HW223214   5.963   4.227   1.927
 7439SOL     OW23215   1.556   6.025   3.644
 7439SOL    HW123216   1.512   6.101   3.597
 7439SOL    HW223217   1.506   5.941   3.626
 7440SOL     OW23218   0.595   1.676   3.348
 7440SOL    HW123219   0.626   1.581   3.348
 7440SOL    HW223220   0.674   1.737   3.344
 7441SOL     OW23221   6.063   6.820   3.997
 7441SOL    HW123222   5.976   6.824   3.948
 7441SOL    HW223223   6.113   6.905   3.982
 7442SOL     OW23224   1.859   1.040   6.320
 7442SOL    HW123225   1.823   0.966   6.263
 7442SOL    HW223226   1.948   1.014   6.357
 7443SOL     OW23227   6.901   1.436   0.605
 7443SOL    HW123228   6.810   1.426   0.645
 7443SOL    HW223229   6.961   1.363   0.638
 7444SOL     OW23230   0.668   2.437   5.775
 7444SOL    HW123231   0.764   2.410   5.761
 7444SOL    HW223232   0.609   2.381   5.717
 7445SOL     OW23233   5.861   2.412   1.666
 7445SOL    HW123234   5.915   2.464   1.599
 7445SOL    HW223235   5.768   2.401   1.631
 7446SOL     OW23236   6.290   3.318   1.800
 7446SOL    HW123237   6.361   3.289   1.863
 7446SOL    HW223238   6.206   3.338   1.851
 7447SOL     OW23239   6.922   3.891   6.080
 7447SOL    HW123240   6.922   3.975   6.025
 7447SOL    HW223241   6.900   3.813   6.022
 7448SOL     OW23242   6.689   6.395   5.851
 7448SOL    HW123243   6.783   6.374   5.877
 7448SOL    HW223244   6.660   6.479   5.895
 7449SOL     OW23245   4.296   0.809   1.526
 7449SOL    HW123246   4.336   0.781   1.439
 7449SOL    HW223247   4.366   0.803   1.598
 7450SOL     OW23248   3.559   0.407   1.858
 7450SOL    HW123249   3.586   0.369   1.946
 7450SOL    HW223250   3.576   0.340   1.785
 7451SOL     OW23251   1.585   0.965   2.591
 7451SOL    HW123252   1.573   0.866   2.598
 7451SOL    HW223253   1.561   0.995   2.499
 7452SOL     OW23254   1.771   6.700   4.185
 7452SOL    HW123255   1.794   6.769   4.116
 7452SOL    HW223256   1.780   6.609   4.146
 7453SOL     OW23257   5.781   5.815   5.331
 7453SOL    HW123258   5.801   5.722   5.362
 7453SOL    HW223259   5.866   5.863   5.310
 7454SOL     OW23260   0.835   3.110   6.781
 7454SOL    HW123261   0.867   3.203   6.801
 7454SOL    HW223262   0.823   3.060   6.867
 7455SOL     OW23263   5.247   1.273   0.210
 7455SOL    HW123264   5.297   1.354   0.180
 7455SOL    HW223265   5.156   1.300   0.242
 7456SOL     OW23266   1.211   3.084   5.849
 7456SOL    HW123267   1.127   3.034   5.869
 7456SOL    HW223268   1.244   3.128   5.932
 7457SOL     OW23269   6.379   6.815   6.019
 7457SOL    HW123270   6.281   6.835   6.009
 7457SOL    HW223271   6.402   6.812   6.117
 7458SOL     OW23272   2.381   0.286   0.793
 7458SOL    HW123273   2.328   0.370   0.785
 7458SOL    HW223274   2.340   0.214   0.736
 7459SOL     OW23275   4.720   0.295   4.529
 7459SOL    HW123276   4.746   0.270   4.436
 7459SOL    HW223277   4.765   0.381   4.555
 7460SOL     OW23278   0.703   5.399   6.489
 7460SOL    HW123279   0.751   5.311   6.494
 7460SOL    HW223280   0.635   5.395   6.416
 7461SOL     OW23281   4.819   0.887   4.217
 7461SOL    HW123282   4.873   0.936   4.149
 7461SOL    HW223283   4.876   0.818   4.263
 7462SOL     OW23284   1.755   0.974   2.289
 7462SOL    HW123285   1.662   0.987   2.323
 7462SOL    HW223286   1.821   0.994   2.362
 7463SOL     OW23287   3.457   3.948   2.139
 7463SOL    HW123288   3.526   3.954   2.210
 7463SOL    HW223289   3.466   4.025   2.075
 7464SOL     OW23290   4.679   6.933   6.877
 7464SOL    HW123291   4.750   6.986   6.923
 7464SOL    HW223292   4.685   6.947   6.778
 7465SOL     OW23293   3.567   1.060   2.019
 7465SOL    HW123294   3.523   0.993   1.960
 7465SOL    HW223295   3.659   1.027   2.044
 7466SOL     OW23296   0.049   0.452   6.593
 7466SOL    HW123297   0.021   0.397   6.514
 7466SOL    HW223298   0.094   0.394   6.661
 7467SOL     OW23299   5.261   1.465   1.356
 7467SOL    HW123300   5.163   1.446   1.364
 7467SOL    HW223301   5.292   1.440   1.264
 7468SOL     OW23302   5.826   3.267   4.369
 7468SOL    HW123303   5.900   3.245   4.305
 7468SOL    HW223304   5.866   3.298   4.456
 7469SOL     OW23305   5.914   1.203   1.850
 7469SOL    HW123306   5.871   1.282   1.807
 7469SOL    HW223307   5.942   1.226   1.943
 7470SOL     OW23308   0.676   2.956   2.220
 7470SOL    HW123309   0.619   2.908   2.287
 7470SOL    HW223310   0.631   3.041   2.194
 7471SOL     OW23311   5.861   4.524   5.801
 7471SOL    HW123312   5.826   4.588   5.870
 7471SOL    HW223313   5.941   4.477   5.837
 7472SOL     OW23314   3.854   5.271   3.285
 7472SOL    HW123315   3.817   5.321   3.207
 7472SOL    HW223316   3.779   5.230   3.337
 7473SOL     OW23317   0.665   3.447   5.161
 7473SOL    HW123318   0.718   3.433   5.077
 7473SOL    HW223319   0.703   3.524   5.212
 7474SOL     OW23320   4.018   1.642   3.154
 7474SOL    HW123321   3.986   1.667   3.246
 7474SOL    HW223322   3.966   1.564   3.121
 7475SOL     OW23323   4.170   0.771   6.670
 7475SOL    HW123324   4.253   0.828   6.667
 7475SOL    HW223325   4.181   0.694   6.608
 7476SOL     OW23326   3.525   0.074   5.450
 7476SOL    HW123327   3.511   0.142   5.523
 7476SOL    HW223328   3.545   0.121   5.364
 7477SOL     OW23329   5.313   3.508   3.510
 7477SOL    HW123330   5.276   3.436   3.568
 7477SOL    HW223331   5.241   3.543   3.450
 7478SOL     OW23332   1.550   4.503   1.218
 7478SOL    HW123333   1.452   4.515   1.238
 7478SOL    HW223334   1.575   4.558   1.138
 7479SOL     OW23335   4.233   0.546   6.026
 7479SOL    HW123336   4.330   0.544   6.003
 7479SOL    HW223337   4.222   0.572   6.122
 7480SOL     OW23338   6.740   5.056   0.960
 7480SOL    HW123339   6.796   5.076   0.879
 7480SOL    HW223340   6.646   5.087   0.945
 7481SOL     OW23341   6.216   5.765   0.759
 7481SOL    HW123342   6.162   5.682   0.773
 7481SOL    HW223343   6.255   5.764   0.668
 7482SOL     OW23344   5.167   0.406   3.713
 7482SOL    HW123345   5.232   0.481   3.701
 7482SOL    HW223346   5.156   0.358   3.626
 7483SOL     OW23347   3.252   6.948   6.061
 7483SOL    HW123348   3.159   6.915   6.045
 7483SOL    HW223349   3.295   6.894   6.134
 7484SOL     OW23350   3.242   0.428   2.123
 7484SOL    HW123351   3.308   0.354   2.122
 7484SOL    HW223352   3.285   0.511   2.159
 7485SOL     OW23353   0.867   6.782   5.881
 7485SOL    HW123354   0.930   6.762   5.957
 7485SOL    HW223355   0.795   6.713   5.878
 7486SOL     OW23356   1.913   0.353   4.932
 7486SOL    HW123357   1.884   0.437   4.886
 7486SOL    HW223358   1.981   0.376   5.002
 7487SOL     OW23359   4.012   5.650   3.221
 7487SOL    HW123360   3.916   5.650   3.192
 7487SOL    HW223361   4.023   5.715   3.296
 7488SOL     OW23362   3.300   1.154   5.548
 7488SOL    HW123363   3.381   1.098   5.530
 7488SOL    HW223364   3.284   1.216   5.471
 7489SOL     OW23365   6.020   3.426   3.251
 7489SOL    HW123366   5.960   3.431   3.331
 7489SOL    HW223367   6.113   3.453   3.277
 7490SOL     OW23368   5.845   1.126   2.459
 7490SOL    HW123369   5.809   1.058   2.395
 7490SOL    HW223370   5.903   1.191   2.411
 7491SOL     OW23371   0.090   6.369   6.462
 7491SOL    HW123372   0.021   6.439   6.444
 7491SOL    HW223373   0.106   6.362   6.560
 7492SOL     OW23374   2.201   2.489   3.973
 7492SOL    HW123375   2.259   2.563   3.941
 7492SOL    HW223376   2.225   2.405   3.925
 7493SOL     OW23377   5.549   4.556   0.319
 7493SOL    HW123378   5.479   4.517   0.259
 7493SOL    HW223379   5.579   4.644   0.282
 7494SOL     OW23380   4.678   1.866   1.151
 7494SOL    HW123381   4.681   1.894   1.055
 7494SOL    HW223382   4.750   1.912   1.202
 7495SOL     OW23383   0.662   1.577   2.354
 7495SOL    HW123384   0.743   1.574   2.412
 7495SOL    HW223385   0.596   1.508   2.385
 7496SOL     OW23386   0.871   4.345   5.474
 7496SOL    HW123387   0.795   4.327   5.537
 7496SOL    HW223388   0.906   4.259   5.438
 7497SOL     OW23389   2.337   4.977   2.530
 7497SOL    HW123390   2.428   4.993   2.492
 7497SOL    HW223391   2.271   5.037   2.484
 7498SOL     OW23392   5.102   1.042   4.339
 7498SOL    HW123393   5.137   1.002   4.255
 7498SOL    HW223394   5.047   0.974   4.388
 7499SOL     OW23395   4.483   5.797   4.079
 7499SOL    HW123396   4.494   5.698   4.079
 7499SOL    HW223397   4.391   5.821   4.110
 7500SOL     OW23398   4.922   4.183   1.700
 7500SOL    HW123399   4.964   4.119   1.764
 7500SOL    HW223400   4.822   4.180   1.710
 7501SOL     OW23401   0.612   4.249   3.972
 7501SOL    HW123402   0.647   4.340   3.992
 7501SOL    HW223403   0.512   4.252   3.964
 7502SOL     OW23404   2.266   1.789   4.591
 7502SOL    HW123405   2.338   1.805   4.658
 7502SOL    HW223406   2.188   1.746   4.635
 7503SOL     OW23407   1.938   2.489   6.704
 7503SOL    HW123408   1.898   2.404   6.669
 7503SOL    HW223409   1.869   2.537   6.760
 7504SOL     OW23410   4.079   5.790   3.734
 7504SOL    HW123411   4.082   5.888   3.715
 7504SOL    HW223412   3.996   5.751   3.693
 7505SOL     OW23413   1.915   1.964   4.129
 7505SOL    HW123414   1.972   1.893   4.089
 7505SOL    HW223415   1.972   2.028   4.181
 7506SOL     OW23416   3.677   1.724   3.515
 7506SOL    HW123417   3.703   1.798   3.577
 7506SOL    HW223418   3.619   1.759   3.442
 7507SOL     OW23419   1.765   6.654   5.963
 7507SOL    HW123420   1.808   6.704   6.038
 7507SOL    HW223421   1.700   6.587   6.001
 7508SOL     OW23422   4.825   5.859   4.454
 7508SOL    HW123423   4.734   5.838   4.490
 7508SOL    HW223424   4.819   5.933   4.387
 7509SOL     OW23425   4.133   3.644   6.008
 7509SOL    HW123426   4.219   3.608   5.974
 7509SOL    HW223427   4.078   3.675   5.930
 7510SOL     OW23428   3.239   4.086   4.474
 7510SOL    HW123429   3.330   4.061   4.508
 7510SOL    HW223430   3.170   4.060   4.541
 7511SOL     OW23431   1.326   0.875   2.182
 7511SOL    HW123432   1.328   0.779   2.153
 7511SOL    HW223433   1.243   0.891   2.237
 7512SOL     OW23434   2.338   2.901   1.815
 7512SOL    HW123435   2.371   2.829   1.877
 7512SOL    HW223436   2.416   2.943   1.769
 7513SOL     OW23437   0.627   3.237   6.249
 7513SOL    HW123438   0.650   3.311   6.185
 7513SOL    HW223439   0.604   3.276   6.338
 7514SOL     OW23440   2.826   5.832   2.899
 7514SOL    HW123441   2.878   5.854   2.981
 7514SOL    HW223442   2.745   5.778   2.924
 7515SOL     OW23443   0.097   5.034   2.903
 7515SOL    HW123444   0.079   5.097   2.828
 7515SOL    HW223445   0.112   5.085   2.987
 7516SOL     OW23446   1.351   1.049   2.737
 7516SOL    HW123447   1.440   1.024   2.699
 7516SOL    HW223448   1.357   1.139   2.780
 7517SOL     OW23449   0.372   5.272   1.414
 7517SOL    HW123450   0.433   5.252   1.337
 7517SOL    HW223451   0.394   5.213   1.491
 7518SOL     OW23452   5.131   4.876   3.078
 7518SOL    HW123453   5.107   4.780   3.087
 7518SOL    HW223454   5.054   4.926   3.039
 7519SOL     OW23455   1.874   6.178   3.668
 7519SOL    HW123456   1.942   6.157   3.598
 7519SOL    HW223457   1.843   6.093   3.711
 7520SOL     OW23458   2.604   0.132   4.172
 7520SOL    HW123459   2.532   0.176   4.226
 7520SOL    HW223460   2.693   0.165   4.201
 7521SOL     OW23461   5.225   3.749   6.095
 7521SOL    HW123462   5.298   3.768   6.029
 7521SOL    HW223463   5.232   3.814   6.171
 7522SOL     OW23464   1.782   0.326   2.048
 7522SOL    HW123465   1.682   0.320   2.055
 7522SOL    HW223466   1.822   0.324   2.140
 7523SOL     OW23467   5.703   0.042   6.926
 7523SOL    HW123468   5.679   6.965   6.911
 7523SOL    HW223469   5.700   0.091   6.839
 7524SOL     OW23470   6.173   1.151   4.137
 7524SOL    HW123471   6.156   1.066   4.088
 7524SOL    HW223472   6.111   1.222   4.104
 7525SOL     OW23473   0.975   5.947   0.812
 7525SOL    HW123474   0.953   5.956   0.909
 7525SOL    HW223475   1.066   5.985   0.794
 7526SOL     OW23476   3.466   2.758   5.144
 7526SOL    HW123477   3.479   2.699   5.223
 7526SOL    HW223478   3.494   2.710   5.061
 7527SOL     OW23479   5.257   5.167   2.478
 7527SOL    HW123480   5.205   5.158   2.393
 7527SOL    HW223481   5.197   5.150   2.556
 7528SOL     OW23482   5.973   3.078   5.989
 7528SOL    HW123483   5.911   3.005   6.017
 7528SOL    HW223484   6.021   3.050   5.906
 7529SOL     OW23485   3.024   0.212   5.394
 7529SOL    HW123486   3.107   0.190   5.445
 7529SOL    HW223487   2.945   0.200   5.454
 7530SOL     OW23488   6.690   3.107   2.923
 7530SOL    HW123489   6.678   3.014   2.958
 7530SOL    HW223490   6.775   3.145   2.959
 7531SOL     OW23491   2.791   1.749   4.322
 7531SOL    HW123492   2.717   1.741   4.389
 7531SOL    HW223493   2.867   1.801   4.361
 7532SOL     OW23494   4.996   4.558   2.291
 7532SOL    HW123495   5.071   4.506   2.250
 7532SOL    HW223496   4.963   4.511   2.372
 7533SOL     OW23497   3.303   0.226   4.694
 7533SOL    HW123498   3.392   0.199   4.656
 7533SOL    HW223499   3.292   0.185   4.785
 7534SOL     OW23500   5.473   6.806   4.499
 7534SOL    HW123501   5.431   6.836   4.413
 7534SOL    HW223502   5.408   6.752   4.551
 7535SOL     OW23503   3.772   4.666   0.137
 7535SOL    HW123504   3.759   4.635   0.231
 7535SOL    HW223505   3.712   4.615   0.076
 7536SOL     OW23506   3.708   6.066   4.374
 7536SOL    HW123507   3.744   6.092   4.463
 7536SOL    HW223508   3.719   5.967   4.361
 7537SOL     OW23509   1.722   4.393   5.277
 7537SOL    HW123510   1.785   4.348   5.340
 7537SOL    HW223511   1.770   4.466   5.228
 7538SOL     OW23512   3.415   3.092   3.318
 7538SOL    HW123513   3.427   3.002   3.361
 7538SOL    HW223514   3.327   3.130   3.344
 7539SOL     OW23515   1.741   2.371   4.010
 7539SOL    HW123516   1.731   2.274   4.030
 7539SOL    HW223517   1.805   2.413   4.074
 7540SOL     OW23518   1.540   1.506   0.140
 7540SOL    HW123519   1.632   1.507   0.101
 7540SOL    HW223520   1.473   1.498   0.065
 7541SOL     OW23521   7.006   2.570   5.404
 7541SOL    HW123522   6.993   2.473   5.386
 7541SOL    HW223523   0.085   2.589   5.413
 7542SOL     OW23524   2.090   0.810   6.375
 7542SOL    HW123525   2.060   0.792   6.282
 7542SOL    HW223526   2.153   0.738   6.404
 7543SOL     OW23527   3.847   3.099   6.887
 7543SOL    HW123528   3.766   3.064   6.840
 7543SOL    HW223529   3.920   3.030   6.885
 7544SOL     OW23530   1.382   2.146   2.634
 7544SOL    HW123531   1.430   2.066   2.598
 7544SOL    HW223532   1.349   2.201   2.558
 7545SOL     OW23533   5.324   6.715   3.846
 7545SOL    HW123534   5.278   6.796   3.882
 7545SOL    HW223535   5.256   6.644   3.826
 7546SOL     OW23536   5.029   6.855   6.364
 7546SOL    HW123537   5.088   6.919   6.317
 7546SOL    HW223538   4.960   6.905   6.417
 7547SOL     OW23539   3.180   6.959   0.417
 7547SOL    HW123540   3.249   6.930   0.351
 7547SOL    HW223541   3.112   7.016   0.371
 7548SOL     OW23542   1.228   2.920   1.111
 7548SOL    HW123543   1.289   2.893   1.036
 7548SOL    HW223544   1.263   3.003   1.154
 7549SOL     OW23545   5.972   2.131   1.994
 7549SOL    HW123546   5.897   2.183   2.035
 7549SOL    HW223547   6.053   2.188   1.989
 7550SOL     OW23548   0.958   5.095   1.377
 7550SOL    HW123549   0.957   5.186   1.336
 7550SOL    HW223550   1.049   5.055   1.366
 7551SOL     OW23551   4.459   3.757   6.278
 7551SOL    HW123552   4.546   3.802   6.298
 7551SOL    HW223553   4.390   3.826   6.257
 7552SOL     OW23554   3.283   5.650   4.013
 7552SOL    HW123555   3.314   5.587   4.084
 7552SOL    HW223556   3.193   5.622   3.980
 7553SOL     OW23557   4.963   4.187   6.203
 7553SOL    HW123558   4.925   4.095   6.208
 7553SOL    HW223559   4.969   4.226   6.295
 7554SOL     OW23560   6.500   0.813   0.818
 7554SOL    HW123561   6.520   0.795   0.722
 7554SOL    HW223562   6.516   0.730   0.872
 7555SOL     OW23563   1.409   5.610   6.002
 7555SOL    HW123564   1.352   5.606   6.084
 7555SOL    HW223565   1.395   5.527   5.947
 7556SOL     OW23566   6.997   3.446   4.059
 7556SOL    HW123567   6.963   3.354   4.079
 7556SOL    HW223568   6.979   3.506   4.136
 7557SOL     OW23569   4.231   3.349   0.049
 7557SOL    HW123570   4.308   3.364   7.006
 7557SOL    HW223571   4.145   3.366   0.000
 7558SOL     OW23572   1.386   3.272   3.319
 7558SOL    HW123573   1.294   3.235   3.304
 7558SOL    HW223574   1.419   3.243   3.409
 7559SOL     OW23575   0.948   4.801   0.497
 7559SOL    HW123576   1.023   4.750   0.539
 7559SOL    HW223577   0.917   4.753   0.415
 7560SOL     OW23578   4.729   6.894   5.546
 7560SOL    HW123579   4.669   6.900   5.626
 7560SOL    HW223580   4.689   6.831   5.480
 7561SOL     OW23581   0.407   3.652   0.518
 7561SOL    HW123582   0.326   3.653   0.459
 7561SOL    HW223583   0.395   3.583   0.590
 7562SOL     OW23584   5.037   6.507   5.502
 7562SOL    HW123585   5.110   6.501   5.571
 7562SOL    HW223586   5.068   6.566   5.427
 7563SOL     OW23587   2.548   1.097   2.399
 7563SOL    HW123588   2.555   1.027   2.327
 7563SOL    HW223589   2.482   1.067   2.468
 7564SOL     OW23590   5.132   6.680   4.244
 7564SOL    HW123591   5.038   6.647   4.257
 7564SOL    HW223592   5.192   6.602   4.227
 7565SOL     OW23593   4.673   4.569   0.530
 7565SOL    HW123594   4.633   4.482   0.502
 7565SOL    HW223595   4.664   4.579   0.629
 7566SOL     OW23596   1.943   5.546   5.275
 7566SOL    HW123597   1.973   5.562   5.369
 7566SOL    HW223598   1.853   5.588   5.262
 7567SOL     OW23599   2.544   3.083   6.805
 7567SOL    HW123600   2.502   3.073   6.896
 7567SOL    HW223601   2.609   3.009   6.790
 7568SOL     OW23602   4.588   4.322   3.377
 7568SOL    HW123603   4.549   4.310   3.468
 7568SOL    HW223604   4.562   4.412   3.341
 7569SOL     OW23605   3.801   0.814   0.907
 7569SOL    HW123606   3.791   0.796   0.810
 7569SOL    HW223607   3.897   0.803   0.933
 7570SOL     OW23608   6.013   4.657   4.587
 7570SOL    HW123609   5.987   4.560   4.585
 7570SOL    HW223610   6.111   4.665   4.604
 7571SOL     OW23611   5.077   4.039   1.860
 7571SOL    HW123612   5.125   4.094   1.929
 7571SOL    HW223613   5.103   3.943   1.872
 7572SOL     OW23614   1.538   1.636   4.138
 7572SOL    HW123615   1.505   1.615   4.230
 7572SOL    HW223616   1.579   1.727   4.137
 7573SOL     OW23617   3.184   5.201   5.601
 7573SOL    HW123618   3.153   5.289   5.566
 7573SOL    HW223619   3.178   5.201   5.701
 7574SOL     OW23620   5.227   5.675   2.238
 7574SOL    HW123621   5.229   5.695   2.336
 7574SOL    HW223622   5.186   5.586   2.222
 7575SOL     OW23623   4.957   2.622   4.651
 7575SOL    HW123624   4.883   2.556   4.665
 7575SOL    HW223625   4.982   2.663   4.739
 7576SOL     OW23626   6.583   3.491   1.294
 7576SOL    HW123627   6.543   3.463   1.381
 7576SOL    HW223628   6.570   3.589   1.281
 7577SOL     OW23629   4.281   0.482   5.037
 7577SOL    HW123630   4.335   0.565   5.027
 7577SOL    HW223631   4.191   0.495   4.996
 7578SOL     OW23632   2.671   5.159   4.489
 7578SOL    HW123633   2.758   5.184   4.530
 7578SOL    HW223634   2.597   5.181   4.553
 7579SOL     OW23635   4.142   2.248   3.715
 7579SOL    HW123636   4.195   2.333   3.707
 7579SOL    HW223637   4.113   2.218   3.624
 7580SOL     OW23638   2.126   3.387   2.761
 7580SOL    HW123639   2.167   3.357   2.847
 7580SOL    HW223640   2.127   3.311   2.696
 7581SOL     OW23641   5.888   0.761   1.111
 7581SOL    HW123642   5.885   0.720   1.203
 7581SOL    HW223643   5.894   0.860   1.120
 7582SOL     OW23644   3.199   1.974   1.068
 7582SOL    HW123645   3.156   1.904   1.126
 7582SOL    HW223646   3.229   2.051   1.124
 7583SOL     OW23647   6.845   3.532   2.836
 7583SOL    HW123648   6.749   3.526   2.865
 7583SOL    HW223649   6.903   3.552   2.915
 7584SOL     OW23650   2.094   1.469   1.160
 7584SOL    HW123651   2.049   1.466   1.071
 7584SOL    HW223652   2.033   1.432   1.230
 7585SOL     OW23653   1.755   5.204   6.199
 7585SOL    HW123654   1.799   5.275   6.254
 7585SOL    HW223655   1.712   5.246   6.119
 7586SOL     OW23656   2.156   1.242   1.845
 7586SOL    HW123657   2.056   1.235   1.842
 7586SOL    HW223658   2.194   1.202   1.761
 7587SOL     OW23659   2.007   1.067   5.988
 7587SOL    HW123660   2.045   1.123   6.062
 7587SOL    HW223661   2.081   1.038   5.927
 7588SOL     OW23662   0.825   4.099   1.614
 7588SOL    HW123663   0.917   4.063   1.600
 7588SOL    HW223664   0.807   4.108   1.712
 7589SOL     OW23665   5.699   6.274   0.165
 7589SOL    HW123666   5.757   6.231   0.234
 7589SOL    HW223667   5.669   6.364   0.197
 7590SOL     OW23668   1.928   0.768   0.048
 7590SOL    HW123669   1.981   0.722   6.996
 7590SOL    HW223670   1.985   0.839   0.090
 7591SOL     OW23671   6.920   5.340   0.124
 7591SOL    HW123672   6.967   5.363   0.209
 7591SOL    HW223673   6.909   5.241   0.118
 7592SOL     OW23674   5.429   5.976   6.617
 7592SOL    HW123675   5.456   6.071   6.602
 7592SOL    HW223676   5.436   5.926   6.531
 7593SOL     OW23677   5.974   3.779   6.830
 7593SOL    HW123678   5.895   3.719   6.841
 7593SOL    HW223679   5.980   3.840   6.909
 7594SOL     OW23680   1.107   5.897   3.410
 7594SOL    HW123681   1.164   5.878   3.330
 7594SOL    HW223682   1.029   5.834   3.411
 7595SOL     OW23683   6.798   1.969   0.120
 7595SOL    HW123684   6.782   2.015   0.033
 7595SOL    HW223685   6.739   2.010   0.190
 7596SOL     OW23686   4.827   4.512   1.835
 7596SOL    HW123687   4.882   4.571   1.894
 7596SOL    HW223688   4.837   4.417   1.865
 7597SOL     OW23689   2.696   5.853   2.144
 7597SOL    HW123690   2.619   5.821   2.199
 7597SOL    HW223691   2.744   5.774   2.106
 7598SOL     OW23692   6.919   0.337   3.306
 7598SOL    HW123693   6.847   0.394   3.267
 7598SOL    HW223694   6.887   0.242   3.311
 7599SOL     OW23695   6.570   2.521   2.123
 7599SOL    HW123696   6.520   2.502   2.038
 7599SOL    HW223697   6.524   2.475   2.199
 7600SOL     OW23698   2.298   1.881   1.987
 7600SOL    HW123699   2.258   1.790   1.976
 7600SOL    HW223700   2.227   1.950   1.979
 7601SOL     OW23701   1.640   6.930   4.574
 7601SOL    HW123702   1.567   6.863   4.588
 7601SOL    HW223703   1.722   6.885   4.538
 7602SOL     OW23704   2.214   3.224   5.103
 7602SOL    HW123705   2.284   3.160   5.071
 7602SOL    HW223706   2.228   3.243   5.200
 7603SOL     OW23707   0.601   0.831   2.233
 7603SOL    HW123708   0.526   0.835   2.300
 7603SOL    HW223709   0.663   0.756   2.257
 7604SOL     OW23710   4.747   6.530   0.000
 7604SOL    HW123711   4.670   6.468   7.005
 7604SOL    HW223712   4.735   6.612   6.963
 7605SOL     OW23713   5.960   4.222   5.695
 7605SOL    HW123714   6.022   4.206   5.618
 7605SOL    HW223715   5.883   4.279   5.664
 7606SOL     OW23716   6.372   2.053   3.039
 7606SOL    HW123717   6.445   1.984   3.042
 7606SOL    HW223718   6.412   2.143   3.026
 7607SOL     OW23719   5.014   6.860   6.765
 7607SOL    HW123720   5.053   6.771   6.789
 7607SOL    HW223721   5.058   6.931   6.821
 7608SOL     OW23722   3.778   3.314   3.428
 7608SOL    HW123723   3.810   3.222   3.408
 7608SOL    HW223724   3.712   3.343   3.358
 7609SOL     OW23725   1.425   2.939   4.550
 7609SOL    HW123726   1.495   2.876   4.518
 7609SOL    HW223727   1.426   3.022   4.494
 7610SOL     OW23728   5.445   0.749   1.468
 7610SOL    HW123729   5.392   0.693   1.404
 7610SOL    HW223730   5.384   0.791   1.535
 7611SOL     OW23731   1.695   1.627   1.205
 7611SOL    HW123732   1.718   1.622   1.108
 7611SOL    HW223733   1.723   1.715   1.241
 7612SOL     OW23734   4.400   1.429   2.854
 7612SOL    HW123735   4.384   1.358   2.785
 7612SOL    HW223736   4.321   1.492   2.856
 7613SOL     OW23737   5.506   1.372   2.251
 7613SOL    HW123738   5.504   1.464   2.213
 7613SOL    HW223739   5.563   1.371   2.333
 7614SOL     OW23740   4.230   1.541   0.158
 7614SOL    HW123741   4.140   1.582   0.172
 7614SOL    HW223742   4.264   1.504   0.244
 7615SOL     OW23743   3.909   4.995   6.011
 7615SOL    HW123744   3.888   5.087   6.044
 7615SOL    HW223745   3.975   4.952   6.072
 7616SOL     OW23746   6.797   4.957   3.831
 7616SOL    HW123747   6.808   4.885   3.899
 7616SOL    HW223748   6.746   5.033   3.871
 7617SOL     OW23749   3.376   6.080   2.156
 7617SOL    HW123750   3.303   6.044   2.215
 7617SOL    HW223751   3.443   6.008   2.138
 7618SOL     OW23752   2.014   2.693   0.573
 7618SOL    HW123753   1.964   2.724   0.654
 7618SOL    HW223754   1.951   2.685   0.496
 7619SOL     OW23755   5.507   3.126   5.899
 7619SOL    HW123756   5.548   3.086   5.980
 7619SOL    HW223757   5.434   3.067   5.865
 7620SOL     OW23758   3.081   6.591   1.823
 7620SOL    HW123759   3.019   6.552   1.891
 7620SOL    HW223760   3.175   6.585   1.857
 7621SOL     OW23761   2.807   1.803   1.184
 7621SOL    HW123762   2.842   1.747   1.110
 7621SOL    HW223763   2.718   1.767   1.214
 7622SOL     OW23764   4.724   1.783   0.673
 7622SOL    HW123765   4.800   1.809   0.733
 7622SOL    HW223766   4.648   1.750   0.728
 7623SOL     OW23767   5.036   0.531   5.925
 7623SOL    HW123768   5.058   0.583   6.008
 7623SOL    HW223769   5.091   0.564   5.849
 7624SOL     OW23770   6.735   0.801   4.067
 7624SOL    HW123771   6.769   0.710   4.042
 7624SOL    HW223772   6.783   0.871   4.014
 7625SOL     OW23773   4.416   6.693   1.049
 7625SOL    HW123774   4.369   6.609   1.076
 7625SOL    HW223775   4.363   6.739   0.979
 7626SOL     OW23776   2.125   4.711   4.939
 7626SOL    HW123777   2.137   4.684   4.843
 7626SOL    HW223778   2.208   4.758   4.971
 7627SOL     OW23779   0.171   2.069   0.223
 7627SOL    HW123780   0.206   2.059   0.130
 7627SOL    HW223781   0.247   2.074   0.287
 7628SOL     OW23782   4.035   2.174   0.782
 7628SOL    HW123783   3.993   2.263   0.769
 7628SOL    HW223784   4.066   2.138   0.694
 7629SOL     OW23785   6.533   5.121   3.518
 7629SOL    HW123786   6.489   5.194   3.572
 7629SOL    HW223787   6.608   5.081   3.571
 7630SOL     OW23788   6.765   1.261   2.371
 7630SOL    HW123789   6.860   1.273   2.344
 7630SOL    HW223790   6.713   1.225   2.294
 7631SOL     OW23791   1.175   2.013   3.320
 7631SOL    HW123792   1.254   2.069   3.344
 7631SOL    HW223793   1.149   1.957   3.398
 7632SOL     OW23794   4.309   2.014   6.342
 7632SOL    HW123795   4.269   1.941   6.286
 7632SOL    HW223796   4.254   2.097   6.333
 7633SOL     OW23797   5.736   4.529   6.620
 7633SOL    HW123798   5.781   4.604   6.669
 7633SOL    HW223799   5.639   4.528   6.644
 7634SOL     OW23800   1.199   1.672   1.975
 7634SOL    HW123801   1.221   1.770   1.980
 7634SOL    HW223802   1.117   1.654   2.029
 7635SOL     OW23803   2.906   5.191   6.163
 7635SOL    HW123804   2.986   5.189   6.223
 7635SOL    HW223805   2.873   5.285   6.155
 7636SOL     OW23806   1.726   0.410   3.687
 7636SOL    HW123807   1.822   0.435   3.686
 7636SOL    HW223808   1.674   0.477   3.740
 7637SOL     OW23809   2.201   5.609   4.234
 7637SOL    HW123810   2.109   5.637   4.209
 7637SOL    HW223811   2.245   5.563   4.157
 7638SOL     OW23812   4.479   4.532   2.034
 7638SOL    HW123813   4.474   4.436   2.004
 7638SOL    HW223814   4.563   4.545   2.087
 7639SOL     OW23815   0.632   2.187   4.499
 7639SOL    HW123816   0.625   2.259   4.430
 7639SOL    HW223817   0.544   2.176   4.545
 7640SOL     OW23818   2.185   3.213   6.248
 7640SOL    HW123819   2.283   3.195   6.251
 7640SOL    HW223820   2.159   3.270   6.327
 7641SOL     OW23821   6.234   2.706   3.596
 7641SOL    HW123822   6.316   2.734   3.545
 7641SOL    HW223823   6.260   2.667   3.684
 7642SOL     OW23824   2.624   1.548   3.016
 7642SOL    HW123825   2.527   1.568   3.003
 7642SOL    HW223826   2.656   1.589   3.101
 7643SOL     OW23827   4.877   3.297   3.388
 7643SOL    HW123828   4.805   3.365   3.376
 7643SOL    HW223829   4.963   3.332   3.350
 7644SOL     OW23830   6.572   3.573   3.375
 7644SOL    HW123831   6.648   3.537   3.428
 7644SOL    HW223832   6.511   3.498   3.348
 7645SOL     OW23833   4.383   3.564   6.881
 7645SOL    HW123834   4.356   3.609   6.795
 7645SOL    HW223835   4.411   3.634   6.947
 7646SOL     OW23836   0.970   1.809   1.514
 7646SOL    HW123837   0.929   1.840   1.600
 7646SOL    HW223838   1.030   1.732   1.532
 7647SOL     OW23839   2.005   4.918   1.227
 7647SOL    HW123840   2.085   4.900   1.171
 7647SOL    HW223841   1.922   4.892   1.176
 7648SOL     OW23842   4.236   0.764   3.417
 7648SOL    HW123843   4.202   0.787   3.326
 7648SOL    HW223844   4.162   0.775   3.484
 7649SOL     OW23845   2.543   1.507   1.832
 7649SOL    HW123846   2.541   1.420   1.881
 7649SOL    HW223847   2.636   1.544   1.833
 7650SOL     OW23848   5.266   4.862   2.253
 7650SOL    HW123849   5.359   4.893   2.276
 7650SOL    HW223850   5.259   4.764   2.268
 7651SOL     OW23851   3.923   1.618   6.121
 7651SOL    HW123852   3.890   1.568   6.041
 7651SOL    HW223853   3.998   1.678   6.094
 7652SOL     OW23854   0.757   3.223   2.695
 7652SOL    HW123855   0.777   3.167   2.615
 7652SOL    HW223856   0.781   3.318   2.675
 7653SOL     OW23857   3.793   2.104   1.399
 7653SOL    HW123858   3.870   2.081   1.339
 7653SOL    HW223859   3.818   2.083   1.494
 7654SOL     OW23860   4.866   3.654   4.126
 7654SOL    HW123861   4.816   3.589   4.068
 7654SOL    HW223862   4.951   3.613   4.157
 7655SOL     OW23863   4.611   6.303   5.449
 7655SOL    HW123864   4.516   6.285   5.424
 7655SOL    HW223865   4.664   6.218   5.444
 7656SOL     OW23866   1.100   5.931   4.858
 7656SOL    HW123867   1.108   6.028   4.878
 7656SOL    HW223868   1.174   5.881   4.903
 7657SOL     OW23869   4.684   1.380   4.390
 7657SOL    HW123870   4.636   1.299   4.424
 7657SOL    HW223871   4.729   1.359   4.304
 7658SOL     OW23872   3.824   0.583   6.387
 7658SOL    HW123873   3.740   0.572   6.440
 7658SOL    HW223874   3.825   0.517   6.311
 7659SOL     OW23875   5.423   6.954   0.366
 7659SOL    HW123876   5.509   6.920   0.404
 7659SOL    HW223877   5.437   6.978   0.270
 7660SOL     OW23878   6.367   4.505   4.388
 7660SOL    HW123879   6.362   4.602   4.412
 7660SOL    HW223880   6.420   4.494   4.304
 7661SOL     OW23881   5.781   3.374   3.425
 7661SOL    HW123882   5.703   3.429   3.394
 7661SOL    HW223883   5.800   3.303   3.358
 7662SOL     OW23884   6.889   5.916   1.871
 7662SOL    HW123885   6.917   5.990   1.932
 7662SOL    HW223886   6.899   5.828   1.919
 7663SOL     OW23887   6.825   5.539   6.731
 7663SOL    HW123888   6.816   5.485   6.814
 7663SOL    HW223889   6.906   5.598   6.737
 7664SOL     OW23890   2.694   5.296   4.933
 7664SOL    HW123891   2.734   5.388   4.932
 7664SOL    HW223892   2.708   5.254   5.022
 7665SOL     OW23893   2.220   6.209   4.709
 7665SOL    HW123894   2.175   6.279   4.764
 7665SOL    HW223895   2.296   6.251   4.658
 7666SOL     OW23896   1.395   1.528   1.256
 7666SOL    HW123897   1.460   1.604   1.261
 7666SOL    HW223898   1.445   1.442   1.243
 7667SOL     OW23899   4.813   5.542   6.418
 7667SOL    HW123900   4.753   5.569   6.342
 7667SOL    HW223901   4.889   5.606   6.424
 7668SOL     OW23902   2.595   4.154   1.704
 7668SOL    HW123903   2.551   4.200   1.627
 7668SOL    HW223904   2.691   4.181   1.709
 7669SOL     OW23905   4.503   6.354   5.022
 7669SOL    HW123906   4.477   6.259   5.006
 7669SOL    HW223907   4.515   6.401   4.934
 7670SOL     OW23908   1.795   5.032   0.846
 7670SOL    HW123909   1.891   5.040   0.873
 7670SOL    HW223910   1.765   5.117   0.803
 7671SOL     OW23911   5.377   2.483   4.412
 7671SOL    HW123912   5.304   2.540   4.450
 7671SOL    HW223913   5.339   2.396   4.379
 7672SOL     OW23914   5.584   6.931   2.335
 7672SOL    HW123915   5.514   6.995   2.302
 7672SOL    HW223916   5.585   6.851   2.274
 7673SOL     OW23917   0.429   4.445   0.276
 7673SOL    HW123918   0.396   4.379   0.343
 7673SOL    HW223919   0.353   4.504   0.248
 7674SOL     OW23920   6.841   1.181   4.543
 7674SOL    HW123921   6.846   1.085   4.517
 7674SOL    HW223922   6.754   1.198   4.590
 7675SOL     OW23923   4.733   0.243   3.235
 7675SOL    HW123924   4.697   0.152   3.257
 7675SOL    HW223925   4.809   0.234   3.170
 7676SOL     OW23926   1.537   6.673   0.825
 7676SOL    HW123927   1.600   6.749   0.810
 7676SOL    HW223928   1.478   6.694   0.902
 7677SOL     OW23929   1.984   2.759   2.622
 7677SOL    HW123930   1.938   2.730   2.538
 7677SOL    HW223931   2.078   2.785   2.602
 7678SOL     OW23932   5.678   6.891   6.587
 7678SOL    HW123933   5.594   6.933   6.622
 7678SOL    HW223934   5.704   6.936   6.501
 7679SOL     OW23935   0.636   5.259   5.448
 7679SOL    HW123936   0.550   5.231   5.405
 7679SOL    HW223937   0.705   5.273   5.377
 7680SOL     OW23938   4.237   2.067   6.620
 7680SOL    HW123939   4.233   2.055   6.521
 7680SOL    HW223940   4.326   2.035   6.654
 7681SOL     OW23941   2.351   1.780   6.525
 7681SOL    HW123942   2.303   1.856   6.482
 7681SOL    HW223943   2.349   1.792   6.625
 7682SOL     OW23944   3.252   6.916   0.988
 7682SOL    HW123945   3.319   6.979   0.949
 7682SOL    HW223946   3.207   6.961   1.066
 7683SOL     OW23947   5.992   1.311   3.092
 7683SOL    HW123948   6.043   1.280   3.172
 7683SOL    HW223949   5.916   1.369   3.121
 7684SOL     OW23950   3.957   1.569   5.776
 7684SOL    HW123951   4.018   1.507   5.726
 7684SOL    HW223952   3.866   1.529   5.780
 7685SOL     OW23953   3.909   3.795   0.957
 7685SOL    HW123954   3.959   3.843   0.885
 7685SOL    HW223955   3.915   3.697   0.941
 7686SOL     OW23956   3.170   0.530   4.101
 7686SOL    HW123957   3.077   0.546   4.067
 7686SOL    HW223958   3.235   0.537   4.025
 7687SOL     OW23959   4.679   5.144   5.616
 7687SOL    HW123960   4.642   5.193   5.695
 7687SOL    HW223961   4.691   5.047   5.640
 7688SOL     OW23962   0.107   0.265   4.065
 7688SOL    HW123963   0.063   0.185   4.108
 7688SOL    HW223964   0.140   0.240   3.974
 7689SOL     OW23965   3.885   0.348   4.337
 7689SOL    HW123966   3.883   0.408   4.417
 7689SOL    HW223967   3.862   0.255   4.365
 7690SOL     OW23968   0.264   5.942   3.423
 7690SOL    HW123969   0.349   5.947   3.370
 7690SOL    HW223970   0.284   5.903   3.513
 7691SOL     OW23971   5.314   4.343   5.300
 7691SOL    HW123972   5.240   4.333   5.233
 7691SOL    HW223973   5.359   4.255   5.314
 7692SOL     OW23974   1.903   6.529   1.023
 7692SOL    HW123975   1.938   6.448   1.070
 7692SOL    HW223976   1.805   6.537   1.039
 7693SOL     OW23977   5.667   0.844   6.935
 7693SOL    HW123978   5.701   0.935   6.910
 7693SOL    HW223979   5.689   0.825   0.011
 7694SOL     OW23980   6.372   4.821   4.405
 7694SOL    HW123981   6.343   4.908   4.446
 7694SOL    HW223982   6.337   4.816   4.311
 7695SOL     OW23983   3.810   0.334   6.800
 7695SOL    HW123984   3.788   0.237   6.811
 7695SOL    HW223985   3.763   0.387   6.870
 7696SOL     OW23986   7.010   3.647   5.553
 7696SOL    HW123987   6.997   3.562   5.604
 7696SOL    HW223988   6.968   3.722   5.603
 7697SOL     OW23989   4.139   1.804   1.935
 7697SOL    HW123990   4.231   1.776   1.907
 7697SOL    HW223991   4.090   1.725   1.972
 7698SOL     OW23992   6.947   3.418   5.702
 7698SOL    HW123993   6.855   3.379   5.705
 7698SOL    HW223994   7.001   3.381   5.778
 7699SOL     OW23995   2.289   4.283   6.868
 7699SOL    HW123996   2.350   4.358   6.843
 7699SOL    HW223997   2.322   4.239   6.952
 7700SOL     OW23998   5.318   0.041   5.406
 7700SOL    HW123999   5.289   6.972   5.440
 7700SOL    HW224000   5.284   0.114   5.466
 7701SOL     OW24001   6.336   2.168   5.465
 7701SOL    HW124002   6.412   2.231   5.479
 7701SOL    HW224003   6.309   2.127   5.552
 7702SOL     OW24004   2.345   6.092   5.850
 7702SOL    HW124005   2.324   6.181   5.891
 7702SOL    HW224006   2.435   6.061   5.881
 7703SOL     OW24007   0.063   2.055   6.373
 7703SOL    HW124008   0.024   2.062   6.465
 7703SOL    HW224009   0.160   2.034   6.380
 7704SOL     OW24010   4.177   4.849   0.614
 7704SOL    HW124011   4.184   4.851   0.515
 7704SOL    HW224012   4.125   4.928   0.646
 7705SOL     OW24013   3.821   5.056   5.302
 7705SOL    HW124014   3.890   5.032   5.371
 7705SOL    HW224015   3.759   5.124   5.340
 7706SOL     OW24016   6.667   0.699   5.236
 7706SOL    HW124017   6.712   0.611   5.224
 7706SOL    HW224018   6.735   0.768   5.260
 7707SOL     OW24019   0.151   4.969   6.171
 7707SOL    HW124020   0.091   4.893   6.146
 7707SOL    HW224021   0.129   4.999   6.264
 7708SOL     OW24022   4.746   0.102   4.913
 7708SOL    HW124023   4.804   0.060   4.984
 7708SOL    HW224024   4.652   0.072   4.924
 7709SOL     OW24025   3.491   2.059   2.057
 7709SOL    HW124026   3.433   2.045   1.977
 7709SOL    HW224027   3.571   2.114   2.031
 7710SOL     OW24028   2.837   2.159   6.658
 7710SOL    HW124029   2.844   2.060   6.650
 7710SOL    HW224030   2.888   2.190   6.739
 7711SOL     OW24031   5.156   6.645   6.071
 7711SOL    HW124032   5.180   6.566   6.128
 7711SOL    HW224033   5.170   6.729   6.122
 7712SOL     OW24034   5.213   5.357   1.156
 7712SOL    HW124035   5.238   5.265   1.127
 7712SOL    HW224036   5.124   5.354   1.203
 7713SOL     OW24037   0.981   4.530   6.898
 7713SOL    HW124038   0.962   4.452   6.958
 7713SOL    HW224039   1.063   4.577   6.930
 7714SOL     OW24040   5.603   4.258   3.879
 7714SOL    HW124041   5.703   4.264   3.881
 7714SOL    HW224042   5.565   4.337   3.928
 7715SOL     OW24043   4.463   1.815   1.337
 7715SOL    HW124044   4.546   1.836   1.285
 7715SOL    HW224045   4.384   1.856   1.291
 7716SOL     OW24046   4.871   2.982   2.962
 7716SOL    HW124047   4.837   2.934   3.043
 7716SOL    HW224048   4.853   3.080   2.970
 7717SOL     OW24049   3.356   0.557   6.479
 7717SOL    HW124050   3.281   0.490   6.480
 7717SOL    HW224051   3.411   0.545   6.397
 7718SOL     OW24052   2.997   5.882   3.636
 7718SOL    HW124053   2.991   5.827   3.552
 7718SOL    HW224054   3.079   5.857   3.686
 7719SOL     OW24055   6.344   2.064   5.739
 7719SOL    HW124056   6.366   2.140   5.800
 7719SOL    HW224057   6.424   2.005   5.730
 7720SOL     OW24058   5.595   5.764   1.683
 7720SOL    HW124059   5.560   5.671   1.693
 7720SOL    HW224060   5.520   5.829   1.691
 7721SOL     OW24061   1.706   4.692   2.608
 7721SOL    HW124062   1.676   4.619   2.669
 7721SOL    HW224063   1.673   4.780   2.642
 7722SOL     OW24064   0.815   5.668   4.322
 7722SOL    HW124065   0.822   5.572   4.298
 7722SOL    HW224066   0.754   5.715   4.257
 7723SOL     OW24067   6.550   3.402   0.535
 7723SOL    HW124068   6.499   3.488   0.537
 7723SOL    HW224069   6.528   3.348   0.616
 7724SOL     OW24070   1.683   5.226   0.687
 7724SOL    HW124071   1.708   5.232   0.590
 7724SOL    HW224072   1.593   5.182   0.695
 7725SOL     OW24073   5.195   3.683   4.477
 7725SOL    HW124074   5.250   3.602   4.458
 7725SOL    HW224075   5.194   3.700   4.576
 7726SOL     OW24076   5.894   4.165   3.589
 7726SOL    HW124077   5.807   4.171   3.540
 7726SOL    HW224078   5.921   4.069   3.598
 7727SOL     OW24079   6.860   2.920   2.233
 7727SOL    HW124080   6.828   2.826   2.247
 7727SOL    HW224081   6.819   2.956   2.149
 7728SOL     OW24082   2.477   2.131   3.064
 7728SOL    HW124083   2.512   2.104   2.974
 7728SOL    HW224084   2.400   2.194   3.052
 7729SOL     OW24085   5.742   2.334   0.927
 7729SOL    HW124086   5.815   2.396   0.956
 7729SOL    HW224087   5.737   2.257   0.991
 7730SOL     OW24088   4.893   0.291   1.777
 7730SOL    HW124089   4.990   0.279   1.798
 7730SOL    HW224090   4.883   0.349   1.697
 7731SOL     OW24091   6.799   1.039   5.215
 7731SOL    HW124092   6.814   0.971   5.288
 7731SOL    HW224093   6.748   1.116   5.252
 7732SOL     OW24094   4.719   4.712   0.286
 7732SOL    HW124095   4.785   4.782   0.311
 7732SOL    HW224096   4.699   4.655   0.366
 7733SOL     OW24097   3.448   6.668   1.040
 7733SOL    HW124098   3.453   6.594   1.106
 7733SOL    HW224099   3.400   6.746   1.080
 7734SOL     OW24100   1.359   1.694   3.184
 7734SOL    HW124101   1.372   1.656   3.092
 7734SOL    HW224102   1.307   1.779   3.178
 7735SOL     OW24103   5.151   4.096   0.594
 7735SOL    HW124104   5.215   4.125   0.665
 7735SOL    HW224105   5.064   4.144   0.606
 7736SOL     OW24106   5.752   4.683   6.012
 7736SOL    HW124107   5.689   4.758   5.992
 7736SOL    HW224108   5.707   4.617   6.073
 7737SOL     OW24109   5.006   1.875   0.334
 7737SOL    HW124110   5.006   1.838   0.241
 7737SOL    HW224111   4.938   1.827   0.389
 7738SOL     OW24112   2.881   4.553   6.718
 7738SOL    HW124113   2.829   4.587   6.640
 7738SOL    HW224114   2.847   4.462   6.744
 7739SOL     OW24115   6.299   3.494   1.511
 7739SOL    HW124116   6.263   3.501   1.604
 7739SOL    HW224117   6.382   3.439   1.511
 7740SOL     OW24118   0.939   6.626   3.443
 7740SOL    HW124119   0.848   6.641   3.481
 7740SOL    HW224120   0.959   6.697   3.376
 7741SOL     OW24121   3.043   5.431   4.637
 7741SOL    HW124122   3.006   5.484   4.714
 7741SOL    HW224123   3.140   5.413   4.653
 7742SOL     OW24124   6.199   0.871   4.039
 7742SOL    HW124125   6.271   0.897   3.974
 7742SOL    HW224126   6.242   0.838   4.123
 7743SOL     OW24127   4.936   2.760   2.808
 7743SOL    HW124128   5.036   2.762   2.813
 7743SOL    HW224129   4.899   2.845   2.845
 7744SOL     OW24130   0.022   0.049   4.950
 7744SOL    HW124131   6.992   0.126   4.993
 7744SOL    HW224132   0.120   0.069   4.949
 7745SOL     OW24133   5.110   3.129   5.294
 7745SOL    HW124134   5.072   3.037   5.300
 7745SOL    HW224135   5.037   3.195   5.275
 7746SOL     OW24136   1.478   0.624   0.487
 7746SOL    HW124137   1.469   0.724   0.486
 7746SOL    HW224138   1.557   0.597   0.434
 7747SOL     OW24139   5.207   5.104   1.079
 7747SOL    HW124140   5.152   5.121   0.997
 7747SOL    HW224141   5.148   5.098   1.159
 7748SOL     OW24142   3.076   3.405   6.395
 7748SOL    HW124143   3.031   3.479   6.346
 7748SOL    HW224144   3.007   3.350   6.442
 7749SOL     OW24145   5.317   3.419   6.401
 7749SOL    HW124146   5.258   3.435   6.322
 7749SOL    HW224147   5.411   3.406   6.371
 7750SOL     OW24148   6.021   5.166   3.156
 7750SOL    HW124149   5.987   5.073   3.141
 7750SOL    HW224150   6.056   5.174   3.249
 7751SOL     OW24151   0.128   2.475   1.839
 7751SOL    HW124152   0.102   2.388   1.880
 7751SOL    HW224153   0.117   2.471   1.740
 7752SOL     OW24154   4.321   1.953   2.821
 7752SOL    HW124155   4.407   1.983   2.861
 7752SOL    HW224156   4.258   1.925   2.894
 7753SOL     OW24157   3.230   1.854   4.835
 7753SOL    HW124158   3.327   1.849   4.813
 7753SOL    HW224159   3.216   1.926   4.904
 7754SOL     OW24160   5.479   6.183   2.486
 7754SOL    HW124161   5.413   6.222   2.551
 7754SOL    HW224162   5.456   6.087   2.469
 7755SOL     OW24163   0.753   4.684   4.649
 7755SOL    HW124164   0.757   4.692   4.549
 7755SOL    HW224165   0.671   4.633   4.675
 7756SOL     OW24166   3.007   5.077   2.687
 7756SOL    HW124167   2.982   4.994   2.637
 7756SOL    HW224168   3.022   5.152   2.622
 7757SOL     OW24169   0.269   4.767   2.047
 7757SOL    HW124170   0.295   4.861   2.025
 7757SOL    HW224171   0.264   4.713   1.963
 7758SOL     OW24172   1.301   2.122   4.791
 7758SOL    HW124173   1.225   2.135   4.727
 7758SOL    HW224174   1.303   2.026   4.820
 7759SOL     OW24175   3.675   1.692   1.491
 7759SOL    HW124176   3.758   1.654   1.450
 7759SOL    HW224177   3.700   1.761   1.559
 7760SOL     OW24178   4.834   3.114   0.335
 7760SOL    HW124179   4.854   3.136   0.430
 7760SOL    HW224180   4.907   3.150   0.276
 7761SOL     OW24181   4.446   5.148   3.584
 7761SOL    HW124182   4.502   5.191   3.514
 7761SOL    HW224183   4.426   5.213   3.657
 7762SOL     OW24184   5.459   1.389   1.556
 7762SOL    HW124185   5.374   1.418   1.512
 7762SOL    HW224186   5.475   1.293   1.538
 7763SOL     OW24187   2.359   0.404   4.511
 7763SOL    HW124188   2.360   0.346   4.429
 7763SOL    HW224189   2.406   0.357   4.585
 7764SOL     OW24190   2.620   4.537   5.568
 7764SOL    HW124191   2.639   4.529   5.470
 7764SOL    HW224192   2.579   4.452   5.600
 7765SOL     OW24193   5.181   3.292   4.114
 7765SOL    HW124194   5.172   3.214   4.175
 7765SOL    HW224195   5.278   3.314   4.102
 7766SOL     OW24196   6.780   3.380   6.578
 7766SOL    HW124197   6.705   3.331   6.622
 7766SOL    HW224198   6.861   3.377   6.637
 7767SOL     OW24199   4.002   0.608   3.752
 7767SOL    HW124200   4.080   0.546   3.737
 7767SOL    HW224201   4.032   0.702   3.737
 7768SOL     OW24202   3.602   5.739   3.766
 7768SOL    HW124203   3.576   5.825   3.810
 7768SOL    HW224204   3.520   5.685   3.746
 7769SOL     OW24205   3.540   2.794   5.925
 7769SOL    HW124206   3.446   2.822   5.904
 7769SOL    HW224207   3.601   2.827   5.853
 7770SOL     OW24208   1.356   3.193   4.080
 7770SOL    HW124209   1.328   3.114   4.134
 7770SOL    HW224210   1.297   3.270   4.101
 7771SOL     OW24211   2.013   3.705   6.262
 7771SOL    HW124212   1.967   3.631   6.213
 7771SOL    HW224213   1.958   3.732   6.341
 7772SOL     OW24214   5.408   6.208   1.930
 7772SOL    HW124215   5.360   6.260   1.861
 7772SOL    HW224216   5.344   6.146   1.977
 7773SOL     OW24217   2.172   6.287   6.927
 7773SOL    HW124218   2.206   6.380   6.916
 7773SOL    HW224219   2.222   6.226   6.866
 7774SOL     OW24220   5.675   1.386   2.498
 7774SOL    HW124221   5.659   1.479   2.529
 7774SOL    HW224222   5.708   1.331   2.575
 7775SOL     OW24223   2.783   1.989   1.402
 7775SOL    HW124224   2.776   2.078   1.357
 7775SOL    HW224225   2.777   1.916   1.333
 7776SOL     OW24226   2.729   1.362   4.813
 7776SOL    HW124227   2.752   1.431   4.744
 7776SOL    HW224228   2.715   1.274   4.768
 7777SOL     OW24229   6.205   6.246   3.341
 7777SOL    HW124230   6.262   6.232   3.260
 7777SOL    HW224231   6.236   6.186   3.414
 7778SOL     OW24232   0.024   4.702   2.626
 7778SOL    HW124233   6.972   4.698   2.556
 7778SOL    HW224234   0.112   4.721   2.582
 7779SOL     OW24235   4.375   6.192   1.799
 7779SOL    HW124236   4.435   6.137   1.741
 7779SOL    HW224237   4.350   6.276   1.751
 7780SOL     OW24238   5.983   6.369   5.176
 7780SOL    HW124239   6.060   6.395   5.235
 7780SOL    HW224240   5.944   6.282   5.209
 7781SOL     OW24241   1.740   3.086   0.875
 7781SOL    HW124242   1.827   3.083   0.827
 7781SOL    HW224243   1.691   3.170   0.852
 7782SOL     OW24244   5.198   3.107   4.308
 7782SOL    HW124245   5.285   3.147   4.337
 7782SOL    HW224246   5.135   3.106   4.385
 7783SOL     OW24247   1.905   6.534   4.487
 7783SOL    HW124248   1.853   6.468   4.433
 7783SOL    HW224249   1.998   6.541   4.450
 7784SOL     OW24250   1.849   1.781   1.802
 7784SOL    HW124251   1.920   1.729   1.755
 7784SOL    HW224252   1.886   1.820   1.886
 7785SOL     OW24253   0.111   6.793   2.937
 7785SOL    HW124254   0.138   6.741   2.856
 7785SOL    HW224255   0.129   6.891   2.922
 7786SOL     OW24256   4.281   1.020   5.902
 7786SOL    HW124257   4.342   0.957   5.950
 7786SOL    HW224258   4.188   1.010   5.939
 7787SOL     OW24259   2.512   2.448   2.209
 7787SOL    HW124260   2.520   2.356   2.247
 7787SOL    HW224261   2.588   2.466   2.147
 7788SOL     OW24262   0.786   4.075   1.923
 7788SOL    HW124263   0.695   4.112   1.936
 7788SOL    HW224264   0.806   4.008   1.995
 7789SOL     OW24265   3.692   1.263   6.355
 7789SOL    HW124266   3.716   1.339   6.415
 7789SOL    HW224267   3.599   1.277   6.321
 7790SOL     OW24268   4.200   5.095   2.709
 7790SOL    HW124269   4.160   5.187   2.702
 7790SOL    HW224270   4.213   5.058   2.617
 7791SOL     OW24271   2.946   6.019   2.724
 7791SOL    HW124272   2.883   6.031   2.648
 7791SOL    HW224273   2.910   5.950   2.786
 7792SOL     OW24274   1.169   1.414   3.119
 7792SOL    HW124275   1.197   1.480   3.049
 7792SOL    HW224276   1.246   1.354   3.141
 7793SOL     OW24277   5.132   1.219   0.609
 7793SOL    HW124278   5.224   1.196   0.579
 7793SOL    HW224279   5.071   1.224   0.530
 7794SOL     OW24280   1.386   6.890   3.069
 7794SOL    HW124281   1.476   6.907   3.109
 7794SOL    HW224282   1.329   6.840   3.135
 7795SOL     OW24283   3.588   4.423   0.953
 7795SOL    HW124284   3.541   4.488   1.013
 7795SOL    HW224285   3.625   4.471   0.874
 7796SOL     OW24286   3.421   2.357   0.390
 7796SOL    HW124287   3.402   2.279   0.331
 7796SOL    HW224288   3.415   2.329   0.486
 7797SOL     OW24289   1.206   5.341   3.058
 7797SOL    HW124290   1.268   5.406   3.102
 7797SOL    HW224291   1.200   5.258   3.113
 7798SOL     OW24292   1.785   3.113   0.442
 7798SOL    HW124293   1.770   3.034   0.382
 7798SOL    HW224294   1.841   3.181   0.394
 7799SOL     OW24295   3.295   5.847   3.543
 7799SOL    HW124296   3.313   5.799   3.629
 7799SOL    HW224297   3.364   5.918   3.529
 7800SOL     OW24298   1.349   0.594   2.088
 7800SOL    HW124299   1.360   0.650   2.006
 7800SOL    HW224300   1.397   0.508   2.076
 7801SOL     OW24301   0.815   1.897   1.315
 7801SOL    HW124302   0.868   1.921   1.397
 7801SOL    HW224303   0.847   1.951   1.238
 7802SOL     OW24304   6.939   3.883   4.018
 7802SOL    HW124305   6.879   3.824   4.072
 7802SOL    HW224306   6.896   3.902   3.930
 7803SOL     OW24307   2.699   2.782   5.725
 7803SOL    HW124308   2.604   2.792   5.756
 7803SOL    HW224309   2.758   2.844   5.775
 7804SOL     OW24310   3.788   1.818   5.400
 7804SOL    HW124311   3.814   1.796   5.494
 7804SOL    HW224312   3.691   1.845   5.398
 7805SOL     OW24313   5.059   3.096   0.101
 7805SOL    HW124314   5.113   3.032   0.156
 7805SOL    HW224315   5.121   3.152   0.045
 7806SOL     OW24316   6.494   1.409   6.224
 7806SOL    HW124317   6.563   1.346   6.189
 7806SOL    HW224318   6.534   1.500   6.236
 7807SOL     OW24319   2.040   5.590   5.522
 7807SOL    HW124320   1.976   5.525   5.563
 7807SOL    HW224321   2.104   5.623   5.592
 7808SOL     OW24322   6.157   4.060   3.439
 7808SOL    HW124323   6.124   3.967   3.458
 7808SOL    HW224324   6.079   4.120   3.422
 7809SOL     OW24325   4.760   5.859   2.259
 7809SOL    HW124326   4.716   5.891   2.175
 7809SOL    HW224327   4.824   5.785   2.236
 7810SOL     OW24328   2.520   6.736   6.214
 7810SOL    HW124329   2.561   6.650   6.184
 7810SOL    HW224330   2.543   6.808   6.149
 7811SOL     OW24331   1.483   5.875   2.486
 7811SOL    HW124332   1.429   5.936   2.428
 7811SOL    HW224333   1.581   5.893   2.472
 7812SOL     OW24334   2.962   0.689   5.833
 7812SOL    HW124335   3.033   0.618   5.840
 7812SOL    HW224336   3.003   0.774   5.800
 7813SOL     OW24337   5.233   0.724   1.278
 7813SOL    HW124338   5.273   0.784   1.208
 7813SOL    HW224339   5.153   0.769   1.318
 7814SOL     OW24340   5.998   2.751   2.415
 7814SOL    HW124341   6.079   2.694   2.402
 7814SOL    HW224342   5.972   2.751   2.512
 7815SOL     OW24343   4.956   5.756   3.850
 7815SOL    HW124344   5.000   5.666   3.849
 7815SOL    HW224345   5.001   5.816   3.784
 7816SOL     OW24346   0.847   1.151   5.365
 7816SOL    HW124347   0.816   1.149   5.270
 7816SOL    HW224348   0.845   1.058   5.403
 7817SOL     OW24349   3.935   2.732   0.113
 7817SOL    HW124350   4.009   2.797   0.130
 7817SOL    HW224351   3.896   2.702   0.200
 7818SOL     OW24352   5.622   1.079   2.960
 7818SOL    HW124353   5.597   0.986   2.933
 7818SOL    HW224354   5.718   1.081   2.986
 7819SOL     OW24355   1.579   3.323   5.311
 7819SOL    HW124356   1.527   3.395   5.356
 7819SOL    HW224357   1.613   3.259   5.379
 7820SOL     OW24358   1.427   1.083   5.462
 7820SOL    HW124359   1.395   1.172   5.430
 7820SOL    HW224360   1.352   1.017   5.458
 7821SOL     OW24361   3.537   6.466   6.612
 7821SOL    HW124362   3.498   6.387   6.563
 7821SOL    HW224363   3.565   6.535   6.545
 7822SOL     OW24364   0.404   1.577   5.251
 7822SOL    HW124365   0.363   1.651   5.304
 7822SOL    HW224366   0.437   1.612   5.164
 7823SOL     OW24367   2.505   3.287   5.635
 7823SOL    HW124368   2.464   3.307   5.546
 7823SOL    HW224369   2.479   3.358   5.701
 7824SOL     OW24370   5.319   3.806   2.887
 7824SOL    HW124371   5.272   3.785   2.801
 7824SOL    HW224372   5.280   3.889   2.927
 7825SOL     OW24373   3.442   3.423   2.646
 7825SOL    HW124374   3.376   3.366   2.596
 7825SOL    HW224375   3.530   3.377   2.649
 7826SOL     OW24376   6.761   0.373   0.592
 7826SOL    HW124377   6.677   0.328   0.623
 7826SOL    HW224378   6.839   0.338   0.644
 7827SOL     OW24379   4.408   3.224   0.474
 7827SOL    HW124380   4.415   3.125   0.462
 7827SOL    HW224381   4.496   3.266   0.454
 7828SOL     OW24382   0.735   5.706   1.138
 7828SOL    HW124383   0.728   5.805   1.125
 7828SOL    HW224384   0.829   5.677   1.117
 7829SOL     OW24385   3.938   3.967   3.057
 7829SOL    HW124386   3.950   3.928   3.148
 7829SOL    HW224387   4.019   4.021   3.033
 7830SOL     OW24388   5.730   3.733   0.233
 7830SOL    HW124389   5.677   3.815   0.254
 7830SOL    HW224390   5.742   3.726   0.134
 7831SOL     OW24391   1.458   2.892   0.112
 7831SOL    HW124392   1.428   2.826   0.043
 7831SOL    HW224393   1.389   2.899   0.184
 7832SOL     OW24394   3.160   2.639   5.695
 7832SOL    HW124395   3.153   2.595   5.606
 7832SOL    HW224396   3.164   2.570   5.767
 7833SOL     OW24397   0.061   0.105   1.177
 7833SOL    HW124398   7.013   0.050   1.228
 7833SOL    HW224399   0.053   0.084   1.080
 7834SOL     OW24400   6.290   0.702   1.538
 7834SOL    HW124401   6.372   0.649   1.560
 7834SOL    HW224402   6.250   0.740   1.622
 7835SOL     OW24403   2.625   2.438   4.506
 7835SOL    HW124404   2.582   2.348   4.499
 7835SOL    HW224405   2.598   2.481   4.592
 7836SOL     OW24406   2.006   0.895   0.432
 7836SOL    HW124407   2.076   0.832   0.467
 7836SOL    HW224408   2.015   0.903   0.333
 7837SOL     OW24409   4.767   6.664   2.226
 7837SOL    HW124410   4.857   6.625   2.246
 7837SOL    HW224411   4.696   6.597   2.246
 7838SOL     OW24412   3.922   6.518   4.174
 7838SOL    HW124413   3.839   6.567   4.148
 7838SOL    HW224414   3.945   6.451   4.103
 7839SOL     OW24415   0.061   4.346   3.746
 7839SOL    HW124416   7.009   4.372   3.681
 7839SOL    HW224417   0.031   4.267   3.799
 7840SOL     OW24418   4.960   3.313   5.646
 7840SOL    HW124419   4.948   3.322   5.547
 7840SOL    HW224420   4.902   3.379   5.694
 7841SOL     OW24421   1.122   1.696   6.318
 7841SOL    HW124422   1.199   1.658   6.369
 7841SOL    HW224423   1.065   1.621   6.283
 7842SOL     OW24424   3.559   0.747   1.878
 7842SOL    HW124425   3.525   0.655   1.858
 7842SOL    HW224426   3.595   0.749   1.971
 7843SOL     OW24427   6.924   3.186   1.861
 7843SOL    HW124428   0.002   3.205   1.848
 7843SOL    HW224429   6.913   3.098   1.909
 7844SOL     OW24430   3.890   1.429   4.445
 7844SOL    HW124431   3.860   1.442   4.350
 7844SOL    HW224432   3.839   1.492   4.504
 7845SOL     OW24433   1.403   1.108   4.032
 7845SOL    HW124434   1.324   1.059   4.070
 7845SOL    HW224435   1.433   1.063   3.947
 7846SOL     OW24436   4.306   6.426   1.626
 7846SOL    HW124437   4.352   6.440   1.538
 7846SOL    HW224438   4.233   6.494   1.637
 7847SOL     OW24439   0.364   0.331   0.365
 7847SOL    HW124440   0.454   0.288   0.369
 7847SOL    HW224441   0.366   0.404   0.297
 7848SOL     OW24442   4.013   4.722   0.874
 7848SOL    HW124443   3.951   4.763   0.807
 7848SOL    HW224444   4.011   4.623   0.865
 7849SOL     OW24445   5.395   3.828   4.258
 7849SOL    HW124446   5.450   3.771   4.319
 7849SOL    HW224447   5.428   3.922   4.260
 7850SOL     OW24448   1.027   1.995   4.271
 7850SOL    HW124449   0.995   1.902   4.251
 7850SOL    HW224450   0.954   2.048   4.313
 7851SOL     OW24451   4.974   6.603   0.861
 7851SOL    HW124452   5.012   6.666   0.929
 7851SOL    HW224453   4.928   6.527   0.908
 7852SOL     OW24454   2.579   6.676   0.386
 7852SOL    HW124455   2.534   6.587   0.384
 7852SOL    HW224456   2.576   6.713   0.478
 7853SOL     OW24457   2.019   2.860   0.223
 7853SOL    HW124458   1.961   2.783   0.249
 7853SOL    HW224459   2.067   2.839   0.138
 7854SOL     OW24460   3.430   4.117   2.893
 7854SOL    HW124461   3.415   4.158   2.803
 7854SOL    HW224462   3.359   4.048   2.910
 7855SOL     OW24463   3.984   0.028   5.314
 7855SOL    HW124464   4.024   0.096   5.253
 7855SOL    HW224465   3.898   0.062   5.350
 7856SOL     OW24466   3.535   3.542   6.349
 7856SOL    HW124467   3.579   3.510   6.433
 7856SOL    HW224468   3.602   3.545   6.275
 7857SOL     OW24469   0.988   2.700   4.964
 7857SOL    HW124470   0.931   2.735   4.889
 7857SOL    HW224471   1.084   2.720   4.944
 7858SOL     OW24472   5.684   4.347   3.168
 7858SOL    HW124473   5.702   4.355   3.266
 7858SOL    HW224474   5.586   4.335   3.152
 7859SOL     OW24475   0.931   5.557   0.008
 7859SOL    HW124476   1.016   5.529   0.052
 7859SOL    HW224477   0.871   5.478   7.017
 7860SOL     OW24478   4.418   7.014   1.894
 7860SOL    HW124479   4.371   6.973   1.973
 7860SOL    HW224480   4.516   0.001   1.914
 7861SOL     OW24481   5.206   3.708   0.692
 7861SOL    HW124482   5.180   3.763   0.612
 7861SOL    HW224483   5.201   3.764   0.774
 7862SOL     OW24484   2.834   4.307   1.668
 7862SOL    HW124485   2.911   4.247   1.688
 7862SOL    HW224486   2.843   4.392   1.719
 7863SOL     OW24487   5.537   5.666   2.372
 7863SOL    HW124488   5.492   5.582   2.401
 7863SOL    HW224489   5.636   5.651   2.369
 7864SOL     OW24490   0.818   5.937   4.039
 7864SOL    HW124491   0.755   5.860   4.033
 7864SOL    HW224492   0.897   5.920   3.980
 7865SOL     OW24493   3.586   0.894   2.831
 7865SOL    HW124494   3.522   0.964   2.799
 7865SOL    HW224495   3.600   0.904   2.930
 7866SOL     OW24496   1.947   2.528   4.689
 7866SOL    HW124497   2.016   2.595   4.660
 7866SOL    HW224498   1.856   2.570   4.684
 7867SOL     OW24499   5.534   3.902   2.278
 7867SOL    HW124500   5.439   3.885   2.253
 7867SOL    HW224501   5.594   3.851   2.217
 7868SOL     OW24502   5.583   0.344   0.667
 7868SOL    HW124503   5.636   0.344   0.752
 7868SOL    HW224504   5.487   0.363   0.689
 7869SOL     OW24505   6.538   1.810   4.097
 7869SOL    HW124506   6.523   1.711   4.107
 7869SOL    HW224507   6.608   1.840   4.161
 7870SOL     OW24508   6.770   6.839   3.164
 7870SOL    HW124509   6.793   6.914   3.102
 7870SOL    HW224510   6.682   6.856   3.207
 7871SOL     OW24511   5.640   3.151   3.753
 7871SOL    HW124512   5.701   3.072   3.748
 7871SOL    HW224513   5.686   3.226   3.801
 7872SOL     OW24514   6.586   3.484   4.094
 7872SOL    HW124515   6.498   3.524   4.123
 7872SOL    HW224516   6.626   3.540   4.022
 7873SOL     OW24517   6.801   5.758   4.588
 7873SOL    HW124518   6.891   5.801   4.581
 7873SOL    HW224519   6.796   5.681   4.524
 7874SOL     OW24520   5.999   1.614   0.563
 7874SOL    HW124521   5.909   1.617   0.520
 7874SOL    HW224522   6.014   1.524   0.603
 7875SOL     OW24523   4.569   2.853   0.533
 7875SOL    HW124524   4.557   2.919   0.607
 7875SOL    HW224525   4.659   2.866   0.491
 7876SOL     OW24526   0.471   0.571   4.888
 7876SOL    HW124527   0.378   0.576   4.924
 7876SOL    HW224528   0.471   0.600   4.793
 7877SOL     OW24529   6.017   2.646   2.876
 7877SOL    HW124530   5.946   2.580   2.900
 7877SOL    HW224531   6.101   2.598   2.853
 7878SOL     OW24532   4.446   4.086   1.505
 7878SOL    HW124533   4.422   4.061   1.599
 7878SOL    HW224534   4.375   4.055   1.443
 7879SOL     OW24535   5.336   0.867   5.197
 7879SOL    HW124536   5.246   0.823   5.194
 7879SOL    HW224537   5.362   0.883   5.292
 7880SOL     OW24538   1.614   6.443   6.034
 7880SOL    HW124539   1.559   6.426   6.116
 7880SOL    HW224540   1.557   6.432   5.952
 7881SOL     OW24541   0.894   5.108   3.378
 7881SOL    HW124542   0.968   5.090   3.442
 7881SOL    HW224543   0.868   5.204   3.383
 7882SOL     OW24544   1.177   4.396   1.747
 7882SOL    HW124545   1.245   4.420   1.816
 7882SOL    HW224546   1.112   4.331   1.786
 7883SOL     OW24547   3.554   2.105   3.226
 7883SOL    HW124548   3.643   2.142   3.200
 7883SOL    HW224549   3.523   2.149   3.310
 7884SOL     OW24550   0.953   3.675   4.305
 7884SOL    HW124551   0.932   3.577   4.309
 7884SOL    HW224552   1.038   3.689   4.255
 7885SOL     OW24553   5.728   4.897   2.910
 7885SOL    HW124554   5.654   4.899   2.977
 7885SOL    HW224555   5.731   4.983   2.860
 7886SOL     OW24556   4.859   3.443   2.595
 7886SOL    HW124557   4.857   3.430   2.495
 7886SOL    HW224558   4.837   3.357   2.640
 7887SOL     OW24559   1.695   2.833   1.671
 7887SOL    HW124560   1.655   2.838   1.762
 7887SOL    HW224561   1.646   2.894   1.609
 7888SOL     OW24562   6.328   1.027   4.669
 7888SOL    HW124563   6.276   1.079   4.736
 7888SOL    HW224564   6.277   1.023   4.583
 7889SOL     OW24565   5.553   5.104   0.184
 7889SOL    HW124566   5.538   5.198   0.152
 7889SOL    HW224567   5.619   5.105   0.259
 7890SOL     OW24568   2.273   3.022   4.281
 7890SOL    HW124569   2.369   3.032   4.305
 7890SOL    HW224570   2.258   2.933   4.238
 7891SOL     OW24571   6.539   2.294   4.631
 7891SOL    HW124572   6.510   2.329   4.720
 7891SOL    HW224573   6.605   2.220   4.644
 7892SOL     OW24574   0.808   1.593   5.035
 7892SOL    HW124575   0.708   1.595   5.028
 7892SOL    HW224576   0.839   1.668   5.093
 7893SOL     OW24577   5.811   0.565   0.133
 7893SOL    HW124578   5.788   0.480   0.085
 7893SOL    HW224579   5.746   0.579   0.208
 7894SOL     OW24580   3.042   0.793   6.971
 7894SOL    HW124581   3.020   0.828   0.042
 7894SOL    HW224582   3.033   0.866   6.903
 7895SOL     OW24583   6.574   6.477   3.570
 7895SOL    HW124584   6.653   6.536   3.588
 7895SOL    HW224585   6.567   6.460   3.471
 7896SOL     OW24586   2.600   2.188   0.870
 7896SOL    HW124587   2.615   2.107   0.813
 7896SOL    HW224588   2.689   2.224   0.900
 7897SOL     OW24589   3.024   2.633   0.642
 7897SOL    HW124590   3.080   2.715   0.628
 7897SOL    HW224591   2.930   2.650   0.612
 7898SOL     OW24592   5.614   0.082   3.070
 7898SOL    HW124593   5.586   0.152   3.135
 7898SOL    HW224594   5.546   0.009   3.068
 7899SOL     OW24595   6.412   4.191   4.411
 7899SOL    HW124596   6.369   4.250   4.480
 7899SOL    HW224597   6.407   4.235   4.321
 7900SOL     OW24598   0.421   3.912   0.583
 7900SOL    HW124599   0.339   3.947   0.627
 7900SOL    HW224600   0.399   3.830   0.531
 7901SOL     OW24601   0.597   2.107   6.749
 7901SOL    HW124602   0.598   2.097   6.849
 7901SOL    HW224603   0.681   2.069   6.711
 7902SOL     OW24604   2.005   6.580   2.216
 7902SOL    HW124605   2.038   6.657   2.161
 7902SOL    HW224606   1.999   6.498   2.159
 7903SOL     OW24607   2.533   1.903   5.262
 7903SOL    HW124608   2.618   1.939   5.300
 7903SOL    HW224609   2.543   1.892   5.163
 7904SOL     OW24610   4.536   2.146   2.908
 7904SOL    HW124611   4.537   2.233   2.858
 7904SOL    HW224612   4.578   2.158   2.997
 7905SOL     OW24613   5.306   2.045   1.245
 7905SOL    HW124614   5.293   2.101   1.164
 7905SOL    HW224615   5.230   1.980   1.253
 7906SOL     OW24616   1.693   4.817   0.105
 7906SOL    HW124617   1.737   4.728   0.109
 7906SOL    HW224618   1.706   4.857   0.014
 7907SOL     OW24619   5.881   6.577   2.463
 7907SOL    HW124620   5.813   6.553   2.532
 7907SOL    HW224621   5.857   6.537   2.375
 7908SOL     OW24622   1.672   6.903   6.561
 7908SOL    HW124623   1.608   6.879   6.488
 7908SOL    HW224624   1.766   6.893   6.528
 7909SOL     OW24625   6.114   4.278   2.220
 7909SOL    HW124626   6.153   4.369   2.207
 7909SOL    HW224627   6.089   4.239   2.131
 7910SOL     OW24628   0.856   3.912   6.547
 7910SOL    HW124629   0.815   3.823   6.569
 7910SOL    HW224630   0.872   3.963   6.631
 7911SOL     OW24631   7.000   4.581   6.118
 7911SOL    HW124632   6.999   4.487   6.149
 7911SOL    HW224633   6.984   4.584   6.019
 7912SOL     OW24634   6.032   4.999   1.154
 7912SOL    HW124635   5.979   4.925   1.195
 7912SOL    HW224636   6.059   5.064   1.225
 7913SOL     OW24637   1.319   5.039   0.423
 7913SOL    HW124638   1.288   4.945   0.435
 7913SOL    HW224639   1.241   5.101   0.433
 7914SOL     OW24640   0.749   6.948   5.024
 7914SOL    HW124641   0.704   6.995   4.949
 7914SOL    HW224642   0.712   6.979   5.111
 7915SOL     OW24643   3.452   5.013   2.495
 7915SOL    HW124644   3.417   4.951   2.565
 7915SOL    HW224645   3.376   5.060   2.451
 7916SOL     OW24646   1.348   0.167   4.194
 7916SOL    HW124647   1.411   0.150   4.271
 7916SOL    HW224648   1.348   0.264   4.171
 7917SOL     OW24649   4.244   2.113   1.533
 7917SOL    HW124650   4.263   2.146   1.441
 7917SOL    HW224651   4.215   2.190   1.590
 7918SOL     OW24652   2.166   2.356   3.663
 7918SOL    HW124653   2.092   2.397   3.716
 7918SOL    HW224654   2.211   2.427   3.609
 7919SOL     OW24655   1.417   5.904   5.245
 7919SOL    HW124656   1.486   5.971   5.219
 7919SOL    HW224657   1.372   5.935   5.329
 7920SOL     OW24658   4.746   0.384   1.287
 7920SOL    HW124659   4.654   0.345   1.284
 7920SOL    HW224660   4.752   0.459   1.221
 7921SOL     OW24661   5.246   2.559   0.945
 7921SOL    HW124662   5.290   2.535   1.032
 7921SOL    HW224663   5.308   2.616   0.891
 7922SOL     OW24664   2.820   0.199   1.619
 7922SOL    HW124665   2.834   0.231   1.525
 7922SOL    HW224666   2.729   0.226   1.650
 7923SOL     OW24667   4.414   1.293   6.803
 7923SOL    HW124668   4.417   1.300   6.704
 7923SOL    HW224669   4.392   1.382   6.842
 7924SOL     OW24670   6.082   5.933   0.374
 7924SOL    HW124671   6.031   5.893   0.450
 7924SOL    HW224672   6.055   5.889   0.289
 7925SOL     OW24673   1.425   5.070   6.571
 7925SOL    HW124674   1.372   4.987   6.591
 7925SOL    HW224675   1.506   5.072   6.630
 7926SOL     OW24676   4.880   6.027   6.716
 7926SOL    HW124677   4.957   6.080   6.751
 7926SOL    HW224678   4.907   5.931   6.705
 7927SOL     OW24679   4.291   0.340   2.850
 7927SOL    HW124680   4.195   0.318   2.836
 7927SOL    HW224681   4.298   0.427   2.901
 7928SOL     OW24682   6.013   2.195   2.860
 7928SOL    HW124683   5.965   2.236   2.783
 7928SOL    HW224684   6.034   2.100   2.839
 7929SOL     OW24685   4.650   4.337   6.031
 7929SOL    HW124686   4.656   4.242   6.061
 7929SOL    HW224687   4.743   4.374   6.018
 7930SOL     OW24688   4.068   6.594   6.552
 7930SOL    HW124689   4.019   6.508   6.562
 7930SOL    HW224690   4.064   6.646   6.638
 7931SOL     OW24691   3.886   2.064   1.644
 7931SOL    HW124692   3.885   2.154   1.687
 7931SOL    HW224693   3.950   2.005   1.693
 7932SOL     OW24694   1.320   3.526   1.384
 7932SOL    HW124695   1.266   3.537   1.468
 7932SOL    HW224696   1.374   3.609   1.368
 7933SOL     OW24697   1.099   2.045   6.981
 7933SOL    HW124698   1.163   2.025   0.035
 7933SOL    HW224699   1.069   2.140   6.987
 7934SOL     OW24700   0.990   5.446   0.870
 7934SOL    HW124701   1.027   5.529   0.911
 7934SOL    HW224702   0.906   5.468   0.821
 7935SOL     OW24703   5.867   2.735   3.087
 7935SOL    HW124704   5.928   2.691   3.021
 7935SOL    HW224705   5.858   2.832   3.065
 7936SOL     OW24706   2.829   5.833   3.826
 7936SOL    HW124707   2.792   5.924   3.843
 7936SOL    HW224708   2.896   5.837   3.752
 7937SOL     OW24709   3.651   1.275   0.303
 7937SOL    HW124710   3.580   1.339   0.332
 7937SOL    HW224711   3.674   1.291   0.207
 7938SOL     OW24712   3.501   6.727   3.832
 7938SOL    HW124713   3.516   6.768   3.742
 7938SOL    HW224714   3.588   6.693   3.867
 7939SOL     OW24715   0.664   0.910   2.919
 7939SOL    HW124716   0.644   0.951   3.009
 7939SOL    HW224717   0.689   0.982   2.854
 7940SOL     OW24718   5.751   1.776   4.135
 7940SOL    HW124719   5.819   1.717   4.178
 7940SOL    HW224720   5.661   1.757   4.174
 7941SOL     OW24721   3.545   0.328   1.014
 7941SOL    HW124722   3.492   0.365   0.938
 7941SOL    HW224723   3.608   0.258   0.981
 7942SOL     OW24724   0.984   5.020   0.900
 7942SOL    HW124725   0.913   4.968   0.852
 7942SOL    HW224726   1.043   4.956   0.950
 7943SOL     OW24727   1.613   6.133   6.250
 7943SOL    HW124728   1.652   6.174   6.167
 7943SOL    HW224729   1.545   6.065   6.225
 7944SOL     OW24730   1.118   2.478   0.946
 7944SOL    HW124731   1.059   2.417   0.893
 7944SOL    HW224732   1.149   2.553   0.887
 7945SOL     OW24733   6.141   4.426   3.077
 7945SOL    HW124734   6.049   4.431   3.040
 7945SOL    HW224735   6.177   4.333   3.063
 7946SOL     OW24736   4.045   1.033   6.373
 7946SOL    HW124737   3.994   1.088   6.307
 7946SOL    HW224738   4.131   1.078   6.395
 7947SOL     OW24739   6.894   4.068   6.493
 7947SOL    HW124740   6.853   3.985   6.456
 7947SOL    HW224741   6.823   4.125   6.535
 7948SOL     OW24742   2.057   5.048   2.998
 7948SOL    HW124743   1.994   5.002   2.936
 7948SOL    HW224744   2.011   5.127   3.039
 7949SOL     OW24745   2.565   5.987   5.989
 7949SOL    HW124746   2.656   6.026   5.994
 7949SOL    HW224747   2.572   5.888   5.978
 7950SOL     OW24748   5.852   4.656   5.380
 7950SOL    HW124749   5.943   4.619   5.401
 7950SOL    HW224750   5.863   4.741   5.328
 7951SOL     OW24751   4.548   6.464   2.282
 7951SOL    HW124752   4.523   6.511   2.367
 7951SOL    HW224753   4.494   6.501   2.206
 7952SOL     OW24754   6.221   3.929   5.271
 7952SOL    HW124755   6.131   3.907   5.309
 7952SOL    HW224756   6.292   3.906   5.338
 7953SOL     OW24757   1.387   6.373   0.476
 7953SOL    HW124758   1.442   6.403   0.555
 7953SOL    HW224759   1.447   6.364   0.396
 7954SOL     OW24760   3.817   3.782   6.892
 7954SOL    HW124761   3.768   3.698   6.916
 7954SOL    HW224762   3.832   3.785   6.793
 7955SOL     OW24763   1.508   1.624   6.330
 7955SOL    HW124764   1.541   1.705   6.283
 7955SOL    HW224765   1.480   1.555   6.263
 7956SOL     OW24766   6.573   6.294   0.137
 7956SOL    HW124767   6.477   6.322   0.128
 7956SOL    HW224768   6.617   6.349   0.208
 7957SOL     OW24769   4.997   1.406   5.791
 7957SOL    HW124770   5.081   1.436   5.747
 7957SOL    HW224771   4.951   1.339   5.733
 7958SOL     OW24772   5.613   2.717   0.470
 7958SOL    HW124773   5.526   2.669   0.459
 7958SOL    HW224774   5.617   2.795   0.408
 7959SOL     OW24775   5.885   2.310   0.016
 7959SOL    HW124776   5.808   2.373   0.009
 7959SOL    HW224777   5.869   2.231   6.976
 7960SOL     OW24778   1.115   1.326   5.451
 7960SOL    HW124779   1.180   1.390   5.408
 7960SOL    HW224780   1.053   1.291   5.381
 7961SOL     OW24781   6.373   6.580   7.014
 7961SOL    HW124782   6.453   6.640   7.005
 7961SOL    HW224783   6.383   6.502   6.952
 7962SOL     OW24784   5.874   7.013   4.853
 7962SOL    HW124785   5.798   6.981   4.796
 7962SOL    HW224786   5.951   0.017   4.795
 7963SOL     OW24787   6.827   6.837   3.461
 7963SOL    HW124788   6.803   6.934   3.462
 7963SOL    HW224789   6.863   6.812   3.370
 7964SOL     OW24790   6.343   4.043   1.710
 7964SOL    HW124791   6.359   3.971   1.777
 7964SOL    HW224792   6.249   4.038   1.678
 7965SOL     OW24793   4.227   2.588   6.294
 7965SOL    HW124794   4.161   2.513   6.295
 7965SOL    HW224795   4.243   2.620   6.387
 7966SOL     OW24796   4.954   3.737   4.735
 7966SOL    HW124797   4.923   3.771   4.647
 7966SOL    HW224798   4.899   3.658   4.762
 7967SOL     OW24799   1.521   4.947   0.919
 7967SOL    HW124800   1.615   4.977   0.929
 7967SOL    HW224801   1.486   4.976   0.829
 7968SOL     OW24802   0.921   2.949   4.803
 7968SOL    HW124803   0.921   3.033   4.748
 7968SOL    HW224804   0.894   2.971   4.897
 7969SOL     OW24805   3.601   5.543   6.502
 7969SOL    HW124806   3.584   5.444   6.498
 7969SOL    HW224807   3.616   5.570   6.598
 7970SOL     OW24808   6.235   2.787   4.093
 7970SOL    HW124809   6.150   2.818   4.136
 7970SOL    HW224810   6.305   2.776   4.163
 7971SOL     OW24811   2.883   1.276   6.513
 7971SOL    HW124812   2.892   1.247   6.609
 7971SOL    HW224813   2.854   1.372   6.510
 7972SOL     OW24814   3.369   4.112   4.018
 7972SOL    HW124815   3.351   4.017   4.044
 7972SOL    HW224816   3.405   4.161   4.097
 7973SOL     OW24817   5.515   4.438   2.472
 7973SOL    HW124818   5.454   4.486   2.536
 7973SOL    HW224819   5.566   4.367   2.521
 7974SOL     OW24820   0.533   2.642   5.532
 7974SOL    HW124821   0.601   2.715   5.536
 7974SOL    HW224822   0.494   2.627   5.623
 7975SOL     OW24823   5.524   0.635   1.137
 7975SOL    HW124824   5.498   0.643   1.041
 7975SOL    HW224825   5.558   0.723   1.169
 7976SOL     OW24826   0.645   0.451   0.882
 7976SOL    HW124827   0.648   0.530   0.944
 7976SOL    HW224828   0.738   0.419   0.865
 7977SOL     OW24829   5.477   5.929   3.681
 7977SOL    HW124830   5.563   5.891   3.647
 7977SOL    HW224831   5.446   6.001   3.619
 7978SOL     OW24832   0.168   4.368   1.481
 7978SOL    HW124833   0.255   4.380   1.527
 7978SOL    HW224834   0.094   4.397   1.541
 7979SOL     OW24835   2.032   2.274   4.654
 7979SOL    HW124836   1.965   2.246   4.585
 7979SOL    HW224837   2.010   2.366   4.687
 7980SOL     OW24838   3.725   5.741   0.662
 7980SOL    HW124839   3.793   5.689   0.714
 7980SOL    HW224840   3.651   5.679   0.633
 7981SOL     OW24841   1.301   4.091   3.759
 7981SOL    HW124842   1.298   4.191   3.762
 7981SOL    HW224843   1.324   4.056   3.850
 7982SOL     OW24844   6.958   0.791   5.911
 7982SOL    HW124845   0.011   0.747   5.858
 7982SOL    HW224846   6.995   0.822   5.999
 7983SOL     OW24847   4.639   1.289   1.356
 7983SOL    HW124848   4.590   1.220   1.410
 7983SOL    HW224849   4.614   1.380   1.388
 7984SOL     OW24850   0.196   2.486   2.938
 7984SOL    HW124851   0.237   2.571   2.970
 7984SOL    HW224852   0.185   2.489   2.839
 7985SOL     OW24853   3.193   2.857   5.183
 7985SOL    HW124854   3.287   2.844   5.151
 7985SOL    HW224855   3.165   2.778   5.238
 7986SOL     OW24856   3.630   0.776   4.286
 7986SOL    HW124857   3.549   0.724   4.311
 7986SOL    HW224858   3.605   0.871   4.269
 7987SOL     OW24859   0.872   3.426   6.891
 7987SOL    HW124860   0.932   3.443   6.969
 7987SOL    HW224861   0.778   3.415   6.923
 7988SOL     OW24862   6.913   1.307   2.114
 7988SOL    HW124863   6.939   1.364   2.192
 7988SOL    HW224864   6.991   1.250   2.088
 7989SOL     OW24865   0.066   4.008   1.183
 7989SOL    HW124866   7.009   3.994   1.246
 7989SOL    HW224867   0.047   3.964   1.096
 7990SOL     OW24868   5.033   5.845   5.481
 7990SOL    HW124869   5.071   5.909   5.547
 7990SOL    HW224870   5.022   5.889   5.392
 7991SOL     OW24871   5.817   0.838   4.974
 7991SOL    HW124872   5.760   0.883   4.906
 7991SOL    HW224873   5.876   0.906   5.018
 7992SOL     OW24874   2.195   6.775   0.121
 7992SOL    HW124875   2.100   6.754   0.143
 7992SOL    HW224876   2.228   6.712   0.051
 7993SOL     OW24877   6.064   5.486   1.013
 7993SOL    HW124878   6.125   5.408   0.997
 7993SOL    HW224879   5.969   5.454   1.013
 7994SOL     OW24880   6.237   0.015   4.025
 7994SOL    HW124881   6.240   0.021   4.125
 7994SOL    HW224882   6.233   0.107   3.986
 7995SOL     OW24883   0.779   5.420   1.449
 7995SOL    HW124884   0.775   5.352   1.522
 7995SOL    HW224885   0.873   5.455   1.440
 7996SOL     OW24886   3.213   6.984   3.300
 7996SOL    HW124887   3.260   6.906   3.342
 7996SOL    HW224888   3.281   0.029   3.266
 7997SOL     OW24889   1.680   1.719   5.692
 7997SOL    HW124890   1.634   1.759   5.613
 7997SOL    HW224891   1.683   1.619   5.682
 7998SOL     OW24892   2.622   0.862   0.449
 7998SOL    HW124893   2.572   0.938   0.490
 7998SOL    HW224894   2.601   0.777   0.498
 7999SOL     OW24895   1.393   0.351   4.537
 7999SOL    HW124896   1.307   0.308   4.564
 7999SOL    HW224897   1.448   0.369   4.618
 8000SOL     OW24898   3.670   5.368   0.602
 8000SOL    HW124899   3.722   5.354   0.687
 8000SOL    HW224900   3.730   5.355   0.524
 8001SOL     OW24901   4.358   4.858   1.190
 8001SOL    HW124902   4.294   4.781   1.188
 8001SOL    HW224903   4.307   4.944   1.193
 8002SOL     OW24904   1.184   6.823   4.291
 8002SOL    HW124905   1.129   6.742   4.272
 8002SOL    HW224906   1.280   6.805   4.268
 8003SOL     OW24907   2.476   5.764   2.277
 8003SOL    HW124908   2.492   5.738   2.373
 8003SOL    HW224909   2.407   5.836   2.273
 8004SOL     OW24910   1.346   2.924   3.733
 8004SOL    HW124911   1.330   3.022   3.736
 8004SOL    HW224912   1.319   2.888   3.644
 8005SOL     OW24913   2.540   0.748   2.887
 8005SOL    HW124914   2.551   0.816   2.815
 8005SOL    HW224915   2.459   0.771   2.942
 8006SOL     OW24916   4.094   4.426   5.538
 8006SOL    HW124917   4.112   4.367   5.618
 8006SOL    HW224918   4.101   4.371   5.455
 8007SOL     OW24919   0.112   0.336   0.960
 8007SOL    HW124920   0.170   0.259   0.986
 8007SOL    HW224921   0.119   0.409   1.028
 8008SOL     OW24922   4.881   5.310   0.346
 8008SOL    HW124923   4.943   5.237   0.317
 8008SOL    HW224924   4.796   5.269   0.379
 8009SOL     OW24925   5.735   1.120   6.922
 8009SOL    HW124926   5.779   1.098   6.835
 8009SOL    HW224927   5.648   1.166   6.905
 8010SOL     OW24928   2.884   0.443   5.622
 8010SOL    HW124929   2.886   0.495   5.536
 8010SOL    HW224930   2.806   0.472   5.677
 8011SOL     OW24931   3.877   1.944   3.074
 8011SOL    HW124932   3.812   1.975   3.004
 8011SOL    HW224933   3.827   1.912   3.154
 8012SOL     OW24934   6.128   1.365   4.503
 8012SOL    HW124935   6.151   1.435   4.571
 8012SOL    HW224936   6.039   1.324   4.527
 8013SOL     OW24937   3.439   1.114   2.743
 8013SOL    HW124938   3.415   1.183   2.675
 8013SOL    HW224939   3.407   1.143   2.833
 8014SOL     OW24940   2.146   2.629   2.973
 8014SOL    HW124941   2.179   2.723   2.977
 8014SOL    HW224942   2.064   2.625   2.916
 8015SOL     OW24943   3.614   0.390   5.213
 8015SOL    HW124944   3.575   0.478   5.240
 8015SOL    HW224945   3.544   0.319   5.217
 8016SOL     OW24946   3.741   2.324   5.407
 8016SOL    HW124947   3.686   2.376   5.341
 8016SOL    HW224948   3.680   2.280   5.474
 8017SOL     OW24949   6.695   5.928   1.134
 8017SOL    HW124950   6.697   5.887   1.226
 8017SOL    HW224951   6.769   5.889   1.079
 8018SOL     OW24952   4.019   2.883   6.863
 8018SOL    HW124953   4.110   2.923   6.870
 8018SOL    HW224954   3.989   2.851   6.953
 8019SOL     OW24955   2.518   3.521   0.805
 8019SOL    HW124956   2.501   3.525   0.903
 8019SOL    HW224957   2.609   3.558   0.785
 8020SOL     OW24958   0.710   0.610   5.963
 8020SOL    HW124959   0.746   0.588   5.872
 8020SOL    HW224960   0.641   0.542   5.988
 8021SOL     OW24961   1.308   3.034   0.717
 8021SOL    HW124962   1.320   3.127   0.751
 8021SOL    HW224963   1.235   3.032   0.649
 8022SOL     OW24964   4.462   0.791   1.748
 8022SOL    HW124965   4.559   0.777   1.768
 8022SOL    HW224966   4.415   0.823   1.830
 8023SOL     OW24967   4.747   6.324   1.325
 8023SOL    HW124968   4.708   6.366   1.407
 8023SOL    HW224969   4.701   6.237   1.307
 8024SOL     OW24970   2.582   0.945   6.857
 8024SOL    HW124971   2.640   0.969   6.779
 8024SOL    HW224972   2.621   0.867   6.906
 8025SOL     OW24973   1.212   5.457   1.608
 8025SOL    HW124974   1.148   5.404   1.664
 8025SOL    HW224975   1.160   5.512   1.543
 8026SOL     OW24976   0.551   5.762   6.520
 8026SOL    HW124977   0.606   5.797   6.597
 8026SOL    HW224978   0.510   5.674   6.546
 8027SOL     OW24979   3.725   0.266   0.119
 8027SOL    HW124980   3.645   0.281   0.176
 8027SOL    HW224981   3.709   0.188   0.058
 8028SOL     OW24982   3.870   5.650   5.169
 8028SOL    HW124983   3.798   5.581   5.174
 8028SOL    HW224984   3.873   5.701   5.255
 8029SOL     OW24985   1.041   0.111   1.175
 8029SOL    HW124986   1.084   0.033   1.129
 8029SOL    HW224987   0.949   0.126   1.137
 8030SOL     OW24988   0.559   4.306   1.066
 8030SOL    HW124989   0.488   4.281   1.001
 8030SOL    HW224990   0.536   4.271   1.157
 8031SOL     OW24991   0.093   0.452   3.136
 8031SOL    HW124992   0.005   0.438   3.181
 8031SOL    HW224993   0.155   0.501   3.198
 8032SOL     OW24994   0.519   2.901   1.260
 8032SOL    HW124995   0.613   2.927   1.240
 8032SOL    HW224996   0.515   2.859   1.351
 8033SOL     OW24997   4.173   3.981   1.413
 8033SOL    HW124998   4.093   3.944   1.366
 8033SOL    HW224999   4.145   4.022   1.500
 8034SOL     OW25000   6.882   6.888   6.181
 8034SOL    HW125001   6.967   6.938   6.169
 8034SOL    HW225002   6.882   6.807   6.122
 8035SOL     OW25003   6.122   0.468   3.535
 8035SOL    HW125004   6.182   0.402   3.490
 8035SOL    HW225005   6.171   0.554   3.549
 8036SOL     OW25006   4.905   2.530   4.048
 8036SOL    HW125007   4.910   2.537   3.948
 8036SOL    HW225008   4.854   2.608   4.084
 8037SOL     OW25009   2.083   1.521   6.239
 8037SOL    HW125010   2.175   1.535   6.204
 8037SOL    HW225011   2.016   1.544   6.169
 8038SOL     OW25012   6.631   5.386   2.344
 8038SOL    HW125013   6.659   5.365   2.251
 8038SOL    HW225014   6.550   5.332   2.367
 8039SOL     OW25015   1.587   2.294   5.252
 8039SOL    HW125016   1.583   2.315   5.350
 8039SOL    HW225017   1.667   2.339   5.212
 8040SOL     OW25018   1.171   5.904   6.263
 8040SOL    HW125019   1.090   5.962   6.280
 8040SOL    HW225020   1.143   5.808   6.259
 8041SOL     OW25021   3.259   1.142   2.935
 8041SOL    HW125022   3.237   1.153   3.032
 8041SOL    HW225023   3.215   1.214   2.882
 8042SOL     OW25024   4.238   4.169   5.895
 8042SOL    HW125025   4.226   4.113   5.977
 8042SOL    HW225026   4.266   4.261   5.921
 8043SOL     OW25027   5.276   5.432   6.387
 8043SOL    HW125028   5.366   5.434   6.431
 8043SOL    HW225029   5.228   5.518   6.405
 8044SOL     OW25030   2.375   3.263   1.502
 8044SOL    HW125031   2.403   3.200   1.429
 8044SOL    HW225032   2.275   3.259   1.512
 8045SOL     OW25033   6.818   2.777   4.046
 8045SOL    HW125034   6.909   2.818   4.050
 8045SOL    HW225035   6.751   2.841   4.084
 8046SOL     OW25036   6.714   4.325   1.921
 8046SOL    HW125037   6.718   4.412   1.970
 8046SOL    HW225038   6.620   4.291   1.921
 8047SOL     OW25039   3.319   6.450   6.950
 8047SOL    HW125040   3.399   6.403   6.912
 8047SOL    HW225041   3.239   6.390   6.945
 8048SOL     OW25042   3.626   2.140   5.985
 8048SOL    HW125043   3.567   2.219   5.999
 8048SOL    HW225044   3.638   2.091   6.072
 8049SOL     OW25045   1.688   1.674   0.677
 8049SOL    HW125046   1.644   1.626   0.601
 8049SOL    HW225047   1.654   1.638   0.764
 8050SOL     OW25048   0.720   4.673   5.871
 8050SOL    HW125049   0.783   4.625   5.809
 8050SOL    HW225050   0.727   4.633   5.962
 8051SOL     OW25051   4.359   0.112   3.263
 8051SOL    HW125052   4.318   0.063   3.187
 8051SOL    HW225053   4.366   0.209   3.240
 8052SOL     OW25054   3.125   1.739   2.577
 8052SOL    HW125055   3.181   1.795   2.637
 8052SOL    HW225056   3.182   1.699   2.505
 8053SOL     OW25057   1.661   2.771   6.542
 8053SOL    HW125058   1.714   2.778   6.627
 8053SOL    HW225059   1.566   2.748   6.563
 8054SOL     OW25060   4.903   3.323   5.202
 8054SOL    HW125061   4.872   3.395   5.140
 8054SOL    HW225062   4.827   3.292   5.259
 8055SOL     OW25063   6.333   0.631   6.771
 8055SOL    HW125064   6.425   0.613   6.736
 8055SOL    HW225065   6.336   0.638   6.871
 8056SOL     OW25066   2.482   0.912   3.795
 8056SOL    HW125067   2.569   0.877   3.760
 8056SOL    HW225068   2.460   0.998   3.750
 8057SOL     OW25069   3.096   2.154   2.056
 8057SOL    HW125070   3.017   2.216   2.064
 8057SOL    HW225071   3.104   2.122   1.962
 8058SOL     OW25072   3.727   6.134   1.612
 8058SOL    HW125073   3.654   6.067   1.614
 8058SOL    HW225074   3.815   6.088   1.603
 8059SOL     OW25075   2.619   2.531   5.869
 8059SOL    HW125076   2.610   2.601   5.798
 8059SOL    HW225077   2.616   2.574   5.959
 8060SOL     OW25078   6.579   0.898   6.275
 8060SOL    HW125079   6.540   0.954   6.202
 8060SOL    HW225080   6.505   0.861   6.332
 8061SOL     OW25081   6.917   0.812   2.993
 8061SOL    HW125082   6.891   0.807   3.089
 8061SOL    HW225083   6.950   0.904   2.972
 8062SOL     OW25084   4.217   5.524   5.505
 8062SOL    HW125085   4.257   5.611   5.534
 8062SOL    HW225086   4.291   5.463   5.475
 8063SOL     OW25087   2.694   4.672   3.038
 8063SOL    HW125088   2.699   4.627   2.949
 8063SOL    HW225089   2.774   4.730   3.052
 8064SOL     OW25090   6.517   1.861   0.689
 8064SOL    HW125091   6.512   1.808   0.774
 8064SOL    HW225092   6.548   1.954   0.710
 8065SOL     OW25093   4.110   6.207   6.431
 8065SOL    HW125094   4.155   6.142   6.491
 8065SOL    HW225095   4.049   6.266   6.485
 8066SOL     OW25096   0.474   6.949   5.891
 8066SOL    HW125097   0.488   0.029   5.885
 8066SOL    HW225098   0.479   6.921   5.987
 8067SOL     OW25099   5.822   1.492   3.481
 8067SOL    HW125100   5.897   1.505   3.417
 8067SOL    HW225101   5.801   1.579   3.525
 8068SOL     OW25102   5.829   3.697   1.434
 8068SOL    HW125103   5.735   3.679   1.461
 8068SOL    HW225104   5.877   3.611   1.419
 8069SOL     OW25105   1.712   3.715   2.758
 8069SOL    HW125106   1.777   3.651   2.800
 8069SOL    HW225107   1.747   3.808   2.764
 8070SOL     OW25108   4.542   4.761   0.844
 8070SOL    HW125109   4.629   4.787   0.886
 8070SOL    HW225110   4.510   4.675   0.884
 8071SOL     OW25111   2.178   6.801   6.385
 8071SOL    HW125112   2.198   6.719   6.332
 8071SOL    HW225113   2.264   6.840   6.419
 8072SOL     OW25114   2.565   1.826   5.004
 8072SOL    HW125115   2.656   1.798   4.974
 8072SOL    HW225116   2.508   1.745   5.018
 8073SOL     OW25117   5.114   0.308   6.390
 8073SOL    HW125118   5.084   0.303   6.294
 8073SOL    HW225119   5.166   0.392   6.404
 8074SOL     OW25120   1.093   0.803   6.906
 8074SOL    HW125121   1.031   0.808   6.828
 8074SOL    HW225122   1.045   0.830   6.989
 8075SOL     OW25123   6.827   0.056   1.327
 8075SOL    HW125124   6.784   0.053   1.237
 8075SOL    HW225125   6.775   0.115   1.388
 8076SOL     OW25126   6.867   6.311   0.470
 8076SOL    HW125127   6.892   6.217   0.494
 8076SOL    HW225128   6.908   6.374   0.536
 8077SOL     OW25129   5.187   4.931   0.753
 8077SOL    HW125130   5.088   4.935   0.740
 8077SOL    HW225131   5.223   5.023   0.763
 8078SOL     OW25132   0.089   1.151   1.495
 8078SOL    HW125133   0.140   1.113   1.573
 8078SOL    HW225134   7.018   1.110   1.491
 8079SOL     OW25135   1.462   0.855   6.246
 8079SOL    HW125136   1.495   0.947   6.222
 8079SOL    HW225137   1.381   0.834   6.191
 8080SOL     OW25138   0.890   2.980   3.236
 8080SOL    HW125139   0.880   3.032   3.321
 8080SOL    HW225140   0.800   2.953   3.203
 8081SOL     OW25141   6.206   6.882   5.193
 8081SOL    HW125142   6.193   6.890   5.094
 8081SOL    HW225143   6.117   6.882   5.239
 8082SOL     OW25144   3.879   1.873   3.952
 8082SOL    HW125145   3.977   1.889   3.963
 8082SOL    HW225146   3.830   1.918   4.027
 8083SOL     OW25147   6.077   1.730   4.502
 8083SOL    HW125148   6.116   1.724   4.594
 8083SOL    HW225149   6.130   1.671   4.441
 8084SOL     OW25150   3.991   0.986   5.822
 8084SOL    HW125151   4.013   0.906   5.878
 8084SOL    HW225152   4.011   0.966   5.726
 8085SOL     OW25153   1.750   6.324   4.373
 8085SOL    HW125154   1.721   6.342   4.279
 8085SOL    HW225155   1.831   6.265   4.372
 8086SOL     OW25156   6.602   1.301   2.604
 8086SOL    HW125157   6.643   1.272   2.517
 8086SOL    HW225158   6.626   1.235   2.675
 8087SOL     OW25159   0.494   0.700   6.977
 8087SOL    HW125160   0.443   0.663   6.898
 8087SOL    HW225161   0.566   0.762   6.944
 8088SOL     OW25162   6.860   0.507   5.204
 8088SOL    HW125163   6.922   0.582   5.179
 8088SOL    HW225164   6.865   0.436   5.134
 8089SOL     OW25165   6.357   1.771   6.484
 8089SOL    HW125166   6.365   1.869   6.463
 8089SOL    HW225167   6.298   1.759   6.563
 8090SOL     OW25168   4.211   2.098   5.240
 8090SOL    HW125169   4.125   2.055   5.215
 8090SOL    HW225170   4.274   2.029   5.274
 8091SOL     OW25171   1.151   4.777   3.911
 8091SOL    HW125172   1.230   4.838   3.913
 8091SOL    HW225173   1.141   4.733   4.001
 8092SOL     OW25174   4.610   0.874   6.309
 8092SOL    HW125175   4.686   0.814   6.286
 8092SOL    HW225176   4.642   0.949   6.365
 8093SOL     OW25177   3.655   6.190   3.190
 8093SOL    HW125178   3.752   6.201   3.211
 8093SOL    HW225179   3.622   6.270   3.139
 8094SOL     OW25180   2.088   3.793   3.958
 8094SOL    HW125181   1.989   3.805   3.960
 8094SOL    HW225182   2.114   3.718   4.019
 8095SOL     OW25183   1.207   4.735   5.427
 8095SOL    HW125184   1.284   4.799   5.433
 8095SOL    HW225185   1.129   4.782   5.387
 8096SOL     OW25186   0.431   5.491   0.621
 8096SOL    HW125187   0.439   5.439   0.706
 8096SOL    HW225188   0.475   5.580   0.632
 8097SOL     OW25189   4.540   6.194   0.332
 8097SOL    HW125190   4.629   6.231   0.304
 8097SOL    HW225191   4.547   6.095   0.340
 8098SOL     OW25192   1.967   5.633   4.917
 8098SOL    HW125193   2.053   5.642   4.967
 8098SOL    HW225194   1.941   5.722   4.878
 8099SOL     OW25195   1.732   3.938   2.359
 8099SOL    HW125196   1.756   3.849   2.397
 8099SOL    HW225197   1.731   4.006   2.432
 8100SOL     OW25198   6.600   0.576   6.766
 8100SOL    HW125199   6.663   0.545   6.695
 8100SOL    HW225200   6.652   0.620   6.839
 8101SOL     OW25201   3.093   5.507   1.077
 8101SOL    HW125202   3.191   5.498   1.059
 8101SOL    HW225203   3.072   5.603   1.097
 8102SOL     OW25204   1.044   4.022   4.621
 8102SOL    HW125205   1.030   4.097   4.557
 8102SOL    HW225206   1.016   3.936   4.578
 8103SOL     OW25207   3.402   0.820   1.657
 8103SOL    HW125208   3.465   0.786   1.728
 8103SOL    HW225209   3.437   0.794   1.567
 8104SOL     OW25210   1.680   5.246   0.167
 8104SOL    HW125211   1.620   5.168   0.150
 8104SOL    HW225212   1.628   5.331   0.160
 8105SOL     OW25213   0.103   0.067   3.572
 8105SOL    HW125214   0.046   0.003   3.623
 8105SOL    HW225215   0.149   0.019   3.497
 8106SOL     OW25216   1.933   6.838   6.065
 8106SOL    HW125217   1.962   6.743   6.076
 8106SOL    HW225218   2.010   6.894   6.036
 8107SOL     OW25219   1.394   6.289   6.494
 8107SOL    HW125220   1.349   6.204   6.521
 8107SOL    HW225221   1.369   6.362   6.558
 8108SOL     OW25222   1.099   1.401   0.040
 8108SOL    HW125223   1.031   1.375   6.991
 8108SOL    HW225224   1.055   1.453   0.113
 8109SOL     OW25225   6.403   3.014   1.365
 8109SOL    HW125226   6.386   3.038   1.461
 8109SOL    HW225227   6.492   3.052   1.337
 8110SOL     OW25228   3.563   4.874   1.199
 8110SOL    HW125229   3.537   4.799   1.259
 8110SOL    HW225230   3.653   4.909   1.226
 8111SOL     OW25231   6.376   1.448   2.246
 8111SOL    HW125232   6.473   1.461   2.223
 8111SOL    HW225233   6.322   1.451   2.162
 8112SOL     OW25234   1.672   4.592   6.561
 8112SOL    HW125235   1.765   4.589   6.598
 8112SOL    HW225236   1.607   4.570   6.633
 8113SOL     OW25237   5.432   3.792   5.873
 8113SOL    HW125238   5.425   3.864   5.805
 8113SOL    HW225239   5.494   3.821   5.946
 8114SOL     OW25240   1.480   4.503   2.384
 8114SOL    HW125241   1.461   4.474   2.291
 8114SOL    HW225242   1.577   4.528   2.392
 8115SOL     OW25243   2.900   1.910   5.770
 8115SOL    HW125244   2.800   1.916   5.765
 8115SOL    HW225245   2.925   1.843   5.840
 8116SOL     OW25246   3.737   3.283   1.003
 8116SOL    HW125247   3.743   3.250   0.909
 8116SOL    HW225248   3.644   3.312   1.022
 8117SOL     OW25249   2.495   0.019   3.698
 8117SOL    HW125250   2.475   0.024   3.796
 8117SOL    HW225251   2.470   6.948   3.664
 8118SOL     OW25252   6.502   3.076   0.316
 8118SOL    HW125253   6.532   2.986   0.348
 8118SOL    HW225254   6.574   3.143   0.335
 8119SOL     OW25255   6.051   6.403   0.492
 8119SOL    HW125256   6.120   6.421   0.563
 8119SOL    HW225257   5.992   6.483   0.482
 8120SOL     OW25258   2.122   6.868   1.682
 8120SOL    HW125259   2.122   6.812   1.599
 8120SOL    HW225260   2.068   6.823   1.753
 8121SOL     OW25261   0.923   3.182   2.220
 8121SOL    HW125262   1.002   3.134   2.181
 8121SOL    HW225263   0.866   3.118   2.272
 8122SOL     OW25264   0.246   5.087   1.085
 8122SOL    HW125265   0.260   5.020   1.158
 8122SOL    HW225266   0.333   5.107   1.040
 8123SOL     OW25267   6.834   1.731   6.358
 8123SOL    HW125268   6.785   1.668   6.419
 8123SOL    HW225269   6.931   1.732   6.383
 8124SOL     OW25270   5.176   5.787   4.989
 8124SOL    HW125271   5.170   5.738   5.076
 8124SOL    HW225272   5.236   5.866   4.999
 8125SOL     OW25273   1.915   5.288   3.099
 8125SOL    HW125274   1.849   5.255   3.167
 8125SOL    HW225275   1.962   5.368   3.135
 8126SOL     OW25276   3.964   5.074   4.561
 8126SOL    HW125277   4.020   5.032   4.632
 8126SOL    HW225278   3.868   5.052   4.577
 8127SOL     OW25279   4.021   2.355   0.059
 8127SOL    HW125280   4.034   2.332   0.155
 8127SOL    HW225281   3.924   2.376   0.043
 8128SOL     OW25282   3.598   3.455   1.519
 8128SOL    HW125283   3.661   3.398   1.466
 8128SOL    HW225284   3.582   3.413   1.608
 8129SOL     OW25285   1.513   2.185   2.290
 8129SOL    HW125286   1.473   2.102   2.249
 8129SOL    HW225287   1.441   2.253   2.305
 8130SOL     OW25288   0.638   5.367   6.787
 8130SOL    HW125289   0.657   5.365   6.688
 8130SOL    HW225290   0.615   5.461   6.814
 8131SOL     OW25291   1.835   3.624   6.947
 8131SOL    HW125292   1.788   3.625   0.017
 8131SOL    HW225293   1.931   3.602   6.961
 8132SOL     OW25294   0.994   0.536   5.174
 8132SOL    HW125295   0.898   0.558   5.190
 8132SOL    HW225296   1.009   0.439   5.194
 8133SOL     OW25297   3.593   4.957   0.509
 8133SOL    HW125298   3.554   5.045   0.537
 8133SOL    HW225299   3.520   4.899   0.473
 8134SOL     OW25300   5.652   1.210   5.814
 8134SOL    HW125301   5.609   1.196   5.904
 8134SOL    HW225302   5.635   1.304   5.783
 8135SOL     OW25303   2.488   6.721   1.834
 8135SOL    HW125304   2.524   6.631   1.811
 8135SOL    HW225305   2.477   6.728   1.933
 8136SOL     OW25306   5.171   4.353   2.215
 8136SOL    HW125307   5.109   4.279   2.244
 8136SOL    HW225308   5.174   4.357   2.115
 8137SOL     OW25309   4.170   1.432   5.682
 8137SOL    HW125310   4.189   1.477   5.594
 8137SOL    HW225311   4.203   1.337   5.678
 8138SOL     OW25312   5.245   0.682   2.310
 8138SOL    HW125313   5.335   0.721   2.294
 8138SOL    HW225314   5.238   0.651   2.405
 8139SOL     OW25315   0.377   2.102   3.377
 8139SOL    HW125316   0.423   2.154   3.305
 8139SOL    HW225317   0.359   2.162   3.456
 8140SOL     OW25318   4.579   1.284   3.482
 8140SOL    HW125319   4.484   1.316   3.473
 8140SOL    HW225320   4.582   1.204   3.541
 8141SOL     OW25321   5.101   4.795   4.571
 8141SOL    HW125322   5.036   4.828   4.640
 8141SOL    HW225323   5.141   4.708   4.602
 8142SOL     OW25324   0.055   5.779   0.042
 8142SOL    HW125325   0.120   5.750   0.113
 8142SOL    HW225326   0.038   5.877   0.051
 8143SOL     OW25327   6.664   3.504   5.198
 8143SOL    HW125328   6.681   3.436   5.269
 8143SOL    HW225329   6.569   3.536   5.204
 8144SOL     OW25330   5.402   0.100   6.423
 8144SOL    HW125331   5.388   0.130   6.328
 8144SOL    HW225332   5.400   0.179   6.483
 8145SOL     OW25333   5.431   6.264   2.931
 8145SOL    HW125334   5.372   6.313   2.995
 8145SOL    HW225335   5.456   6.176   2.970
 8146SOL     OW25336   3.423   0.984   4.310
 8146SOL    HW125337   3.368   1.055   4.267
 8146SOL    HW225338   3.466   1.019   4.393
 8147SOL     OW25339   4.664   0.657   3.526
 8147SOL    HW125340   4.690   0.753   3.538
 8147SOL    HW225341   4.689   0.606   3.608
 8148SOL     OW25342   5.246   4.280   3.515
 8148SOL    HW125343   5.340   4.249   3.525
 8148SOL    HW225344   5.207   4.242   3.431
 8149SOL     OW25345   4.161   4.822   3.439
 8149SOL    HW125346   4.240   4.797   3.384
 8149SOL    HW225347   4.084   4.844   3.380
 8150SOL     OW25348   0.201   5.714   1.275
 8150SOL    HW125349   0.266   5.652   1.231
 8150SOL    HW225350   0.198   5.695   1.373
 8151SOL     OW25351   1.240   1.426   5.018
 8151SOL    HW125352   1.180   1.355   4.980
 8151SOL    HW225353   1.282   1.392   5.103
 8152SOL     OW25354   1.485   0.568   2.793
 8152SOL    HW125355   1.394   0.597   2.824
 8152SOL    HW225356   1.499   0.472   2.815
 8153SOL     OW25357   1.809   0.008   0.167
 8153SOL    HW125358   1.763   6.986   0.088
 8153SOL    HW225359   1.848   0.096   0.141
 8154SOL     OW25360   2.392   6.795   3.592
 8154SOL    HW125361   2.414   6.705   3.630
 8154SOL    HW225362   2.427   6.803   3.499
 8155SOL     OW25363   3.531   3.253   3.758
 8155SOL    HW125364   3.555   3.337   3.710
 8155SOL    HW225365   3.580   3.249   3.845
 8156SOL     OW25366   6.807   0.660   5.569
 8156SOL    HW125367   6.773   0.642   5.662
 8156SOL    HW225368   6.846   0.576   5.532
 8157SOL     OW25369   5.847   3.047   6.871
 8157SOL    HW125370   5.937   3.088   6.885
 8157SOL    HW225371   5.854   2.948   6.880
 8158SOL     OW25372   1.967   5.119   2.399
 8158SOL    HW125373   2.058   5.131   2.357
 8158SOL    HW225374   1.899   5.166   2.343
 8159SOL     OW25375   0.953   4.921   1.742
 8159SOL    HW125376   0.874   4.965   1.701
 8159SOL    HW225377   0.976   4.838   1.691
 8160SOL     OW25378   4.314   2.302   2.156
 8160SOL    HW125379   4.333   2.255   2.070
 8160SOL    HW225380   4.355   2.393   2.155
 8161SOL     OW25381   4.319   1.982   1.172
 8161SOL    HW125382   4.343   2.047   1.245
 8161SOL    HW225383   4.280   2.032   1.095
 8162SOL     OW25384   6.298   0.799   1.290
 8162SOL    HW125385   6.335   0.727   1.231
 8162SOL    HW225386   6.263   0.758   1.374
 8163SOL     OW25387   2.071   3.721   4.915
 8163SOL    HW125388   2.110   3.756   5.000
 8163SOL    HW225389   2.056   3.797   4.851
 8164SOL     OW25390   4.854   2.053   2.076
 8164SOL    HW125391   4.838   2.003   1.991
 8164SOL    HW225392   4.907   2.136   2.056
 8165SOL     OW25393   2.402   5.029   1.538
 8165SOL    HW125394   2.470   5.005   1.607
 8165SOL    HW225395   2.429   4.992   1.449
 8166SOL     OW25396   3.295   6.775   1.279
 8166SOL    HW125397   3.209   6.737   1.244
 8166SOL    HW225398   3.326   6.721   1.358
 8167SOL     OW25399   4.923   2.888   3.858
 8167SOL    HW125400   4.859   2.953   3.815
 8167SOL    HW225401   4.945   2.919   3.950
 8168SOL     OW25402   3.295   1.591   2.880
 8168SOL    HW125403   3.366   1.600   2.950
 8168SOL    HW225404   3.336   1.559   2.794
 8169SOL     OW25405   5.184   4.334   5.789
 8169SOL    HW125406   5.120   4.348   5.713
 8169SOL    HW225407   5.134   4.302   5.869
 8170SOL     OW25408   0.597   4.934   3.900
 8170SOL    HW125409   0.634   4.842   3.893
 8170SOL    HW225410   0.525   4.947   3.833
 8171SOL     OW25411   1.643   1.411   5.614
 8171SOL    HW125412   1.693   1.359   5.544
 8171SOL    HW225413   1.683   1.391   5.704
 8172SOL     OW25414   0.094   6.682   1.533
 8172SOL    HW125415   0.153   6.608   1.501
 8172SOL    HW225416   0.001   6.668   1.498
 8173SOL     OW25417   5.319   2.928   6.646
 8173SOL    HW125418   5.336   3.005   6.584
 8173SOL    HW225419   5.246   2.952   6.709
 8174SOL     OW25420   5.449   0.249   2.110
 8174SOL    HW125421   5.428   0.166   2.059
 8174SOL    HW225422   5.391   0.253   2.192
 8175SOL     OW25423   1.574   3.015   5.356
 8175SOL    HW125424   1.666   3.054   5.347
 8175SOL    HW225425   1.575   2.920   5.327
 8176SOL     OW25426   4.013   5.480   2.988
 8176SOL    HW125427   3.921   5.497   2.954
 8176SOL    HW225428   4.022   5.520   3.079
 8177SOL     OW25429   1.247   0.384   6.046
 8177SOL    HW125430   1.276   0.453   5.979
 8177SOL    HW225431   1.157   0.349   6.021
 8178SOL     OW25432   1.828   6.573   6.292
 8178SOL    HW125433   1.878   6.571   6.206
 8178SOL    HW225434   1.848   6.491   6.345
 8179SOL     OW25435   3.236   0.751   0.250
 8179SOL    HW125436   3.153   0.789   0.208
 8179SOL    HW225437   3.307   0.742   0.179
 8180SOL     OW25438   4.917   5.273   5.360
 8180SOL    HW125439   4.902   5.174   5.358
 8180SOL    HW225440   4.981   5.295   5.433
 8181SOL     OW25441   2.473   2.118   2.749
 8181SOL    HW125442   2.489   2.216   2.733
 8181SOL    HW225443   2.517   2.065   2.677
 8182SOL     OW25444   4.474   2.523   5.885
 8182SOL    HW125445   4.523   2.460   5.826
 8182SOL    HW225446   4.483   2.493   5.980
 8183SOL     OW25447   1.897   2.819   4.010
 8183SOL    HW125448   1.989   2.837   3.976
 8183SOL    HW225449   1.831   2.837   3.937
 8184SOL     OW25450   5.896   5.762   5.807
 8184SOL    HW125451   5.804   5.764   5.846
 8184SOL    HW225452   5.963   5.751   5.880
 8185SOL     OW25453   1.627   1.706   3.020
 8185SOL    HW125454   1.589   1.755   3.098
 8185SOL    HW225455   1.710   1.752   2.988
 8186SOL     OW25456   3.652   4.390   6.184
 8186SOL    HW125457   3.691   4.364   6.272
 8186SOL    HW225458   3.722   4.382   6.113
 8187SOL     OW25459   1.743   1.303   6.237
 8187SOL    HW125460   1.811   1.232   6.257
 8187SOL    HW225461   1.738   1.367   6.314
 8188SOL     OW25462   6.021   3.059   2.542
 8188SOL    HW125463   6.023   2.974   2.595
 8188SOL    HW225464   6.074   3.047   2.458
 8189SOL     OW25465   6.772   4.871   2.968
 8189SOL    HW125466   6.685   4.824   2.988
 8189SOL    HW225467   6.798   4.927   3.047
 8190SOL     OW25468   5.281   3.323   2.458
 8190SOL    HW125469   5.317   3.411   2.428
 8190SOL    HW225470   5.245   3.273   2.379
 8191SOL     OW25471   0.083   5.624   2.169
 8191SOL    HW125472   0.156   5.692   2.175
 8191SOL    HW225473   0.116   5.537   2.206
 8192SOL     OW25474   1.522   3.684   0.996
 8192SOL    HW125475   1.584   3.723   1.064
 8192SOL    HW225476   1.441   3.742   0.987
 8193SOL     OW25477   3.558   0.262   5.629
 8193SOL    HW125478   3.587   0.314   5.709
 8193SOL    HW225479   3.481   0.308   5.586
 8194SOL     OW25480   1.720   0.252   1.074
 8194SOL    HW125481   1.811   0.224   1.104
 8194SOL    HW225482   1.706   0.349   1.095
 8195SOL     OW25483   5.731   0.672   0.898
 8195SOL    HW125484   5.766   0.699   0.988
 8195SOL    HW225485   5.701   0.754   0.848
 8196SOL     OW25486   2.168   0.424   0.023
 8196SOL    HW125487   2.266   0.403   0.024
 8196SOL    HW225488   2.141   0.461   0.112
 8197SOL     OW25489   0.643   6.687   1.069
 8197SOL    HW125490   0.648   6.774   1.119
 8197SOL    HW225491   0.647   6.706   0.971
 8198SOL     OW25492   3.787   6.968   2.862
 8198SOL    HW125493   3.705   6.992   2.808
 8198SOL    HW225494   3.828   6.886   2.823
 8199SOL     OW25495   5.945   4.522   0.362
 8199SOL    HW125496   5.905   4.476   0.283
 8199SOL    HW225497   5.876   4.533   0.433
 8200SOL     OW25498   4.577   2.989   1.414
 8200SOL    HW125499   4.546   3.076   1.376
 8200SOL    HW225500   4.545   2.914   1.357
 8201SOL     OW25501   6.272   1.020   4.367
 8201SOL    HW125502   6.229   1.074   4.294
 8201SOL    HW225503   6.349   0.969   4.329
 8202SOL     OW25504   1.597   4.033   4.172
 8202SOL    HW125505   1.671   4.081   4.125
 8202SOL    HW225506   1.598   4.057   4.269
 8203SOL     OW25507   6.065   4.022   0.732
 8203SOL    HW125508   6.102   4.113   0.715
 8203SOL    HW225509   6.132   3.967   0.782
 8204SOL     OW25510   3.286   0.532   0.579
 8204SOL    HW125511   3.368   0.532   0.521
 8204SOL    HW225512   3.204   0.527   0.521
 8205SOL     OW25513   5.821   5.790   2.747
 8205SOL    HW125514   5.752   5.807   2.817
 8205SOL    HW225515   5.901   5.747   2.790
 8206SOL     OW25516   3.756   1.567   4.612
 8206SOL    HW125517   3.705   1.551   4.696
 8206SOL    HW225518   3.716   1.644   4.563
 8207SOL     OW25519   3.005   5.617   6.974
 8207SOL    HW125520   3.105   5.616   6.975
 8207SOL    HW225521   2.973   5.577   6.888
 8208SOL     OW25522   1.353   5.516   6.491
 8208SOL    HW125523   1.311   5.427   6.470
 8208SOL    HW225524   1.287   5.574   6.539
 8209SOL     OW25525   0.987   5.847   5.364
 8209SOL    HW125526   1.045   5.888   5.293
 8209SOL    HW225527   0.963   5.916   5.431
 8210SOL     OW25528   2.558   1.806   0.135
 8210SOL    HW125529   2.552   1.715   0.175
 8210SOL    HW225530   2.653   1.835   0.131
 8211SOL     OW25531   2.936   3.327   4.228
 8211SOL    HW125532   2.985   3.408   4.258
 8211SOL    HW225533   2.964   3.249   4.284
 8212SOL     OW25534   3.975   5.991   0.726
 8212SOL    HW125535   4.017   6.055   0.790
 8212SOL    HW225536   3.890   6.031   0.690
 8213SOL     OW25537   4.577   4.517   1.750
 8213SOL    HW125538   4.531   4.438   1.791
 8213SOL    HW225539   4.671   4.522   1.782
 8214SOL     OW25540   4.122   5.469   3.379
 8214SOL    HW125541   4.143   5.381   3.336
 8214SOL    HW225542   4.079   5.530   3.313
 8215SOL     OW25543   2.321   5.844   6.322
 8215SOL    HW125544   2.250   5.782   6.356
 8215SOL    HW225545   2.288   5.938   6.326
 8216SOL     OW25546   5.745   5.576   1.505
 8216SOL    HW125547   5.805   5.508   1.546
 8216SOL    HW225548   5.725   5.648   1.572
 8217SOL     OW25549   2.617   6.412   4.106
 8217SOL    HW125550   2.580   6.467   4.181
 8217SOL    HW225551   2.708   6.445   4.083
 8218SOL     OW25552   2.476   5.958   4.934
 8218SOL    HW125553   2.534   6.032   4.970
 8218SOL    HW225554   2.380   5.983   4.945
 8219SOL     OW25555   4.225   3.268   1.849
 8219SOL    HW125556   4.214   3.237   1.755
 8219SOL    HW225557   4.323   3.276   1.870
 8220SOL     OW25558   3.151   4.150   5.129
 8220SOL    HW125559   3.090   4.208   5.182
 8220SOL    HW225560   3.099   4.071   5.095
 8221SOL     OW25561   6.077   3.492   4.166
 8221SOL    HW125562   6.088   3.536   4.255
 8221SOL    HW225563   6.045   3.559   4.100
 8222SOL     OW25564   6.583   2.699   0.132
 8222SOL    HW125565   6.643   2.710   0.053
 8222SOL    HW225566   6.561   2.603   0.145
 8223SOL     OW25567   2.373   6.385   5.997
 8223SOL    HW125568   2.327   6.447   5.933
 8223SOL    HW225569   2.305   6.341   6.056
 8224SOL     OW25570   4.764   1.153   6.919
 8224SOL    HW125571   4.848   1.104   6.894
 8224SOL    HW225572   4.763   1.243   6.875
 8225SOL     OW25573   5.554   2.836   0.076
 8225SOL    HW125574   5.546   2.881   7.006
 8225SOL    HW225575   5.599   2.898   0.141
 8226SOL     OW25576   3.731   0.632   0.133
 8226SOL    HW125577   3.764   0.725   0.141
 8226SOL    HW225578   3.790   0.571   0.186
 8227SOL     OW25579   4.321   2.355   2.924
 8227SOL    HW125580   4.338   2.260   2.953
 8227SOL    HW225581   4.237   2.388   2.968
 8228SOL     OW25582   3.088   6.781   5.044
 8228SOL    HW125583   3.139   6.715   4.989
 8228SOL    HW225584   3.010   6.735   5.087
 8229SOL     OW25585   4.624   4.828   1.246
 8229SOL    HW125586   4.627   4.733   1.275
 8229SOL    HW225587   4.531   4.851   1.215
 8230SOL     OW25588   6.434   0.481   5.988
 8230SOL    HW125589   6.506   0.533   6.034
 8230SOL    HW225590   6.381   0.541   5.929
 8231SOL     OW25591   3.252   1.027   2.272
 8231SOL    HW125592   3.190   1.021   2.194
 8231SOL    HW225593   3.217   0.973   2.348
 8232SOL     OW25594   3.551   6.044   3.515
 8232SOL    HW125595   3.551   6.102   3.433
 8232SOL    HW225596   3.644   6.010   3.531
 8233SOL     OW25597   1.911   1.144   6.821
 8233SOL    HW125598   1.997   1.160   6.870
 8233SOL    HW225599   1.909   1.051   6.786
 8234SOL     OW25600   1.406   2.802   0.846
 8234SOL    HW125601   1.489   2.824   0.897
 8234SOL    HW225602   1.379   2.880   0.791
 8235SOL     OW25603   0.911   1.184   1.348
 8235SOL    HW125604   0.848   1.187   1.271
 8235SOL    HW225605   0.867   1.225   1.428
 8236SOL     OW25606   0.543   0.269   1.888
 8236SOL    HW125607   0.611   0.195   1.893
 8236SOL    HW225608   0.516   0.296   1.981
 8237SOL     OW25609   3.871   4.525   5.289
 8237SOL    HW125610   3.903   4.434   5.316
 8237SOL    HW225611   3.772   4.523   5.277
 8238SOL     OW25612   0.363   5.528   1.179
 8238SOL    HW125613   0.312   5.445   1.154
 8238SOL    HW225614   0.439   5.503   1.239
 8239SOL     OW25615   2.952   1.341   6.068
 8239SOL    HW125616   2.871   1.313   6.015
 8239SOL    HW225617   2.943   1.308   6.162
 8240SOL     OW25618   3.609   2.920   4.720
 8240SOL    HW125619   3.535   2.977   4.755
 8240SOL    HW225620   3.648   2.866   4.795
 8241SOL     OW25621   1.826   3.450   5.859
 8241SOL    HW125622   1.766   3.509   5.913
 8241SOL    HW225623   1.889   3.506   5.805
 8242SOL     OW25624   0.911   2.792   2.149
 8242SOL    HW125625   0.837   2.852   2.178
 8242SOL    HW225626   0.919   2.716   2.213
 8243SOL     OW25627   0.875   6.524   3.772
 8243SOL    HW125628   0.970   6.524   3.801
 8243SOL    HW225629   0.869   6.550   3.675
 8244SOL     OW25630   0.012   1.387   3.256
 8244SOL    HW125631   0.108   1.359   3.246
 8244SOL    HW225632   6.994   1.349   3.340
 8245SOL     OW25633   5.228   2.772   2.730
 8245SOL    HW125634   5.259   2.849   2.785
 8245SOL    HW225635   5.165   2.804   2.660
 8246SOL     OW25636   1.680   4.872   6.872
 8246SOL    HW125637   1.596   4.824   6.848
 8246SOL    HW225638   1.676   4.966   6.837
 8247SOL     OW25639   3.193   5.429   3.582
 8247SOL    HW125640   3.281   5.382   3.586
 8247SOL    HW225641   3.122   5.373   3.625
 8248SOL     OW25642   6.816   5.358   3.742
 8248SOL    HW125643   6.816   5.380   3.645
 8248SOL    HW225644   6.729   5.316   3.768
 8249SOL     OW25645   3.479   1.149   6.930
 8249SOL    HW125646   3.511   1.180   6.841
 8249SOL    HW225647   3.544   1.176   7.001
 8250SOL     OW25648   1.076   1.952   6.529
 8250SOL    HW125649   1.133   2.035   6.530
 8250SOL    HW225650   1.082   1.910   6.438
 8251SOL     OW25651   0.616   2.362   5.520
 8251SOL    HW125652   0.585   2.457   5.515
 8251SOL    HW225653   0.701   2.352   5.469
 8252SOL     OW25654   0.574   2.190   6.308
 8252SOL    HW125655   0.640   2.224   6.374
 8252SOL    HW225656   0.576   2.247   6.226
 8253SOL     OW25657   5.161   4.729   6.455
 8253SOL    HW125658   5.089   4.707   6.520
 8253SOL    HW225659   5.207   4.645   6.426
 8254SOL     OW25660   6.332   5.559   0.237
 8254SOL    HW125661   6.310   5.552   0.335
 8254SOL    HW225662   6.393   5.637   0.223
 8255SOL     OW25663   1.576   0.471   5.801
 8255SOL    HW125664   1.620   0.514   5.723
 8255SOL    HW225665   1.605   0.517   5.885
 8256SOL     OW25666   1.097   5.991   4.567
 8256SOL    HW125667   1.087   5.983   4.666
 8256SOL    HW225668   1.027   6.053   4.531
 8257SOL     OW25669   4.957   4.079   3.802
 8257SOL    HW125670   4.989   3.992   3.839
 8257SOL    HW225671   4.945   4.145   3.876
 8258SOL     OW25672   0.423   2.857   3.774
 8258SOL    HW125673   0.328   2.889   3.770
 8258SOL    HW225674   0.426   2.758   3.765
 8259SOL     OW25675   5.593   1.999   4.231
 8259SOL    HW125676   5.691   2.000   4.248
 8259SOL    HW225677   5.572   2.051   4.148
 8260SOL     OW25678   4.930   3.164   0.603
 8260SOL    HW125679   4.966   3.095   0.665
 8260SOL    HW225680   4.966   3.254   0.629
 8261SOL     OW25681   6.153   1.438   2.419
 8261SOL    HW125682   6.228   1.465   2.358
 8261SOL    HW225683   6.131   1.341   2.404
 8262SOL     OW25684   5.194   3.925   2.214
 8262SOL    HW125685   5.229   3.988   2.283
 8262SOL    HW225686   5.238   3.945   2.126
 8263SOL     OW25687   6.714   1.730   5.885
 8263SOL    HW125688   6.735   1.645   5.836
 8263SOL    HW225689   6.683   1.799   5.820
 8264SOL     OW25690   2.913   0.646   1.862
 8264SOL    HW125691   2.970   0.721   1.826
 8264SOL    HW225692   2.968   0.563   1.869
 8265SOL     OW25693   4.485   5.302   0.552
 8265SOL    HW125694   4.585   5.302   0.560
 8265SOL    HW225695   4.445   5.325   0.641
 8266SOL     OW25696   3.770   1.050   3.387
 8266SOL    HW125697   3.705   0.986   3.429
 8266SOL    HW225698   3.720   1.114   3.329
 8267SOL     OW25699   1.828   2.523   3.473
 8267SOL    HW125700   1.741   2.565   3.446
 8267SOL    HW225701   1.826   2.426   3.450
 8268SOL     OW25702   3.394   4.816   6.834
 8268SOL    HW125703   3.297   4.831   6.856
 8268SOL    HW225704   3.402   4.752   6.759
 8269SOL     OW25705   6.322   1.991   5.234
 8269SOL    HW125706   6.363   2.055   5.298
 8269SOL    HW225707   6.333   2.026   5.141
 8270SOL     OW25708   4.311   5.191   0.163
 8270SOL    HW125709   4.246   5.244   0.107
 8270SOL    HW225710   4.280   5.191   0.258
 8271SOL     OW25711   3.043   6.714   6.103
 8271SOL    HW125712   3.036   6.651   6.180
 8271SOL    HW225713   3.008   6.804   6.131
 8272SOL     OW25714   0.719   0.463   2.077
 8272SOL    HW125715   0.757   0.371   2.061
 8272SOL    HW225716   0.718   0.481   2.176
 8273SOL     OW25717   3.744   0.060   6.913
 8273SOL    HW125718   3.756   7.002   6.851
 8273SOL    HW225719   3.792   0.042   6.999
 8274SOL     OW25720   5.402   5.935   5.450
 8274SOL    HW125721   5.323   5.992   5.471
 8274SOL    HW225722   5.397   5.902   5.356
 8275SOL     OW25723   5.281   1.260   4.938
 8275SOL    HW125724   5.230   1.346   4.934
 8275SOL    HW225725   5.224   1.190   4.983
 8276SOL     OW25726   6.264   2.137   0.018
 8276SOL    HW125727   6.207   2.102   6.963
 8276SOL    HW225728   6.314   2.217   7.005
 8277SOL     OW25729   1.605   6.453   1.011
 8277SOL    HW125730   1.612   6.542   0.966
 8277SOL    HW225731   1.514   6.415   0.995
 8278SOL     OW25732   2.046   0.826   0.962
 8278SOL    HW125733   2.061   0.762   1.038
 8278SOL    HW225734   2.127   0.826   0.903
 8279SOL     OW25735   4.505   6.093   5.673
 8279SOL    HW125736   4.490   6.191   5.688
 8279SOL    HW225737   4.574   6.081   5.601
 8280SOL     OW25738   5.200   4.170   0.137
 8280SOL    HW125739   5.117   4.157   0.191
 8280SOL    HW225740   5.187   4.244   0.072
 8281SOL     OW25741   2.927   5.730   6.539
 8281SOL    HW125742   2.859   5.717   6.611
 8281SOL    HW225743   3.015   5.754   6.580
 8282SOL     OW25744   3.259   2.900   1.551
 8282SOL    HW125745   3.300   2.875   1.639
 8282SOL    HW225746   3.311   2.976   1.511
 8283SOL     OW25747   0.586   0.593   3.849
 8283SOL    HW125748   0.669   0.539   3.867
 8283SOL    HW225749   0.573   0.603   3.751
 8284SOL     OW25750   4.749   1.910   1.819
 8284SOL    HW125751   4.697   1.930   1.736
 8284SOL    HW225752   4.832   1.858   1.795
 8285SOL     OW25753   1.009   4.410   0.677
 8285SOL    HW125754   1.004   4.310   0.669
 8285SOL    HW225755   1.079   4.445   0.615
 8286SOL     OW25756   6.530   1.921   6.269
 8286SOL    HW125757   6.473   1.944   6.191
 8286SOL    HW225758   6.545   2.003   6.325
 8287SOL     OW25759   1.388   1.270   3.219
 8287SOL    HW125760   1.463   1.336   3.213
 8287SOL    HW225761   1.341   1.281   3.307
 8288SOL     OW25762   2.057   0.535   2.858
 8288SOL    HW125763   2.050   0.437   2.839
 8288SOL    HW225764   2.091   0.548   2.951
 8289SOL     OW25765   5.461   0.072   0.128
 8289SOL    HW125766   5.423   0.099   0.040
 8289SOL    HW225767   5.487   0.154   0.180
 8290SOL     OW25768   4.696   2.595   2.032
 8290SOL    HW125769   4.751   2.654   2.092
 8290SOL    HW225770   4.687   2.639   1.942
 8291SOL     OW25771   4.648   6.189   6.711
 8291SOL    HW125772   4.678   6.240   6.631
 8291SOL    HW225773   4.723   6.131   6.744
 8292SOL     OW25774   0.123   2.954   5.517
 8292SOL    HW125775   0.112   2.917   5.425
 8292SOL    HW225776   0.041   2.936   5.571
 8293SOL     OW25777   2.848   5.492   4.411
 8293SOL    HW125778   2.751   5.489   4.433
 8293SOL    HW225779   2.902   5.466   4.491
 8294SOL     OW25780   5.788   3.679   5.277
 8294SOL    HW125781   5.758   3.774   5.268
 8294SOL    HW225782   5.726   3.619   5.226
 8295SOL     OW25783   4.428   4.901   2.998
 8295SOL    HW125784   4.381   4.839   2.936
 8295SOL    HW225785   4.489   4.850   3.058
 8296SOL     OW25786   4.104   0.172   2.546
 8296SOL    HW125787   4.198   0.182   2.512
 8296SOL    HW225788   4.097   0.087   2.599
 8297SOL     OW25789   5.377   4.530   2.236
 8297SOL    HW125790   5.446   4.528   2.309
 8297SOL    HW225791   5.320   4.448   2.242
 8298SOL     OW25792   6.374   6.872   0.517
 8298SOL    HW125793   6.345   6.829   0.431
 8298SOL    HW225794   6.298   6.924   0.555
 8299SOL     OW25795   1.458   3.634   6.908
 8299SOL    HW125796   1.417   3.551   6.946
 8299SOL    HW225797   1.496   3.689   6.982
 8300SOL     OW25798   6.232   5.082   4.078
 8300SOL    HW125799   6.147   5.032   4.063
 8300SOL    HW225800   6.309   5.028   4.045
 8301SOL     OW25801   6.324   6.050   0.335
 8301SOL    HW125802   6.246   6.003   0.377
 8301SOL    HW225803   6.334   6.141   0.374
 8302SOL     OW25804   3.977   6.622   5.128
 8302SOL    HW125805   3.939   6.647   5.038
 8302SOL    HW225806   4.047   6.552   5.116
 8303SOL     OW25807   0.373   4.977   3.727
 8303SOL    HW125808   0.282   4.959   3.763
 8303SOL    HW225809   0.400   4.904   3.664
 8304SOL     OW25810   6.167   2.992   3.705
 8304SOL    HW125811   6.199   2.898   3.692
 8304SOL    HW225812   6.117   2.998   3.791
 8305SOL     OW25813   4.638   0.308   5.830
 8305SOL    HW125814   4.687   0.327   5.915
 8305SOL    HW225815   4.581   0.227   5.842
 8306SOL     OW25816   6.283   0.640   3.814
 8306SOL    HW125817   6.359   0.705   3.813
 8306SOL    HW225818   6.211   0.672   3.753
 8307SOL     OW25819   1.363   3.623   3.274
 8307SOL    HW125820   1.425   3.661   3.205
 8307SOL    HW225821   1.326   3.698   3.330
 8308SOL     OW25822   1.187   5.307   0.456
 8308SOL    HW125823   1.118   5.238   0.475
 8308SOL    HW225824   1.157   5.395   0.492
 8309SOL     OW25825   6.529   5.382   4.394
 8309SOL    HW125826   6.537   5.349   4.488
 8309SOL    HW225827   6.448   5.343   4.351
 8310SOL     OW25828   2.525   6.912   2.735
 8310SOL    HW125829   2.494   7.003   2.709
 8310SOL    HW225830   2.557   6.913   2.830
 8311SOL     OW25831   4.346   5.745   2.805
 8311SOL    HW125832   4.357   5.680   2.880
 8311SOL    HW225833   4.267   5.804   2.824
 8312SOL     OW25834   6.138   2.025   0.661
 8312SOL    HW125835   6.183   1.935   0.663
 8312SOL    HW225836   6.117   2.049   0.566
 8313SOL     OW25837   5.457   2.391   6.323
 8313SOL    HW125838   5.557   2.393   6.332
 8313SOL    HW225839   5.429   2.305   6.280
 8314SOL     OW25840   4.518   6.001   4.344
 8314SOL    HW125841   4.508   5.931   4.273
 8314SOL    HW225842   4.562   6.082   4.305
 8315SOL     OW25843   3.184   2.924   5.704
 8315SOL    HW125844   3.160   2.829   5.727
 8315SOL    HW225845   3.104   2.982   5.718
 8316SOL     OW25846   2.126   2.046   5.141
 8316SOL    HW125847   2.051   2.028   5.205
 8316SOL    HW225848   2.089   2.079   5.055
 8317SOL     OW25849   1.218   2.116   3.923
 8317SOL    HW125850   1.260   2.099   4.011
 8317SOL    HW225851   1.282   2.092   3.850
 8318SOL     OW25852   4.422   6.612   5.999
 8318SOL    HW125853   4.487   6.590   6.072
 8318SOL    HW225854   4.384   6.528   5.961
 8319SOL     OW25855   2.089   5.339   6.397
 8319SOL    HW125856   1.996   5.372   6.379
 8319SOL    HW225857   2.084   5.254   6.449
 8320SOL     OW25858   3.817   3.763   5.562
 8320SOL    HW125859   3.748   3.695   5.537
 8320SOL    HW225860   3.778   3.855   5.554
 8321SOL     OW25861   0.491   0.358   1.086
 8321SOL    HW125862   0.552   0.379   1.010
 8321SOL    HW225863   0.545   0.341   1.169
 8322SOL     OW25864   1.151   0.151   0.586
 8322SOL    HW125865   1.206   0.070   0.605
 8322SOL    HW225866   1.209   0.221   0.544
 8323SOL     OW25867   5.292   4.524   6.351
 8323SOL    HW125868   5.339   4.442   6.384
 8323SOL    HW225869   5.318   4.542   6.256
 8324SOL     OW25870   5.587   6.479   6.859
 8324SOL    HW125871   5.678   6.515   6.880
 8324SOL    HW225872   5.518   6.535   6.904
 8325SOL     OW25873   1.516   6.656   4.793
 8325SOL    HW125874   1.614   6.670   4.778
 8325SOL    HW225875   1.486   6.713   4.870
 8326SOL     OW25876   2.093   2.810   6.515
 8326SOL    HW125877   2.102   2.797   6.614
 8326SOL    HW225878   2.010   2.766   6.482
 8327SOL     OW25879   0.328   6.426   4.977
 8327SOL    HW125880   0.377   6.426   4.890
 8327SOL    HW225881   0.376   6.365   5.041
 8328SOL     OW25882   1.349   6.083   0.587
 8328SOL    HW125883   1.280   6.015   0.565
 8328SOL    HW225884   1.344   6.158   0.522
 8329SOL     OW25885   1.811   2.369   5.115
 8329SOL    HW125886   1.889   2.429   5.130
 8329SOL    HW225887   1.840   2.287   5.067
 8330SOL     OW25888   2.434   6.493   0.089
 8330SOL    HW125889   2.496   6.493   0.168
 8330SOL    HW225890   2.340   6.478   0.120
 8331SOL     OW25891   2.495   2.133   6.393
 8331SOL    HW125892   2.434   2.058   6.417
 8331SOL    HW225893   2.443   2.203   6.344
 8332SOL     OW25894   6.241   4.282   1.310
 8332SOL    HW125895   6.232   4.343   1.389
 8332SOL    HW225896   6.205   4.191   1.335
 8333SOL     OW25897   2.291   4.077   6.635
 8333SOL    HW125898   2.325   3.985   6.654
 8333SOL    HW225899   2.242   4.111   6.715
 8334SOL     OW25900   3.459   2.348   5.318
 8334SOL    HW125901   3.364   2.372   5.296
 8334SOL    HW225902   3.484   2.264   5.270
 8335SOL     OW25903   5.466   4.986   5.556
 8335SOL    HW125904   5.489   4.983   5.459
 8335SOL    HW225905   5.530   4.929   5.607
 8336SOL     OW25906   1.301   3.193   3.767
 8336SOL    HW125907   1.292   3.273   3.709
 8336SOL    HW225908   1.356   3.216   3.847
 8337SOL     OW25909   6.539   0.908   4.408
 8337SOL    HW125910   6.613   0.938   4.347
 8337SOL    HW225911   6.574   0.838   4.470
 8338SOL     OW25912   2.347   5.778   1.051
 8338SOL    HW125913   2.288   5.820   1.120
 8338SOL    HW225914   2.306   5.693   1.018
 8339SOL     OW25915   6.001   0.272   2.054
 8339SOL    HW125916   5.910   0.229   2.053
 8339SOL    HW225917   6.049   0.249   1.969
 8340SOL     OW25918   5.723   2.411   6.380
 8340SOL    HW125919   5.771   2.467   6.313
 8340SOL    HW225920   5.789   2.356   6.431
 8341SOL     OW25921   3.954   1.157   0.539
 8341SOL    HW125922   4.032   1.096   0.554
 8341SOL    HW225923   3.889   1.149   0.615
 8342SOL     OW25924   4.034   0.464   0.349
 8342SOL    HW125925   3.984   0.449   0.264
 8342SOL    HW225926   4.028   0.382   0.406
 8343SOL     OW25927   5.556   4.766   3.061
 8343SOL    HW125928   5.512   4.692   3.010
 8343SOL    HW225929   5.485   4.825   3.101
 8344SOL     OW25930   1.516   5.273   5.728
 8344SOL    HW125931   1.566   5.306   5.648
 8344SOL    HW225932   1.499   5.175   5.718
 8345SOL     OW25933   5.784   0.458   3.758
 8345SOL    HW125934   5.850   0.424   3.826
 8345SOL    HW225935   5.830   0.520   3.694
 8346SOL     OW25936   5.081   3.543   4.235
 8346SOL    HW125937   5.101   3.451   4.203
 8346SOL    HW225938   5.124   3.558   4.324
 8347SOL     OW25939   2.001   1.887   5.860
 8347SOL    HW125940   1.936   1.847   5.924
 8347SOL    HW225941   2.034   1.816   5.798
 8348SOL     OW25942   2.812   5.603   2.050
 8348SOL    HW125943   2.737   5.553   2.007
 8348SOL    HW225944   2.886   5.616   1.983
 8349SOL     OW25945   5.311   6.221   1.454
 8349SOL    HW125946   5.211   6.218   1.453
 8349SOL    HW225947   5.342   6.294   1.514
 8350SOL     OW25948   1.119   0.104   0.155
 8350SOL    HW125949   1.106   0.120   0.057
 8350SOL    HW225950   1.130   0.005   0.171
 8351SOL     OW25951   0.255   2.021   2.877
 8351SOL    HW125952   0.354   2.016   2.888
 8351SOL    HW225953   0.216   2.082   2.946
 8352SOL     OW25954   2.474   5.975   0.120
 8352SOL    HW125955   2.479   6.047   0.051
 8352SOL    HW225956   2.454   6.016   0.209
 8353SOL     OW25957   0.586   6.043   2.027
 8353SOL    HW125958   0.660   5.991   2.071
 8353SOL    HW225959   0.568   6.126   2.080
 8354SOL     OW25960   4.186   1.547   3.438
 8354SOL    HW125961   4.091   1.575   3.429
 8354SOL    HW225962   4.193   1.448   3.436
 8355SOL     OW25963   3.336   5.188   6.238
 8355SOL    HW125964   3.335   5.203   6.139
 8355SOL    HW225965   3.379   5.100   6.258
 8356SOL     OW25966   2.983   4.820   1.032
 8356SOL    HW125967   2.947   4.815   1.125
 8356SOL    HW225968   2.909   4.803   0.966
 8357SOL     OW25969   4.546   6.946   5.277
 8357SOL    HW125970   4.595   6.861   5.298
 8357SOL    HW225971   4.607   0.005   5.293
 8358SOL     OW25972   0.518   0.405   5.531
 8358SOL    HW125973   0.560   0.324   5.572
 8358SOL    HW225974   0.482   0.464   5.603
 8359SOL     OW25975   4.381   1.499   5.877
 8359SOL    HW125976   4.402   1.596   5.861
 8359SOL    HW225977   4.305   1.472   5.817
 8360SOL     OW25978   4.323   0.114   1.083
 8360SOL    HW125979   4.231   0.083   1.106
 8360SOL    HW225980   4.324   0.145   0.988
 8361SOL     OW25981   4.729   1.425   6.875
 8361SOL    HW125982   4.630   1.425   6.879
 8361SOL    HW225983   4.766   1.477   6.953
 8362SOL     OW25984   6.592   3.773   1.232
 8362SOL    HW125985   6.549   3.809   1.315
 8362SOL    HW225986   6.599   3.846   1.164
 8363SOL     OW25987   1.640   2.221   1.426
 8363SOL    HW125988   1.718   2.247   1.369
 8363SOL    HW225989   1.674   2.184   1.513
 8364SOL     OW25990   0.634   1.920   4.638
 8364SOL    HW125991   0.660   2.016   4.627
 8364SOL    HW225992   0.593   1.887   4.553
 8365SOL     OW25993   1.734   2.119   1.700
 8365SOL    HW125994   1.826   2.082   1.695
 8365SOL    HW225995   1.668   2.045   1.711
 8366SOL     OW25996   5.298   5.200   2.054
 8366SOL    HW125997   5.392   5.178   2.083
 8366SOL    HW225998   5.286   5.300   2.053
 8367SOL     OW25999   2.019   4.457   3.397
 8367SOL    HW126000   1.972   4.396   3.333
 8367SOL    HW226001   2.099   4.497   3.353
 8368SOL     OW26002   5.894   5.594   5.451
 8368SOL    HW126003   5.833   5.567   5.525
 8368SOL    HW226004   5.974   5.535   5.450
 8369SOL     OW26005   1.901   6.933   0.421
 8369SOL    HW126006   1.926   6.990   0.343
 8369SOL    HW226007   1.803   6.913   0.417
 8370SOL     OW26008   2.778   3.278   0.895
 8370SOL    HW126009   2.731   3.212   0.955
 8370SOL    HW226010   2.759   3.371   0.927
 8371SOL     OW26011   2.641   3.639   6.243
 8371SOL    HW126012   2.641   3.696   6.161
 8371SOL    HW226013   2.680   3.690   6.319
 8372SOL     OW26014   1.636   6.252   1.193
 8372SOL    HW126015   1.645   6.337   1.140
 8372SOL    HW226016   1.640   6.174   1.130
 8373SOL     OW26017   6.634   1.551   3.954
 8373SOL    HW126018   6.625   1.589   3.863
 8373SOL    HW226019   6.697   1.473   3.952
 8374SOL     OW26020   0.242   0.903   4.121
 8374SOL    HW126021   0.298   0.980   4.148
 8374SOL    HW226022   0.263   0.824   4.180
 8375SOL     OW26023   1.912   1.822   5.051
 8375SOL    HW126024   1.885   1.902   5.105
 8375SOL    HW226025   1.829   1.775   5.019
 8376SOL     OW26026   0.982   2.036   3.998
 8376SOL    HW126027   1.078   2.058   3.981
 8376SOL    HW226028   0.962   2.048   4.095
 8377SOL     OW26029   4.043   5.496   6.853
 8377SOL    HW126030   4.054   5.534   6.761
 8377SOL    HW226031   3.961   5.535   6.895
 8378SOL     OW26032   4.642   6.018   4.710
 8378SOL    HW126033   4.737   5.996   4.730
 8378SOL    HW226034   4.600   5.944   4.657
 8379SOL     OW26035   6.039   2.085   1.713
 8379SOL    HW126036   6.062   1.991   1.737
 8379SOL    HW226037   5.990   2.128   1.790
 8380SOL     OW26038   0.529   6.214   1.685
 8380SOL    HW126039   0.544   6.132   1.630
 8380SOL    HW226040   0.456   6.197   1.751
 8381SOL     OW26041   0.487   1.691   2.870
 8381SOL    HW126042   0.586   1.687   2.855
 8381SOL    HW226043   0.449   1.598   2.864
 8382SOL     OW26044   0.906   0.210   1.581
 8382SOL    HW126045   0.932   0.282   1.645
 8382SOL    HW226046   0.824   0.237   1.532
 8383SOL     OW26047   2.567   6.929   6.036
 8383SOL    HW126048   2.523   7.017   6.020
 8383SOL    HW226049   2.583   6.883   5.948
 8384SOL     OW26050   0.590   3.747   2.991
 8384SOL    HW126051   0.651   3.724   3.067
 8384SOL    HW226052   0.625   3.708   2.907
 8385SOL     OW26053   4.128   2.257   1.904
 8385SOL    HW126054   4.116   2.339   1.848
 8385SOL    HW226055   4.046   2.200   1.899
 8386SOL     OW26056   2.598   5.961   1.598
 8386SOL    HW126057   2.515   5.987   1.647
 8386SOL    HW226058   2.622   5.866   1.620
 8387SOL     OW26059   0.847   1.300   3.735
 8387SOL    HW126060   0.922   1.356   3.770
 8387SOL    HW226061   0.821   1.232   3.803
 8388SOL     OW26062   3.615   5.322   0.965
 8388SOL    HW126063   3.699   5.272   0.987
 8388SOL    HW226064   3.637   5.417   0.943
 8389SOL     OW26065   0.452   2.834   4.304
 8389SOL    HW126066   0.538   2.806   4.262
 8389SOL    HW226067   0.417   2.759   4.361
 8390SOL     OW26068   2.324   0.039   5.742
 8390SOL    HW126069   2.271   0.026   5.659
 8390SOL    HW226070   2.420   0.019   5.724
 8391SOL     OW26071   5.589   5.978   1.118
 8391SOL    HW126072   5.575   5.998   1.215
 8391SOL    HW226073   5.569   6.059   1.064
 8392SOL     OW26074   4.804   6.264   0.300
 8392SOL    HW126075   4.832   6.169   0.309
 8392SOL    HW226076   4.858   6.308   0.227
 8393SOL     OW26077   0.361   4.920   3.334
 8393SOL    HW126078   0.332   4.848   3.272
 8393SOL    HW226079   0.381   4.881   3.424
 8394SOL     OW26080   1.002   1.476   2.794
 8394SOL    HW126081   0.974   1.498   2.887
 8394SOL    HW226082   0.991   1.378   2.778
 8395SOL     OW26083   0.797   6.426   5.648
 8395SOL    HW126084   0.726   6.356   5.658
 8395SOL    HW226085   0.804   6.453   5.552
 8396SOL     OW26086   4.431   2.742   1.616
 8396SOL    HW126087   4.363   2.804   1.579
 8396SOL    HW226088   4.387   2.655   1.641
 8397SOL     OW26089   2.535   5.231   3.885
 8397SOL    HW126090   2.589   5.147   3.895
 8397SOL    HW226091   2.446   5.218   3.929
 8398SOL     OW26092   5.938   1.185   0.129
 8398SOL    HW126093   5.884   1.145   0.054
 8398SOL    HW226094   5.909   1.145   0.216
 8399SOL     OW26095   5.485   5.832   0.100
 8399SOL    HW126096   5.476   5.917   0.152
 8399SOL    HW226097   5.520   5.852   0.009
 8400SOL     OW26098   6.115   6.663   4.211
 8400SOL    HW126099   6.141   6.571   4.182
 8400SOL    HW226100   6.111   6.723   4.131
 8401SOL     OW26101   2.901   4.381   5.933
 8401SOL    HW126102   2.890   4.282   5.923
 8401SOL    HW226103   2.929   4.420   5.845
 8402SOL     OW26104   4.477   0.925   6.047
 8402SOL    HW126105   4.533   0.925   6.129
 8402SOL    HW226106   4.474   0.832   6.009
 8403SOL     OW26107   1.070   2.409   4.724
 8403SOL    HW126108   1.062   2.315   4.690
 8403SOL    HW226109   1.119   2.464   4.657
 8404SOL     OW26110   4.576   5.083   5.271
 8404SOL    HW126111   4.511   5.151   5.238
 8404SOL    HW226112   4.658   5.129   5.304
 8405SOL     OW26113   1.257   2.587   4.585
 8405SOL    HW126114   1.251   2.554   4.491
 8405SOL    HW226115   1.253   2.687   4.586
 8406SOL     OW26116   5.173   3.684   1.137
 8406SOL    HW126117   5.124   3.708   1.221
 8406SOL    HW226118   5.233   3.605   1.154
 8407SOL     OW26119   4.858   3.540   2.957
 8407SOL    HW126120   4.878   3.443   2.941
 8407SOL    HW226121   4.849   3.587   2.870
 8408SOL     OW26122   4.918   4.490   4.485
 8408SOL    HW126123   4.938   4.562   4.417
 8408SOL    HW226124   4.976   4.411   4.468
 8409SOL     OW26125   0.493   1.609   4.049
 8409SOL    HW126126   0.559   1.533   4.046
 8409SOL    HW226127   0.414   1.587   3.993
 8410SOL     OW26128   2.354   6.356   2.543
 8410SOL    HW126129   2.417   6.364   2.621
 8410SOL    HW226130   2.262   6.335   2.577
 8411SOL     OW26131   1.905   2.996   3.655
 8411SOL    HW126132   1.867   3.064   3.717
 8411SOL    HW226133   1.993   3.028   3.620
 8412SOL     OW26134   6.175   3.071   2.334
 8412SOL    HW126135   6.163   2.997   2.267
 8412SOL    HW226136   6.233   3.142   2.295
 8413SOL     OW26137   2.528   4.791   1.382
 8413SOL    HW126138   2.496   4.759   1.293
 8413SOL    HW226139   2.531   4.715   1.447
 8414SOL     OW26140   5.861   6.975   3.129
 8414SOL    HW126141   5.767   7.007   3.120
 8414SOL    HW226142   5.865   6.876   3.114
 8415SOL     OW26143   6.333   3.807   1.866
 8415SOL    HW126144   6.393   3.731   1.842
 8415SOL    HW226145   6.357   3.842   1.957
 8416SOL     OW26146   4.892   4.395   2.478
 8416SOL    HW126147   4.961   4.324   2.494
 8416SOL    HW226148   4.814   4.355   2.430
 8417SOL     OW26149   2.299   5.513   6.439
 8417SOL    HW126150   2.221   5.469   6.393
 8417SOL    HW226151   2.363   5.443   6.469
 8418SOL     OW26152   5.998   5.799   3.137
 8418SOL    HW126153   5.987   5.706   3.172
 8418SOL    HW226154   6.007   5.796   3.037
 8419SOL     OW26155   5.135   0.304   3.960
 8419SOL    HW126156   5.165   0.305   3.865
 8419SOL    HW226157   5.074   0.226   3.975
 8420SOL     OW26158   3.551   2.000   5.776
 8420SOL    HW126159   3.596   2.058   5.708
 8420SOL    HW226160   3.581   2.027   5.867
 8421SOL     OW26161   0.872   6.899   1.435
 8421SOL    HW126162   0.817   6.969   1.480
 8421SOL    HW226163   0.966   6.932   1.424
 8422SOL     OW26164   4.400   6.967   1.323
 8422SOL    HW126165   4.422   6.994   1.416
 8422SOL    HW226166   4.365   0.027   1.272
 8423SOL     OW26167   1.840   3.821   1.494
 8423SOL    HW126168   1.915   3.804   1.557
 8423SOL    HW226169   1.801   3.734   1.465
 8424SOL     OW26170   2.850   2.197   2.263
 8424SOL    HW126171   2.754   2.213   2.285
 8424SOL    HW226172   2.872   2.242   2.177
 8425SOL     OW26173   6.536   4.709   6.403
 8425SOL    HW126174   6.505   4.798   6.369
 8425SOL    HW226175   6.469   4.674   6.469
 8426SOL     OW26176   4.114   3.595   2.567
 8426SOL    HW126177   4.133   3.508   2.523
 8426SOL    HW226178   4.164   3.600   2.654
 8427SOL     OW26179   1.886   2.674   6.423
 8427SOL    HW126180   1.797   2.702   6.460
 8427SOL    HW226181   1.874   2.595   6.363
 8428SOL     OW26182   6.236   4.377   1.923
 8428SOL    HW126183   6.187   4.424   1.850
 8428SOL    HW226184   6.183   4.297   1.952
 8429SOL     OW26185   2.827   6.533   3.175
 8429SOL    HW126186   2.779   6.541   3.263
 8429SOL    HW226187   2.842   6.437   3.154
 8430SOL     OW26188   5.196   4.124   3.264
 8430SOL    HW126189   5.292   4.112   3.288
 8430SOL    HW226190   5.172   4.060   3.191
 8431SOL     OW26191   2.864   3.386   1.783
 8431SOL    HW126192   2.863   3.434   1.694
 8431SOL    HW226193   2.797   3.312   1.781
 8432SOL     OW26194   4.675   6.624   0.420
 8432SOL    HW126195   4.758   6.640   0.366
 8432SOL    HW226196   4.697   6.566   0.499
 8433SOL     OW26197   1.139   1.588   4.137
 8433SOL    HW126198   1.139   1.621   4.043
 8433SOL    HW226199   1.182   1.656   4.197
 8434SOL     OW26200   5.190   6.198   6.615
 8434SOL    HW126201   5.174   6.214   6.712
 8434SOL    HW226202   5.288   6.197   6.597
 8435SOL     OW26203   5.306   3.058   1.518
 8435SOL    HW126204   5.211   3.027   1.523
 8435SOL    HW226205   5.340   3.046   1.425
 8436SOL     OW26206   3.161   4.438   1.699
 8436SOL    HW126207   3.161   4.409   1.604
 8436SOL    HW226208   3.067   4.452   1.730
 8437SOL     OW26209   6.821   1.379   1.304
 8437SOL    HW126210   6.857   1.289   1.278
 8437SOL    HW226211   6.876   1.417   1.378
 8438SOL     OW26212   2.120   6.505   0.855
 8438SOL    HW126213   2.113   6.415   0.811
 8438SOL    HW226214   2.041   6.519   0.915
 8439SOL     OW26215   6.396   0.354   2.276
 8439SOL    HW126216   6.393   0.255   2.263
 8439SOL    HW226217   6.410   0.400   2.188
 8440SOL     OW26218   6.770   2.051   4.284
 8440SOL    HW126219   6.733   2.134   4.327
 8440SOL    HW226220   6.721   1.971   4.319
 8441SOL     OW26221   4.202   5.359   2.343
 8441SOL    HW126222   4.182   5.452   2.312
 8441SOL    HW226223   4.300   5.349   2.358
 8442SOL     OW26224   1.862   3.376   0.367
 8442SOL    HW126225   1.839   3.437   0.443
 8442SOL    HW226226   1.848   3.424   0.281
 8443SOL     OW26227   0.668   1.977   1.934
 8443SOL    HW126228   0.571   1.951   1.931
 8443SOL    HW226229   0.689   2.017   2.023
 8444SOL     OW26230   4.777   1.085   2.738
 8444SOL    HW126231   4.869   1.078   2.777
 8444SOL    HW226232   4.778   1.149   2.662
 8445SOL     OW26233   4.599   5.716   1.908
 8445SOL    HW126234   4.527   5.677   1.965
 8445SOL    HW226235   4.629   5.803   1.948
 8446SOL     OW26236   6.421   4.074   3.172
 8446SOL    HW126237   6.474   3.998   3.208
 8446SOL    HW226238   6.436   4.081   3.073
 8447SOL     OW26239   4.562   3.240   1.286
 8447SOL    HW126240   4.520   3.255   1.196
 8447SOL    HW226241   4.618   3.319   1.310
 8448SOL     OW26242   1.374   2.869   5.781
 8448SOL    HW126243   1.320   2.954   5.787
 8448SOL    HW226244   1.353   2.823   5.695
 8449SOL     OW26245   1.426   1.565   4.651
 8449SOL    HW126246   1.411   1.648   4.704
 8449SOL    HW226247   1.493   1.583   4.579
 8450SOL     OW26248   2.318   5.390   1.631
 8450SOL    HW126249   2.291   5.331   1.555
 8450SOL    HW226250   2.385   5.457   1.599
 8451SOL     OW26251   4.252   2.987   0.451
 8451SOL    HW126252   4.190   2.910   0.463
 8451SOL    HW226253   4.255   3.013   0.354
 8452SOL     OW26254   6.855   5.560   1.433
 8452SOL    HW126255   6.903   5.486   1.385
 8452SOL    HW226256   6.914   5.597   1.505
 8453SOL     OW26257   6.521   5.522   5.291
 8453SOL    HW126258   6.546   5.525   5.194
 8453SOL    HW226259   6.601   5.501   5.346
 8454SOL     OW26260   1.815   6.226   4.833
 8454SOL    HW126261   1.829   6.131   4.862
 8454SOL    HW226262   1.901   6.264   4.799
 8455SOL     OW26263   6.177   2.714   0.391
 8455SOL    HW126264   6.276   2.706   0.403
 8455SOL    HW226265   6.137   2.756   0.473
 8456SOL     OW26266   5.552   5.448   3.266
 8456SOL    HW126267   5.547   5.451   3.366
 8456SOL    HW226268   5.615   5.376   3.238
 8457SOL     OW26269   6.251   6.097   6.797
 8457SOL    HW126270   6.181   6.157   6.836
 8457SOL    HW226271   6.306   6.058   6.870
 8458SOL     OW26272   1.703   1.900   1.290
 8458SOL    HW126273   1.612   1.886   1.329
 8458SOL    HW226274   1.771   1.904   1.363
 8459SOL     OW26275   2.776   5.899   2.527
 8459SOL    HW126276   2.734   5.811   2.507
 8459SOL    HW226277   2.829   5.929   2.447
 8460SOL     OW26278   3.922   1.392   0.408
 8460SOL    HW126279   3.953   1.319   0.469
 8460SOL    HW226280   3.826   1.377   0.384
 8461SOL     OW26281   4.815   3.762   3.104
 8461SOL    HW126282   4.802   3.736   3.199
 8461SOL    HW226283   4.814   3.680   3.046
 8462SOL     OW26284   2.730   4.378   0.359
 8462SOL    HW126285   2.689   4.433   0.432
 8462SOL    HW226286   2.811   4.424   0.324
 8463SOL     OW26287   6.448   0.643   0.013
 8463SOL    HW126288   6.487   0.715   6.975
 8463SOL    HW226289   6.396   0.685   0.088
 8464SOL     OW26290   6.546   3.935   6.724
 8464SOL    HW126291   6.629   3.901   6.767
 8464SOL    HW226292   6.537   4.033   6.740
 8465SOL     OW26293   4.432   3.256   1.027
 8465SOL    HW126294   4.469   3.278   0.937
 8465SOL    HW226295   4.391   3.164   1.025
 8466SOL     OW26296   0.380   1.252   5.613
 8466SOL    HW126297   0.355   1.242   5.710
 8466SOL    HW226298   0.444   1.328   5.603
 8467SOL     OW26299   3.226   1.645   0.066
 8467SOL    HW126300   3.288   1.623   7.010
 8467SOL    HW226301   3.267   1.717   0.122
 8468SOL     OW26302   5.513   3.279   6.607
 8468SOL    HW126303   5.538   3.335   6.528
 8468SOL    HW226304   5.566   3.195   6.607
 8469SOL     OW26305   3.935   3.377   5.442
 8469SOL    HW126306   3.897   3.287   5.420
 8469SOL    HW226307   3.992   3.369   5.524
 8470SOL     OW26308   1.842   4.884   1.687
 8470SOL    HW126309   1.869   4.877   1.783
 8470SOL    HW226310   1.901   4.825   1.631
 8471SOL     OW26311   4.224   1.538   4.077
 8471SOL    HW126312   4.301   1.477   4.064
 8471SOL    HW226313   4.255   1.622   4.122
 8472SOL     OW26314   6.132   1.872   6.263
 8472SOL    HW126315   6.171   1.812   6.332
 8472SOL    HW226316   6.032   1.875   6.274
 8473SOL     OW26317   4.963   4.777   0.094
 8473SOL    HW126318   4.907   4.784   0.012
 8473SOL    HW226319   4.971   4.682   0.122
 8474SOL     OW26320   3.684   4.059   4.044
 8474SOL    HW126321   3.622   3.982   4.058
 8474SOL    HW226322   3.641   4.125   3.984
 8475SOL     OW26323   6.444   2.372   3.086
 8475SOL    HW126324   6.366   2.416   3.130
 8475SOL    HW226325   6.517   2.440   3.071
 8476SOL     OW26326   5.822   1.023   1.608
 8476SOL    HW126327   5.849   1.067   1.694
 8476SOL    HW226328   5.834   0.924   1.617
 8477SOL     OW26329   5.865   6.920   1.840
 8477SOL    HW126330   5.830   6.931   1.747
 8477SOL    HW226331   5.810   6.974   1.904
 8478SOL     OW26332   0.198   0.055   5.394
 8478SOL    HW126333   0.216   0.016   5.484
 8478SOL    HW226334   0.122   0.005   5.351
 8479SOL     OW26335   0.636   3.386   0.626
 8479SOL    HW126336   0.615   3.336   0.543
 8479SOL    HW226337   0.702   3.334   0.680
 8480SOL     OW26338   4.054   3.909   0.516
 8480SOL    HW126339   4.149   3.916   0.488
 8480SOL    HW226340   4.048   3.912   0.616
 8481SOL     OW26341   4.289   2.195   3.284
 8481SOL    HW126342   4.371   2.169   3.234
 8481SOL    HW226343   4.212   2.201   3.220
 8482SOL     OW26344   4.198   0.902   6.971
 8482SOL    HW126345   4.179   0.804   6.972
 8482SOL    HW226346   4.240   0.929   0.038
 8483SOL     OW26347   4.139   5.246   3.218
 8483SOL    HW126348   4.039   5.242   3.224
 8483SOL    HW226349   4.166   5.255   3.122
 8484SOL     OW26350   5.551   5.915   4.909
 8484SOL    HW126351   5.494   5.961   4.840
 8484SOL    HW226352   5.568   5.821   4.881
 8485SOL     OW26353   3.656   1.861   0.046
 8485SOL    HW126354   3.678   1.926   6.993
 8485SOL    HW226355   3.732   1.795   0.056
 8486SOL     OW26356   6.130   2.210   3.718
 8486SOL    HW126357   6.047   2.193   3.772
 8486SOL    HW226358   6.190   2.131   3.723
 8487SOL     OW26359   6.722   1.983   6.521
 8487SOL    HW126360   6.656   1.951   6.589
 8487SOL    HW226361   6.738   1.911   6.454
 8488SOL     OW26362   4.791   5.443   1.905
 8488SOL    HW126363   4.720   5.426   1.836
 8488SOL    HW226364   4.756   5.417   1.995
 8489SOL     OW26365   6.241   2.593   1.681
 8489SOL    HW126366   6.155   2.619   1.636
 8489SOL    HW226367   6.255   2.651   1.761
 8490SOL     OW26368   3.270   0.235   6.852
 8490SOL    HW126369   3.186   0.250   6.801
 8490SOL    HW226370   3.285   0.311   6.915
 8491SOL     OW26371   2.995   5.644   1.863
 8491SOL    HW126372   3.044   5.560   1.840
 8491SOL    HW226373   2.967   5.691   1.779
 8492SOL     OW26374   6.223   6.525   4.780
 8492SOL    HW126375   6.247   6.429   4.790
 8492SOL    HW226376   6.145   6.547   4.838
 8493SOL     OW26377   5.113   1.420   6.353
 8493SOL    HW126378   5.098   1.517   6.337
 8493SOL    HW226379   5.028   1.377   6.382
 8494SOL     OW26380   6.745   3.565   2.176
 8494SOL    HW126381   6.753   3.467   2.191
 8494SOL    HW226382   6.764   3.614   2.261
 8495SOL     OW26383   6.081   5.046   6.105
 8495SOL    HW126384   6.033   4.979   6.161
 8495SOL    HW226385   6.154   5.000   6.053
 8496SOL     OW26386   5.065   2.572   2.603
 8496SOL    HW126387   5.009   2.526   2.672
 8496SOL    HW226388   5.042   2.670   2.601
 8497SOL     OW26389   6.583   0.368   3.285
 8497SOL    HW126390   6.613   0.433   3.215
 8497SOL    HW226391   6.585   0.276   3.247
 8498SOL     OW26392   4.783   0.086   3.764
 8498SOL    HW126393   4.795   7.009   3.739
 8498SOL    HW226394   4.826   0.143   3.694
 8499SOL     OW26395   5.931   6.911   5.317
 8499SOL    HW126396   5.984   6.843   5.369
 8499SOL    HW226397   5.953   7.002   5.350
 8500SOL     OW26398   1.134   0.746   6.504
 8500SOL    HW126399   1.176   0.660   6.476
 8500SOL    HW226400   1.143   0.813   6.430
 8501SOL     OW26401   1.923   1.565   6.686
 8501SOL    HW126402   2.017   1.531   6.679
 8501SOL    HW226403   1.866   1.497   6.733
 8502SOL     OW26404   7.013   3.951   6.990
 8502SOL    HW126405   6.982   4.026   0.029
 8502SOL    HW226406   7.016   3.866   0.024
 8503SOL     OW26407   4.703   2.033   5.734
 8503SOL    HW126408   4.645   2.054   5.813
 8503SOL    HW226409   4.784   2.092   5.735
 8504SOL     OW26410   1.463   0.408   2.377
 8504SOL    HW126411   1.396   0.480   2.395
 8504SOL    HW226412   1.416   0.325   2.346
 8505SOL     OW26413   5.546   2.933   2.366
 8505SOL    HW126414   5.472   2.869   2.346
 8505SOL    HW226415   5.633   2.892   2.340
 8506SOL     OW26416   1.531   0.463   6.490
 8506SOL    HW126417   1.550   0.510   6.403
 8506SOL    HW226418   1.434   0.472   6.511
 8507SOL     OW26419   2.804   6.076   5.428
 8507SOL    HW126420   2.861   6.127   5.492
 8507SOL    HW226421   2.778   6.136   5.352
 8508SOL     OW26422   2.591   1.443   6.964
 8508SOL    HW126423   2.688   1.453   6.984
 8508SOL    HW226424   2.558   1.523   6.915
 8509SOL     OW26425   5.842   2.079   2.534
 8509SOL    HW126426   5.758   2.024   2.536
 8509SOL    HW226427   5.920   2.020   2.555
 8510SOL     OW26428   6.945   1.473   4.815
 8510SOL    HW126429   6.876   1.545   4.816
 8510SOL    HW226430   0.014   1.511   4.843
 8511SOL     OW26431   5.663   1.891   2.976
 8511SOL    HW126432   5.667   1.841   2.890
 8511SOL    HW226433   5.704   1.981   2.964
 8512SOL     OW26434   2.172   6.542   5.849
 8512SOL    HW126435   2.226   6.618   5.886
 8512SOL    HW226436   2.206   6.517   5.758
 8513SOL     OW26437   5.470   6.062   0.233
 8513SOL    HW126438   5.539   6.131   0.210
 8513SOL    HW226439   5.417   6.093   0.312
 8514SOL     OW26440   3.711   6.582   3.972
 8514SOL    HW126441   3.632   6.534   4.011
 8514SOL    HW226442   3.775   6.516   3.933
 8515SOL     OW26443   5.906   2.159   0.730
 8515SOL    HW126444   5.870   2.152   0.823
 8515SOL    HW226445   5.992   2.109   0.724
 8516SOL     OW26446   6.588   2.207   2.288
 8516SOL    HW126447   6.687   2.212   2.302
 8516SOL    HW226448   6.565   2.121   2.243
 8517SOL     OW26449   1.184   4.078   0.364
 8517SOL    HW126450   1.113   4.090   0.434
 8517SOL    HW226451   1.157   4.003   0.303
 8518SOL     OW26452   2.895   5.689   0.772
 8518SOL    HW126453   2.815   5.737   0.735
 8518SOL    HW226454   2.900   5.598   0.731
 8519SOL     OW26455   2.671   5.910   3.407
 8519SOL    HW126456   2.661   5.989   3.347
 8519SOL    HW226457   2.583   5.890   3.451
 8520SOL     OW26458   3.482   0.085   6.986
 8520SOL    HW126459   3.429   0.159   6.944
 8520SOL    HW226460   3.572   0.080   6.944
 8521SOL     OW26461   1.600   0.319   1.412
 8521SOL    HW126462   1.687   0.307   1.461
 8521SOL    HW226463   1.569   0.231   1.376
 8522SOL     OW26464   1.987   6.218   4.361
 8522SOL    HW126465   1.997   6.131   4.312
 8522SOL    HW226466   2.069   6.273   4.346
 8523SOL     OW26467   1.081   6.641   6.825
 8523SOL    HW126468   1.057   6.545   6.818
 8523SOL    HW226469   1.022   6.686   6.892
 8524SOL     OW26470   1.138   1.571   6.726
 8524SOL    HW126471   1.230   1.599   6.698
 8524SOL    HW226472   1.142   1.479   6.765
 8525SOL     OW26473   5.385   3.666   3.735
 8525SOL    HW126474   5.354   3.759   3.716
 8525SOL    HW226475   5.354   3.604   3.664
 8526SOL     OW26476   1.806   3.145   2.059
 8526SOL    HW126477   1.816   3.069   2.123
 8526SOL    HW226478   1.896   3.183   2.039
 8527SOL     OW26479   4.251   1.189   3.722
 8527SOL    HW126480   4.331   1.222   3.772
 8527SOL    HW226481   4.192   1.137   3.784
 8528SOL     OW26482   5.246   2.354   7.017
 8528SOL    HW126483   5.179   2.334   6.946
 8528SOL    HW226484   5.293   2.270   0.025
 8529SOL     OW26485   0.034   5.270   6.019
 8529SOL    HW126486   0.108   5.203   6.014
 8529SOL    HW226487   0.038   5.318   6.107
 8530SOL     OW26488   1.694   4.742   6.282
 8530SOL    HW126489   1.750   4.691   6.216
 8530SOL    HW226490   1.713   4.709   6.374
 8531SOL     OW26491   4.028   4.761   1.991
 8531SOL    HW126492   4.020   4.822   2.070
 8531SOL    HW226493   4.114   4.711   1.997
 8532SOL     OW26494   0.959   4.018   0.163
 8532SOL    HW126495   1.017   4.022   0.082
 8532SOL    HW226496   0.863   4.023   0.136
 8533SOL     OW26497   4.080   6.470   5.980
 8533SOL    HW126498   4.072   6.371   5.980
 8533SOL    HW226499   4.111   6.501   5.889
 8534SOL     OW26500   1.868   2.776   1.996
 8534SOL    HW126501   1.882   2.681   2.025
 8534SOL    HW226502   1.947   2.807   1.944
 8535SOL     OW26503   6.861   3.397   5.047
 8535SOL    HW126504   6.797   3.456   5.095
 8535SOL    HW226505   6.879   3.315   5.103
 8536SOL     OW26506   6.365   1.586   5.067
 8536SOL    HW126507   6.351   1.487   5.073
 8536SOL    HW226508   6.407   1.619   5.151
 8537SOL     OW26509   5.075   6.618   2.924
 8537SOL    HW126510   5.066   6.637   3.022
 8537SOL    HW226511   5.078   6.704   2.874
 8538SOL     OW26512   5.020   0.912   5.810
 8538SOL    HW126513   4.983   0.899   5.902
 8538SOL    HW226514   4.948   0.897   5.743
 8539SOL     OW26515   0.376   3.015   3.098
 8539SOL    HW126516   0.440   2.949   3.137
 8539SOL    HW226517   0.427   3.090   3.056
 8540SOL     OW26518   3.610   6.618   6.999
 8540SOL    HW126519   3.521   6.664   6.996
 8540SOL    HW226520   3.683   6.684   6.984
 8541SOL     OW26521   3.087   6.073   5.211
 8541SOL    HW126522   3.150   6.009   5.255
 8541SOL    HW226523   3.129   6.164   5.207
 8542SOL     OW26524   0.958   5.262   5.729
 8542SOL    HW126525   0.973   5.169   5.763
 8542SOL    HW226526   0.869   5.295   5.761
 8543SOL     OW26527   2.803   2.768   5.453
 8543SOL    HW126528   2.799   2.765   5.553
 8543SOL    HW226529   2.876   2.707   5.422
 8544SOL     OW26530   5.402   4.733   5.222
 8544SOL    HW126531   5.321   4.706   5.170
 8544SOL    HW226532   5.473   4.765   5.159
 8545SOL     OW26533   1.891   6.820   6.411
 8545SOL    HW126534   1.988   6.821   6.387
 8545SOL    HW226535   1.848   6.738   6.373
 8546SOL     OW26536   4.728   1.536   3.510
 8546SOL    HW126537   4.814   1.497   3.479
 8546SOL    HW226538   4.668   1.552   3.431
 8547SOL     OW26539   5.458   6.267   6.011
 8547SOL    HW126540   5.488   6.334   5.942
 8547SOL    HW226541   5.459   6.176   5.971
 8548SOL     OW26542   1.063   4.556   5.027
 8548SOL    HW126543   1.052   4.568   5.126
 8548SOL    HW226544   1.081   4.460   5.007
 8549SOL     OW26545   1.548   0.142   3.947
 8549SOL    HW126546   1.450   0.140   3.928
 8549SOL    HW226547   1.564   0.180   4.038
 8550SOL     OW26548   6.669   5.185   5.774
 8550SOL    HW126549   6.748   5.141   5.817
 8550SOL    HW226550   6.590   5.124   5.778
 8551SOL     OW26551   3.836   0.476   5.116
 8551SOL    HW126552   3.747   0.437   5.140
 8551SOL    HW226553   3.908   0.413   5.145
 8552SOL     OW26554   3.258   1.553   1.986
 8552SOL    HW126555   3.251   1.471   1.929
 8552SOL    HW226556   3.303   1.531   2.072
 8553SOL     OW26557   4.611   3.545   0.658
 8553SOL    HW126558   4.664   3.466   0.627
 8553SOL    HW226559   4.589   3.534   0.755
 8554SOL     OW26560   1.503   1.050   0.148
 8554SOL    HW126561   1.601   1.047   0.131
 8554SOL    HW226562   1.453   1.010   0.071
 8555SOL     OW26563   4.221   2.174   3.973
 8555SOL    HW126564   4.168   2.195   3.891
 8555SOL    HW226565   4.285   2.249   3.990
 8556SOL     OW26566   0.518   5.701   5.842
 8556SOL    HW126567   0.509   5.603   5.829
 8556SOL    HW226568   0.505   5.748   5.755
 8557SOL     OW26569   6.809   0.516   6.633
 8557SOL    HW126570   6.771   0.471   6.553
 8557SOL    HW226571   6.909   0.511   6.629
 8558SOL     OW26572   3.031   5.739   4.351
 8558SOL    HW126573   3.000   5.802   4.422
 8558SOL    HW226574   2.989   5.650   4.366
 8559SOL     OW26575   1.464   3.949   2.296
 8559SOL    HW126576   1.421   4.000   2.370
 8559SOL    HW226577   1.563   3.949   2.309
 8560SOL     OW26578   3.178   4.340   1.418
 8560SOL    HW126579   3.198   4.243   1.410
 8560SOL    HW226580   3.088   4.359   1.378
 8561SOL     OW26581   3.956   0.395   2.812
 8561SOL    HW126582   3.864   0.419   2.780
 8561SOL    HW226583   4.021   0.465   2.781
 8562SOL     OW26584   5.095   3.032   6.752
 8562SOL    HW126585   5.012   3.074   6.714
 8562SOL    HW226586   5.070   2.968   6.824
 8563SOL     OW26587   2.928   5.120   2.952
 8563SOL    HW126588   2.952   5.100   2.858
 8563SOL    HW226589   2.861   5.194   2.955
 8564SOL     OW26590   4.191   6.809   0.878
 8564SOL    HW126591   4.115   6.851   0.927
 8564SOL    HW226592   4.162   6.785   0.785
 8565SOL     OW26593   1.070   4.737   1.366
 8565SOL    HW126594   1.119   4.822   1.350
 8565SOL    HW226595   0.973   4.749   1.344
 8566SOL     OW26596   3.694   0.443   2.777
 8566SOL    HW126597   3.604   0.411   2.807
 8566SOL    HW226598   3.688   0.540   2.753
 8567SOL     OW26599   1.672   2.226   2.024
 8567SOL    HW126600   1.625   2.217   2.112
 8567SOL    HW226601   1.611   2.194   1.951
 8568SOL     OW26602   5.921   0.991   6.034
 8568SOL    HW126603   6.002   0.932   6.044
 8568SOL    HW226604   5.887   0.985   5.940
 8569SOL     OW26605   5.231   2.261   0.316
 8569SOL    HW126606   5.214   2.351   0.276
 8569SOL    HW226607   5.148   2.228   0.361
 8570SOL     OW26608   2.257   1.838   2.401
 8570SOL    HW126609   2.338   1.806   2.450
 8570SOL    HW226610   2.187   1.865   2.467
 8571SOL     OW26611   2.184   0.567   3.095
 8571SOL    HW126612   2.193   0.611   3.185
 8571SOL    HW226613   2.216   0.472   3.102
 8572SOL     OW26614   2.830   4.127   5.909
 8572SOL    HW126615   2.736   4.107   5.936
 8572SOL    HW226616   2.857   4.065   5.835
 8573SOL     OW26617   2.621   6.012   6.366
 8573SOL    HW126618   2.534   6.028   6.320
 8573SOL    HW226619   2.640   5.913   6.368
 8574SOL     OW26620   4.941   0.797   5.488
 8574SOL    HW126621   4.937   0.765   5.394
 8574SOL    HW226622   4.869   0.754   5.542
 8575SOL     OW26623   3.368   6.128   3.923
 8575SOL    HW126624   3.334   6.058   3.987
 8575SOL    HW226625   3.386   6.213   3.972
 8576SOL     OW26626   1.874   4.672   3.821
 8576SOL    HW126627   1.853   4.608   3.895
 8576SOL    HW226628   1.892   4.621   3.737
 8577SOL     OW26629   1.100   0.954   0.792
 8577SOL    HW126630   1.080   0.858   0.771
 8577SOL    HW226631   1.186   0.980   0.749
 8578SOL     OW26632   1.537   6.913   6.289
 8578SOL    HW126633   1.518   6.999   6.336
 8578SOL    HW226634   1.557   6.931   6.193
 8579SOL     OW26635   3.180   6.961   2.627
 8579SOL    HW126636   3.261   6.973   2.569
 8579SOL    HW226637   3.138   6.873   2.607
 8580SOL     OW26638   1.443   0.411   1.785
 8580SOL    HW126639   1.393   0.409   1.699
 8580SOL    HW226640   1.513   0.482   1.782
 8581SOL     OW26641   3.663   4.441   1.377
 8581SOL    HW126642   3.675   4.417   1.281
 8581SOL    HW226643   3.599   4.377   1.420
 8582SOL     OW26644   4.100   5.301   5.609
 8582SOL    HW126645   4.085   5.235   5.535
 8582SOL    HW226646   4.127   5.389   5.570
 8583SOL     OW26647   3.520   6.723   2.701
 8583SOL    HW126648   3.572   6.669   2.634
 8583SOL    HW226649   3.534   6.820   2.683
 8584SOL     OW26650   6.223   1.575   4.355
 8584SOL    HW126651   6.256   1.564   4.261
 8584SOL    HW226652   6.184   1.489   4.387
 8585SOL     OW26653   5.322   2.823   2.269
 8585SOL    HW126654   5.272   2.743   2.302
 8585SOL    HW226655   5.291   2.846   2.177
 8586SOL     OW26656   6.050   6.072   6.192
 8586SOL    HW126657   6.124   6.028   6.141
 8586SOL    HW226658   6.015   6.009   6.261
 8587SOL     OW26659   6.994   1.780   6.742
 8587SOL    HW126660   7.001   1.869   6.695
 8587SOL    HW226661   6.923   1.725   6.698
 8588SOL     OW26662   2.060   0.767   5.563
 8588SOL    HW126663   2.126   0.708   5.610
 8588SOL    HW226664   2.075   0.761   5.464
 8589SOL     OW26665   5.339   3.096   0.324
 8589SOL    HW126666   5.323   3.079   0.421
 8589SOL    HW226667   5.423   3.050   0.295
 8590SOL     OW26668   0.322   0.706   4.292
 8590SOL    HW126669   0.323   0.684   4.389
 8590SOL    HW226670   0.284   0.628   4.241
 8591SOL     OW26671   6.593   4.652   5.567
 8591SOL    HW126672   6.524   4.584   5.591
 8591SOL    HW226673   6.576   4.687   5.475
 8592SOL     OW26674   0.457   2.045   4.214
 8592SOL    HW126675   0.440   2.142   4.232
 8592SOL    HW226676   0.554   2.031   4.193
 8593SOL     OW26677   5.995   1.314   6.759
 8593SOL    HW126678   5.976   1.374   6.836
 8593SOL    HW226679   5.910   1.275   6.724
 8594SOL     OW26680   6.086   3.995   6.318
 8594SOL    HW126681   6.148   3.917   6.328
 8594SOL    HW226682   6.084   4.047   6.403
 8595SOL     OW26683   5.633   6.546   3.273
 8595SOL    HW126684   5.688   6.572   3.353
 8595SOL    HW226685   5.693   6.534   3.194
 8596SOL     OW26686   0.784   1.421   4.302
 8596SOL    HW126687   0.741   1.464   4.381
 8596SOL    HW226688   0.776   1.482   4.223
 8597SOL     OW26689   6.101   3.151   6.234
 8597SOL    HW126690   6.117   3.250   6.236
 8597SOL    HW226691   6.050   3.127   6.152
 8598SOL     OW26692   6.838   0.416   5.467
 8598SOL    HW126693   6.867   0.415   5.372
 8598SOL    HW226694   6.809   0.325   5.495
 8599SOL     OW26695   6.427   3.540   4.700
 8599SOL    HW126696   6.413   3.464   4.763
 8599SOL    HW226697   6.523   3.545   4.673
 8600SOL     OW26698   4.372   2.359   1.036
 8600SOL    HW126699   4.373   2.369   0.936
 8600SOL    HW226700   4.465   2.344   1.069
 8601SOL     OW26701   6.510   6.196   3.719
 8601SOL    HW126702   6.483   6.285   3.757
 8601SOL    HW226703   6.601   6.172   3.751
 8602SOL     OW26704   1.883   6.608   5.598
 8602SOL    HW126705   1.916   6.566   5.683
 8602SOL    HW226706   1.797   6.656   5.616
 8603SOL     OW26707   0.623   0.499   0.058
 8603SOL    HW126708   0.712   0.476   0.019
 8603SOL    HW226709   0.589   0.584   0.015
 8604SOL     OW26710   2.018   5.060   6.107
 8604SOL    HW126711   1.979   4.989   6.047
 8604SOL    HW226712   1.944   5.109   6.153
 8605SOL     OW26713   0.644   5.366   4.107
 8605SOL    HW126714   0.734   5.387   4.146
 8605SOL    HW226715   0.647   5.277   4.061
 8606SOL     OW26716   1.517   1.930   0.510
 8606SOL    HW126717   1.561   1.890   0.591
 8606SOL    HW226718   1.576   1.916   0.431
 8607SOL     OW26719   2.150   3.764   1.371
 8607SOL    HW126720   2.084   3.718   1.429
 8607SOL    HW226721   2.149   3.723   1.280
 8608SOL     OW26722   1.972   6.020   2.682
 8608SOL    HW126723   2.029   5.955   2.632
 8608SOL    HW226724   1.981   6.111   2.642
 8609SOL     OW26725   4.405   1.910   4.684
 8609SOL    HW126726   4.415   1.925   4.783
 8609SOL    HW226727   4.404   1.998   4.637
 8610SOL     OW26728   0.582   6.018   3.108
 8610SOL    HW126729   0.650   5.997   3.037
 8610SOL    HW226730   0.502   6.060   3.066
 8611SOL     OW26731   2.233   1.380   4.864
 8611SOL    HW126732   2.224   1.356   4.961
 8611SOL    HW226733   2.158   1.440   4.837
 8612SOL     OW26734   3.038   3.139   4.397
 8612SOL    HW126735   3.119   3.100   4.442
 8612SOL    HW226736   2.956   3.110   4.446
 8613SOL     OW26737   3.925   3.134   2.754
 8613SOL    HW126738   3.890   3.080   2.678
 8613SOL    HW226739   3.876   3.109   2.838
 8614SOL     OW26740   0.490   2.430   3.012
 8614SOL    HW126741   0.584   2.397   3.014
 8614SOL    HW226742   0.434   2.368   2.959
 8615SOL     OW26743   3.616   2.157   5.562
 8615SOL    HW126744   3.605   2.091   5.488
 8615SOL    HW226745   3.526   2.189   5.591
 8616SOL     OW26746   5.506   3.688   4.034
 8616SOL    HW126747   5.470   3.743   4.108
 8616SOL    HW226748   5.480   3.728   3.946
 8617SOL     OW26749   2.311   0.389   3.576
 8617SOL    HW126750   2.321   0.378   3.675
 8617SOL    HW226751   2.346   0.309   3.529
 8618SOL     OW26752   5.595   4.029   1.274
 8618SOL    HW126753   5.664   3.984   1.218
 8618SOL    HW226754   5.541   3.961   1.323
 8619SOL     OW26755   5.394   5.624   0.857
 8619SOL    HW126756   5.423   5.542   0.906
 8619SOL    HW226757   5.352   5.597   0.770
 8620SOL     OW26758   2.299   0.040   4.501
 8620SOL    HW126759   2.240   7.001   4.445
 8620SOL    HW226760   2.243   0.085   4.571
 8621SOL     OW26761   5.569   3.698   1.181
 8621SOL    HW126762   5.654   3.750   1.182
 8621SOL    HW226763   5.515   3.722   1.262
 8622SOL     OW26764   0.307   5.079   2.343
 8622SOL    HW126765   0.307   5.171   2.381
 8622SOL    HW226766   0.215   5.054   2.313
 8623SOL     OW26767   1.947   2.538   4.073
 8623SOL    HW126768   2.037   2.524   4.031
 8623SOL    HW226769   1.923   2.635   4.071
 8624SOL     OW26770   3.453   3.726   4.763
 8624SOL    HW126771   3.432   3.650   4.824
 8624SOL    HW226772   3.437   3.698   4.668
 8625SOL     OW26773   3.592   2.915   5.421
 8625SOL    HW126774   3.664   2.846   5.412
 8625SOL    HW226775   3.508   2.871   5.453
 8626SOL     OW26776   4.107   2.337   1.607
 8626SOL    HW126777   4.087   2.381   1.519
 8626SOL    HW226778   4.023   2.328   1.660
 8627SOL     OW26779   2.008   1.185   2.653
 8627SOL    HW126780   2.010   1.131   2.569
 8627SOL    HW226781   1.915   1.217   2.670
 8628SOL     OW26782   0.819   6.470   0.980
 8628SOL    HW126783   0.793   6.416   1.060
 8628SOL    HW226784   0.841   6.563   1.009
 8629SOL     OW26785   0.708   6.492   4.714
 8629SOL    HW126786   0.766   6.488   4.795
 8629SOL    HW226787   0.627   6.435   4.728
 8630SOL     OW26788   4.877   2.711   2.237
 8630SOL    HW126789   4.841   2.678   2.325
 8630SOL    HW226790   4.893   2.810   2.243
 8631SOL     OW26791   2.583   5.728   6.391
 8631SOL    HW126792   2.580   5.634   6.426
 8631SOL    HW226793   2.490   5.764   6.385
 8632SOL     OW26794   5.672   6.074   4.196
 8632SOL    HW126795   5.652   5.983   4.233
 8632SOL    HW226796   5.588   6.115   4.162
 8633SOL     OW26797   5.739   3.634   4.909
 8633SOL    HW126798   5.699   3.560   4.963
 8633SOL    HW226799   5.824   3.601   4.866
 8634SOL     OW26800   4.952   4.167   0.295
 8634SOL    HW126801   4.907   4.079   0.285
 8634SOL    HW226802   4.888   4.241   0.273
 8635SOL     OW26803   5.250   2.429   6.722
 8635SOL    HW126804   5.257   2.337   6.684
 8635SOL    HW226805   5.336   2.453   6.768
 8636SOL     OW26806   4.840   6.701   1.548
 8636SOL    HW126807   4.755   6.721   1.596
 8636SOL    HW226808   4.825   6.706   1.449
 8637SOL     OW26809   2.228   1.980   5.983
 8637SOL    HW126810   2.149   1.959   5.925
 8637SOL    HW226811   2.207   1.959   6.078
 8638SOL     OW26812   4.715   2.771   3.613
 8638SOL    HW126813   4.709   2.711   3.533
 8638SOL    HW226814   4.728   2.866   3.583
 8639SOL     OW26815   3.573   3.850   0.049
 8639SOL    HW126816   3.614   3.861   6.978
 8639SOL    HW226817   3.594   3.931   0.104
 8640SOL     OW26818   2.998   2.773   0.903
 8640SOL    HW126819   2.983   2.682   0.866
 8640SOL    HW226820   2.927   2.835   0.872
 8641SOL     OW26821   4.058   4.727   2.414
 8641SOL    HW126822   3.998   4.796   2.373
 8641SOL    HW226823   4.048   4.641   2.363
 8642SOL     OW26824   1.070   5.728   2.842
 8642SOL    HW126825   0.977   5.737   2.879
 8642SOL    HW226826   1.077   5.782   2.758
 8643SOL     OW26827   4.057   0.073   1.080
 8643SOL    HW126828   3.992   0.132   1.032
 8643SOL    HW226829   4.015   0.038   1.164
 8644SOL     OW26830   6.175   2.506   6.310
 8644SOL    HW126831   6.207   2.432   6.367
 8644SOL    HW226832   6.229   2.588   6.327
 8645SOL     OW26833   6.220   5.946   3.212
 8645SOL    HW126834   6.199   5.929   3.308
 8645SOL    HW226835   6.134   5.946   3.160
 8646SOL     OW26836   6.541   2.594   5.028
 8646SOL    HW126837   6.572   2.639   5.112
 8646SOL    HW226838   6.542   2.658   4.952
 8647SOL     OW26839   2.134   5.551   1.759
 8647SOL    HW126840   2.184   5.486   1.702
 8647SOL    HW226841   2.177   5.641   1.755
 8648SOL     OW26842   5.203   5.464   0.251
 8648SOL    HW126843   5.143   5.415   0.188
 8648SOL    HW226844   5.260   5.398   0.301
 8649SOL     OW26845   5.364   1.538   1.078
 8649SOL    HW126846   5.290   1.479   1.046
 8649SOL    HW226847   5.452   1.496   1.055
 8650SOL     OW26848   2.008   0.081   5.576
 8650SOL    HW126849   1.957   0.027   5.643
 8650SOL    HW226850   1.992   0.178   5.592
 8651SOL     OW26851   4.149   2.614   1.692
 8651SOL    HW126852   4.089   2.561   1.632
 8651SOL    HW226853   4.232   2.562   1.710
 8652SOL     OW26854   0.918   2.557   3.165
 8652SOL    HW126855   0.885   2.527   3.254
 8652SOL    HW226856   0.929   2.478   3.105
 8653SOL     OW26857   5.896   1.786   6.353
 8653SOL    HW126858   5.876   1.694   6.319
 8653SOL    HW226859   5.810   1.833   6.375
 8654SOL     OW26860   0.520   4.166   2.432
 8654SOL    HW126861   0.493   4.137   2.524
 8654SOL    HW226862   0.563   4.090   2.384
 8655SOL     OW26863   0.728   0.430   4.720
 8655SOL    HW126864   0.680   0.504   4.673
 8655SOL    HW226865   0.725   0.348   4.664
 8656SOL     OW26866   5.836   6.691   1.211
 8656SOL    HW126867   5.865   6.624   1.143
 8656SOL    HW226868   5.858   6.783   1.178
 8657SOL     OW26869   3.357   2.124   3.447
 8657SOL    HW126870   3.297   2.123   3.527
 8657SOL    HW226871   3.303   2.114   3.364
 8658SOL     OW26872   5.301   4.767   1.551
 8658SOL    HW126873   5.366   4.692   1.540
 8658SOL    HW226874   5.331   4.826   1.627
 8659SOL     OW26875   3.616   0.707   2.146
 8659SOL    HW126876   3.584   0.700   2.240
 8659SOL    HW226877   3.699   0.652   2.135
 8660SOL     OW26878   0.394   5.059   2.081
 8660SOL    HW126879   0.360   5.057   2.175
 8660SOL    HW226880   0.407   5.154   2.053
 8661SOL     OW26881   6.887   3.725   2.376
 8661SOL    HW126882   6.984   3.730   2.350
 8661SOL    HW226883   6.833   3.780   2.314
 8662SOL     OW26884   1.724   2.873   2.923
 8662SOL    HW126885   1.759   2.951   2.872
 8662SOL    HW226886   1.646   2.832   2.874
 8663SOL     OW26887   3.760   4.933   2.764
 8663SOL    HW126888   3.747   4.906   2.669
 8663SOL    HW226889   3.678   4.910   2.817
 8664SOL     OW26890   4.255   6.402   3.428
 8664SOL    HW126891   4.213   6.454   3.353
 8664SOL    HW226892   4.346   6.439   3.448
 8665SOL     OW26893   4.690   3.884   6.813
 8665SOL    HW126894   4.630   3.964   6.805
 8665SOL    HW226895   4.785   3.914   6.819
 8666SOL     OW26896   4.210   6.638   2.811
 8666SOL    HW126897   4.201   6.542   2.786
 8666SOL    HW226898   4.303   6.670   2.789
 8667SOL     OW26899   5.562   2.218   2.469
 8667SOL    HW126900   5.518   2.224   2.558
 8667SOL    HW226901   5.588   2.123   2.450
 8668SOL     OW26902   4.921   2.407   4.984
 8668SOL    HW126903   4.935   2.316   5.022
 8668SOL    HW226904   4.859   2.402   4.905
 8669SOL     OW26905   6.030   6.517   5.946
 8669SOL    HW126906   6.077   6.502   5.860
 8669SOL    HW226907   6.019   6.430   5.994
 8670SOL     OW26908   6.307   4.852   5.618
 8670SOL    HW126909   6.299   4.810   5.708
 8670SOL    HW226910   6.390   4.819   5.572
 8671SOL     OW26911   6.957   3.293   2.742
 8671SOL    HW126912   6.921   3.375   2.785
 8671SOL    HW226913   6.928   3.213   2.795
 8672SOL     OW26914   0.101   1.325   2.543
 8672SOL    HW126915   0.065   1.389   2.475
 8672SOL    HW226916   0.055   1.340   2.631
 8673SOL     OW26917   0.900   1.642   0.963
 8673SOL    HW126918   0.974   1.668   1.025
 8673SOL    HW226919   0.821   1.701   0.979
 8674SOL     OW26920   6.823   3.868   3.071
 8674SOL    HW126921   6.864   3.844   2.982
 8674SOL    HW226922   6.896   3.893   3.135
 8675SOL     OW26923   4.242   2.286   4.780
 8675SOL    HW126924   4.339   2.264   4.771
 8675SOL    HW226925   4.224   2.320   4.872
 8676SOL     OW26926   5.284   1.857   0.617
 8676SOL    HW126927   5.234   1.801   0.683
 8676SOL    HW226928   5.288   1.951   0.650
 8677SOL     OW26929   2.345   0.024   6.266
 8677SOL    HW126930   2.341   6.944   6.273
 8677SOL    HW226931   2.392   0.049   6.181
 8678SOL     OW26932   2.532   2.490   0.274
 8678SOL    HW126933   2.458   2.531   0.327
 8678SOL    HW226934   2.540   2.538   0.186
 8679SOL     OW26935   1.366   1.792   6.025
 8679SOL    HW126936   1.389   1.699   6.055
 8679SOL    HW226937   1.447   1.835   5.985
 8680SOL     OW26938   6.988   0.349   0.382
 8680SOL    HW126939   6.936   0.312   0.459
 8680SOL    HW226940   0.066   0.345   0.402
 8681SOL     OW26941   4.742   5.481   0.929
 8681SOL    HW126942   4.766   5.475   0.832
 8681SOL    HW226943   4.800   5.419   0.982
 8682SOL     OW26944   2.150   0.800   2.336
 8682SOL    HW126945   2.209   0.773   2.259
 8682SOL    HW226946   2.168   0.739   2.414
 8683SOL     OW26947   2.399   4.436   4.297
 8683SOL    HW126948   2.319   4.395   4.340
 8683SOL    HW226949   2.414   4.396   4.207
 8684SOL     OW26950   2.342   4.237   3.808
 8684SOL    HW126951   2.376   4.207   3.718
 8684SOL    HW226952   2.290   4.162   3.850
 8685SOL     OW26953   4.779   2.718   4.456
 8685SOL    HW126954   4.750   2.808   4.490
 8685SOL    HW226955   4.852   2.682   4.515
 8686SOL     OW26956   1.477   5.347   3.562
 8686SOL    HW126957   1.458   5.277   3.494
 8686SOL    HW226958   1.528   5.306   3.638
 8687SOL     OW26959   5.541   4.652   4.881
 8687SOL    HW126960   5.447   4.683   4.891
 8687SOL    HW226961   5.580   4.689   4.797
 8688SOL     OW26962   1.533   3.797   5.128
 8688SOL    HW126963   1.578   3.726   5.183
 8688SOL    HW226964   1.538   3.885   5.176
 8689SOL     OW26965   4.213   3.024   0.735
 8689SOL    HW126966   4.245   3.001   0.643
 8689SOL    HW226967   4.193   3.121   0.739
 8690SOL     OW26968   1.691   1.546   2.504
 8690SOL    HW126969   1.670   1.584   2.415
 8690SOL    HW226970   1.790   1.551   2.520
 8691SOL     OW26971   3.516   2.494   5.885
 8691SOL    HW126972   3.588   2.452   5.830
 8691SOL    HW226973   3.537   2.591   5.899
 8692SOL     OW26974   4.764   2.744   4.168
 8692SOL    HW126975   4.741   2.730   4.264
 8692SOL    HW226976   4.838   2.810   4.161
 8693SOL     OW26977   6.543   6.978   5.534
 8693SOL    HW126978   6.471   6.915   5.503
 8693SOL    HW226979   6.545   6.977   5.634
 8694SOL     OW26980   5.338   2.654   5.372
 8694SOL    HW126981   5.354   2.712   5.292
 8694SOL    HW226982   5.246   2.671   5.408
 8695SOL     OW26983   3.516   5.061   0.860
 8695SOL    HW126984   3.476   5.083   0.771
 8695SOL    HW226985   3.543   5.145   0.906
 8696SOL     OW26986   2.432   5.209   5.603
 8696SOL    HW126987   2.526   5.222   5.636
 8696SOL    HW226988   2.371   5.194   5.680
 8697SOL     OW26989   1.300   3.778   5.326
 8697SOL    HW126990   1.331   3.857   5.378
 8697SOL    HW226991   1.275   3.806   5.234
 8698SOL     OW26992   4.665   5.004   6.509
 8698SOL    HW126993   4.570   5.032   6.499
 8698SOL    HW226994   4.697   4.960   6.425
 8699SOL     OW26995   1.772   2.357   0.059
 8699SOL    HW126996   1.847   2.335   0.121
 8699SOL    HW226997   1.685   2.341   0.104
 8700SOL     OW26998   1.183   1.177   4.350
 8700SOL    HW126999   1.108   1.143   4.407
 8700SOL    HW227000   1.257   1.110   4.348
 8701SOL     OW27001   1.359   3.380   6.942
 8701SOL    HW127002   1.272   3.343   6.972
 8701SOL    HW227003   1.434   3.335   6.991
 8702SOL     OW27004   5.370   4.756   1.135
 8702SOL    HW127005   5.361   4.672   1.081
 8702SOL    HW227006   5.463   4.791   1.125
 8703SOL     OW27007   2.891   5.691   1.353
 8703SOL    HW127008   2.914   5.595   1.369
 8703SOL    HW227009   2.826   5.697   1.278
 8704SOL     OW27010   0.253   0.987   5.009
 8704SOL    HW127011   0.339   0.943   5.033
 8704SOL    HW227012   0.187   0.975   5.084
 8705SOL     OW27013   3.676   2.179   6.811
 8705SOL    HW127014   3.582   2.149   6.827
 8705SOL    HW227015   3.700   2.250   6.877
 8706SOL     OW27016   4.648   2.779   6.607
 8706SOL    HW127017   4.699   2.790   6.692
 8706SOL    HW227018   4.711   2.791   6.529
 8707SOL     OW27019   2.181   0.977   4.360
 8707SOL    HW127020   2.139   0.893   4.327
 8707SOL    HW227021   2.261   0.955   4.416
 8708SOL     OW27022   6.167   2.478   0.865
 8708SOL    HW127023   6.164   2.383   0.894
 8708SOL    HW227024   6.260   2.501   0.834
 8709SOL     OW27025   6.040   6.557   4.962
 8709SOL    HW127026   6.025   6.649   4.996
 8709SOL    HW227027   6.040   6.492   5.038
 8710SOL     OW27028   1.872   1.918   3.391
 8710SOL    HW127029   1.793   1.937   3.333
 8710SOL    HW227030   1.841   1.901   3.485
 8711SOL     OW27031   1.369   1.345   1.441
 8711SOL    HW127032   1.395   1.295   1.359
 8711SOL    HW227033   1.332   1.434   1.416
 8712SOL     OW27034   1.505   4.235   4.502
 8712SOL    HW127035   1.412   4.260   4.476
 8712SOL    HW227036   1.531   4.283   4.586
 8713SOL     OW27037   0.304   3.040   1.649
 8713SOL    HW127038   0.287   3.132   1.616
 8713SOL    HW227039   0.232   3.014   1.713
 8714SOL     OW27040   6.427   4.351   6.509
 8714SOL    HW127041   6.333   4.327   6.487
 8714SOL    HW227042   6.456   4.302   6.591
 8715SOL     OW27043   2.206   4.292   1.499
 8715SOL    HW127044   2.165   4.209   1.537
 8715SOL    HW227045   2.201   4.365   1.566
 8716SOL     OW27046   6.921   0.470   2.565
 8716SOL    HW127047   6.825   0.481   2.592
 8716SOL    HW227048   6.964   0.400   2.622
 8717SOL     OW27049   2.946   2.946   0.295
 8717SOL    HW127050   3.030   2.977   0.252
 8717SOL    HW227051   2.878   2.924   0.225
 8718SOL     OW27052   2.785   5.352   6.707
 8718SOL    HW127053   2.842   5.356   6.625
 8718SOL    HW227054   2.737   5.264   6.710
 8719SOL     OW27055   3.728   1.247   4.828
 8719SOL    HW127056   3.820   1.243   4.868
 8719SOL    HW227057   3.704   1.157   4.792
 8720SOL     OW27058   0.795   5.479   4.598
 8720SOL    HW127059   0.879   5.427   4.617
 8720SOL    HW227060   0.809   5.539   4.520
 8721SOL     OW27061   0.055   6.509   6.940
 8721SOL    HW127062   6.997   6.559   6.901
 8721SOL    HW227063   0.024   6.455   7.018
 8722SOL     OW27064   3.205   0.910   1.007
 8722SOL    HW127065   3.235   0.895   1.101
 8722SOL    HW227066   3.110   0.881   0.996
 8723SOL     OW27067   4.175   0.091   1.784
 8723SOL    HW127068   4.256   0.040   1.814
 8723SOL    HW227069   4.107   0.092   1.858
 8724SOL     OW27070   3.834   1.590   5.241
 8724SOL    HW127071   3.868   1.502   5.275
 8724SOL    HW227072   3.848   1.660   5.311
 8725SOL     OW27073   0.109   0.329   3.496
 8725SOL    HW127074   0.040   0.343   3.426
 8725SOL    HW227075   0.114   0.232   3.519
 8726SOL     OW27076   6.519   1.047   0.996
 8726SOL    HW127077   6.572   1.021   1.077
 8726SOL    HW227078   6.525   0.974   0.929
 8727SOL     OW27079   5.223   5.832   0.222
 8727SOL    HW127080   5.154   5.786   0.277
 8727SOL    HW227081   5.314   5.798   0.247
 8728SOL     OW27082   6.605   0.277   5.054
 8728SOL    HW127083   6.592   0.317   5.145
 8728SOL    HW227084   6.534   0.209   5.037
 8729SOL     OW27085   5.769   5.733   6.423
 8729SOL    HW127086   5.762   5.825   6.462
 8729SOL    HW227087   5.770   5.666   6.496
 8730SOL     OW27088   4.631   5.230   1.341
 8730SOL    HW127089   4.585   5.268   1.260
 8730SOL    HW227090   4.567   5.173   1.391
 8731SOL     OW27091   0.114   1.485   4.048
 8731SOL    HW127092   0.071   1.413   4.102
 8731SOL    HW227093   0.045   1.534   3.995
 8732SOL     OW27094   5.090   6.558   6.415
 8732SOL    HW127095   5.073   6.546   6.513
 8732SOL    HW227096   5.054   6.647   6.385
 8733SOL     OW27097   6.442   4.503   2.563
 8733SOL    HW127098   6.352   4.466   2.587
 8733SOL    HW227099   6.505   4.427   2.546
 8734SOL     OW27100   0.833   4.365   1.069
 8734SOL    HW127101   0.736   4.346   1.085
 8734SOL    HW227102   0.889   4.301   1.123
 8735SOL     OW27103   0.631   3.211   5.278
 8735SOL    HW127104   0.649   3.297   5.231
 8735SOL    HW227105   0.573   3.228   5.358
 8736SOL     OW27106   1.697   5.920   3.092
 8736SOL    HW127107   1.681   5.845   3.156
 8736SOL    HW227108   1.751   5.991   3.137
 8737SOL     OW27109   1.048   5.908   0.105
 8737SOL    HW127110   0.983   5.848   0.152
 8737SOL    HW227111   1.111   5.851   0.051
 8738SOL     OW27112   1.597   2.826   2.549
 8738SOL    HW127113   1.574   2.774   2.631
 8738SOL    HW227114   1.673   2.888   2.570
 8739SOL     OW27115   5.971   5.003   4.019
 8739SOL    HW127116   5.918   4.942   3.961
 8739SOL    HW227117   5.925   5.092   4.023
 8740SOL     OW27118   3.421   1.560   3.791
 8740SOL    HW127119   3.503   1.539   3.739
 8740SOL    HW227120   3.340   1.538   3.737
 8741SOL     OW27121   1.282   1.594   2.927
 8741SOL    HW127122   1.305   1.521   2.863
 8741SOL    HW227123   1.273   1.680   2.877
 8742SOL     OW27124   2.629   2.406   1.951
 8742SOL    HW127125   2.595   2.315   1.927
 8742SOL    HW227126   2.727   2.401   1.971
 8743SOL     OW27127   0.993   2.817   1.062
 8743SOL    HW127128   0.990   2.731   1.112
 8743SOL    HW227129   1.079   2.864   1.082
 8744SOL     OW27130   3.550   3.819   5.741
 8744SOL    HW127131   3.613   3.749   5.776
 8744SOL    HW227132   3.602   3.890   5.694
 8745SOL     OW27133   5.888   1.501   6.259
 8745SOL    HW127134   5.856   1.407   6.271
 8745SOL    HW227135   5.970   1.501   6.201
 8746SOL     OW27136   4.163   4.652   5.365
 8746SOL    HW127137   4.094   4.715   5.402
 8746SOL    HW227138   4.149   4.561   5.403
 8747SOL     OW27139   1.574   0.435   3.125
 8747SOL    HW127140   1.568   0.519   3.179
 8747SOL    HW227141   1.536   0.359   3.178
 8748SOL     OW27142   5.111   2.021   4.394
 8748SOL    HW127143   5.179   1.960   4.355
 8748SOL    HW227144   5.072   1.981   4.477
 8749SOL     OW27145   2.961   1.338   4.376
 8749SOL    HW127146   2.970   1.332   4.277
 8749SOL    HW227147   3.027   1.405   4.412
 8750SOL     OW27148   4.081   3.971   0.825
 8750SOL    HW127149   4.083   4.056   0.773
 8750SOL    HW227150   4.160   3.967   0.886
 8751SOL     OW27151   2.687   0.183   0.176
 8751SOL    HW127152   2.780   0.206   0.146
 8751SOL    HW227153   2.639   0.136   0.102
 8752SOL     OW27154   6.715   2.738   5.618
 8752SOL    HW127155   6.763   2.806   5.674
 8752SOL    HW227156   6.760   2.730   5.529
 8753SOL     OW27157   2.406   2.378   0.732
 8753SOL    HW127158   2.318   2.357   0.774
 8753SOL    HW227159   2.479   2.329   0.780
 8754SOL     OW27160   0.890   5.761   6.828
 8754SOL    HW127161   0.945   5.716   6.899
 8754SOL    HW227162   0.880   5.699   6.750
 8755SOL     OW27163   0.735   2.642   1.846
 8755SOL    HW127164   0.695   2.719   1.896
 8755SOL    HW227165   0.810   2.674   1.789
 8756SOL     OW27166   1.827   1.605   2.104
 8756SOL    HW127167   1.908   1.658   2.131
 8756SOL    HW227168   1.856   1.514   2.075
 8757SOL     OW27169   5.466   6.240   5.633
 8757SOL    HW127170   5.448   6.321   5.690
 8757SOL    HW227171   5.548   6.193   5.665
 8758SOL     OW27172   3.469   5.550   5.554
 8758SOL    HW127173   3.433   5.470   5.507
 8758SOL    HW227174   3.536   5.521   5.622
 8759SOL     OW27175   6.112   1.514   1.611
 8759SOL    HW127176   6.194   1.490   1.559
 8759SOL    HW227177   6.137   1.576   1.686
 8760SOL     OW27178   2.613   2.379   4.206
 8760SOL    HW127179   2.544   2.307   4.202
 8760SOL    HW227180   2.620   2.414   4.300
 8761SOL     OW27181   4.819   1.999   2.900
 8761SOL    HW127182   4.785   2.092   2.884
 8761SOL    HW227183   4.808   1.946   2.816
 8762SOL     OW27184   3.797   5.969   3.549
 8762SOL    HW127185   3.882   6.020   3.540
 8762SOL    HW227186   3.817   5.875   3.577
 8763SOL     OW27187   0.161   0.679   6.463
 8763SOL    HW127188   0.170   0.586   6.496
 8763SOL    HW227189   0.072   0.716   6.492
 8764SOL     OW27190   3.573   4.839   5.904
 8764SOL    HW127191   3.650   4.817   5.964
 8764SOL    HW227192   3.514   4.759   5.894
 8765SOL     OW27193   4.219   6.959   3.579
 8765SOL    HW127194   4.267   6.940   3.493
 8765SOL    HW227195   4.158   0.018   3.567
 8766SOL     OW27196   4.916   6.945   5.086
 8766SOL    HW127197   4.890   6.850   5.070
 8766SOL    HW227198   4.997   6.948   5.144
 8767SOL     OW27199   1.581   1.674   3.657
 8767SOL    HW127200   1.569   1.663   3.558
 8767SOL    HW227201   1.679   1.679   3.678
 8768SOL     OW27202   6.976   2.022   6.631
 8768SOL    HW127203   7.000   2.098   6.692
 8768SOL    HW227204   6.881   2.032   6.602
 8769SOL     OW27205   5.922   6.849   6.236
 8769SOL    HW127206   5.928   6.949   6.236
 8769SOL    HW227207   5.954   6.814   6.323
 8770SOL     OW27208   5.231   2.571   0.170
 8770SOL    HW127209   5.254   2.651   0.115
 8770SOL    HW227210   5.253   2.488   0.120
 8771SOL     OW27211   0.502   2.881   6.517
 8771SOL    HW127212   0.536   2.972   6.541
 8771SOL    HW227213   0.577   2.815   6.523
 8772SOL     OW27214   0.133   0.421   4.542
 8772SOL    HW127215   0.080   0.493   4.586
 8772SOL    HW227216   0.144   0.344   4.605
 8773SOL     OW27217   0.060   1.234   3.877
 8773SOL    HW127218   0.094   1.238   3.783
 8773SOL    HW227219   0.133   1.260   3.940
 8774SOL     OW27220   1.046   1.780   0.159
 8774SOL    HW127221   1.005   1.696   0.195
 8774SOL    HW227222   1.125   1.756   0.102
 8775SOL     OW27223   5.102   2.650   3.416
 8775SOL    HW127224   5.171   2.652   3.488
 8775SOL    HW227225   5.095   2.557   3.379
 8776SOL     OW27226   4.621   2.838   1.024
 8776SOL    HW127227   4.607   2.760   0.964
 8776SOL    HW227228   4.697   2.893   0.989
 8777SOL     OW27229   0.144   2.120   3.719
 8777SOL    HW127230   0.053   2.081   3.732
 8777SOL    HW227231   0.189   2.130   3.808
 8778SOL     OW27232   3.018   3.788   6.499
 8778SOL    HW127233   3.102   3.749   6.460
 8778SOL    HW227234   3.019   3.887   6.487
 8779SOL     OW27235   4.135   5.031   2.975
 8779SOL    HW127236   4.106   4.935   2.968
 8779SOL    HW227237   4.142   5.070   2.884
 8780SOL     OW27238   1.111   3.631   3.572
 8780SOL    HW127239   1.111   3.633   3.672
 8780SOL    HW227240   1.158   3.712   3.537
 8781SOL     OW27241   2.445   0.848   1.177
 8781SOL    HW127242   2.489   0.879   1.261
 8781SOL    HW227243   2.403   0.927   1.131
 8782SOL     OW27244   5.932   2.441   0.665
 8782SOL    HW127245   5.981   2.479   0.743
 8782SOL    HW227246   5.920   2.343   0.678
 8783SOL     OW27247   4.955   4.346   4.877
 8783SOL    HW127248   4.964   4.246   4.882
 8783SOL    HW227249   4.898   4.370   4.798
 8784SOL     OW27250   4.533   0.635   0.214
 8784SOL    HW127251   4.473   0.556   0.220
 8784SOL    HW227252   4.571   0.642   0.122
 8785SOL     OW27253   0.032   5.690   4.921
 8785SOL    HW127254   0.080   5.743   4.851
 8785SOL    HW227255   0.093   5.619   4.957
 8786SOL     OW27256   5.757   1.801   2.723
 8786SOL    HW127257   5.854   1.819   2.707
 8786SOL    HW227258   5.746   1.710   2.762
 8787SOL     OW27259   3.510   5.985   1.547
 8787SOL    HW127260   3.576   5.926   1.500
 8787SOL    HW227261   3.455   6.033   1.478
 8788SOL     OW27262   0.269   6.514   4.288
 8788SOL    HW127263   0.320   6.539   4.370
 8788SOL    HW227264   0.294   6.422   4.260
 8789SOL     OW27265   1.243   2.165   5.815
 8789SOL    HW127266   1.190   2.178   5.899
 8789SOL    HW227267   1.180   2.149   5.739
 8790SOL     OW27268   4.368   3.019   5.410
 8790SOL    HW127269   4.358   2.967   5.495
 8790SOL    HW227270   4.461   3.055   5.403
 8791SOL     OW27271   3.731   6.373   4.439
 8791SOL    HW127272   3.754   6.352   4.344
 8791SOL    HW227273   3.787   6.449   4.471
 8792SOL     OW27274   5.510   5.054   2.480
 8792SOL    HW127275   5.509   5.000   2.396
 8792SOL    HW227276   5.416   5.082   2.503
 8793SOL     OW27277   6.858   6.303   5.224
 8793SOL    HW127278   6.927   6.286   5.154
 8793SOL    HW227279   6.852   6.402   5.242
 8794SOL     OW27280   6.903   1.395   2.784
 8794SOL    HW127281   6.816   1.407   2.832
 8794SOL    HW227282   6.907   1.459   2.706
 8795SOL     OW27283   0.883   6.489   0.064
 8795SOL    HW127284   0.920   6.442   7.003
 8795SOL    HW227285   0.900   6.587   0.057
 8796SOL     OW27286   6.004   3.738   4.590
 8796SOL    HW127287   6.016   3.836   4.574
 8796SOL    HW227288   6.058   3.686   4.524
 8797SOL     OW27289   4.621   0.018   4.238
 8797SOL    HW127290   4.717   0.035   4.260
 8797SOL    HW227291   4.595   6.946   4.269
 8798SOL     OW27292   2.748   6.280   5.768
 8798SOL    HW127293   2.824   6.270   5.703
 8798SOL    HW227294   2.661   6.276   5.718
 8799SOL     OW27295   1.412   5.633   1.651
 8799SOL    HW127296   1.357   5.549   1.650
 8799SOL    HW227297   1.352   5.712   1.665
 8800SOL     OW27298   5.994   6.165   4.796
 8800SOL    HW127299   5.929   6.223   4.845
 8800SOL    HW227300   6.087   6.200   4.810
 8801SOL     OW27301   5.755   3.170   5.547
 8801SOL    HW127302   5.691   3.094   5.548
 8801SOL    HW227303   5.711   3.251   5.585
 8802SOL     OW27304   1.421   5.927   6.171
 8802SOL    HW127305   1.326   5.940   6.197
 8802SOL    HW227306   1.425   5.886   6.080
 8803SOL     OW27307   5.702   6.137   5.699
 8803SOL    HW127308   5.712   6.100   5.607
 8803SOL    HW227309   5.784   6.118   5.752
 8804SOL     OW27310   1.381   6.174   1.984
 8804SOL    HW127311   1.327   6.176   1.900
 8804SOL    HW227312   1.434   6.090   1.988
 8805SOL     OW27313   5.075   4.831   3.378
 8805SOL    HW127314   5.094   4.773   3.300
 8805SOL    HW227315   4.983   4.814   3.412
 8806SOL     OW27316   1.197   0.285   1.882
 8806SOL    HW127317   1.108   0.322   1.854
 8806SOL    HW227318   1.270   0.339   1.841
 8807SOL     OW27319   5.799   2.926   0.688
 8807SOL    HW127320   5.790   2.970   0.777
 8807SOL    HW227321   5.778   2.828   0.696
 8808SOL     OW27322   1.878   2.437   6.251
 8808SOL    HW127323   1.840   2.356   6.295
 8808SOL    HW227324   1.972   2.418   6.223
 8809SOL     OW27325   6.997   3.501   3.095
 8809SOL    HW127326   0.032   3.542   3.168
 8809SOL    HW227327   6.911   3.466   3.133
 8810SOL     OW27328   0.518   1.616   5.000
 8810SOL    HW127329   0.456   1.565   4.940
 8810SOL    HW227330   0.533   1.708   4.962
 8811SOL     OW27331   4.200   4.684   2.639
 8811SOL    HW127332   4.156   4.696   2.550
 8811SOL    HW227333   4.251   4.768   2.661
 8812SOL     OW27334   4.987   1.027   6.831
 8812SOL    HW127335   5.046   1.022   6.750
 8812SOL    HW227336   5.033   0.985   6.909
 8813SOL     OW27337   2.019   3.095   3.123
 8813SOL    HW127338   2.034   3.193   3.129
 8813SOL    HW227339   1.991   3.071   3.030
 8814SOL     OW27340   5.044   0.237   5.124
 8814SOL    HW127341   5.141   0.222   5.107
 8814SOL    HW227342   4.992   0.204   5.045
 8815SOL     OW27343   5.619   0.855   1.264
 8815SOL    HW127344   5.583   0.835   1.355
 8815SOL    HW227345   5.637   0.953   1.256
 8816SOL     OW27346   1.010   6.617   4.282
 8816SOL    HW127347   0.948   6.583   4.353
 8816SOL    HW227348   1.064   6.541   4.246
 8817SOL     OW27349   1.252   2.694   2.950
 8817SOL    HW127350   1.229   2.775   2.897
 8817SOL    HW227351   1.196   2.691   3.033
 8818SOL     OW27352   0.992   6.806   6.120
 8818SOL    HW127353   1.074   6.763   6.158
 8818SOL    HW227354   0.931   6.834   6.193
 8819SOL     OW27355   4.371   5.559   6.307
 8819SOL    HW127356   4.468   5.545   6.288
 8819SOL    HW227357   4.358   5.565   6.406
 8820SOL     OW27358   4.336   6.769   5.591
 8820SOL    HW127359   4.348   6.799   5.686
 8820SOL    HW227360   4.409   6.706   5.566
 8821SOL     OW27361   0.278   4.572   6.119
 8821SOL    HW127362   0.291   4.528   6.030
 8821SOL    HW227363   0.188   4.615   6.122
 8822SOL     OW27364   6.317   0.471   5.237
 8822SOL    HW127365   6.300   0.554   5.289
 8822SOL    HW227366   6.240   0.408   5.249
 8823SOL     OW27367   3.695   1.651   2.907
 8823SOL    HW127368   3.641   1.732   2.885
 8823SOL    HW227369   3.791   1.666   2.881
 8824SOL     OW27370   1.930   6.946   3.213
 8824SOL    HW127371   1.878   6.920   3.294
 8824SOL    HW227372   1.867   6.963   3.137
 8825SOL     OW27373   0.142   0.160   0.525
 8825SOL    HW127374   0.188   0.101   0.592
 8825SOL    HW227375   0.208   0.223   0.484
 8826SOL     OW27376   0.207   4.863   1.291
 8826SOL    HW127377   0.213   4.779   1.237
 8826SOL    HW227378   0.287   4.869   1.352
 8827SOL     OW27379   4.544   6.835   3.145
 8827SOL    HW127380   4.570   6.744   3.114
 8827SOL    HW227381   4.542   6.898   3.068
 8828SOL     OW27382   5.096   2.327   6.323
 8828SOL    HW127383   5.154   2.407   6.309
 8828SOL    HW227384   5.002   2.356   6.339
 8829SOL     OW27385   0.269   1.147   3.013
 8829SOL    HW127386   0.242   1.235   2.974
 8829SOL    HW227387   0.271   1.077   2.940
 8830SOL     OW27388   3.344   0.423   3.798
 8830SOL    HW127389   3.388   0.337   3.773
 8830SOL    HW227390   3.245   0.409   3.806
 8831SOL     OW27391   0.112   3.020   2.501
 8831SOL    HW127392   0.047   2.981   2.567
 8831SOL    HW227393   0.135   3.113   2.529
 8832SOL     OW27394   5.450   0.094   5.951
 8832SOL    HW127395   5.447   0.144   6.037
 8832SOL    HW227396   5.523   0.025   5.956
 8833SOL     OW27397   5.172   2.179   1.024
 8833SOL    HW127398   5.112   2.228   1.088
 8833SOL    HW227399   5.128   2.094   0.996
 8834SOL     OW27400   5.627   4.099   5.883
 8834SOL    HW127401   5.574   4.151   5.949
 8834SOL    HW227402   5.725   4.110   5.903
 8835SOL     OW27403   0.026   0.728   5.179
 8835SOL    HW127404   0.014   0.819   5.217
 8835SOL    HW227405   0.121   0.698   5.191
 8836SOL     OW27406   4.597   1.559   1.405
 8836SOL    HW127407   4.682   1.548   1.456
 8836SOL    HW227408   4.542   1.632   1.446
 8837SOL     OW27409   4.640   6.506   0.686
 8837SOL    HW127410   4.688   6.486   0.772
 8837SOL    HW227411   4.544   6.480   0.695
 8838SOL     OW27412   1.870   3.405   3.622
 8838SOL    HW127413   1.968   3.408   3.641
 8838SOL    HW227414   1.835   3.313   3.640
 8839SOL     OW27415   4.979   5.700   1.602
 8839SOL    HW127416   5.031   5.631   1.551
 8839SOL    HW227417   5.006   5.699   1.698
 8840SOL     OW27418   6.207   0.881   0.808
 8840SOL    HW127419   6.194   0.805   0.744
 8840SOL    HW227420   6.303   0.885   0.836
 8841SOL     OW27421   3.262   1.628   0.713
 8841SOL    HW127422   3.355   1.610   0.744
 8841SOL    HW227423   3.237   1.564   0.640
 8842SOL     OW27424   3.175   3.527   4.258
 8842SOL    HW127425   3.273   3.542   4.244
 8842SOL    HW227426   3.157   3.514   4.355
 8843SOL     OW27427   2.399   5.451   5.490
 8843SOL    HW127428   2.407   5.361   5.533
 8843SOL    HW227429   2.385   5.521   5.561
 8844SOL     OW27430   3.367   2.479   6.369
 8844SOL    HW127431   3.354   2.573   6.338
 8844SOL    HW227432   3.444   2.475   6.432
 8845SOL     OW27433   0.730   3.373   2.140
 8845SOL    HW127434   0.686   3.335   2.059
 8845SOL    HW227435   0.813   3.321   2.160
 8846SOL     OW27436   5.511   4.674   4.414
 8846SOL    HW127437   5.582   4.606   4.434
 8846SOL    HW227438   5.503   4.738   4.490
 8847SOL     OW27439   1.085   2.352   3.942
 8847SOL    HW127440   1.147   2.428   3.962
 8847SOL    HW227441   1.137   2.267   3.938
 8848SOL     OW27442   5.731   1.637   0.498
 8848SOL    HW127443   5.719   1.550   0.451
 8848SOL    HW227444   5.686   1.710   0.446
 8849SOL     OW27445   3.438   5.148   4.517
 8849SOL    HW127446   3.513   5.122   4.457
 8849SOL    HW227447   3.390   5.065   4.548
 8850SOL     OW27448   3.138   1.577   1.436
 8850SOL    HW127449   3.192   1.502   1.397
 8850SOL    HW227450   3.188   1.617   1.513
 8851SOL     OW27451   6.888   5.138   2.716
 8851SOL    HW127452   6.789   5.147   2.729
 8851SOL    HW227453   6.915   5.192   2.636
 8852SOL     OW27454   4.588   2.509   4.623
 8852SOL    HW127455   4.574   2.607   4.634
 8852SOL    HW227456   4.501   2.465   4.599
 8853SOL     OW27457   4.721   1.770   5.613
 8853SOL    HW127458   4.710   1.868   5.630
 8853SOL    HW227459   4.736   1.722   5.699
 8854SOL     OW27460   1.642   1.260   6.633
 8854SOL    HW127461   1.694   1.320   6.694
 8854SOL    HW227462   1.642   1.298   6.541
 8855SOL     OW27463   6.629   4.893   0.024
 8855SOL    HW127464   6.578   4.849   0.098
 8855SOL    HW227465   6.601   4.989   0.016
 8856SOL     OW27466   5.137   1.096   5.091
 8856SOL    HW127467   5.048   1.141   5.098
 8856SOL    HW227468   5.143   1.023   5.160
 8857SOL     OW27469   0.461   2.787   4.870
 8857SOL    HW127470   0.374   2.832   4.850
 8857SOL    HW227471   0.478   2.789   4.969
 8858SOL     OW27472   6.833   4.103   5.656
 8858SOL    HW127473   6.786   4.181   5.614
 8858SOL    HW227474   6.926   4.097   5.622
 8859SOL     OW27475   2.921   5.818   5.448
 8859SOL    HW127476   2.870   5.899   5.419
 8859SOL    HW227477   3.010   5.845   5.485
 8860SOL     OW27478   1.871   1.882   1.498
 8860SOL    HW127479   1.818   1.808   1.537
 8860SOL    HW227480   1.930   1.922   1.569
 8861SOL     OW27481   2.401   3.029   1.309
 8861SOL    HW127482   2.403   2.931   1.325
 8861SOL    HW227483   2.469   3.053   1.238
 8862SOL     OW27484   6.551   2.160   4.994
 8862SOL    HW127485   6.512   2.232   4.936
 8862SOL    HW227486   6.576   2.199   5.083
 8863SOL     OW27487   0.960   5.404   5.285
 8863SOL    HW127488   0.949   5.499   5.255
 8863SOL    HW227489   1.036   5.362   5.235
 8864SOL     OW27490   1.402   3.499   5.996
 8864SOL    HW127491   1.441   3.503   6.087
 8864SOL    HW227492   1.465   3.453   5.934
 8865SOL     OW27493   2.104   2.156   5.613
 8865SOL    HW127494   2.198   2.147   5.579
 8865SOL    HW227495   2.096   2.239   5.668
 8866SOL     OW27496   4.687   6.670   5.903
 8866SOL    HW127497   4.588   6.666   5.894
 8866SOL    HW227498   4.727   6.585   5.870
 8867SOL     OW27499   6.641   1.724   3.710
 8867SOL    HW127500   6.589   1.782   3.774
 8867SOL    HW227501   6.703   1.781   3.657
 8868SOL     OW27502   4.891   3.405   1.202
 8868SOL    HW127503   4.950   3.394   1.282
 8868SOL    HW227504   4.812   3.461   1.226
 8869SOL     OW27505   4.601   2.588   3.791
 8869SOL    HW127506   4.650   2.667   3.753
 8869SOL    HW227507   4.635   2.504   3.749
 8870SOL     OW27508   4.593   1.161   1.729
 8870SOL    HW127509   4.504   1.125   1.700
 8870SOL    HW227510   4.618   1.120   1.816
 8871SOL     OW27511   0.993   2.641   4.394
 8871SOL    HW127512   1.004   2.678   4.486
 8871SOL    HW227513   1.023   2.709   4.327
 8872SOL     OW27514   2.077   2.905   3.392
 8872SOL    HW127515   2.021   2.942   3.318
 8872SOL    HW227516   2.098   2.809   3.372
 8873SOL     OW27517   6.985   6.229   4.995
 8873SOL    HW127518   6.955   6.323   4.978
 8873SOL    HW227519   0.023   6.198   4.920
 8874SOL     OW27520   0.879   1.376   6.887
 8874SOL    HW127521   0.839   1.343   6.802
 8874SOL    HW227522   0.810   1.374   6.959
 8875SOL     OW27523   1.760   1.244   3.913
 8875SOL    HW127524   1.853   1.246   3.949
 8875SOL    HW227525   1.695   1.265   3.987
 8876SOL     OW27526   2.518   1.057   5.020
 8876SOL    HW127527   2.603   1.010   5.041
 8876SOL    HW227528   2.532   1.156   5.026
 8877SOL     OW27529   2.904   6.136   4.575
 8877SOL    HW127530   2.866   6.164   4.487
 8877SOL    HW227531   3.003   6.146   4.573
 8878SOL     OW27532   5.467   4.384   5.511
 8878SOL    HW127533   5.547   4.442   5.499
 8878SOL    HW227534   5.426   4.364   5.422
 8879SOL     OW27535   4.538   5.738   4.864
 8879SOL    HW127536   4.458   5.685   4.892
 8879SOL    HW227537   4.597   5.682   4.806
 8880SOL     OW27538   6.873   5.950   5.959
 8880SOL    HW127539   6.792   5.910   5.917
 8880SOL    HW227540   6.939   5.877   5.979
 8881SOL     OW27541   0.180   0.407   1.521
 8881SOL    HW127542   0.146   0.412   1.616
 8881SOL    HW227543   0.227   0.321   1.507
 8882SOL     OW27544   5.380   1.952   6.498
 8882SOL    HW127545   5.319   1.873   6.499
 8882SOL    HW227546   5.330   2.032   6.464
 8883SOL     OW27547   0.292   1.024   5.407
 8883SOL    HW127548   0.355   0.953   5.377
 8883SOL    HW227549   0.336   1.080   5.477
 8884SOL     OW27550   6.844   0.887   5.430
 8884SOL    HW127551   6.923   0.925   5.477
 8884SOL    HW227552   6.820   0.799   5.471
 8885SOL     OW27553   5.456   3.778   1.423
 8885SOL    HW127554   5.367   3.821   1.411
 8885SOL    HW227555   5.470   3.759   1.521
 8886SOL     OW27556   2.860   6.133   6.310
 8886SOL    HW127557   2.930   6.077   6.267
 8886SOL    HW227558   2.776   6.079   6.318
 8887SOL     OW27559   2.010   0.241   1.164
 8887SOL    HW127560   2.084   0.304   1.144
 8887SOL    HW227561   2.047   0.158   1.206
 8888SOL     OW27562   3.482   1.825   3.363
 8888SOL    HW127563   3.414   1.811   3.434
 8888SOL    HW227564   3.489   1.923   3.342
 8889SOL     OW27565   3.248   6.631   4.842
 8889SOL    HW127566   3.345   6.650   4.858
 8889SOL    HW227567   3.223   6.545   4.884
 8890SOL     OW27568   1.271   4.371   3.761
 8890SOL    HW127569   1.276   4.408   3.668
 8890SOL    HW227570   1.362   4.344   3.792
 8891SOL     OW27571   2.329   1.857   6.779
 8891SOL    HW127572   2.309   1.813   6.866
 8891SOL    HW227573   2.327   1.956   6.790
 8892SOL     OW27574   1.236   6.831   2.572
 8892SOL    HW127575   1.320   6.786   2.540
 8892SOL    HW227576   1.256   6.926   2.595
 8893SOL     OW27577   0.475   1.296   1.125
 8893SOL    HW127578   0.455   1.211   1.175
 8893SOL    HW227579   0.496   1.369   1.190
 8894SOL     OW27580   3.844   2.673   6.408
 8894SOL    HW127581   3.761   2.725   6.387
 8894SOL    HW227582   3.865   2.682   6.505
 8895SOL     OW27583   1.384   0.975   1.919
 8895SOL    HW127584   1.290   1.003   1.904
 8895SOL    HW227585   1.400   0.961   2.017
 8896SOL     OW27586   2.132   4.175   4.909
 8896SOL    HW127587   2.207   4.133   4.960
 8896SOL    HW227588   2.145   4.274   4.907
 8897SOL     OW27589   1.433   1.872   1.346
 8897SOL    HW127590   1.401   1.818   1.423
 8897SOL    HW227591   1.355   1.911   1.297
 8898SOL     OW27592   6.873   3.132   4.772
 8898SOL    HW127593   6.956   3.185   4.787
 8898SOL    HW227594   6.827   3.117   4.859
 8899SOL     OW27595   3.106   4.723   0.233
 8899SOL    HW127596   3.155   4.667   0.166
 8899SOL    HW227597   3.151   4.715   0.322
 8900SOL     OW27598   6.437   1.763   3.285
 8900SOL    HW127599   6.428   1.664   3.274
 8900SOL    HW227600   6.456   1.805   3.196
 8901SOL     OW27601   2.052   6.547   1.711
 8901SOL    HW127602   2.060   6.583   1.618
 8901SOL    HW227603   1.959   6.514   1.726
 8902SOL     OW27604   3.059   5.387   5.412
 8902SOL    HW127605   3.091   5.350   5.325
 8902SOL    HW227606   2.967   5.353   5.431
 8903SOL     OW27607   0.705   1.441   4.005
 8903SOL    HW127608   0.694   1.341   4.008
 8903SOL    HW227609   0.790   1.463   3.956
 8904SOL     OW27610   1.398   5.578   3.416
 8904SOL    HW127611   1.439   5.515   3.482
 8904SOL    HW227612   1.438   5.562   3.326
 8905SOL     OW27613   2.327   4.293   5.200
 8905SOL    HW127614   2.333   4.340   5.112
 8905SOL    HW227615   2.315   4.195   5.184
 8906SOL     OW27616   1.414   4.979   4.715
 8906SOL    HW127617   1.452   4.888   4.728
 8906SOL    HW227618   1.485   5.048   4.733
 8907SOL     OW27619   3.818   2.581   6.071
 8907SOL    HW127620   3.855   2.493   6.101
 8907SOL    HW227621   3.725   2.592   6.105
 8908SOL     OW27622   0.305   2.937   2.091
 8908SOL    HW127623   0.224   2.971   2.140
 8908SOL    HW227624   0.279   2.863   2.030
 8909SOL     OW27625   2.543   6.270   5.577
 8909SOL    HW127626   2.576   6.339   5.512
 8909SOL    HW227627   2.489   6.201   5.528
 8910SOL     OW27628   3.641   3.142   6.417
 8910SOL    HW127629   3.594   3.170   6.333
 8910SOL    HW227630   3.643   3.218   6.481
 8911SOL     OW27631   4.578   2.219   3.737
 8911SOL    HW127632   4.662   2.269   3.714
 8911SOL    HW227633   4.584   2.186   3.831
 8912SOL     OW27634   4.969   1.914   6.034
 8912SOL    HW127635   5.032   1.865   5.974
 8912SOL    HW227636   5.016   1.993   6.075
 8913SOL     OW27637   4.657   4.131   0.882
 8913SOL    HW127638   4.708   4.067   0.941
 8913SOL    HW227639   4.564   4.098   0.870
 8914SOL     OW27640   4.669   1.849   3.144
 8914SOL    HW127641   4.731   1.924   3.122
 8914SOL    HW227642   4.581   1.886   3.175
 8915SOL     OW27643   1.057   5.310   1.777
 8915SOL    HW127644   1.096   5.218   1.780
 8915SOL    HW227645   1.055   5.349   1.870
 8916SOL     OW27646   6.446   3.571   1.825
 8916SOL    HW127647   6.466   3.483   1.868
 8916SOL    HW227648   6.508   3.585   1.748
 8917SOL     OW27649   5.818   5.631   6.142
 8917SOL    HW127650   5.843   5.535   6.156
 8917SOL    HW227651   5.797   5.673   6.230
 8918SOL     OW27652   5.083   4.495   6.047
 8918SOL    HW127653   5.028   4.515   6.128
 8918SOL    HW227654   5.124   4.404   6.056
 8919SOL     OW27655   2.524   3.909   1.300
 8919SOL    HW127656   2.537   3.858   1.215
 8919SOL    HW227657   2.563   4.000   1.291
 8920SOL     OW27658   6.138   5.407   5.430
 8920SOL    HW127659   6.187   5.374   5.510
 8920SOL    HW227660   6.121   5.331   5.368
 8921SOL     OW27661   1.424   5.788   3.616
 8921SOL    HW127662   1.431   5.732   3.699
 8921SOL    HW227663   1.401   5.731   3.538
 8922SOL     OW27664   6.631   4.665   6.855
 8922SOL    HW127665   6.720   4.620   6.865
 8922SOL    HW227666   6.624   4.740   6.921
 8923SOL     OW27667   1.988   4.344   4.659
 8923SOL    HW127668   1.950   4.258   4.624
 8923SOL    HW227669   1.916   4.414   4.661
 8924SOL     OW27670   2.838   5.704   5.204
 8924SOL    HW127671   2.759   5.708   5.266
 8924SOL    HW227672   2.922   5.722   5.255
 8925SOL     OW27673   5.460   6.778   1.468
 8925SOL    HW127674   5.382   6.754   1.525
 8925SOL    HW227675   5.489   6.698   1.415
 8926SOL     OW27676   4.873   1.396   0.108
 8926SOL    HW127677   4.840   1.302   0.101
 8926SOL    HW227678   4.959   1.404   0.056
 8927SOL     OW27679   2.685   1.462   4.363
 8927SOL    HW127680   2.669   1.477   4.265
 8927SOL    HW227681   2.754   1.391   4.375
 8928SOL     OW27682   0.987   6.882   4.489
 8928SOL    HW127683   1.056   6.871   4.417
 8928SOL    HW227684   1.024   6.847   4.575
 8929SOL     OW27685   5.209   4.546   4.277
 8929SOL    HW127686   5.262   4.465   4.253
 8929SOL    HW227687   5.270   4.616   4.315
 8930SOL     OW27688   1.311   5.010   5.117
 8930SOL    HW127689   1.359   4.925   5.094
 8930SOL    HW227690   1.213   4.995   5.117
 8931SOL     OW27691   5.347   1.064   1.495
 8931SOL    HW127692   5.310   0.988   1.549
 8931SOL    HW227693   5.442   1.079   1.521
 8932SOL     OW27694   6.744   0.757   6.934
 8932SOL    HW127695   6.756   0.856   6.923
 8932SOL    HW227696   6.818   0.721   6.991
 8933SOL     OW27697   1.390   0.528   5.270
 8933SOL    HW127698   1.476   0.479   5.278
 8933SOL    HW227699   1.393   0.587   5.189
 8934SOL     OW27700   4.852   6.533   3.192
 8934SOL    HW127701   4.854   6.463   3.263
 8934SOL    HW227702   4.797   6.501   3.115
 8935SOL     OW27703   5.887   2.328   2.642
 8935SOL    HW127704   5.849   2.243   2.607
 8935SOL    HW227705   5.815   2.398   2.647
 8936SOL     OW27706   1.847   3.513   2.904
 8936SOL    HW127707   1.814   3.528   2.997
 8936SOL    HW227708   1.802   3.433   2.865
 8937SOL     OW27709   4.238   0.284   5.388
 8937SOL    HW127710   4.295   0.330   5.456
 8937SOL    HW227711   4.240   0.185   5.404
 8938SOL     OW27712   5.914   6.699   2.011
 8938SOL    HW127713   6.002   6.677   1.967
 8938SOL    HW227714   5.883   6.789   1.981
 8939SOL     OW27715   0.610   2.378   4.255
 8939SOL    HW127716   0.679   2.429   4.305
 8939SOL    HW227717   0.519   2.403   4.289
 8940SOL     OW27718   6.315   3.102   1.628
 8940SOL    HW127719   6.299   3.191   1.672
 8940SOL    HW227720   6.342   3.035   1.697
 8941SOL     OW27721   5.100   1.956   2.824
 8941SOL    HW127722   5.183   2.010   2.836
 8941SOL    HW227723   5.020   2.015   2.834
 8942SOL     OW27724   4.952   4.546   4.195
 8942SOL    HW127725   4.927   4.544   4.099
 8942SOL    HW227726   5.052   4.542   4.204
 8943SOL     OW27727   4.508   2.603   0.881
 8943SOL    HW127728   4.453   2.621   0.799
 8943SOL    HW227729   4.456   2.546   0.944
 8944SOL     OW27730   4.867   5.590   5.347
 8944SOL    HW127731   4.886   5.682   5.314
 8944SOL    HW227732   4.947   5.554   5.395
 8945SOL     OW27733   5.991   3.946   2.705
 8945SOL    HW127734   5.939   3.994   2.635
 8945SOL    HW227735   5.937   3.940   2.789
 8946SOL     OW27736   4.560   0.873   5.507
 8946SOL    HW127737   4.539   0.777   5.525
 8946SOL    HW227738   4.565   0.888   5.409
 8947SOL     OW27739   1.934   4.415   6.823
 8947SOL    HW127740   1.879   4.403   6.906
 8947SOL    HW227741   1.929   4.510   6.794
 8948SOL     OW27742   5.624   1.016   2.582
 8948SOL    HW127743   5.610   1.025   2.680
 8948SOL    HW227744   5.697   1.078   2.553
 8949SOL     OW27745   4.076   6.226   0.920
 8949SOL    HW127746   4.071   6.282   0.838
 8949SOL    HW227747   4.169   6.227   0.956
 8950SOL     OW27748   3.383   3.481   2.229
 8950SOL    HW127749   3.286   3.456   2.232
 8950SOL    HW227750   3.432   3.415   2.172
 8951SOL     OW27751   1.550   0.331   4.760
 8951SOL    HW127752   1.607   0.249   4.765
 8951SOL    HW227753   1.463   0.313   4.805
 8952SOL     OW27754   1.101   4.599   4.150
 8952SOL    HW127755   1.011   4.588   4.192
 8952SOL    HW227756   1.151   4.513   4.155
 8953SOL     OW27757   0.713   4.978   1.411
 8953SOL    HW127758   0.807   5.009   1.423
 8953SOL    HW227759   0.663   4.987   1.497
 8954SOL     OW27760   2.160   4.463   5.349
 8954SOL    HW127761   2.244   4.415   5.325
 8954SOL    HW227762   2.145   4.538   5.284
 8955SOL     OW27763   5.625   2.617   4.837
 8955SOL    HW127764   5.609   2.530   4.884
 8955SOL    HW227765   5.546   2.639   4.779
 8956SOL     OW27766   0.625   5.971   1.117
 8956SOL    HW127767   0.547   5.944   1.174
 8956SOL    HW227768   0.696   6.010   1.175
 8957SOL     OW27769   1.258   5.936   2.671
 8957SOL    HW127770   1.328   5.954   2.740
 8957SOL    HW227771   1.291   5.869   2.605
 8958SOL     OW27772   1.043   4.274   5.000
 8958SOL    HW127773   0.972   4.205   4.986
 8958SOL    HW227774   1.129   4.242   4.959
 8959SOL     OW27775   5.684   2.142   3.730
 8959SOL    HW127776   5.693   2.068   3.796
 8959SOL    HW227777   5.761   2.204   3.739
 8960SOL     OW27778   4.782   5.019   3.183
 8960SOL    HW127779   4.739   5.087   3.124
 8960SOL    HW227780   4.880   5.039   3.192
 8961SOL     OW27781   2.825   1.777   4.820
 8961SOL    HW127782   2.812   1.698   4.880
 8961SOL    HW227783   2.883   1.845   4.865
 8962SOL     OW27784   6.397   5.538   2.255
 8962SOL    HW127785   6.451   5.470   2.305
 8962SOL    HW227786   6.336   5.491   2.190
 8963SOL     OW27787   3.283   6.419   6.315
 8963SOL    HW127788   3.290   6.349   6.244
 8963SOL    HW227789   3.316   6.383   6.402
 8964SOL     OW27790   2.060   3.203   4.236
 8964SOL    HW127791   2.060   3.267   4.313
 8964SOL    HW227792   2.137   3.140   4.245
 8965SOL     OW27793   3.514   5.390   0.248
 8965SOL    HW127794   3.497   5.298   0.213
 8965SOL    HW227795   3.428   5.440   0.254
 8966SOL     OW27796   5.330   6.848   5.051
 8966SOL    HW127797   5.376   6.884   4.969
 8966SOL    HW227798   5.232   6.847   5.035
 8967SOL     OW27799   3.128   0.206   3.453
 8967SOL    HW127800   3.091   0.277   3.393
 8967SOL    HW227801   3.098   0.116   3.420
 8968SOL     OW27802   3.909   4.894   2.228
 8968SOL    HW127803   3.811   4.900   2.208
 8968SOL    HW227804   3.949   4.986   2.225
 8969SOL     OW27805   0.675   0.641   3.226
 8969SOL    HW127806   0.765   0.601   3.243
 8969SOL    HW227807   0.657   0.712   3.295
 8970SOL     OW27808   1.981   1.076   3.559
 8970SOL    HW127809   1.900   1.127   3.589
 8970SOL    HW227810   2.060   1.105   3.613
 8971SOL     OW27811   3.039   4.384   1.002
 8971SOL    HW127812   3.102   4.460   1.009
 8971SOL    HW227813   3.025   4.360   0.906
 8972SOL     OW27814   5.087   4.218   6.767
 8972SOL    HW127815   5.080   4.287   6.695
 8972SOL    HW227816   5.180   4.179   6.766
 8973SOL     OW27817   2.167   2.451   3.324
 8973SOL    HW127818   2.244   2.483   3.378
 8973SOL    HW227819   2.094   2.520   3.327
 8974SOL     OW27820   2.003   4.244   3.843
 8974SOL    HW127821   2.038   4.305   3.914
 8974SOL    HW227822   2.067   4.168   3.830
 8975SOL     OW27823   6.674   4.780   5.792
 8975SOL    HW127824   6.641   4.714   5.861
 8975SOL    HW227825   6.659   4.743   5.701
 8976SOL     OW27826   6.136   0.072   2.178
 8976SOL    HW127827   6.077   0.138   2.131
 8976SOL    HW227828   6.104   0.058   2.271
 8977SOL     OW27829   6.130   4.478   6.732
 8977SOL    HW127830   6.098   4.549   6.669
 8977SOL    HW227831   6.228   4.463   6.718
 8978SOL     OW27832   6.108   5.747   6.850
 8978SOL    HW127833   6.129   5.720   6.756
 8978SOL    HW227834   6.193   5.749   6.903
 8979SOL     OW27835   1.651   4.886   3.847
 8979SOL    HW127836   1.688   4.795   3.870
 8979SOL    HW227837   1.718   4.956   3.871
 8980SOL     OW27838   3.506   0.549   0.409
 8980SOL    HW127839   3.599   0.511   0.409
 8980SOL    HW227840   3.510   0.645   0.439
 8981SOL     OW27841   4.123   2.854   6.607
 8981SOL    HW127842   4.128   2.903   6.694
 8981SOL    HW227843   4.119   2.920   6.532
 8982SOL     OW27844   0.148   1.546   1.775
 8982SOL    HW127845   0.112   1.516   1.686
 8982SOL    HW227846   0.149   1.469   1.839
 8983SOL     OW27847   1.679   6.729   1.722
 8983SOL    HW127848   1.607   6.726   1.653
 8983SOL    HW227849   1.722   6.820   1.721
 8984SOL     OW27850   6.723   1.283   4.983
 8984SOL    HW127851   6.797   1.216   4.988
 8984SOL    HW227852   6.695   1.295   4.887
 8985SOL     OW27853   5.121   1.291   2.448
 8985SOL    HW127854   5.212   1.287   2.488
 8985SOL    HW227855   5.099   1.385   2.424
 8986SOL     OW27856   6.528   4.969   0.567
 8986SOL    HW127857   6.563   4.907   0.497
 8986SOL    HW227858   6.604   5.018   0.610
 8987SOL     OW27859   2.134   6.656   1.477
 8987SOL    HW127860   2.219   6.604   1.467
 8987SOL    HW227861   2.098   6.679   1.386
 8988SOL     OW27862   2.939   6.969   0.939
 8988SOL    HW127863   3.007   6.972   1.012
 8988SOL    HW227864   2.959   0.021   0.872
 8989SOL     OW27865   5.851   1.810   2.307
 8989SOL    HW127866   5.817   1.831   2.215
 8989SOL    HW227867   5.797   1.860   2.374
 8990SOL     OW27868   3.474   0.613   2.948
 8990SOL    HW127869   3.571   0.602   2.970
 8990SOL    HW227870   3.453   0.710   2.936
 8991SOL     OW27871   1.346   2.654   0.443
 8991SOL    HW127872   1.429   2.710   0.444
 8991SOL    HW227873   1.346   2.594   0.363
 8992SOL     OW27874   6.155   4.259   6.424
 8992SOL    HW127875   6.055   4.266   6.433
 8992SOL    HW227876   6.185   4.311   6.344
 8993SOL     OW27877   5.213   4.045   5.139
 8993SOL    HW127878   5.245   4.073   5.048
 8993SOL    HW227879   5.147   4.112   5.173
 8994SOL     OW27880   1.664   6.395   2.531
 8994SOL    HW127881   1.629   6.337   2.604
 8994SOL    HW227882   1.633   6.359   2.442
 8995SOL     OW27883   2.047   3.835   4.494
 8995SOL    HW127884   2.043   3.895   4.573
 8995SOL    HW227885   1.961   3.784   4.486
 8996SOL     OW27886   1.612   3.981   1.512
 8996SOL    HW127887   1.694   3.926   1.495
 8996SOL    HW227888   1.564   3.946   1.592
 8997SOL     OW27889   4.627   1.001   5.769
 8997SOL    HW127890   4.566   1.068   5.812
 8997SOL    HW227891   4.610   0.999   5.670
 8998SOL     OW27892   0.955   1.438   6.212
 8998SOL    HW127893   0.913   1.504   6.149
 8998SOL    HW227894   0.884   1.390   6.262
 8999SOL     OW27895   5.140   2.029   5.141
 8999SOL    HW127896   5.090   1.942   5.141
 8999SOL    HW227897   5.238   2.010   5.135
 9000SOL     OW27898   3.070   4.884   0.655
 9000SOL    HW127899   3.145   4.843   0.604
 9000SOL    HW227900   3.094   4.891   0.751
 9001SOL     OW27901   2.067   4.144   3.470
 9001SOL    HW127902   2.156   4.104   3.491
 9001SOL    HW227903   2.068   4.178   3.376
 9002SOL     OW27904   5.428   4.109   5.360
 9002SOL    HW127905   5.344   4.066   5.394
 9002SOL    HW227906   5.499   4.102   5.429
 9003SOL     OW27907   6.101   3.104   6.519
 9003SOL    HW127908   6.072   3.101   6.423
 9003SOL    HW227909   6.090   3.196   6.555
 9004SOL     OW27910   4.873   5.443   0.683
 9004SOL    HW127911   4.867   5.519   0.618
 9004SOL    HW227912   4.925   5.368   0.642
 9005SOL     OW27913   4.712   2.636   3.108
 9005SOL    HW127914   4.728   2.725   3.149
 9005SOL    HW227915   4.799   2.586   3.101
 9006SOL     OW27916   2.190   6.917   0.852
 9006SOL    HW127917   2.165   6.973   0.773
 9006SOL    HW227918   2.289   6.921   0.865
 9007SOL     OW27919   2.423   6.442   4.547
 9007SOL    HW127920   2.492   6.369   4.542
 9007SOL    HW227921   2.416   6.476   4.641
 9008SOL     OW27922   0.281   4.156   2.119
 9008SOL    HW127923   0.296   4.110   2.031
 9008SOL    HW227924   0.305   4.093   2.193
 9009SOL     OW27925   4.407   6.414   0.485
 9009SOL    HW127926   4.470   6.339   0.465
 9009SOL    HW227927   4.398   6.424   0.584
 9010SOL     OW27928   0.215   5.494   5.027
 9010SOL    HW127929   0.306   5.470   4.990
 9010SOL    HW227930   0.202   5.448   5.115
 9011SOL     OW27931   4.676   2.081   2.588
 9011SOL    HW127932   4.643   2.005   2.643
 9011SOL    HW227933   4.601   2.143   2.568
 9012SOL     OW27934   5.451   5.373   2.361
 9012SOL    HW127935   5.408   5.304   2.419
 9012SOL    HW227936   5.550   5.360   2.361
 9013SOL     OW27937   4.294   6.426   2.147
 9013SOL    HW127938   4.199   6.459   2.155
 9013SOL    HW227939   4.349   6.497   2.103
 9014SOL     OW27940   2.219   0.695   1.177
 9014SOL    HW127941   2.305   0.744   1.187
 9014SOL    HW227942   2.154   0.730   1.245
 9015SOL     OW27943   6.114   1.161   4.790
 9015SOL    HW127944   6.037   1.146   4.729
 9015SOL    HW227945   6.125   1.258   4.808
 9016SOL     OW27946   6.905   5.547   6.331
 9016SOL    HW127947   6.926   5.628   6.386
 9016SOL    HW227948   6.806   5.534   6.326
 9017SOL     OW27949   7.011   3.948   3.266
 9017SOL    HW127950   0.041   3.865   3.293
 9017SOL    HW227951   0.025   4.025   3.320
 9018SOL     OW27952   4.103   1.741   6.442
 9018SOL    HW127953   4.169   1.753   6.367
 9018SOL    HW227954   4.093   1.643   6.461
 9019SOL     OW27955   1.168   5.609   0.377
 9019SOL    HW127956   1.090   5.600   0.439
 9019SOL    HW227957   1.245   5.649   0.427
 9020SOL     OW27958   0.786   5.059   3.145
 9020SOL    HW127959   0.736   4.973   3.145
 9020SOL    HW227960   0.813   5.083   3.238
 9021SOL     OW27961   6.263   5.894   5.266
 9021SOL    HW127962   6.168   5.923   5.254
 9021SOL    HW227963   6.268   5.794   5.263
 9022SOL     OW27964   3.213   6.948   6.390
 9022SOL    HW127965   3.245   6.855   6.372
 9022SOL    HW227966   3.140   6.946   6.459
 9023SOL     OW27967   3.442   2.899   3.519
 9023SOL    HW127968   3.359   2.845   3.511
 9023SOL    HW227969   3.442   2.947   3.607
 9024SOL     OW27970   0.878   0.423   6.967
 9024SOL    HW127971   0.875   0.371   6.882
 9024SOL    HW227972   0.957   0.395   0.002
 9025SOL     OW27973   0.175   3.936   0.688
 9025SOL    HW127974   0.119   4.016   0.709
 9025SOL    HW227975   0.151   3.860   0.748
 9026SOL     OW27976   3.054   3.295   5.568
 9026SOL    HW127977   3.045   3.394   5.572
 9026SOL    HW227978   2.964   3.252   5.575
 9027SOL     OW27979   2.512   2.489   3.149
 9027SOL    HW127980   2.550   2.446   3.231
 9027SOL    HW227981   2.538   2.435   3.068
 9028SOL     OW27982   2.409   4.595   4.514
 9028SOL    HW127983   2.428   4.542   4.432
 9028SOL    HW227984   2.429   4.540   4.595
 9029SOL     OW27985   6.039   5.671   2.890
 9029SOL    HW127986   6.053   5.572   2.887
 9029SOL    HW227987   6.116   5.716   2.846
 9030SOL     OW27988   3.590   1.542   1.987
 9030SOL    HW127989   3.586   1.444   2.004
 9030SOL    HW227990   3.651   1.560   1.910
 9031SOL     OW27991   1.063   1.370   0.853
 9031SOL    HW127992   1.119   1.344   0.932
 9031SOL    HW227993   0.977   1.409   0.885
 9032SOL     OW27994   1.180   2.817   2.171
 9032SOL    HW127995   1.080   2.811   2.164
 9032SOL    HW227996   1.207   2.912   2.185
 9033SOL     OW27997   1.149   4.094   1.798
 9033SOL    HW127998   1.153   4.012   1.855
 9033SOL    HW227999   1.096   4.164   1.845
 9034SOL     OW28000   1.410   6.826   6.725
 9034SOL    HW128001   1.470   6.902   6.750
 9034SOL    HW228002   1.401   6.765   6.803
 9035SOL     OW28003   6.852   0.556   4.287
 9035SOL    HW128004   6.807   0.472   4.316
 9035SOL    HW228005   6.866   0.554   4.188
 9036SOL     OW28006   1.549   1.247   4.561
 9036SOL    HW128007   1.558   1.201   4.473
 9036SOL    HW228008   1.466   1.304   4.561
 9037SOL     OW28009   2.526   4.034   5.941
 9037SOL    HW128010   2.478   4.022   5.854
 9037SOL    HW228011   2.466   4.079   6.007
 9038SOL     OW28012   4.790   6.440   5.609
 9038SOL    HW128013   4.878   6.467   5.570
 9038SOL    HW228014   4.727   6.417   5.536
 9039SOL     OW28015   2.434   4.742   6.636
 9039SOL    HW128016   2.531   4.735   6.610
 9039SOL    HW228017   2.387   4.658   6.608
 9040SOL     OW28018   2.626   1.875   2.322
 9040SOL    HW128019   2.590   1.836   2.237
 9040SOL    HW228020   2.726   1.882   2.315
 9041SOL     OW28021   1.799   3.111   6.447
 9041SOL    HW128022   1.760   3.035   6.394
 9041SOL    HW228023   1.890   3.132   6.412
 9042SOL     OW28024   2.519   5.364   3.634
 9042SOL    HW128025   2.425   5.344   3.606
 9042SOL    HW228026   2.537   5.323   3.723
 9043SOL     OW28027   6.721   2.877   0.986
 9043SOL    HW128028   6.671   2.958   1.019
 9043SOL    HW228029   6.655   2.810   0.951
 9044SOL     OW28030   6.752   4.644   0.785
 9044SOL    HW128031   6.656   4.671   0.780
 9044SOL    HW228032   6.765   4.582   0.863
 9045SOL     OW28033   2.894   5.364   4.160
 9045SOL    HW128034   2.908   5.396   4.254
 9045SOL    HW228035   2.832   5.428   4.113
 9046SOL     OW28036   3.751   4.245   5.770
 9046SOL    HW128037   3.734   4.341   5.748
 9046SOL    HW228038   3.701   4.221   5.853
 9047SOL     OW28039   1.344   4.520   4.935
 9047SOL    HW128040   1.271   4.567   4.886
 9047SOL    HW228041   1.332   4.533   5.033
 9048SOL     OW28042   2.225   2.037   4.469
 9048SOL    HW128043   2.233   2.116   4.529
 9048SOL    HW228044   2.237   1.953   4.523
 9049SOL     OW28045   4.787   6.365   6.553
 9049SOL    HW128046   4.864   6.317   6.511
 9049SOL    HW228047   4.811   6.461   6.569
 9050SOL     OW28048   0.405   5.191   5.321
 9050SOL    HW128049   0.360   5.278   5.342
 9050SOL    HW228050   0.400   5.175   5.223
 9051SOL     OW28051   5.463   6.467   5.802
 9051SOL    HW128052   5.518   6.549   5.790
 9051SOL    HW228053   5.366   6.488   5.789
 9052SOL     OW28054   2.441   5.139   5.056
 9052SOL    HW128055   2.486   5.136   5.146
 9052SOL    HW228056   2.510   5.151   4.985
 9053SOL     OW28057   3.084   1.735   3.573
 9053SOL    HW128058   3.093   1.743   3.474
 9053SOL    HW228059   3.162   1.779   3.617
 9054SOL     OW28060   2.941   0.205   0.802
 9054SOL    HW128061   2.850   0.244   0.821
 9054SOL    HW228062   2.968   0.227   0.708
 9055SOL     OW28063   0.574   1.855   4.909
 9055SOL    HW128064   0.617   1.857   4.819
 9055SOL    HW228065   0.630   1.906   4.974
 9056SOL     OW28066   4.453   2.254   2.623
 9056SOL    HW128067   4.378   2.205   2.668
 9056SOL    HW228068   4.443   2.352   2.637
 9057SOL     OW28069   4.619   6.065   0.063
 9057SOL    HW128070   4.701   6.043   0.116
 9057SOL    HW228071   4.591   5.986   0.010
 9058SOL     OW28072   1.872   2.491   4.339
 9058SOL    HW128073   1.893   2.556   4.412
 9058SOL    HW228074   1.883   2.536   4.250
 9059SOL     OW28075   0.230   1.020   2.462
 9059SOL    HW128076   0.304   0.954   2.468
 9059SOL    HW228077   0.265   1.108   2.431
 9060SOL     OW28078   0.801   5.307   1.708
 9060SOL    HW128079   0.763   5.343   1.793
 9060SOL    HW228080   0.901   5.304   1.714
 9061SOL     OW28081   5.209   4.249   2.656
 9061SOL    HW128082   5.273   4.187   2.700
 9061SOL    HW228083   5.125   4.255   2.709
 9062SOL     OW28084   0.677   5.380   3.087
 9062SOL    HW128085   0.656   5.297   3.034
 9062SOL    HW228086   0.744   5.358   3.157
 9063SOL     OW28087   4.507   1.871   1.989
 9063SOL    HW128088   4.591   1.896   1.941
 9063SOL    HW228089   4.451   1.952   2.004
 9064SOL     OW28090   0.696   5.650   3.143
 9064SOL    HW128091   0.746   5.705   3.075
 9064SOL    HW228092   0.683   5.558   3.107
 9065SOL     OW28093   3.328   4.141   6.104
 9065SOL    HW128094   3.267   4.218   6.089
 9065SOL    HW228095   3.349   4.097   6.016
 9066SOL     OW28096   4.945   5.168   4.176
 9066SOL    HW128097   4.897   5.090   4.216
 9066SOL    HW228098   5.009   5.137   4.106
 9067SOL     OW28099   1.249   6.245   4.729
 9067SOL    HW128100   1.257   6.259   4.631
 9067SOL    HW228101   1.302   6.315   4.777
 9068SOL     OW28102   3.816   0.450   6.149
 9068SOL    HW128103   3.772   0.415   6.066
 9068SOL    HW228104   3.893   0.391   6.173
 9069SOL     OW28105   4.916   2.723   1.490
 9069SOL    HW128106   5.002   2.744   1.444
 9069SOL    HW228107   4.882   2.806   1.535
 9070SOL     OW28108   2.123   1.193   5.471
 9070SOL    HW128109   2.114   1.291   5.451
 9070SOL    HW228110   2.091   1.175   5.564
 9071SOL     OW28111   5.575   2.842   6.674
 9071SOL    HW128112   5.608   2.748   6.675
 9071SOL    HW228113   5.477   2.844   6.653
 9072SOL     OW28114   5.701   0.256   2.316
 9072SOL    HW128115   5.720   0.341   2.366
 9072SOL    HW228116   5.616   0.266   2.264
 9073SOL     OW28117   4.640   2.805   5.265
 9073SOL    HW128118   4.663   2.721   5.214
 9073SOL    HW228119   4.601   2.780   5.354
 9074SOL     OW28120   1.816   0.911   2.756
 9074SOL    HW128121   1.835   0.815   2.738
 9074SOL    HW228122   1.735   0.940   2.705
 9075SOL     OW28123   5.763   5.956   0.881
 9075SOL    HW128124   5.743   5.988   0.974
 9075SOL    HW228125   5.862   5.952   0.868
 9076SOL     OW28126   0.333   6.713   2.385
 9076SOL    HW128127   0.399   6.709   2.460
 9076SOL    HW228128   0.382   6.711   2.297
 9077SOL     OW28129   6.346   1.746   0.007
 9077SOL    HW128130   6.250   1.722   7.016
 9077SOL    HW228131   6.354   1.843   0.031
 9078SOL     OW28132   5.597   0.431   6.881
 9078SOL    HW128133   5.643   0.507   6.835
 9078SOL    HW228134   5.660   0.390   6.947
 9079SOL     OW28135   1.173   1.354   6.368
 9079SOL    HW128136   1.121   1.377   6.286
 9079SOL    HW228137   1.116   1.299   6.429
 9080SOL     OW28138   6.042   3.649   2.406
 9080SOL    HW128139   5.962   3.622   2.460
 9080SOL    HW228140   6.080   3.734   2.442
 9081SOL     OW28141   4.908   1.351   0.393
 9081SOL    HW128142   4.944   1.262   0.364
 9081SOL    HW228143   4.896   1.409   0.313
 9082SOL     OW28144   3.448   5.756   6.412
 9082SOL    HW128145   3.413   5.723   6.325
 9082SOL    HW228146   3.506   5.686   6.453
 9083SOL     OW28147   3.927   6.376   0.301
 9083SOL    HW128148   3.853   6.317   0.332
 9083SOL    HW228149   4.012   6.352   0.349
 9084SOL     OW28150   0.153   3.213   4.989
 9084SOL    HW128151   0.198   3.242   4.904
 9084SOL    HW228152   0.213   3.235   5.067
 9085SOL     OW28153   2.544   4.720   0.715
 9085SOL    HW128154   2.472   4.676   0.768
 9085SOL    HW228155   2.512   4.809   0.683
 9086SOL     OW28156   0.091   3.679   0.782
 9086SOL    HW128157   0.037   3.637   0.709
 9086SOL    HW228158   0.030   3.722   0.849
 9087SOL     OW28159   5.345   1.129   1.202
 9087SOL    HW128160   5.393   1.140   1.289
 9087SOL    HW228161   5.329   1.032   1.185
 9088SOL     OW28162   5.927   5.801   0.598
 9088SOL    HW128163   5.830   5.813   0.617
 9088SOL    HW228164   5.964   5.727   0.654
 9089SOL     OW28165   5.670   5.607   3.531
 9089SOL    HW128166   5.636   5.684   3.477
 9089SOL    HW228167   5.737   5.639   3.597
 9090SOL     OW28168   5.083   6.248   5.807
 9090SOL    HW128169   5.002   6.218   5.756
 9090SOL    HW228170   5.145   6.171   5.819
 9091SOL     OW28171   2.764   1.737   1.746
 9091SOL    HW128172   2.765   1.715   1.843
 9091SOL    HW228173   2.691   1.802   1.726
 9092SOL     OW28174   2.299   0.924   5.307
 9092SOL    HW128175   2.391   0.886   5.311
 9092SOL    HW228176   2.300   1.019   5.338
 9093SOL     OW28177   2.232   4.105   0.854
 9093SOL    HW128178   2.159   4.169   0.880
 9093SOL    HW228179   2.299   4.100   0.928
 9094SOL     OW28180   6.426   4.218   1.107
 9094SOL    HW128181   6.455   4.301   1.060
 9094SOL    HW228182   6.367   4.242   1.185
 9095SOL     OW28183   2.718   3.461   6.929
 9095SOL    HW128184   2.676   3.482   7.017
 9095SOL    HW228185   2.731   3.362   6.921
 9096SOL     OW28186   6.053   3.281   3.007
 9096SOL    HW128187   6.115   3.205   3.028
 9096SOL    HW228188   6.029   3.329   3.092
 9097SOL     OW28189   0.025   5.187   5.678
 9097SOL    HW128190   0.028   5.089   5.694
 9097SOL    HW228191   0.039   5.235   5.764
 9098SOL     OW28192   3.508   3.604   3.814
 9098SOL    HW128193   3.450   3.531   3.850
 9098SOL    HW228194   3.556   3.571   3.733
 9099SOL     OW28195   2.298   2.796   0.218
 9099SOL    HW128196   2.219   2.847   0.251
 9099SOL    HW228197   2.369   2.795   0.288
 9100SOL     OW28198   1.126   3.451   0.382
 9100SOL    HW128199   1.108   3.393   0.462
 9100SOL    HW228200   1.162   3.539   0.413
 9101SOL     OW28201   2.069   2.138   6.694
 9101SOL    HW128202   1.983   2.171   6.654
 9101SOL    HW228203   2.050   2.091   6.780
 9102SOL     OW28204   4.460   6.088   2.305
 9102SOL    HW128205   4.446   6.130   2.215
 9102SOL    HW228206   4.531   6.139   2.355
 9103SOL     OW28207   7.010   4.117   6.754
 9103SOL    HW128208   7.008   4.070   6.842
 9103SOL    HW228209   6.980   4.054   6.682
 9104SOL     OW28210   4.654   0.155   1.916
 9104SOL    HW128211   4.587   0.226   1.893
 9104SOL    HW228212   4.745   0.185   1.888
 9105SOL     OW28213   2.492   1.752   5.510
 9105SOL    HW128214   2.524   1.801   5.429
 9105SOL    HW228215   2.405   1.792   5.541
 9106SOL     OW28216   6.299   4.940   1.312
 9106SOL    HW128217   6.239   5.019   1.326
 9106SOL    HW228218   6.341   4.914   1.399
 9107SOL     OW28219   4.440   0.483   1.608
 9107SOL    HW128220   4.523   0.534   1.583
 9107SOL    HW228221   4.359   0.538   1.585
 9108SOL     OW28222   4.469   5.895   6.926
 9108SOL    HW128223   4.443   5.975   6.872
 9108SOL    HW228224   4.389   5.862   6.976
 9109SOL     OW28225   2.955   1.895   4.474
 9109SOL    HW128226   2.874   1.932   4.520
 9109SOL    HW228227   3.015   1.970   4.447
 9110SOL     OW28228   1.989   3.039   2.854
 9110SOL    HW128229   1.924   3.020   2.781
 9110SOL    HW228230   2.081   3.013   2.824
 9111SOL     OW28231   4.271   4.276   1.704
 9111SOL    HW128232   4.223   4.197   1.742
 9111SOL    HW228233   4.356   4.291   1.755
 9112SOL     OW28234   0.269   5.157   2.686
 9112SOL    HW128235   0.338   5.229   2.678
 9112SOL    HW228236   0.312   5.068   2.667
 9113SOL     OW28237   3.432   6.151   0.337
 9113SOL    HW128238   3.419   6.148   0.238
 9113SOL    HW228239   3.377   6.079   0.380
 9114SOL     OW28240   2.455   4.467   2.219
 9114SOL    HW128241   2.424   4.525   2.143
 9114SOL    HW228242   2.405   4.381   2.218
 9115SOL     OW28243   1.771   4.165   4.047
 9115SOL    HW128244   1.787   4.248   4.099
 9115SOL    HW228245   1.858   4.125   4.019
 9116SOL     OW28246   1.719   1.477   6.028
 9116SOL    HW128247   1.748   1.446   5.937
 9116SOL    HW228248   1.737   1.405   6.095
 9117SOL     OW28249   6.479   2.973   6.801
 9117SOL    HW128250   6.419   2.984   6.880
 9117SOL    HW228251   6.522   2.883   6.805
 9118SOL     OW28252   6.508   5.599   1.650
 9118SOL    HW128253   6.502   5.661   1.729
 9118SOL    HW228254   6.462   5.641   1.572
 9119SOL     OW28255   6.628   0.187   1.523
 9119SOL    HW128256   6.547   0.246   1.519
 9119SOL    HW228257   6.703   0.236   1.568
 9120SOL     OW28258   5.384   1.419   6.340
 9120SOL    HW128259   5.386   1.456   6.248
 9120SOL    HW228260   5.289   1.403   6.368
 9121SOL     OW28261   1.252   1.147   6.776
 9121SOL    HW128262   1.277   1.070   6.717
 9121SOL    HW228263   1.320   1.220   6.766
 9122SOL     OW28264   0.794   2.361   1.157
 9122SOL    HW128265   0.788   2.371   1.057
 9122SOL    HW228266   0.855   2.431   1.194
 9123SOL     OW28267   2.626   5.752   0.222
 9123SOL    HW128268   2.600   5.801   0.139
 9123SOL    HW228269   2.697   5.685   0.199
 9124SOL     OW28270   5.815   5.400   5.202
 9124SOL    HW128271   5.859   5.368   5.118
 9124SOL    HW228272   5.852   5.490   5.227
 9125SOL     OW28273   4.872   5.756   3.217
 9125SOL    HW128274   4.784   5.802   3.222
 9125SOL    HW228275   4.945   5.821   3.235
 9126SOL     OW28276   6.045   0.443   1.691
 9126SOL    HW128277   5.969   0.447   1.756
 9126SOL    HW228278   6.046   0.527   1.636
 9127SOL     OW28279   5.039   0.868   0.023
 9127SOL    HW128280   5.101   0.796   7.010
 9127SOL    HW228281   4.988   0.834   0.103
 9128SOL     OW28282   4.504   2.500   5.002
 9128SOL    HW128283   4.478   2.436   4.930
 9128SOL    HW228284   4.428   2.511   5.066
 9129SOL     OW28285   2.045   2.386   5.749
 9129SOL    HW128286   1.952   2.360   5.721
 9129SOL    HW228287   2.054   2.375   5.848
 9130SOL     OW28288   6.278   4.955   0.876
 9130SOL    HW128289   6.364   5.003   0.887
 9130SOL    HW228290   6.242   4.930   0.966
 9131SOL     OW28291   0.752   3.851   4.649
 9131SOL    HW128292   0.698   3.806   4.578
 9131SOL    HW228293   0.842   3.808   4.655
 9132SOL     OW28294   0.270   2.974   4.562
 9132SOL    HW128295   0.248   2.919   4.481
 9132SOL    HW228296   0.203   3.047   4.572
 9133SOL     OW28297   1.681   4.329   1.403
 9133SOL    HW128298   1.725   4.248   1.364
 9133SOL    HW228299   1.627   4.375   1.332
 9134SOL     OW28300   2.889   5.805   6.267
 9134SOL    HW128301   2.891   5.821   6.365
 9134SOL    HW228302   2.805   5.755   6.243
 9135SOL     OW28303   6.507   6.627   4.523
 9135SOL    HW128304   6.452   6.618   4.439
 9135SOL    HW228305   6.470   6.700   4.580
 9136SOL     OW28306   4.759   4.771   5.181
 9136SOL    HW128307   4.812   4.694   5.216
 9136SOL    HW228308   4.666   4.740   5.161
 9137SOL     OW28309   4.303   1.194   1.996
 9137SOL    HW128310   4.282   1.290   1.977
 9137SOL    HW228311   4.374   1.189   2.066
 9138SOL     OW28312   3.787   5.037   0.323
 9138SOL    HW128313   3.795   5.137   0.328
 9138SOL    HW228314   3.715   5.006   0.386
 9139SOL     OW28315   2.972   1.706   5.605
 9139SOL    HW128316   3.029   1.663   5.674
 9139SOL    HW228317   2.928   1.787   5.643
 9140SOL     OW28318   0.031   2.131   3.277
 9140SOL    HW128319   0.072   2.190   3.347
 9140SOL    HW228320   0.084   2.137   3.193
 9141SOL     OW28321   6.072   0.225   5.879
 9141SOL    HW128322   6.132   0.241   5.958
 9141SOL    HW228323   6.008   0.301   5.870
 9142SOL     OW28324   6.569   3.266   6.005
 9142SOL    HW128325   6.574   3.338   6.074
 9142SOL    HW228326   6.654   3.214   6.004
 9143SOL     OW28327   4.728   3.808   0.666
 9143SOL    HW128328   4.660   3.740   0.638
 9143SOL    HW228329   4.772   3.778   0.751
 9144SOL     OW28330   2.104   4.715   5.262
 9144SOL    HW128331   2.165   4.770   5.206
 9144SOL    HW228332   2.090   4.759   5.350
 9145SOL     OW28333   0.508   4.665   6.295
 9145SOL    HW128334   0.516   4.588   6.358
 9145SOL    HW228335   0.439   4.643   6.226
 9146SOL     OW28336   6.231   2.226   2.123
 9146SOL    HW128337   6.280   2.166   2.185
 9146SOL    HW228338   6.153   2.267   2.170
 9147SOL     OW28339   4.324   5.776   5.553
 9147SOL    HW128340   4.345   5.840   5.480
 9147SOL    HW228341   4.377   5.799   5.635
 9148SOL     OW28342   4.267   5.641   3.644
 9148SOL    HW128343   4.212   5.701   3.702
 9148SOL    HW228344   4.211   5.608   3.567
 9149SOL     OW28345   5.875   3.442   3.896
 9149SOL    HW128346   5.790   3.485   3.867
 9149SOL    HW228347   5.874   3.430   3.996
 9150SOL     OW28348   5.101   0.335   3.044
 9150SOL    HW128349   5.126   0.387   2.962
 9150SOL    HW228350   5.047   0.394   3.105
 9151SOL     OW28351   1.615   4.247   1.996
 9151SOL    HW128352   1.646   4.336   2.029
 9151SOL    HW228353   1.546   4.211   2.060
 9152SOL     OW28354   2.069   5.577   3.136
 9152SOL    HW128355   1.982   5.603   3.179
 9152SOL    HW228356   2.138   5.564   3.207
 9153SOL     OW28357   1.446   3.076   6.221
 9153SOL    HW128358   1.431   2.998   6.160
 9153SOL    HW228359   1.522   3.056   6.282
 9154SOL     OW28360   1.936   5.614   6.869
 9154SOL    HW128361   1.961   5.534   6.923
 9154SOL    HW228362   1.864   5.589   6.804
 9155SOL     OW28363   1.171   3.728   0.496
 9155SOL    HW128364   1.218   3.737   0.584
 9155SOL    HW228365   1.078   3.764   0.504
 9156SOL     OW28366   5.075   2.301   1.520
 9156SOL    HW128367   5.021   2.292   1.604
 9156SOL    HW228368   5.141   2.226   1.515
 9157SOL     OW28369   5.285   3.994   5.708
 9157SOL    HW128370   5.274   4.086   5.746
 9157SOL    HW228371   5.224   3.982   5.630
 9158SOL     OW28372   1.021   3.721   3.840
 9158SOL    HW128373   0.968   3.792   3.794
 9158SOL    HW228374   0.962   3.642   3.857
 9159SOL     OW28375   0.074   4.689   3.562
 9159SOL    HW128376   0.101   4.781   3.532
 9159SOL    HW228377   0.075   4.685   3.662
 9160SOL     OW28378   0.036   0.110   6.809
 9160SOL    HW128379   6.974   0.167   6.820
 9160SOL    HW228380   0.057   0.066   6.897
 9161SOL     OW28381   4.719   4.138   4.554
 9161SOL    HW128382   4.632   4.105   4.591
 9161SOL    HW228383   4.702   4.216   4.495
 9162SOL     OW28384   4.742   2.590   2.450
 9162SOL    HW128385   4.757   2.547   2.539
 9162SOL    HW228386   4.690   2.527   2.391
 9163SOL     OW28387   3.006   1.969   3.846
 9163SOL    HW128388   2.958   2.048   3.884
 9163SOL    HW228389   3.082   1.944   3.906
 9164SOL     OW28390   3.212   0.267   0.244
 9164SOL    HW128391   3.147   0.216   0.189
 9164SOL    HW228392   3.165   0.343   0.289
 9165SOL     OW28393   6.037   0.050   6.694
 9165SOL    HW128394   6.025   6.980   6.736
 9165SOL    HW228395   5.949   0.096   6.686
 9166SOL     OW28396   3.282   5.718   1.539
 9166SOL    HW128397   3.340   5.786   1.493
 9166SOL    HW228398   3.331   5.682   1.619
 9167SOL     OW28399   1.612   4.065   5.314
 9167SOL    HW128400   1.709   4.080   5.332
 9167SOL    HW228401   1.565   4.153   5.306
 9168SOL     OW28402   2.223   1.030   6.495
 9168SOL    HW128403   2.170   1.110   6.521
 9168SOL    HW228404   2.166   0.968   6.440
 9169SOL     OW28405   0.742   0.845   3.873
 9169SOL    HW128406   0.668   0.778   3.861
 9169SOL    HW228407   0.791   0.825   3.958
 9170SOL     OW28408   6.635   6.003   6.626
 9170SOL    HW128409   6.560   6.052   6.582
 9170SOL    HW228410   6.625   5.905   6.607
 9171SOL     OW28411   2.920   5.877   0.148
 9171SOL    HW128412   2.950   5.799   0.095
 9171SOL    HW228413   2.852   5.848   0.216
 9172SOL     OW28414   3.197   1.289   3.875
 9172SOL    HW128415   3.155   1.371   3.835
 9172SOL    HW228416   3.241   1.313   3.962
 9173SOL     OW28417   0.606   5.707   4.136
 9173SOL    HW128418   0.550   5.789   4.140
 9173SOL    HW228419   0.561   5.633   4.186
 9174SOL     OW28420   0.105   5.111   0.424
 9174SOL    HW128421   0.197   5.082   0.395
 9174SOL    HW228422   0.100   5.112   0.523
 9175SOL     OW28423   2.119   5.923   5.892
 9175SOL    HW128424   2.079   5.920   5.984
 9175SOL    HW228425   2.185   5.998   5.888
 9176SOL     OW28426   1.991   0.361   5.641
 9176SOL    HW128427   2.074   0.416   5.647
 9176SOL    HW228428   1.920   0.413   5.594
 9177SOL     OW28429   1.022   4.295   3.462
 9177SOL    HW128430   0.958   4.339   3.525
 9177SOL    HW228431   1.063   4.364   3.402
 9178SOL     OW28432   2.130   4.779   0.580
 9178SOL    HW128433   2.203   4.820   0.634
 9178SOL    HW228434   2.089   4.849   0.521
 9179SOL     OW28435   3.478   4.929   4.227
 9179SOL    HW128436   3.399   4.888   4.273
 9179SOL    HW228437   3.553   4.941   4.292
 9180SOL     OW28438   5.359   1.912   3.406
 9180SOL    HW128439   5.448   1.901   3.450
 9180SOL    HW228440   5.371   1.937   3.310
 9181SOL     OW28441   4.294   1.891   2.368
 9181SOL    HW128442   4.313   1.860   2.461
 9181SOL    HW228443   4.334   1.982   2.354
 9182SOL     OW28444   0.999   6.443   1.582
 9182SOL    HW128445   0.943   6.365   1.553
 9182SOL    HW228446   0.948   6.528   1.566
 9183SOL     OW28447   5.503   6.650   0.422
 9183SOL    HW128448   5.414   6.608   0.442
 9183SOL    HW228449   5.511   6.736   0.472
 9184SOL     OW28450   4.842   6.980   0.507
 9184SOL    HW128451   4.921   6.957   0.450
 9184SOL    HW228452   4.815   6.900   0.561
 9185SOL     OW28453   3.556   1.054   5.108
 9185SOL    HW128454   3.494   0.976   5.092
 9185SOL    HW228455   3.515   1.137   5.071
 9186SOL     OW28456   6.362   1.211   5.373
 9186SOL    HW128457   6.276   1.253   5.345
 9186SOL    HW228458   6.425   1.210   5.296
 9187SOL     OW28459   2.456   6.291   2.115
 9187SOL    HW128460   2.534   6.299   2.053
 9187SOL    HW228461   2.415   6.381   2.128
 9188SOL     OW28462   2.254   6.370   1.194
 9188SOL    HW128463   2.280   6.461   1.160
 9188SOL    HW228464   2.308   6.349   1.275
 9189SOL     OW28465   5.061   5.518   2.498
 9189SOL    HW128466   5.077   5.616   2.487
 9189SOL    HW228467   5.028   5.499   2.590
 9190SOL     OW28468   1.900   4.979   0.418
 9190SOL    HW128469   1.986   5.007   0.461
 9190SOL    HW228470   1.919   4.941   0.328
 9191SOL     OW28471   0.064   0.353   5.709
 9191SOL    HW128472   6.997   0.304   5.698
 9191SOL    HW228473   0.123   0.335   5.629
 9192SOL     OW28474   6.989   4.341   4.146
 9192SOL    HW128475   0.010   4.250   4.150
 9192SOL    HW228476   6.911   4.346   4.208
 9193SOL     OW28477   2.776   3.681   0.237
 9193SOL    HW128478   2.685   3.716   0.214
 9193SOL    HW228479   2.825   3.749   0.291
 9194SOL     OW28480   3.714   0.861   3.775
 9194SOL    HW128481   3.796   0.918   3.778
 9194SOL    HW228482   3.702   0.816   3.864
 9195SOL     OW28483   1.710   1.861   3.923
 9195SOL    HW128484   1.785   1.909   3.969
 9195SOL    HW228485   1.623   1.895   3.958
 9196SOL     OW28486   4.731   2.182   5.108
 9196SOL    HW128487   4.812   2.164   5.164
 9196SOL    HW228488   4.734   2.125   5.026
 9197SOL     OW28489   2.361   3.700   1.710
 9197SOL    HW128490   2.395   3.620   1.759
 9197SOL    HW228491   2.266   3.717   1.736
 9198SOL     OW28492   6.261   5.066   4.832
 9198SOL    HW128493   6.207   5.150   4.831
 9198SOL    HW228494   6.315   5.062   4.916
 9199SOL     OW28495   6.600   4.409   5.206
 9199SOL    HW128496   6.692   4.431   5.239
 9199SOL    HW228497   6.607   4.338   5.136
 9200SOL     OW28498   3.325   6.607   0.782
 9200SOL    HW128499   3.288   6.697   0.760
 9200SOL    HW228500   3.353   6.605   0.878
 9201SOL     OW28501   1.565   4.242   0.209
 9201SOL    HW128502   1.551   4.319   0.271
 9201SOL    HW228503   1.504   4.167   0.235
 9202SOL     OW28504   2.557   0.181   3.280
 9202SOL    HW128505   2.642   0.170   3.331
 9202SOL    HW228506   2.479   0.159   3.338
 9203SOL     OW28507   6.688   5.746   0.736
 9203SOL    HW128508   6.610   5.725   0.795
 9203SOL    HW228509   6.679   5.838   0.699
 9204SOL     OW28510   5.056   1.114   6.286
 9204SOL    HW128511   4.996   1.172   6.342
 9204SOL    HW228512   5.148   1.114   6.325
 9205SOL     OW28513   6.748   3.859   2.591
 9205SOL    HW128514   6.799   3.817   2.516
 9205SOL    HW228515   6.659   3.890   2.557
 9206SOL     OW28516   3.705   6.013   0.605
 9206SOL    HW128517   3.688   5.916   0.590
 9206SOL    HW228518   3.691   6.063   0.519
 9207SOL     OW28519   5.023   5.684   0.315
 9207SOL    HW128520   5.091   5.612   0.301
 9207SOL    HW228521   4.946   5.670   0.252
 9208SOL     OW28522   0.915   3.478   3.412
 9208SOL    HW128523   0.849   3.453   3.483
 9208SOL    HW228524   0.983   3.541   3.451
 9209SOL     OW28525   2.962   1.018   6.073
 9209SOL    HW128526   3.042   1.035   6.015
 9209SOL    HW228527   2.949   1.095   6.135
 9210SOL     OW28528   6.598   1.082   3.519
 9210SOL    HW128529   6.597   0.982   3.510
 9210SOL    HW228530   6.629   1.123   3.434
 9211SOL     OW28531   0.603   1.399   3.351
 9211SOL    HW128532   0.680   1.354   3.395
 9211SOL    HW228533   0.606   1.382   3.252
 9212SOL     OW28534   3.304   4.912   4.927
 9212SOL    HW128535   3.350   4.872   4.847
 9212SOL    HW228536   3.267   5.001   4.903
 9213SOL     OW28537   5.954   3.758   6.005
 9213SOL    HW128538   5.964   3.707   5.919
 9213SOL    HW228539   5.963   3.856   5.986
 9214SOL     OW28540   0.467   5.382   0.855
 9214SOL    HW128541   0.489   5.434   0.938
 9214SOL    HW228542   0.488   5.285   0.870
 9215SOL     OW28543   0.721   1.136   0.561
 9215SOL    HW128544   0.797   1.181   0.609
 9215SOL    HW228545   0.741   1.133   0.463
 9216SOL     OW28546   2.385   6.255   3.147
 9216SOL    HW128547   2.409   6.332   3.087
 9216SOL    HW228548   2.325   6.192   3.098
 9217SOL     OW28549   1.101   2.837   6.991
 9217SOL    HW128550   1.198   2.813   6.995
 9217SOL    HW228551   1.090   2.918   6.934
 9218SOL     OW28552   3.136   0.509   0.368
 9218SOL    HW128553   3.045   0.517   0.409
 9218SOL    HW228554   3.166   0.599   0.336
 9219SOL     OW28555   0.238   2.754   0.934
 9219SOL    HW128556   0.275   2.718   1.019
 9219SOL    HW228557   0.278   2.705   0.857
 9220SOL     OW28558   3.754   6.585   2.077
 9220SOL    HW128559   3.662   6.560   2.108
 9220SOL    HW228560   3.753   6.678   2.041
 9221SOL     OW28561   2.557   5.440   4.496
 9221SOL    HW128562   2.520   5.349   4.478
 9221SOL    HW228563   2.483   5.507   4.495
 9222SOL     OW28564   2.377   2.327   6.218
 9222SOL    HW128565   2.424   2.309   6.132
 9222SOL    HW228566   2.289   2.372   6.199
 9223SOL     OW28567   2.761   3.016   5.333
 9223SOL    HW128568   2.769   2.923   5.368
 9223SOL    HW228569   2.687   3.020   5.265
 9224SOL     OW28570   2.152   5.031   4.973
 9224SOL    HW128571   2.197   5.046   5.062
 9224SOL    HW228572   2.221   5.003   4.906
 9225SOL     OW28573   2.267   5.509   6.712
 9225SOL    HW128574   2.303   5.589   6.760
 9225SOL    HW228575   2.297   5.511   6.617
 9226SOL     OW28576   4.824   6.999   0.933
 9226SOL    HW128577   4.736   0.017   0.960
 9226SOL    HW228578   4.812   6.939   0.854
 9227SOL     OW28579   1.884   5.487   2.529
 9227SOL    HW128580   1.827   5.406   2.546
 9227SOL    HW228581   1.878   5.512   2.432
 9228SOL     OW28582   1.163   0.424   6.957
 9228SOL    HW128583   1.157   0.505   6.899
 9228SOL    HW228584   1.247   0.427   7.010
 9229SOL     OW28585   0.522   5.462   5.044
 9229SOL    HW128586   0.536   5.560   5.027
 9229SOL    HW228587   0.560   5.438   5.133
 9230SOL     OW28588   5.463   0.665   4.313
 9230SOL    HW128589   5.467   0.754   4.359
 9230SOL    HW228590   5.544   0.653   4.257
 9231SOL     OW28591   1.561   2.601   3.605
 9231SOL    HW128592   1.470   2.629   3.636
 9231SOL    HW228593   1.593   2.524   3.661
 9232SOL     OW28594   3.802   4.537   1.147
 9232SOL    HW128595   3.846   4.622   1.174
 9232SOL    HW228596   3.831   4.512   1.054
 9233SOL     OW28597   5.502   5.142   0.553
 9233SOL    HW128598   5.546   5.052   0.556
 9233SOL    HW228599   5.569   5.213   0.571
 9234SOL     OW28600   2.426   5.804   3.813
 9234SOL    HW128601   2.469   5.749   3.885
 9234SOL    HW228602   2.472   5.893   3.809
 9235SOL     OW28603   0.743   2.059   3.327
 9235SOL    HW128604   0.775   1.965   3.339
 9235SOL    HW228605   0.719   2.073   3.231
 9236SOL     OW28606   3.097   3.341   5.248
 9236SOL    HW128607   3.042   3.258   5.257
 9236SOL    HW228608   3.162   3.330   5.173
 9237SOL     OW28609   1.918   3.931   3.570
 9237SOL    HW128610   1.878   3.970   3.654
 9237SOL    HW228611   1.985   3.995   3.533
 9238SOL     OW28612   4.751   2.918   6.188
 9238SOL    HW128613   4.656   2.890   6.206
 9238SOL    HW228614   4.776   2.890   6.095
 9239SOL     OW28615   1.416   4.336   0.970
 9239SOL    HW128616   1.465   4.271   1.027
 9239SOL    HW228617   1.453   4.334   0.878
 9240SOL     OW28618   4.567   1.454   2.321
 9240SOL    HW128619   4.580   1.552   2.337
 9240SOL    HW228620   4.618   1.401   2.389
 9241SOL     OW28621   0.578   5.619   6.861
 9241SOL    HW128622   0.638   5.698   6.849
 9241SOL    HW228623   0.488   5.651   6.892
 9242SOL     OW28624   6.370   5.979   1.948
 9242SOL    HW128625   6.390   6.049   1.879
 9242SOL    HW228626   6.374   6.020   2.039
 9243SOL     OW28627   5.964   5.777   4.642
 9243SOL    HW128628   5.961   5.812   4.735
 9243SOL    HW228629   5.872   5.778   4.603
 9244SOL     OW28630   3.516   4.968   6.314
 9244SOL    HW128631   3.607   4.976   6.353
 9244SOL    HW228632   3.475   4.881   6.339
 9245SOL     OW28633   0.215   5.889   1.657
 9245SOL    HW128634   0.275   5.827   1.606
 9245SOL    HW228635   0.133   5.908   1.604
 9246SOL     OW28636   0.221   5.356   3.864
 9246SOL    HW128637   0.214   5.349   3.764
 9246SOL    HW228638   0.318   5.365   3.890
 9247SOL     OW28639   1.978   6.697   2.459
 9247SOL    HW128640   1.951   6.632   2.530
 9247SOL    HW228641   1.983   6.649   2.371
 9248SOL     OW28642   2.725   1.522   6.483
 9248SOL    HW128643   2.706   1.485   6.574
 9248SOL    HW228644   2.646   1.577   6.453
 9249SOL     OW28645   4.721   0.427   3.677
 9249SOL    HW128646   4.766   0.374   3.605
 9249SOL    HW228647   4.665   0.367   3.733
 9250SOL     OW28648   5.128   3.623   3.869
 9250SOL    HW128649   5.147   3.685   3.945
 9250SOL    HW228650   5.213   3.580   3.839
 9251SOL     OW28651   3.266   2.114   2.534
 9251SOL    HW128652   3.210   2.100   2.452
 9251SOL    HW228653   3.363   2.112   2.508
 9252SOL     OW28654   0.715   0.357   5.007
 9252SOL    HW128655   0.688   0.263   4.987
 9252SOL    HW228656   0.686   0.416   4.932
 9253SOL     OW28657   1.390   6.797   5.984
 9253SOL    HW128658   1.380   6.772   5.888
 9253SOL    HW228659   1.463   6.865   5.993
 9254SOL     OW28660   5.793   3.860   1.130
 9254SOL    HW128661   5.889   3.864   1.158
 9254SOL    HW228662   5.780   3.915   1.048
 9255SOL     OW28663   5.703   4.542   0.978
 9255SOL    HW128664   5.683   4.520   1.073
 9255SOL    HW228665   5.715   4.457   0.926
 9256SOL     OW28666   4.284   4.716   2.130
 9256SOL    HW128667   4.348   4.651   2.089
 9256SOL    HW228668   4.299   4.719   2.229
 9257SOL     OW28669   1.192   4.448   1.073
 9257SOL    HW128670   1.282   4.404   1.061
 9257SOL    HW228671   1.168   4.496   0.989
 9258SOL     OW28672   4.009   3.438   3.282
 9258SOL    HW128673   3.965   3.375   3.346
 9258SOL    HW228674   4.038   3.520   3.331
 9259SOL     OW28675   1.079   3.025   0.582
 9259SOL    HW128676   1.116   2.933   0.573
 9259SOL    HW228677   0.979   3.021   0.580
 9260SOL     OW28678   5.407   3.365   5.647
 9260SOL    HW128679   5.338   3.300   5.615
 9260SOL    HW228680   5.362   3.448   5.680
 9261SOL     OW28681   4.456   0.067   6.423
 9261SOL    HW128682   4.547   0.108   6.421
 9261SOL    HW228683   4.429   0.041   6.331
 9262SOL     OW28684   4.804   1.201   5.667
 9262SOL    HW128685   4.768   1.125   5.722
 9262SOL    HW228686   4.738   1.276   5.665
 9263SOL     OW28687   5.212   3.891   1.427
 9263SOL    HW128688   5.131   3.834   1.439
 9263SOL    HW228689   5.184   3.985   1.409
 9264SOL     OW28690   6.429   3.828   0.279
 9264SOL    HW128691   6.331   3.823   0.260
 9264SOL    HW228692   6.458   3.747   0.332
 9265SOL     OW28693   1.775   1.380   6.849
 9265SOL    HW128694   1.771   1.398   6.947
 9265SOL    HW228695   1.811   1.288   6.833
 9266SOL     OW28696   1.987   6.072   3.092
 9266SOL    HW128697   2.057   6.108   3.030
 9266SOL    HW228698   2.006   5.975   3.110
 9267SOL     OW28699   1.401   4.718   4.506
 9267SOL    HW128700   1.345   4.635   4.505
 9267SOL    HW228701   1.369   4.782   4.437
 9268SOL     OW28702   0.717   0.101   3.168
 9268SOL    HW128703   0.777   0.040   3.116
 9268SOL    HW228704   0.715   0.191   3.125
 9269SOL     OW28705   3.177   1.499   6.392
 9269SOL    HW128706   3.158   1.404   6.419
 9269SOL    HW228707   3.259   1.531   6.439
 9270SOL     OW28708   6.819   6.967   5.910
 9270SOL    HW128709   6.846   6.929   5.999
 9270SOL    HW228710   6.893   6.954   5.844
 9271SOL     OW28711   1.509   5.038   0.155
 9271SOL    HW128712   1.566   4.957   0.144
 9271SOL    HW228713   1.461   5.034   0.243
 9272SOL     OW28714   2.600   4.908   5.994
 9272SOL    HW128715   2.531   4.851   6.036
 9272SOL    HW228716   2.665   4.851   5.943
 9273SOL     OW28717   4.227   5.519   4.752
 9273SOL    HW128718   4.243   5.556   4.843
 9273SOL    HW228719   4.156   5.572   4.706
 9274SOL     OW28720   6.411   2.336   6.840
 9274SOL    HW128721   6.437   2.383   6.924
 9274SOL    HW228722   6.323   2.372   6.808
 9275SOL     OW28723   1.242   0.617   6.787
 9275SOL    HW128724   1.196   0.696   6.827
 9275SOL    HW228725   1.341   0.633   6.787
 9276SOL     OW28726   4.382   5.871   5.125
 9276SOL    HW128727   4.369   5.920   5.211
 9276SOL    HW228728   4.469   5.822   5.127
 9277SOL     OW28729   3.390   2.939   0.110
 9277SOL    HW128730   3.448   2.929   0.191
 9277SOL    HW228731   3.368   2.849   0.073
 9278SOL     OW28732   1.100   1.961   2.436
 9278SOL    HW128733   1.049   1.984   2.353
 9278SOL    HW228734   1.189   1.924   2.411
 9279SOL     OW28735   3.449   0.060   1.852
 9279SOL    HW128736   3.485   0.116   1.777
 9279SOL    HW228737   3.525   0.013   1.898
 9280SOL     OW28738   2.127   6.836   3.455
 9280SOL    HW128739   2.160   6.779   3.381
 9280SOL    HW228740   2.181   6.818   3.538
 9281SOL     OW28741   2.005   2.355   0.193
 9281SOL    HW128742   2.065   2.356   0.113
 9281SOL    HW228743   2.043   2.293   0.262
 9282SOL     OW28744   4.404   1.861   5.666
 9282SOL    HW128745   4.472   1.832   5.599
 9282SOL    HW228746   4.347   1.934   5.627
 9283SOL     OW28747   5.610   2.574   2.408
 9283SOL    HW128748   5.676   2.645   2.385
 9283SOL    HW228749   5.576   2.531   2.324
 9284SOL     OW28750   3.132   3.201   1.273
 9284SOL    HW128751   3.098   3.215   1.180
 9284SOL    HW228752   3.222   3.157   1.269
 9285SOL     OW28753   6.325   2.786   0.065
 9285SOL    HW128754   6.331   2.885   0.072
 9285SOL    HW228755   6.408   2.745   0.104
 9286SOL     OW28756   5.462   6.728   5.249
 9286SOL    HW128757   5.424   6.787   5.177
 9286SOL    HW228758   5.545   6.770   5.286
 9287SOL     OW28759   3.349   6.824   1.617
 9287SOL    HW128760   3.414   6.751   1.591
 9287SOL    HW228761   3.309   6.803   1.706
 9288SOL     OW28762   5.175   2.431   5.994
 9288SOL    HW128763   5.220   2.469   5.913
 9288SOL    HW228764   5.200   2.485   6.075
 9289SOL     OW28765   4.760   2.899   2.530
 9289SOL    HW128766   4.690   2.934   2.468
 9289SOL    HW228767   4.766   2.800   2.520
 9290SOL     OW28768   4.841   1.885   4.450
 9290SOL    HW128769   4.758   1.833   4.472
 9290SOL    HW228770   4.920   1.824   4.449
 9291SOL     OW28771   0.340   1.381   4.553
 9291SOL    HW128772   0.365   1.286   4.538
 9291SOL    HW228773   0.329   1.427   4.465
 9292SOL     OW28774   0.140   3.323   6.542
 9292SOL    HW128775   0.065   3.313   6.608
 9292SOL    HW228776   0.144   3.243   6.483
 9293SOL     OW28777   5.362   3.979   0.232
 9293SOL    HW128778   5.302   4.056   0.212
 9293SOL    HW228779   5.454   3.998   0.198
 9294SOL     OW28780   5.484   6.478   6.612
 9294SOL    HW128781   5.563   6.502   6.557
 9294SOL    HW228782   5.513   6.457   6.705
 9295SOL     OW28783   4.726   1.687   2.930
 9295SOL    HW128784   4.706   1.762   2.993
 9295SOL    HW228785   4.684   1.602   2.966
 9296SOL     OW28786   5.942   7.005   5.856
 9296SOL    HW128787   6.002   6.929   5.880
 9296SOL    HW228788   5.989   0.072   5.875
 9297SOL     OW28789   0.326   1.079   0.833
 9297SOL    HW128790   0.359   0.988   0.859
 9297SOL    HW228791   0.257   1.109   0.899
 9298SOL     OW28792   1.313   5.900   5.002
 9298SOL    HW128793   1.379   5.945   4.942
 9298SOL    HW228794   1.355   5.885   5.091
 9299SOL     OW28795   1.865   3.051   4.449
 9299SOL    HW128796   1.961   3.059   4.475
 9299SOL    HW228797   1.809   3.105   4.512
 9300SOL     OW28798   5.277   4.562   4.592
 9300SOL    HW128799   5.260   4.466   4.613
 9300SOL    HW228800   5.347   4.569   4.521
 9301SOL     OW28801   5.344   4.485   2.688
 9301SOL    HW128802   5.296   4.556   2.637
 9301SOL    HW228803   5.295   4.398   2.679
 9302SOL     OW28804   2.247   2.059   2.838
 9302SOL    HW128805   2.337   2.074   2.798
 9302SOL    HW228806   2.183   2.127   2.802
 9303SOL     OW28807   3.720   5.567   0.132
 9303SOL    HW128808   3.761   5.606   0.214
 9303SOL    HW228809   3.652   5.498   0.158
 9304SOL     OW28810   3.735   3.508   0.770
 9304SOL    HW128811   3.796   3.506   0.849
 9304SOL    HW228812   3.644   3.476   0.798
 9305SOL     OW28813   5.511   3.033   2.073
 9305SOL    HW128814   5.500   2.991   1.983
 9305SOL    HW228815   5.503   2.962   2.144
 9306SOL     OW28816   6.615   3.923   4.096
 9306SOL    HW128817   6.661   3.852   4.150
 9306SOL    HW228818   6.516   3.906   4.096
 9307SOL     OW28819   1.597   2.014   0.222
 9307SOL    HW128820   1.510   1.994   0.178
 9307SOL    HW228821   1.638   1.929   0.255
 9308SOL     OW28822   0.113   2.819   0.674
 9308SOL    HW128823   0.149   2.828   0.766
 9308SOL    HW228824   0.116   2.908   0.628
 9309SOL     OW28825   5.167   3.237   5.803
 9309SOL    HW128826   5.215   3.321   5.829
 9309SOL    HW228827   5.094   3.258   5.739
 9310SOL     OW28828   4.172   6.075   6.961
 9310SOL    HW128829   4.219   6.103   6.877
 9310SOL    HW228830   4.211   6.125   0.019
 9311SOL     OW28831   6.188   3.182   1.049
 9311SOL    HW128832   6.228   3.231   1.127
 9311SOL    HW228833   6.101   3.141   1.076
 9312SOL     OW28834   1.421   4.158   6.453
 9312SOL    HW128835   1.445   4.194   6.363
 9312SOL    HW228836   1.322   4.158   6.464
 9313SOL     OW28837   6.572   6.787   2.909
 9313SOL    HW128838   6.658   6.771   2.861
 9313SOL    HW228839   6.589   6.791   3.008
 9314SOL     OW28840   4.945   4.534   0.450
 9314SOL    HW128841   4.848   4.516   0.467
 9314SOL    HW228842   4.969   4.624   0.486
 9315SOL     OW28843   0.154   6.624   6.082
 9315SOL    HW128844   0.223   6.565   6.123
 9315SOL    HW228845   0.082   6.568   6.041
 9316SOL     OW28846   4.183   6.120   3.971
 9316SOL    HW128847   4.234   6.205   3.987
 9316SOL    HW228848   4.178   6.068   4.056
 9317SOL     OW28849   6.640   4.650   3.814
 9317SOL    HW128850   6.675   4.691   3.898
 9317SOL    HW228851   6.716   4.633   3.751
 9318SOL     OW28852   0.086   0.318   6.232
 9318SOL    HW128853   0.067   0.385   6.160
 9318SOL    HW228854   0.149   0.357   6.299
 9319SOL     OW28855   0.278   3.221   5.790
 9319SOL    HW128856   0.192   3.226   5.841
 9319SOL    HW228857   0.340   3.158   5.836
 9320SOL     OW28858   4.473   2.609   6.154
 9320SOL    HW128859   4.493   2.691   6.208
 9320SOL    HW228860   4.396   2.560   6.194
 9321SOL     OW28861   6.444   5.769   3.164
 9321SOL    HW128862   6.358   5.812   3.135
 9321SOL    HW228863   6.490   5.828   3.230
 9322SOL     OW28864   1.301   6.442   6.687
 9322SOL    HW128865   1.325   6.472   6.779
 9322SOL    HW228866   1.240   6.509   6.645
 9323SOL     OW28867   0.425   0.486   6.653
 9323SOL    HW128868   0.411   0.440   6.566
 9323SOL    HW228869   0.392   0.428   6.727
 9324SOL     OW28870   1.347   5.754   0.521
 9324SOL    HW128871   1.320   5.804   0.439
 9324SOL    HW228872   1.431   5.793   0.558
 9325SOL     OW28873   5.967   2.468   1.032
 9325SOL    HW128874   5.976   2.428   1.123
 9325SOL    HW228875   6.056   2.465   0.985
 9326SOL     OW28876   1.677   6.735   1.074
 9326SOL    HW128877   1.728   6.721   1.159
 9326SOL    HW228878   1.708   6.820   1.031
 9327SOL     OW28879   4.493   1.111   2.823
 9327SOL    HW128880   4.436   1.164   2.760
 9327SOL    HW228881   4.589   1.133   2.806
 9328SOL     OW28882   3.497   1.280   1.574
 9328SOL    HW128883   3.475   1.377   1.578
 9328SOL    HW228884   3.490   1.248   1.479
 9329SOL     OW28885   1.291   3.132   1.442
 9329SOL    HW128886   1.299   3.177   1.353
 9329SOL    HW228887   1.365   3.162   1.502
 9330SOL     OW28888   6.127   0.828   7.015
 9330SOL    HW128889   6.102   0.912   6.967
 9330SOL    HW228890   6.154   0.849   0.089
 9331SOL     OW28891   0.635   1.032   0.065
 9331SOL    HW128892   0.624   1.006   6.988
 9331SOL    HW228893   0.545   1.048   0.105
 9332SOL     OW28894   3.188   3.016   4.157
 9332SOL    HW128895   3.272   3.071   4.157
 9332SOL    HW228896   3.119   3.062   4.213
 9333SOL     OW28897   5.955   4.565   0.725
 9333SOL    HW128898   5.896   4.529   0.652
 9333SOL    HW228899   5.952   4.665   0.725
 9334SOL     OW28900   2.962   0.052   4.816
 9334SOL    HW128901   2.933   0.034   4.722
 9334SOL    HW228902   2.883   0.070   4.873
 9335SOL     OW28903   0.514   0.640   0.627
 9335SOL    HW128904   0.506   0.600   0.536
 9335SOL    HW228905   0.604   0.619   0.665
 9336SOL     OW28906   2.881   6.668   5.742
 9336SOL    HW128907   2.795   6.711   5.771
 9336SOL    HW228908   2.915   6.610   5.816
 9337SOL     OW28909   5.465   0.462   2.516
 9337SOL    HW128910   5.509   0.539   2.470
 9337SOL    HW228911   5.462   0.480   2.614
 9338SOL     OW28912   3.659   0.339   2.104
 9338SOL    HW128913   3.737   0.392   2.068
 9338SOL    HW228914   3.661   0.341   2.204
 9339SOL     OW28915   4.628   6.348   1.004
 9339SOL    HW128916   4.645   6.417   1.074
 9339SOL    HW228917   4.713   6.325   0.958
 9340SOL     OW28918   6.024   3.332   6.622
 9340SOL    HW128919   6.004   3.357   6.716
 9340SOL    HW228920   5.967   3.386   6.560
 9341SOL     OW28921   0.069   5.363   6.301
 9341SOL    HW128922   0.154   5.414   6.284
 9341SOL    HW228923   7.013   5.428   6.314
 9342SOL     OW28924   1.489   6.322   5.751
 9342SOL    HW128925   1.403   6.281   5.720
 9342SOL    HW228926   1.505   6.407   5.701
 9343SOL     OW28927   6.095   5.323   4.745
 9343SOL    HW128928   6.034   5.285   4.675
 9343SOL    HW228929   6.177   5.361   4.701
 9344SOL     OW28930   5.141   0.157   1.552
 9344SOL    HW128931   5.125   0.191   1.460
 9344SOL    HW228932   5.125   0.231   1.618
 9345SOL     OW28933   6.668   3.194   1.287
 9345SOL    HW128934   6.635   3.284   1.314
 9345SOL    HW228935   6.755   3.175   1.333
 9346SOL     OW28936   5.653   0.077   0.682
 9346SOL    HW128937   5.736   0.083   0.738
 9346SOL    HW228938   5.617   0.169   0.667
 9347SOL     OW28939   1.470   6.660   1.518
 9347SOL    HW128940   1.431   6.740   1.563
 9347SOL    HW228941   1.396   6.599   1.488
 9348SOL     OW28942   3.155   4.922   6.927
 9348SOL    HW128943   3.077   4.864   6.904
 9348SOL    HW228944   3.124   5.015   6.946
 9349SOL     OW28945   2.266   0.073   2.573
 9349SOL    HW128946   2.280   0.157   2.625
 9349SOL    HW228947   2.311   0.080   2.484
 9350SOL     OW28948   0.633   2.974   6.003
 9350SOL    HW128949   0.685   3.056   6.027
 9350SOL    HW228950   0.694   2.905   5.963
 9351SOL     OW28951   2.937   1.876   6.445
 9351SOL    HW128952   3.031   1.893   6.417
 9351SOL    HW228953   2.931   1.883   6.545
 9352SOL     OW28954   2.379   4.796   5.450
 9352SOL    HW128955   2.349   4.864   5.382
 9352SOL    HW228956   2.459   4.830   5.498
 9353SOL     OW28957   6.433   0.133   1.130
 9353SOL    HW128958   6.515   0.169   1.085
 9353SOL    HW228959   6.376   0.209   1.160
 9354SOL     OW28960   7.002   2.376   6.350
 9354SOL    HW128961   6.968   2.352   6.260
 9354SOL    HW228962   0.065   2.322   6.370
 9355SOL     OW28963   0.050   1.656   5.251
 9355SOL    HW128964   0.113   1.727   5.282
 9355SOL    HW228965   0.085   1.614   5.167
 9356SOL     OW28966   5.301   6.988   2.266
 9356SOL    HW128967   5.305   6.888   2.260
 9356SOL    HW228968   5.251   0.005   2.188
 9357SOL     OW28969   0.748   2.316   6.906
 9357SOL    HW128970   0.733   2.228   6.952
 9357SOL    HW228971   0.661   2.366   6.901
 9358SOL     OW28972   0.754   3.580   1.181
 9358SOL    HW128973   0.823   3.548   1.246
 9358SOL    HW228974   0.746   3.513   1.107
 9359SOL     OW28975   1.601   0.356   5.358
 9359SOL    HW128976   1.642   0.265   5.367
 9359SOL    HW228977   1.637   0.400   5.276
 9360SOL     OW28978   1.178   6.787   6.420
 9360SOL    HW128979   1.200   6.712   6.356
 9360SOL    HW228980   1.240   6.782   6.498
 9361SOL     OW28981   1.995   5.747   4.038
 9361SOL    HW128982   1.933   5.669   4.032
 9361SOL    HW228983   1.949   5.823   4.082
 9362SOL     OW28984   1.893   0.214   2.273
 9362SOL    HW128985   1.864   0.155   2.349
 9362SOL    HW228986   1.977   0.179   2.233
 9363SOL     OW28987   2.111   4.733   2.195
 9363SOL    HW128988   2.039   4.776   2.250
 9363SOL    HW228989   2.096   4.634   2.191
 9364SOL     OW28990   1.480   2.104   0.963
 9364SOL    HW128991   1.508   2.127   0.870
 9364SOL    HW228992   1.404   2.162   0.991
 9365SOL     OW28993   3.236   1.876   4.295
 9365SOL    HW128994   3.228   1.867   4.394
 9365SOL    HW228995   3.201   1.965   4.266
 9366SOL     OW28996   4.104   5.695   1.918
 9366SOL    HW128997   4.092   5.757   1.995
 9366SOL    HW228998   4.020   5.690   1.864
 9367SOL     OW28999   6.990   0.868   1.265
 9367SOL    HW129000   6.938   0.815   1.332
 9367SOL    HW229001   0.067   0.870   1.292
 9368SOL     OW29002   3.416   0.092   3.155
 9368SOL    HW129003   3.431   0.049   3.066
 9368SOL    HW229004   3.496   0.146   3.181
 9369SOL     OW29005   2.926   5.318   0.536
 9369SOL    HW129006   2.909   5.220   0.520
 9369SOL    HW229007   2.959   5.331   0.629
 9370SOL     OW29008   4.513   1.589   4.281
 9370SOL    HW129009   4.592   1.629   4.235
 9370SOL    HW229010   4.543   1.538   4.361
 9371SOL     OW29011   4.210   5.432   0.913
 9371SOL    HW129012   4.161   5.358   0.867
 9371SOL    HW229013   4.170   5.446   1.004
 9372SOL     OW29014   4.626   6.424   1.576
 9372SOL    HW129015   4.538   6.427   1.528
 9372SOL    HW229016   4.611   6.417   1.674
 9373SOL     OW29017   0.024   2.608   1.045
 9373SOL    HW129018   0.090   2.650   0.983
 9373SOL    HW229019   0.046   2.511   1.056
 9374SOL     OW29020   0.339   5.448   5.836
 9374SOL    HW129021   0.329   5.391   5.754
 9374SOL    HW229022   0.280   5.528   5.828
 9375SOL     OW29023   0.240   0.892   0.491
 9375SOL    HW129024   0.334   0.925   0.491
 9375SOL    HW229025   0.201   0.900   0.582
 9376SOL     OW29026   2.351   3.994   1.522
 9376SOL    HW129027   2.413   4.072   1.521
 9376SOL    HW229028   2.265   4.020   1.567
 9377SOL     OW29029   1.977   0.804   3.719
 9377SOL    HW129030   1.958   0.892   3.676
 9377SOL    HW229031   1.891   0.762   3.747
 9378SOL     OW29032   3.163   0.907   4.568
 9378SOL    HW129033   3.103   0.986   4.553
 9378SOL    HW229034   3.247   0.937   4.611
 9379SOL     OW29035   4.511   6.817   4.312
 9379SOL    HW129036   4.534   6.726   4.275
 9379SOL    HW229037   4.465   6.806   4.400
 9380SOL     OW29038   4.896   5.928   0.066
 9380SOL    HW129039   4.991   5.910   0.041
 9380SOL    HW229040   4.836   5.863   0.020
 9381SOL     OW29041   5.823   1.548   5.331
 9381SOL    HW129042   5.833   1.453   5.358
 9381SOL    HW229043   5.912   1.595   5.340
 9382SOL     OW29044   3.172   5.870   5.554
 9382SOL    HW129045   3.216   5.911   5.474
 9382SOL    HW229046   3.240   5.849   5.623
 9383SOL     OW29047   5.828   4.316   2.358
 9383SOL    HW129048   5.920   4.311   2.320
 9383SOL    HW229049   5.827   4.380   2.436
 9384SOL     OW29050   2.509   0.917   2.189
 9384SOL    HW129051   2.498   0.951   2.096
 9384SOL    HW229052   2.441   0.845   2.207
 9385SOL     OW29053   4.834   1.635   3.733
 9385SOL    HW129054   4.785   1.595   3.655
 9385SOL    HW229055   4.864   1.562   3.795
 9386SOL     OW29056   4.773   6.271   0.590
 9386SOL    HW129057   4.735   6.359   0.617
 9386SOL    HW229058   4.781   6.267   0.490
 9387SOL     OW29059   2.808   2.712   0.482
 9387SOL    HW129060   2.805   2.812   0.479
 9387SOL    HW229061   2.716   2.676   0.500
 9388SOL     OW29062   2.373   6.463   5.273
 9388SOL    HW129063   2.368   6.457   5.173
 9388SOL    HW229064   2.291   6.423   5.313
 9389SOL     OW29065   2.446   5.090   2.049
 9389SOL    HW129066   2.440   4.994   2.077
 9389SOL    HW229067   2.420   5.098   1.953
 9390SOL     OW29068   5.269   5.309   4.454
 9390SOL    HW129069   5.200   5.322   4.383
 9390SOL    HW229070   5.252   5.222   4.500
 9391SOL     OW29071   1.436   4.597   4.197
 9391SOL    HW129072   1.400   4.504   4.193
 9391SOL    HW229073   1.522   4.597   4.249
 9392SOL     OW29074   5.074   4.339   3.138
 9392SOL    HW129075   5.005   4.309   3.073
 9392SOL    HW229076   5.094   4.265   3.202
 9393SOL     OW29077   2.414   6.107   6.199
 9393SOL    HW129078   2.334   6.155   6.163
 9393SOL    HW229079   2.472   6.075   6.124
 9394SOL     OW29080   3.674   1.004   0.364
 9394SOL    HW129081   3.670   1.100   0.338
 9394SOL    HW229082   3.725   0.953   0.294
 9395SOL     OW29083   1.821   1.932   0.792
 9395SOL    HW129084   1.761   1.882   0.854
 9395SOL    HW229085   1.803   1.902   0.698
 9396SOL     OW29086   0.489   6.737   6.817
 9396SOL    HW129087   0.482   6.652   6.869
 9396SOL    HW229088   0.399   6.761   6.780
 9397SOL     OW29089   3.514   0.627   5.327
 9397SOL    HW129090   3.577   0.701   5.305
 9397SOL    HW229091   3.433   0.634   5.268
 9398SOL     OW29092   0.842   1.979   0.133
 9398SOL    HW129093   0.920   1.916   0.138
 9398SOL    HW229094   0.850   2.047   0.206
 9399SOL     OW29095   0.969   2.950   4.372
 9399SOL    HW129096   0.881   2.991   4.394
 9399SOL    HW229097   1.038   2.981   4.438
 9400SOL     OW29098   5.558   1.502   0.676
 9400SOL    HW129099   5.656   1.508   0.656
 9400SOL    HW229100   5.505   1.531   0.596
 9401SOL     OW29101   0.640   2.378   3.754
 9401SOL    HW129102   0.632   2.340   3.846
 9401SOL    HW229103   0.665   2.305   3.690
 9402SOL     OW29104   2.513   6.665   4.215
 9402SOL    HW129105   2.586   6.731   4.235
 9402SOL    HW229106   2.468   6.690   4.130
 9403SOL     OW29107   5.868   2.447   1.939
 9403SOL    HW129108   5.799   2.393   1.987
 9403SOL    HW229109   5.846   2.451   1.842
 9404SOL     OW29110   2.237   2.639   0.918
 9404SOL    HW129111   2.278   2.598   0.837
 9404SOL    HW229112   2.153   2.590   0.941
 9405SOL     OW29113   6.835   5.583   5.300
 9405SOL    HW129114   6.867   5.511   5.238
 9405SOL    HW229115   6.886   5.578   5.386
 9406SOL     OW29116   0.709   2.600   0.222
 9406SOL    HW129117   0.613   2.583   0.198
 9406SOL    HW229118   0.765   2.600   0.140
 9407SOL     OW29119   1.672   5.191   5.496
 9407SOL    HW129120   1.598   5.174   5.431
 9407SOL    HW229121   1.752   5.225   5.446
 9408SOL     OW29122   0.090   3.752   4.540
 9408SOL    HW129123   0.146   3.684   4.588
 9408SOL    HW229124   0.130   3.842   4.553
 9409SOL     OW29125   6.389   5.222   2.907
 9409SOL    HW129126   6.391   5.276   2.991
 9409SOL    HW229127   6.390   5.125   2.930
 9410SOL     OW29128   3.486   0.803   0.756
 9410SOL    HW129129   3.531   0.817   0.667
 9410SOL    HW229130   3.457   0.892   0.792
 9411SOL     OW29131   2.891   3.437   2.613
 9411SOL    HW129132   2.951   3.503   2.569
 9411SOL    HW229133   2.945   3.377   2.672
 9412SOL     OW29134   5.702   6.319   1.451
 9412SOL    HW129135   5.639   6.280   1.518
 9412SOL    HW229136   5.774   6.371   1.498
 9413SOL     OW29137   4.811   3.906   2.871
 9413SOL    HW129138   4.797   3.854   2.956
 9413SOL    HW229139   4.820   3.843   2.794
 9414SOL     OW29140   1.979   2.260   3.335
 9414SOL    HW129141   2.050   2.323   3.303
 9414SOL    HW229142   1.919   2.236   3.259
 9415SOL     OW29143   5.429   1.159   2.098
 9415SOL    HW129144   5.449   1.248   2.139
 9415SOL    HW229145   5.332   1.137   2.110
 9416SOL     OW29146   5.553   5.375   5.057
 9416SOL    HW129147   5.601   5.408   5.138
 9416SOL    HW229148   5.513   5.285   5.077
 9417SOL     OW29149   2.955   5.597   2.683
 9417SOL    HW129150   2.896   5.564   2.610
 9417SOL    HW229151   2.901   5.653   2.747
 9418SOL     OW29152   3.627   1.604   5.068
 9418SOL    HW129153   3.537   1.611   5.110
 9418SOL    HW229154   3.698   1.611   5.138
 9419SOL     OW29155   1.624   3.123   6.660
 9419SOL    HW129156   1.687   3.113   6.583
 9419SOL    HW229157   1.642   3.051   6.727
 9420SOL     OW29158   5.664   4.100   6.535
 9420SOL    HW129159   5.706   4.190   6.524
 9420SOL    HW229160   5.567   4.111   6.552
 9421SOL     OW29161   4.180   6.521   0.000
 9421SOL    HW129162   4.082   6.511   0.017
 9421SOL    HW229163   4.230   6.515   0.087
 9422SOL     OW29164   1.878   6.067   5.794
 9422SOL    HW129165   1.967   6.024   5.810
 9422SOL    HW229166   1.835   6.089   5.882
 9423SOL     OW29167   4.434   4.737   2.386
 9423SOL    HW129168   4.479   4.671   2.445
 9423SOL    HW229169   4.503   4.795   2.342
 9424SOL     OW29170   6.267   0.287   3.927
 9424SOL    HW129171   6.273   0.357   3.998
 9424SOL    HW229172   6.336   0.305   3.857
 9425SOL     OW29173   6.611   3.982   1.044
 9425SOL    HW129174   6.519   4.018   1.030
 9425SOL    HW229175   6.642   3.935   0.961
 9426SOL     OW29176   6.275   2.791   5.955
 9426SOL    HW129177   6.293   2.850   6.034
 9426SOL    HW229178   6.185   2.813   5.917
 9427SOL     OW29179   4.628   4.299   2.767
 9427SOL    HW129180   4.546   4.353   2.783
 9427SOL    HW229181   4.682   4.295   2.851
 9428SOL     OW29182   1.237   5.737   5.821
 9428SOL    HW129183   1.276   5.674   5.888
 9428SOL    HW229184   1.187   5.684   5.752
 9429SOL     OW29185   2.414   2.681   4.349
 9429SOL    HW129186   2.486   2.611   4.347
 9429SOL    HW229187   2.377   2.689   4.441
 9430SOL     OW29188   1.562   1.649   4.430
 9430SOL    HW129189   1.560   1.743   4.467
 9430SOL    HW229190   1.657   1.620   4.420
 9431SOL     OW29191   0.561   4.450   5.731
 9431SOL    HW129192   0.496   4.444   5.655
 9431SOL    HW229193   0.603   4.540   5.732
 9432SOL     OW29194   6.693   1.318   3.675
 9432SOL    HW129195   6.724   1.304   3.769
 9432SOL    HW229196   6.644   1.237   3.643
 9433SOL     OW29197   4.512   6.007   1.628
 9433SOL    HW129198   4.420   5.978   1.654
 9433SOL    HW229199   4.564   5.928   1.596
 9434SOL     OW29200   4.769   5.772   4.055
 9434SOL    HW129201   4.671   5.774   4.034
 9434SOL    HW229202   4.821   5.774   3.969
 9435SOL     OW29203   6.648   3.651   0.706
 9435SOL    HW129204   6.716   3.580   0.724
 9435SOL    HW229205   6.570   3.610   0.659
 9436SOL     OW29206   2.455   0.908   3.236
 9436SOL    HW129207   2.433   0.889   3.140
 9436SOL    HW229208   2.423   0.999   3.260
 9437SOL     OW29209   5.372   0.415   5.196
 9437SOL    HW129210   5.354   0.356   5.117
 9437SOL    HW229211   5.407   0.360   5.272
 9438SOL     OW29212   4.579   6.949   2.724
 9438SOL    HW129213   4.666   6.983   2.761
 9438SOL    HW229214   4.508   7.018   2.738
 9439SOL     OW29215   1.736   4.093   1.301
 9439SOL    HW129216   1.819   4.039   1.290
 9439SOL    HW229217   1.667   4.038   1.348
 9440SOL     OW29218   1.988   5.038   3.384
 9440SOL    HW129219   2.032   4.953   3.413
 9440SOL    HW229220   1.913   5.017   3.322
 9441SOL     OW29221   0.187   6.755   4.475
 9441SOL    HW129222   0.182   6.839   4.527
 9441SOL    HW229223   0.163   6.773   4.379
 9442SOL     OW29224   6.267   3.177   0.803
 9442SOL    HW129225   6.233   3.147   0.893
 9442SOL    HW229226   6.197   3.160   0.734
 9443SOL     OW29227   2.024   4.535   2.399
 9443SOL    HW129228   1.972   4.617   2.422
 9443SOL    HW229229   2.107   4.531   2.454
 9444SOL     OW29230   1.596   4.994   6.205
 9444SOL    HW129231   1.644   4.911   6.234
 9444SOL    HW229232   1.655   5.073   6.218
 9445SOL     OW29233   6.908   1.407   4.426
 9445SOL    HW129234   6.891   1.324   4.480
 9445SOL    HW229235   6.975   1.464   4.473
 9446SOL     OW29236   6.168   3.562   4.442
 9446SOL    HW129237   6.235   3.633   4.461
 9446SOL    HW229238   6.202   3.474   4.477
 9447SOL     OW29239   4.910   4.169   2.270
 9447SOL    HW129240   4.822   4.209   2.298
 9447SOL    HW229241   4.896   4.073   2.245
 9448SOL     OW29242   6.237   1.421   6.113
 9448SOL    HW129243   6.311   1.413   6.180
 9448SOL    HW229244   6.170   1.349   6.128
 9449SOL     OW29245   5.234   6.754   2.169
 9449SOL    HW129246   5.145   6.717   2.193
 9449SOL    HW229247   5.239   6.767   2.070
 9450SOL     OW29248   1.306   6.293   2.883
 9450SOL    HW129249   1.277   6.382   2.918
 9450SOL    HW229250   1.244   6.263   2.810
 9451SOL     OW29251   4.176   5.249   6.642
 9451SOL    HW129252   4.082   5.235   6.672
 9451SOL    HW229253   4.234   5.269   6.721
 9452SOL     OW29254   5.870   4.296   6.460
 9452SOL    HW129255   5.888   4.332   6.369
 9452SOL    HW229256   5.819   4.363   6.514
 9453SOL     OW29257   5.157   4.394   1.939
 9453SOL    HW129258   5.106   4.384   1.854
 9453SOL    HW229259   5.186   4.489   1.950
 9454SOL     OW29260   6.072   4.705   0.215
 9454SOL    HW129261   6.056   4.796   0.252
 9454SOL    HW229262   6.026   4.637   0.273
 9455SOL     OW29263   4.329   1.085   1.655
 9455SOL    HW129264   4.278   1.145   1.717
 9455SOL    HW229265   4.295   0.991   1.666
 9456SOL     OW29266   6.915   2.536   3.202
 9456SOL    HW129267   6.837   2.558   3.261
 9456SOL    HW229268   6.983   2.484   3.253
 9457SOL     OW29269   6.453   6.598   4.973
 9457SOL    HW129270   6.385   6.595   4.900
 9457SOL    HW229271   6.528   6.536   4.951
 9458SOL     OW29272   5.708   3.996   0.357
 9458SOL    HW129273   5.677   4.089   0.336
 9458SOL    HW229274   5.808   3.991   0.348
 9459SOL     OW29275   4.591   4.636   5.001
 9459SOL    HW129276   4.628   4.672   4.916
 9459SOL    HW229277   4.500   4.598   4.985
 9460SOL     OW29278   1.225   3.156   2.194
 9460SOL    HW129279   1.310   3.126   2.152
 9460SOL    HW229280   1.243   3.198   2.283
 9461SOL     OW29281   1.732   1.624   1.511
 9461SOL    HW129282   1.711   1.613   1.413
 9461SOL    HW229283   1.669   1.568   1.565
 9462SOL     OW29284   7.001   1.308   4.176
 9462SOL    HW129285   6.993   1.209   4.162
 9462SOL    HW229286   6.963   1.332   4.265
 9463SOL     OW29287   5.860   4.431   1.297
 9463SOL    HW129288   5.764   4.413   1.276
 9463SOL    HW229289   5.917   4.393   1.224
 9464SOL     OW29290   1.424   0.716   1.864
 9464SOL    HW129291   1.418   0.687   1.769
 9464SOL    HW229292   1.411   0.815   1.869
 9465SOL     OW29293   6.451   5.268   0.716
 9465SOL    HW129294   6.443   5.231   0.623
 9465SOL    HW229295   6.460   5.367   0.712
 9466SOL     OW29296   4.402   3.655   5.612
 9466SOL    HW129297   4.412   3.668   5.514
 9466SOL    HW229298   4.439   3.566   5.638
 9467SOL     OW29299   1.592   2.767   0.465
 9467SOL    HW129300   1.616   2.679   0.423
 9467SOL    HW229301   1.653   2.838   0.431
 9468SOL     OW29302   6.056   1.341   0.639
 9468SOL    HW129303   6.038   1.247   0.670
 9468SOL    HW229304   6.078   1.339   0.541
 9469SOL     OW29305   6.803   6.580   1.205
 9469SOL    HW129306   6.813   6.663   1.259
 9469SOL    HW229307   6.816   6.601   1.108
 9470SOL     OW29308   3.206   3.386   0.226
 9470SOL    HW129309   3.264   3.417   0.152
 9470SOL    HW229310   3.116   3.430   0.220
 9471SOL     OW29311   6.384   2.739   4.787
 9471SOL    HW129312   6.354   2.656   4.739
 9471SOL    HW229313   6.305   2.786   4.826
 9472SOL     OW29314   1.573   3.328   5.868
 9472SOL    HW129315   1.667   3.362   5.869
 9472SOL    HW229316   1.572   3.233   5.838
 9473SOL     OW29317   2.679   4.148   1.175
 9473SOL    HW129318   2.718   4.211   1.108
 9473SOL    HW229319   2.744   4.134   1.249
 9474SOL     OW29320   5.362   4.278   1.034
 9474SOL    HW129321   5.373   4.371   1.001
 9474SOL    HW229322   5.391   4.214   0.963
 9475SOL     OW29323   5.026   4.207   5.950
 9475SOL    HW129324   5.001   4.200   6.046
 9475SOL    HW229325   4.964   4.152   5.895
 9476SOL     OW29326   4.444   3.827   0.869
 9476SOL    HW129327   4.355   3.791   0.897
 9476SOL    HW229328   4.513   3.800   0.936
 9477SOL     OW29329   2.642   4.898   0.377
 9477SOL    HW129330   2.641   4.812   0.326
 9477SOL    HW229331   2.554   4.910   0.424
 9478SOL     OW29332   5.640   3.577   6.076
 9478SOL    HW129333   5.729   3.573   6.032
 9478SOL    HW229334   5.619   3.671   6.101
 9479SOL     OW29335   4.988   0.656   1.797
 9479SOL    HW129336   4.939   0.742   1.782
 9479SOL    HW229337   5.079   0.675   1.833
 9480SOL     OW29338   6.123   0.683   0.992
 9480SOL    HW129339   6.163   0.753   0.932
 9480SOL    HW229340   6.053   0.725   1.050
 9481SOL     OW29341   4.218   0.518   3.063
 9481SOL    HW129342   4.251   0.476   3.147
 9481SOL    HW229343   4.139   0.468   3.029
 9482SOL     OW29344   5.923   5.933   6.937
 9482SOL    HW129345   5.995   5.877   6.898
 9482SOL    HW229346   5.860   5.963   6.865
 9483SOL     OW29347   6.767   6.487   0.024
 9483SOL    HW129348   6.691   6.444   0.072
 9483SOL    HW229349   6.738   6.577   7.009
 9484SOL     OW29350   3.334   5.999   4.260
 9484SOL    HW129351   3.414   5.944   4.285
 9484SOL    HW229352   3.297   5.967   4.173
 9485SOL     OW29353   0.043   1.163   6.103
 9485SOL    HW129354   0.041   1.160   6.203
 9485SOL    HW229355   0.048   1.258   6.073
 9486SOL     OW29356   6.180   5.219   6.760
 9486SOL    HW129357   6.105   5.257   6.815
 9486SOL    HW229358   6.213   5.135   6.802
 9487SOL     OW29359   3.330   3.729   2.822
 9487SOL    HW129360   3.324   3.768   2.730
 9487SOL    HW229361   3.290   3.793   2.888
 9488SOL     OW29362   1.678   0.932   1.183
 9488SOL    HW129363   1.765   0.884   1.198
 9488SOL    HW229364   1.650   0.919   1.088
 9489SOL     OW29365   5.533   3.354   0.735
 9489SOL    HW129366   5.553   3.338   0.831
 9489SOL    HW229367   5.544   3.269   0.683
 9490SOL     OW29368   5.408   3.463   4.821
 9490SOL    HW129369   5.471   3.420   4.756
 9490SOL    HW229370   5.428   3.561   4.827
 9491SOL     OW29371   5.411   0.183   2.720
 9491SOL    HW129372   5.380   0.094   2.754
 9491SOL    HW229373   5.475   0.169   2.644
 9492SOL     OW29374   5.245   2.977   3.407
 9492SOL    HW129375   5.175   2.965   3.477
 9492SOL    HW229376   5.333   2.998   3.450
 9493SOL     OW29377   3.981   5.966   1.325
 9493SOL    HW129378   3.954   6.055   1.288
 9493SOL    HW229379   4.066   5.935   1.282
 9494SOL     OW29380   5.776   1.904   2.073
 9494SOL    HW129381   5.742   1.864   1.988
 9494SOL    HW229382   5.854   1.964   2.052
 9495SOL     OW29383   6.552   2.604   1.243
 9495SOL    HW129384   6.612   2.539   1.197
 9495SOL    HW229385   6.484   2.554   1.297
 9496SOL     OW29386   5.572   2.067   1.287
 9496SOL    HW129387   5.490   2.047   1.233
 9496SOL    HW229388   5.555   2.044   1.383
 9497SOL     OW29389   4.571   4.732   4.674
 9497SOL    HW129390   4.635   4.805   4.648
 9497SOL    HW229391   4.510   4.765   4.745
 9498SOL     OW29392   1.133   5.546   4.298
 9498SOL    HW129393   1.121   5.627   4.355
 9498SOL    HW229394   1.046   5.524   4.253
 9499SOL     OW29395   5.690   5.811   4.583
 9499SOL    HW129396   5.606   5.775   4.624
 9499SOL    HW229397   5.687   5.911   4.583
 9500SOL     OW29398   3.113   1.999   0.817
 9500SOL    HW129399   3.043   1.928   0.822
 9500SOL    HW229400   3.169   1.997   0.899
 9501SOL     OW29401   1.792   3.882   4.857
 9501SOL    HW129402   1.800   3.804   4.918
 9501SOL    HW229403   1.741   3.955   4.903
 9502SOL     OW29404   5.481   4.796   4.009
 9502SOL    HW129405   5.533   4.825   3.929
 9502SOL    HW229406   5.385   4.782   3.984
 9503SOL     OW29407   6.304   1.325   0.198
 9503SOL    HW129408   6.402   1.309   0.181
 9503SOL    HW229409   6.257   1.336   0.111
 9504SOL     OW29410   6.115   5.191   2.254
 9504SOL    HW129411   6.084   5.182   2.349
 9504SOL    HW229412   6.078   5.115   2.200
 9505SOL     OW29413   4.368   4.386   6.059
 9505SOL    HW129414   4.345   4.475   6.019
 9505SOL    HW229415   4.467   4.378   6.069
 9506SOL     OW29416   2.883   0.621   1.285
 9506SOL    HW129417   2.905   0.619   1.187
 9506SOL    HW229418   2.895   0.530   1.324
 9507SOL     OW29419   5.650   0.107   2.527
 9507SOL    HW129420   5.675   0.165   2.450
 9507SOL    HW229421   5.650   0.011   2.498
 9508SOL     OW29422   4.395   1.784   2.594
 9508SOL    HW129423   4.363   1.690   2.601
 9508SOL    HW229424   4.373   1.834   2.678
 9509SOL     OW29425   5.278   0.862   3.214
 9509SOL    HW129426   5.322   0.827   3.297
 9509SOL    HW229427   5.312   0.954   3.194
 9510SOL     OW29428   1.693   2.809   3.743
 9510SOL    HW129429   1.653   2.740   3.683
 9510SOL    HW229430   1.758   2.865   3.691
 9511SOL     OW29431   0.142   1.507   0.806
 9511SOL    HW129432   0.116   1.602   0.788
 9511SOL    HW229433   0.148   1.457   0.720
 9512SOL     OW29434   6.631   1.988   1.223
 9512SOL    HW129435   6.548   1.939   1.199
 9512SOL    HW229436   6.608   2.079   1.258
 9513SOL     OW29437   4.347   3.931   5.784
 9513SOL    HW129438   4.280   3.880   5.730
 9513SOL    HW229439   4.306   4.015   5.817
 9514SOL     OW29440   3.667   3.032   6.668
 9514SOL    HW129441   3.658   3.052   6.570
 9514SOL    HW229442   3.577   3.032   6.710
 9515SOL     OW29443   0.467   5.445   3.898
 9515SOL    HW129444   0.437   5.540   3.890
 9515SOL    HW229445   0.537   5.438   3.969
 9516SOL     OW29446   0.091   4.252   6.979
 9516SOL    HW129447   0.055   4.236   6.887
 9516SOL    HW229448   0.132   4.168   7.013
 9517SOL     OW29449   0.282   6.446   1.589
 9517SOL    HW129450   0.263   6.349   1.577
 9517SOL    HW229451   0.314   6.463   1.682
 9518SOL     OW29452   1.256   0.894   1.217
 9518SOL    HW129453   1.309   0.809   1.214
 9518SOL    HW229454   1.281   0.951   1.139
 9519SOL     OW29455   1.311   2.755   5.327
 9519SOL    HW129456   1.249   2.832   5.345
 9519SOL    HW229457   1.258   2.671   5.315
 9520SOL     OW29458   4.482   0.069   1.574
 9520SOL    HW129459   4.578   0.048   1.554
 9520SOL    HW229460   4.474   0.106   1.666
 9521SOL     OW29461   5.170   5.429   3.194
 9521SOL    HW129462   5.227   5.507   3.170
 9521SOL    HW229463   5.117   5.450   3.276
 9522SOL     OW29464   3.066   6.155   0.564
 9522SOL    HW129465   2.967   6.149   0.574
 9522SOL    HW229466   3.089   6.224   0.495
 9523SOL     OW29467   2.037   6.301   5.611
 9523SOL    HW129468   2.037   6.215   5.559
 9523SOL    HW229469   1.942   6.327   5.632
 9524SOL     OW29470   4.642   2.170   0.785
 9524SOL    HW129471   4.642   2.270   0.784
 9524SOL    HW229472   4.569   2.136   0.727
 9525SOL     OW29473   4.032   0.540   4.922
 9525SOL    HW129474   3.962   0.507   4.986
 9525SOL    HW229475   4.011   0.634   4.895
 9526SOL     OW29476   4.740   5.994   2.003
 9526SOL    HW129477   4.642   5.996   1.985
 9526SOL    HW229478   4.787   6.057   1.941
 9527SOL     OW29479   6.393   1.872   1.143
 9527SOL    HW129480   6.434   1.838   1.059
 9527SOL    HW229481   6.294   1.876   1.132
 9528SOL     OW29482   6.692   0.798   1.921
 9528SOL    HW129483   6.650   0.843   1.843
 9528SOL    HW229484   6.791   0.790   1.906
 9529SOL     OW29485   0.993   3.740   4.568
 9529SOL    HW129486   1.093   3.740   4.570
 9529SOL    HW229487   0.962   3.711   4.477
 9530SOL     OW29488   1.384   2.430   4.238
 9530SOL    HW129489   1.377   2.387   4.148
 9530SOL    HW229490   1.297   2.423   4.286
 9531SOL     OW29491   2.703   6.276   3.456
 9531SOL    HW129492   2.702   6.263   3.555
 9531SOL    HW229493   2.726   6.371   3.435
 9532SOL     OW29494   2.660   1.315   1.637
 9532SOL    HW129495   2.673   1.393   1.575
 9532SOL    HW229496   2.624   1.348   1.724
 9533SOL     OW29497   1.882   0.557   4.755
 9533SOL    HW129498   1.981   0.565   4.742
 9533SOL    HW229499   1.835   0.581   4.671
 9534SOL     OW29500   4.679   2.128   4.342
 9534SOL    HW129501   4.688   2.210   4.286
 9534SOL    HW229502   4.769   2.087   4.356
 9535SOL     OW29503   2.858   2.296   4.508
 9535SOL    HW129504   2.786   2.365   4.492
 9535SOL    HW229505   2.853   2.264   4.602
 9536SOL     OW29506   2.933   6.692   6.547
 9536SOL    HW129507   2.944   6.652   6.637
 9536SOL    HW229508   2.838   6.680   6.516
 9537SOL     OW29509   2.504   6.296   0.538
 9537SOL    HW129510   2.506   6.329   0.633
 9537SOL    HW229511   2.443   6.353   0.484
 9538SOL     OW29512   6.097   3.321   3.833
 9538SOL    HW129513   6.140   3.337   3.744
 9538SOL    HW229514   6.008   3.368   3.835
 9539SOL     OW29515   0.375   4.266   0.472
 9539SOL    HW129516   0.455   4.321   0.498
 9539SOL    HW229517   0.373   4.182   0.526
 9540SOL     OW29518   5.501   2.987   5.555
 9540SOL    HW129519   5.416   3.037   5.567
 9540SOL    HW229520   5.535   3.000   5.462
 9541SOL     OW29521   0.035   1.596   3.521
 9541SOL    HW129522   0.050   1.606   3.422
 9541SOL    HW229523   0.080   1.671   3.569
 9542SOL     OW29524   4.759   4.465   4.712
 9542SOL    HW129525   4.823   4.461   4.636
 9542SOL    HW229526   4.697   4.543   4.700
 9543SOL     OW29527   5.638   2.320   1.233
 9543SOL    HW129528   5.622   2.225   1.261
 9543SOL    HW229529   5.595   2.335   1.144
 9544SOL     OW29530   3.949   1.644   2.061
 9544SOL    HW129531   3.891   1.635   1.980
 9544SOL    HW229532   3.931   1.568   2.123
 9545SOL     OW29533   1.505   0.110   4.405
 9545SOL    HW129534   1.511   0.186   4.470
 9545SOL    HW229535   1.543   0.027   4.445
 9546SOL     OW29536   2.309   4.616   1.947
 9546SOL    HW129537   2.322   4.714   1.933
 9546SOL    HW229538   2.236   4.601   2.014
 9547SOL     OW29539   6.115   5.534   3.825
 9547SOL    HW129540   6.166   5.613   3.789
 9547SOL    HW229541   6.157   5.450   3.792
 9548SOL     OW29542   4.494   6.705   2.771
 9548SOL    HW129543   4.522   6.797   2.740
 9548SOL    HW229544   4.542   6.683   2.856
 9549SOL     OW29545   2.628   5.137   0.687
 9549SOL    HW129546   2.611   5.225   0.731
 9549SOL    HW229547   2.710   5.095   0.726
 9550SOL     OW29548   1.400   0.708   0.151
 9550SOL    HW129549   1.378   0.751   0.064
 9550SOL    HW229550   1.500   0.701   0.161
 9551SOL     OW29551   1.271   6.143   5.886
 9551SOL    HW129552   1.178   6.106   5.875
 9551SOL    HW229553   1.336   6.068   5.898
 9552SOL     OW29554   0.514   5.134   3.357
 9552SOL    HW129555   0.608   5.103   3.372
 9552SOL    HW229556   0.457   5.056   3.332
 9553SOL     OW29557   5.432   4.645   5.822
 9553SOL    HW129558   5.410   4.710   5.750
 9553SOL    HW229559   5.437   4.552   5.784
 9554SOL     OW29560   2.113   1.865   1.301
 9554SOL    HW129561   2.147   1.862   1.395
 9554SOL    HW229562   2.033   1.805   1.293
 9555SOL     OW29563   0.066   2.846   6.312
 9555SOL    HW129564   0.078   2.759   6.263
 9555SOL    HW229565   0.106   2.838   6.403
 9556SOL     OW29566   6.399   1.501   0.789
 9556SOL    HW129567   6.377   1.405   0.807
 9556SOL    HW229568   6.318   1.549   0.756
 9557SOL     OW29569   5.563   2.156   1.953
 9557SOL    HW129570   5.489   2.217   1.924
 9557SOL    HW229571   5.559   2.071   1.901
 9558SOL     OW29572   5.475   4.621   1.983
 9558SOL    HW129573   5.403   4.618   1.914
 9558SOL    HW229574   5.440   4.584   2.069
 9559SOL     OW29575   6.530   3.791   2.852
 9559SOL    HW129576   6.608   3.735   2.880
 9559SOL    HW229577   6.472   3.738   2.789
 9560SOL     OW29578   3.920   2.239   5.164
 9560SOL    HW129579   3.995   2.293   5.125
 9560SOL    HW229580   3.888   2.282   5.248
 9561SOL     OW29581   2.808   6.389   6.392
 9561SOL    HW129582   2.816   6.294   6.363
 9561SOL    HW229583   2.896   6.435   6.381
 9562SOL     OW29584   6.006   4.478   4.034
 9562SOL    HW129585   6.008   4.569   3.992
 9562SOL    HW229586   5.923   4.468   4.088
 9563SOL     OW29587   0.562   6.158   6.546
 9563SOL    HW129588   0.556   6.183   6.643
 9563SOL    HW229589   0.655   6.129   6.524
 9564SOL     OW29590   1.745   0.683   6.567
 9564SOL    HW129591   1.807   0.762   6.572
 9564SOL    HW229592   1.790   0.602   6.604
 9565SOL     OW29593   3.937   5.855   3.978
 9565SOL    HW129594   3.966   5.830   3.886
 9565SOL    HW229595   3.909   5.772   4.028
 9566SOL     OW29596   3.725   4.768   6.122
 9566SOL    HW129597   3.657   4.764   6.194
 9566SOL    HW229598   3.796   4.834   6.147
 9567SOL     OW29599   6.026   5.555   4.855
 9567SOL    HW129600   6.050   5.463   4.825
 9567SOL    HW229601   5.932   5.575   4.827
 9568SOL     OW29602   5.184   3.927   6.309
 9568SOL    HW129603   5.084   3.927   6.317
 9568SOL    HW229604   5.222   3.852   6.364
 9569SOL     OW29605   5.231   6.786   1.882
 9569SOL    HW129606   5.239   6.864   1.820
 9569SOL    HW229607   5.245   6.701   1.830
 9570SOL     OW29608   0.800   1.338   6.635
 9570SOL    HW129609   0.719   1.287   6.608
 9570SOL    HW229610   0.780   1.436   6.634
 9571SOL     OW29611   2.358   2.737   6.994
 9571SOL    HW129612   2.314   2.730   0.064
 9571SOL    HW229613   2.431   2.669   6.988
 9572SOL     OW29614   0.572   3.385   1.273
 9572SOL    HW129615   0.542   3.309   1.214
 9572SOL    HW229616   0.612   3.457   1.217
 9573SOL     OW29617   5.619   1.211   1.896
 9573SOL    HW129618   5.698   1.150   1.903
 9573SOL    HW229619   5.569   1.211   1.983
 9574SOL     OW29620   2.804   1.872   3.712
 9574SOL    HW129621   2.885   1.906   3.759
 9574SOL    HW229622   2.723   1.892   3.768
 9575SOL     OW29623   4.665   0.883   2.556
 9575SOL    HW129624   4.685   0.941   2.635
 9575SOL    HW229625   4.610   0.933   2.490
 9576SOL     OW29626   4.165   3.100   5.662
 9576SOL    HW129627   4.189   3.195   5.682
 9576SOL    HW229628   4.248   3.046   5.655
 9577SOL     OW29629   0.700   6.217   3.292
 9577SOL    HW129630   0.670   6.155   3.220
 9577SOL    HW229631   0.791   6.188   3.324
 9578SOL     OW29632   6.443   4.394   2.179
 9578SOL    HW129633   6.354   4.430   2.150
 9578SOL    HW229634   6.429   4.307   2.227
 9579SOL     OW29635   2.012   5.667   2.866
 9579SOL    HW129636   1.948   5.736   2.833
 9579SOL    HW229637   1.981   5.634   2.956
 9580SOL     OW29638   4.025   3.401   5.721
 9580SOL    HW129639   4.118   3.378   5.691
 9580SOL    HW229640   4.012   3.369   5.815
 9581SOL     OW29641   0.965   5.627   5.737
 9581SOL    HW129642   0.959   5.583   5.827
 9581SOL    HW229643   0.927   5.566   5.668
 9582SOL     OW29644   4.184   5.083   3.539
 9582SOL    HW129645   4.281   5.097   3.559
 9582SOL    HW229646   4.173   5.000   3.484
 9583SOL     OW29647   2.124   4.995   1.624
 9583SOL    HW129648   2.201   4.980   1.561
 9583SOL    HW229649   2.079   4.907   1.642
 9584SOL     OW29650   4.815   5.099   0.109
 9584SOL    HW129651   4.870   5.183   0.118
 9584SOL    HW229652   4.818   5.067   0.015
 9585SOL     OW29653   0.894   0.477   3.244
 9585SOL    HW129654   0.918   0.389   3.201
 9585SOL    HW229655   0.932   0.480   3.336
 9586SOL     OW29656   5.293   3.603   2.356
 9586SOL    HW129657   5.362   3.592   2.284
 9586SOL    HW229658   5.312   3.687   2.408
 9587SOL     OW29659   5.014   6.187   1.445
 9587SOL    HW129660   4.959   6.259   1.488
 9587SOL    HW229661   5.021   6.108   1.506
 9588SOL     OW29662   6.651   0.775   2.849
 9588SOL    HW129663   6.576   0.711   2.867
 9588SOL    HW229664   6.738   0.732   2.873
 9589SOL     OW29665   2.900   1.969   5.002
 9589SOL    HW129666   2.885   2.067   4.990
 9589SOL    HW229667   2.913   1.949   5.099
 9590SOL     OW29668   0.519   5.460   4.563
 9590SOL    HW129669   0.513   5.361   4.575
 9590SOL    HW229670   0.612   5.490   4.583
 9591SOL     OW29671   1.259   4.832   2.636
 9591SOL    HW129672   1.257   4.931   2.620
 9591SOL    HW229673   1.168   4.794   2.618
 9592SOL     OW29674   5.257   6.055   1.179
 9592SOL    HW129675   5.264   5.972   1.124
 9592SOL    HW229676   5.279   6.035   1.274
 9593SOL     OW29677   2.478   2.504   3.656
 9593SOL    HW129678   2.545   2.487   3.729
 9593SOL    HW229679   2.404   2.437   3.663
 9594SOL     OW29680   6.170   6.982   0.832
 9594SOL    HW129681   6.151   6.984   0.930
 9594SOL    HW229682   6.214   0.048   0.805
 9595SOL     OW29683   0.844   4.543   4.249
 9595SOL    HW129684   0.784   4.531   4.170
 9595SOL    HW229685   0.817   4.479   4.322
 9596SOL     OW29686   5.173   5.402   2.288
 9596SOL    HW129687   5.135   5.431   2.375
 9596SOL    HW229688   5.160   5.304   2.277
 9597SOL     OW29689   1.988   4.246   0.852
 9597SOL    HW129690   1.944   4.302   0.782
 9597SOL    HW229691   1.938   4.256   0.938
 9598SOL     OW29692   1.014   5.922   5.861
 9598SOL    HW129693   1.068   5.876   5.791
 9598SOL    HW229694   0.974   5.853   5.923
 9599SOL     OW29695   4.334   1.417   4.872
 9599SOL    HW129696   4.372   1.505   4.900
 9599SOL    HW229697   4.236   1.426   4.855
 9600SOL     OW29698   2.079   5.901   6.574
 9600SOL    HW129699   2.016   5.844   6.522
 9600SOL    HW229700   2.070   5.879   6.672
 9601SOL     OW29701   0.487   6.825   6.138
 9601SOL    HW129702   0.539   6.860   6.215
 9601SOL    HW229703   0.494   6.725   6.136
 9602SOL     OW29704   0.420   5.151   6.548
 9602SOL    HW129705   0.396   5.221   6.616
 9602SOL    HW229706   0.480   5.192   6.479
 9603SOL     OW29707   0.990   5.270   2.711
 9603SOL    HW129708   1.045   5.336   2.763
 9603SOL    HW229709   0.916   5.236   2.769
 9604SOL     OW29710   6.599   6.688   6.966
 9604SOL    HW129711   6.666   6.751   7.007
 9604SOL    HW229712   6.578   6.718   6.873
 9605SOL     OW29713   2.897   5.030   0.482
 9605SOL    HW129714   2.945   4.949   0.515
 9605SOL    HW229715   2.802   5.006   0.461
 9606SOL     OW29716   6.761   0.103   5.302
 9606SOL    HW129717   6.708   0.170   5.354
 9606SOL    HW229718   6.700   0.048   5.245
 9607SOL     OW29719   0.027   2.131   2.106
 9607SOL    HW129720   0.029   2.172   2.015
 9607SOL    HW229721   0.091   2.178   2.166
 9608SOL     OW29722   6.480   0.321   2.516
 9608SOL    HW129723   6.458   0.331   2.419
 9608SOL    HW229724   6.399   0.342   2.571
 9609SOL     OW29725   1.819   2.192   3.608
 9609SOL    HW129726   1.883   2.190   3.685
 9609SOL    HW229727   1.868   2.166   3.525
 9610SOL     OW29728   3.658   0.547   5.748
 9610SOL    HW129729   3.728   0.546   5.820
 9610SOL    HW229730   3.697   0.508   5.664
 9611SOL     OW29731   5.581   6.216   0.993
 9611SOL    HW129732   5.660   6.278   0.989
 9611SOL    HW229733   5.549   6.197   0.900
 9612SOL     OW29734   5.199   3.650   3.317
 9612SOL    HW129735   5.203   3.636   3.218
 9612SOL    HW229736   5.283   3.692   3.349
 9613SOL     OW29737   5.832   0.340   5.533
 9613SOL    HW129738   5.743   0.314   5.570
 9613SOL    HW229739   5.891   0.259   5.527
 9614SOL     OW29740   3.223   2.615   1.512
 9614SOL    HW129741   3.223   2.715   1.524
 9614SOL    HW229742   3.154   2.575   1.572
 9615SOL     OW29743   0.522   6.479   3.747
 9615SOL    HW129744   0.588   6.551   3.724
 9615SOL    HW229745   0.474   6.504   3.831
 9616SOL     OW29746   1.604   2.997   1.480
 9616SOL    HW129747   1.671   3.050   1.428
 9616SOL    HW229748   1.543   2.949   1.417
 9617SOL     OW29749   0.098   2.984   2.234
 9617SOL    HW129750   0.005   2.949   2.224
 9617SOL    HW229751   0.122   2.989   2.331
 9618SOL     OW29752   4.496   3.988   0.680
 9618SOL    HW129753   4.588   3.975   0.643
 9618SOL    HW229754   4.476   3.916   0.747
 9619SOL     OW29755   0.667   6.998   1.592
 9619SOL    HW129756   0.617   6.912   1.607
 9619SOL    HW229757   0.601   0.052   1.575
 9620SOL     OW29758   3.007   1.713   6.911
 9620SOL    HW129759   3.081   1.671   6.963
 9620SOL    HW229760   3.024   1.704   6.813
 9621SOL     OW29761   0.697   0.850   1.832
 9621SOL    HW129762   0.724   0.942   1.804
 9621SOL    HW229763   0.627   0.856   1.903
 9622SOL     OW29764   6.386   5.600   5.998
 9622SOL    HW129765   6.432   5.669   5.942
 9622SOL    HW229766   6.324   5.547   5.940
 9623SOL     OW29767   3.517   6.224   5.698
 9623SOL    HW129768   3.442   6.176   5.745
 9623SOL    HW229769   3.480   6.272   5.618
 9624SOL     OW29770   4.394   5.353   5.402
 9624SOL    HW129771   4.489   5.345   5.433
 9624SOL    HW229772   4.388   5.322   5.307
 9625SOL     OW29773   4.623   3.962   6.379
 9625SOL    HW129774   4.593   4.051   6.345
 9625SOL    HW229775   4.695   3.975   6.447
 9626SOL     OW29776   2.354   2.129   6.745
 9626SOL    HW129777   2.258   2.145   6.722
 9626SOL    HW229778   2.413   2.176   6.679
 9627SOL     OW29779   0.005   5.356   0.837
 9627SOL    HW129780   0.032   5.371   0.932
 9627SOL    HW229781   0.080   5.380   0.776
 9628SOL     OW29782   0.118   1.803   6.188
 9628SOL    HW129783   0.124   1.790   6.287
 9628SOL    HW229784   0.035   1.854   6.166
 9629SOL     OW29785   0.340   6.145   3.749
 9629SOL    HW129786   0.352   6.210   3.673
 9629SOL    HW229787   0.424   6.093   3.762
 9630SOL     OW29788   5.661   1.669   6.086
 9630SOL    HW129789   5.692   1.666   5.991
 9630SOL    HW229790   5.721   1.612   6.142
 9631SOL     OW29791   4.467   6.771   0.544
 9631SOL    HW129792   4.532   6.820   0.602
 9631SOL    HW229793   4.513   6.695   0.498
 9632SOL     OW29794   2.811   4.683   2.772
 9632SOL    HW129795   2.803   4.734   2.687
 9632SOL    HW229796   2.874   4.730   2.834
 9633SOL     OW29797   3.891   3.106   3.915
 9633SOL    HW129798   3.954   3.069   3.847
 9633SOL    HW229799   3.926   3.088   4.006
 9634SOL     OW29800   5.158   4.610   3.133
 9634SOL    HW129801   5.230   4.618   3.202
 9634SOL    HW229802   5.119   4.518   3.136
 9635SOL     OW29803   0.365   4.583   3.892
 9635SOL    HW129804   0.436   4.613   3.829
 9635SOL    HW229805   0.375   4.631   3.979
 9636SOL     OW29806   5.803   3.730   4.194
 9636SOL    HW129807   5.773   3.808   4.139
 9636SOL    HW229808   5.902   3.720   4.186
 9637SOL     OW29809   1.225   3.902   0.082
 9637SOL    HW129810   1.217   3.893   7.002
 9637SOL    HW229811   1.244   3.998   0.106
 9638SOL     OW29812   5.932   5.364   6.165
 9638SOL    HW129813   5.862   5.295   6.145
 9638SOL    HW229814   6.023   5.323   6.155
 9639SOL     OW29815   4.330   2.226   1.294
 9639SOL    HW129816   4.386   2.270   1.365
 9639SOL    HW229817   4.324   2.286   1.214
 9640SOL     OW29818   3.814   0.667   3.300
 9640SOL    HW129819   3.759   0.650   3.218
 9640SOL    HW229820   3.763   0.636   3.380
 9641SOL     OW29821   6.831   2.469   4.117
 9641SOL    HW129822   6.813   2.565   4.094
 9641SOL    HW229823   6.879   2.464   4.205
 9642SOL     OW29824   1.078   1.631   4.586
 9642SOL    HW129825   1.058   1.643   4.683
 9642SOL    HW229826   1.073   1.533   4.563
 9643SOL     OW29827   5.564   5.379   4.134
 9643SOL    HW129828   5.465   5.373   4.136
 9643SOL    HW229829   5.593   5.422   4.048
 9644SOL     OW29830   1.162   5.144   3.248
 9644SOL    HW129831   1.063   5.141   3.235
 9644SOL    HW229832   1.199   5.051   3.241
 9645SOL     OW29833   1.378   5.169   6.105
 9645SOL    HW129834   1.289   5.124   6.101
 9645SOL    HW229835   1.447   5.104   6.135
 9646SOL     OW29836   3.288   5.967   0.568
 9646SOL    HW129837   3.200   6.013   0.561
 9646SOL    HW229838   3.351   6.024   0.620
 9647SOL     OW29839   5.934   6.761   2.954
 9647SOL    HW129840   5.978   6.724   3.035
 9647SOL    HW229841   6.001   6.772   2.881
 9648SOL     OW29842   2.982   1.439   1.015
 9648SOL    HW129843   2.950   1.377   1.087
 9648SOL    HW229844   3.050   1.502   1.053
 9649SOL     OW29845   0.017   5.626   1.132
 9649SOL    HW129846   0.091   5.661   1.189
 9649SOL    HW229847   0.037   5.642   1.036
 9650SOL     OW29848   0.680   4.718   4.375
 9650SOL    HW129849   0.746   4.646   4.352
 9650SOL    HW229850   0.681   4.789   4.304
 9651SOL     OW29851   3.414   1.835   0.189
 9651SOL    HW129852   3.510   1.835   0.160
 9651SOL    HW229853   3.408   1.797   0.281
 9652SOL     OW29854   0.362   4.049   0.302
 9652SOL    HW129855   0.263   4.040   0.304
 9652SOL    HW229856   0.390   4.128   0.357
 9653SOL     OW29857   5.047   4.489   5.524
 9653SOL    HW129858   5.033   4.509   5.621
 9653SOL    HW229859   5.144   4.471   5.508
 9654SOL     OW29860   3.792   3.446   2.978
 9654SOL    HW129861   3.805   3.508   3.056
 9654SOL    HW229862   3.879   3.404   2.953
 9655SOL     OW29863   4.506   1.666   0.810
 9655SOL    HW129864   4.465   1.741   0.862
 9655SOL    HW229865   4.436   1.600   0.785
 9656SOL     OW29866   4.914   4.277   6.451
 9656SOL    HW129867   4.832   4.334   6.455
 9656SOL    HW229868   4.988   4.322   6.502
 9657SOL     OW29869   5.207   4.840   3.936
 9657SOL    HW129870   5.135   4.780   3.903
 9657SOL    HW229871   5.190   4.864   4.031
 9658SOL     OW29872   5.057   1.275   2.130
 9658SOL    HW129873   5.074   1.180   2.157
 9658SOL    HW229874   5.069   1.335   2.209
 9659SOL     OW29875   2.958   3.095   6.688
 9659SOL    HW129876   2.977   3.001   6.658
 9659SOL    HW229877   2.929   3.150   6.610
 9660SOL     OW29878   1.254   6.485   1.427
 9660SOL    HW129879   1.298   6.395   1.433
 9660SOL    HW229880   1.157   6.475   1.446
 9661SOL     OW29881   4.214   4.041   1.103
 9661SOL    HW129882   4.240   4.129   1.142
 9661SOL    HW229883   4.120   4.020   1.128
 9662SOL     OW29884   4.854   6.406   6.144
 9662SOL    HW129885   4.944   6.450   6.148
 9662SOL    HW229886   4.823   6.405   6.049
 9663SOL     OW29887   1.230   5.088   2.580
 9663SOL    HW129888   1.254   5.150   2.654
 9663SOL    HW229889   1.182   5.138   2.508
 9664SOL     OW29890   3.651   4.906   2.118
 9664SOL    HW129891   3.648   4.875   2.023
 9664SOL    HW229892   3.559   4.901   2.157
 9665SOL     OW29893   6.388   4.099   5.659
 9665SOL    HW129894   6.422   4.021   5.607
 9665SOL    HW229895   6.308   4.138   5.612
 9666SOL     OW29896   5.057   3.875   0.481
 9666SOL    HW129897   4.962   3.902   0.496
 9666SOL    HW229898   5.118   3.942   0.524
 9667SOL     OW29899   5.715   6.162   0.550
 9667SOL    HW129900   5.766   6.207   0.477
 9667SOL    HW229901   5.718   6.063   0.538
 9668SOL     OW29902   1.929   1.638   6.046
 9668SOL    HW129903   1.890   1.714   6.099
 9668SOL    HW229904   1.854   1.583   6.009
 9669SOL     OW29905   3.006   0.494   0.060
 9669SOL    HW129906   3.101   0.495   0.092
 9669SOL    HW229907   2.995   0.560   7.005
 9670SOL     OW29908   0.835   0.603   0.592
 9670SOL    HW129909   0.810   0.660   0.514
 9670SOL    HW229910   0.923   0.632   0.630
 9671SOL     OW29911   0.985   5.084   6.744
 9671SOL    HW129912   0.888   5.060   6.739
 9671SOL    HW229913   0.994   5.184   6.742
 9672SOL     OW29914   0.840   3.893   4.197
 9672SOL    HW129915   0.834   3.813   4.257
 9672SOL    HW229916   0.936   3.907   4.170
 9673SOL     OW29917   2.074   3.551   0.047
 9673SOL    HW129918   2.150   3.521   7.009
 9673SOL    HW229919   2.083   3.512   0.138
 9674SOL     OW29920   2.051   6.549   3.890
 9674SOL    HW129921   2.057   6.517   3.985
 9674SOL    HW229922   2.054   6.649   3.889
 9675SOL     OW29923   6.035   3.817   5.643
 9675SOL    HW129924   6.133   3.815   5.626
 9675SOL    HW229925   6.010   3.740   5.703
 9676SOL     OW29926   0.597   3.355   5.963
 9676SOL    HW129927   0.647   3.441   5.959
 9676SOL    HW229928   0.515   3.362   5.907
 9677SOL     OW29929   6.587   5.212   2.661
 9677SOL    HW129930   6.500   5.222   2.709
 9677SOL    HW229931   6.613   5.300   2.622
 9678SOL     OW29932   3.748   3.847   5.150
 9678SOL    HW129933   3.719   3.760   5.190
 9678SOL    HW229934   3.800   3.899   5.218
 9679SOL     OW29935   2.180   0.431   3.952
 9679SOL    HW129936   2.212   0.494   3.881
 9679SOL    HW229937   2.145   0.347   3.908
 9680SOL     OW29938   4.617   0.730   1.995
 9680SOL    HW129939   4.689   0.660   1.987
 9680SOL    HW229940   4.533   0.687   2.027
 9681SOL     OW29941   1.366   2.146   1.424
 9681SOL    HW129942   1.348   2.245   1.431
 9681SOL    HW229943   1.459   2.132   1.392
 9682SOL     OW29944   5.189   7.002   6.204
 9682SOL    HW129945   5.283   6.965   6.203
 9682SOL    HW229946   5.166   0.019   6.114
 9683SOL     OW29947   3.461   6.327   3.548
 9683SOL    HW129948   3.440   6.234   3.518
 9683SOL    HW229949   3.559   6.342   3.544
 9684SOL     OW29950   6.715   3.369   5.437
 9684SOL    HW129951   6.682   3.276   5.417
 9684SOL    HW229952   6.690   3.394   5.530
 9685SOL     OW29953   3.348   4.621   1.614
 9685SOL    HW129954   3.421   4.625   1.682
 9685SOL    HW229955   3.276   4.559   1.646
 9686SOL     OW29956   0.119   1.134   5.653
 9686SOL    HW129957   0.212   1.154   5.621
 9686SOL    HW229958   0.055   1.149   5.578
 9687SOL     OW29959   5.454   1.102   3.177
 9687SOL    HW129960   5.507   1.090   3.261
 9687SOL    HW229961   5.512   1.084   3.098
 9688SOL     OW29962   0.421   5.077   1.601
 9688SOL    HW129963   0.444   5.001   1.540
 9688SOL    HW229964   0.432   5.048   1.696
 9689SOL     OW29965   1.936   6.068   1.455
 9689SOL    HW129966   1.989   6.151   1.439
 9689SOL    HW229967   1.895   6.038   1.369
 9690SOL     OW29968   0.514   4.580   4.715
 9690SOL    HW129969   0.433   4.634   4.688
 9690SOL    HW229970   0.528   4.589   4.813
 9691SOL     OW29971   3.325   3.405   1.586
 9691SOL    HW129972   3.252   3.413   1.518
 9691SOL    HW229973   3.405   3.458   1.556
 9692SOL     OW29974   5.077   4.431   0.715
 9692SOL    HW129975   5.081   4.375   0.798
 9692SOL    HW229976   5.039   4.377   0.640
 9693SOL     OW29977   4.708   3.045   5.480
 9693SOL    HW129978   4.697   2.947   5.467
 9693SOL    HW229979   4.709   3.066   5.578
 9694SOL     OW29980   3.063   6.704   1.566
 9694SOL    HW129981   3.013   6.791   1.560
 9694SOL    HW229982   3.071   6.677   1.662
 9695SOL     OW29983   0.855   3.056   4.010
 9695SOL    HW129984   0.767   3.027   3.971
 9695SOL    HW229985   0.839   3.122   4.082
 9696SOL     OW29986   5.060   2.813   3.180
 9696SOL    HW129987   5.062   2.721   3.218
 9696SOL    HW229988   5.151   2.854   3.185
 9697SOL     OW29989   0.210   6.787   1.757
 9697SOL    HW129990   0.144   6.831   1.819
 9697SOL    HW229991   0.162   6.753   1.676
 9698SOL     OW29992   0.286   3.930   2.306
 9698SOL    HW129993   0.317   3.904   2.397
 9698SOL    HW229994   0.188   3.945   2.307
 9699SOL     OW29995   1.569   5.576   1.203
 9699SOL    HW129996   1.575   5.540   1.296
 9699SOL    HW229997   1.650   5.632   1.183
 9700SOL     OW29998   5.376   0.232   6.177
 9700SOL    HW129999   5.279   0.252   6.191
 9700SOL    HW230000   5.430   0.312   6.204
 9701SOL     OW30001   4.947   3.973   6.820
 9701SOL    HW130002   5.018   3.917   6.862
 9701SOL    HW230003   4.978   4.068   6.817
 9702SOL     OW30004   3.636   3.997   2.363
 9702SOL    HW130005   3.682   3.930   2.421
 9702SOL    HW230006   3.628   4.084   2.411
 9703SOL     OW30007   6.061   4.826   3.718
 9703SOL    HW130008   5.986   4.801   3.780
 9703SOL    HW230009   6.074   4.754   3.651
 9704SOL     OW30010   1.350   4.725   2.399
 9704SOL    HW130011   1.348   4.763   2.491
 9704SOL    HW230012   1.399   4.638   2.399
 9705SOL     OW30013   0.345   2.833   5.653
 9705SOL    HW130014   0.347   2.876   5.743
 9705SOL    HW230015   0.278   2.879   5.595
 9706SOL     OW30016   0.932   1.180   2.829
 9706SOL    HW130017   0.900   1.206   2.921
 9706SOL    HW230018   0.985   1.095   2.836
 9707SOL     OW30019   0.891   4.924   2.795
 9707SOL    HW130020   0.877   5.019   2.824
 9707SOL    HW230021   0.817   4.867   2.830
 9708SOL     OW30022   2.348   0.890   1.791
 9708SOL    HW130023   2.409   0.937   1.856
 9708SOL    HW230024   2.328   0.951   1.715
 9709SOL     OW30025   5.436   1.878   1.679
 9709SOL    HW130026   5.456   1.966   1.636
 9709SOL    HW230027   5.445   1.805   1.611
 9710SOL     OW30028   5.369   5.530   4.594
 9710SOL    HW130029   5.360   5.489   4.685
 9710SOL    HW230030   5.385   5.457   4.527
 9711SOL     OW30031   2.908   0.906   6.385
 9711SOL    HW130032   2.951   0.990   6.351
 9711SOL    HW230033   2.865   0.858   6.309
 9712SOL     OW30034   5.902   1.005   6.702
 9712SOL    HW130035   5.857   0.923   6.667
 9712SOL    HW230036   5.987   0.979   6.748
 9713SOL     OW30037   2.569   6.898   2.420
 9713SOL    HW130038   2.494   6.891   2.355
 9713SOL    HW230039   2.533   6.908   2.513
 9714SOL     OW30040   2.176   4.038   3.881
 9714SOL    HW130041   2.224   4.069   3.963
 9714SOL    HW230042   2.123   3.956   3.903
 9715SOL     OW30043   6.933   3.085   6.523
 9715SOL    HW130044   6.897   3.061   6.614
 9715SOL    HW230045   6.864   3.067   6.454
 9716SOL     OW30046   2.394   6.073   0.360
 9716SOL    HW130047   2.423   5.982   0.392
 9716SOL    HW230048   2.460   6.141   0.391
 9717SOL     OW30049   3.987   2.207   5.879
 9717SOL    HW130050   3.975   2.236   5.974
 9717SOL    HW230051   4.082   2.218   5.852
 9718SOL     OW30052   4.501   2.183   6.063
 9718SOL    HW130053   4.597   2.166   6.083
 9718SOL    HW230054   4.452   2.200   6.148
 9719SOL     OW30055   4.901   0.021   6.191
 9719SOL    HW130056   4.996   0.051   6.195
 9719SOL    HW230057   4.896   6.946   6.160
 9720SOL     OW30058   2.252   2.946   2.745
 9720SOL    HW130059   2.282   2.860   2.704
 9720SOL    HW230060   2.285   2.950   2.840
 9721SOL     OW30061   0.525   1.646   0.915
 9721SOL    HW130062   0.530   1.547   0.931
 9721SOL    HW230063   0.562   1.695   0.994
 9722SOL     OW30064   4.064   2.367   5.379
 9722SOL    HW130065   4.021   2.281   5.406
 9722SOL    HW230066   4.007   2.444   5.407
 9723SOL     OW30067   6.435   0.667   5.066
 9723SOL    HW130068   6.524   0.683   5.108
 9723SOL    HW230069   6.375   0.619   5.130
 9724SOL     OW30070   1.503   4.296   0.689
 9724SOL    HW130071   1.582   4.241   0.660
 9724SOL    HW230072   1.423   4.237   0.698
 9725SOL     OW30073   4.648   5.398   4.562
 9725SOL    HW130074   4.647   5.309   4.516
 9725SOL    HW230075   4.742   5.431   4.569
 9726SOL     OW30076   6.773   0.097   3.094
 9726SOL    HW130077   6.782   0.174   3.030
 9726SOL    HW230078   6.677   0.088   3.121
 9727SOL     OW30079   6.027   2.670   1.521
 9727SOL    HW130080   5.989   2.651   1.430
 9727SOL    HW230081   6.115   2.718   1.510
 9728SOL     OW30082   5.218   2.286   4.336
 9728SOL    HW130083   5.197   2.189   4.343
 9728SOL    HW230084   5.200   2.318   4.242
 9729SOL     OW30085   0.324   4.297   3.326
 9729SOL    HW130086   0.362   4.241   3.399
 9729SOL    HW230087   0.355   4.262   3.238
 9730SOL     OW30088   0.822   5.165   2.899
 9730SOL    HW130089   0.826   5.136   2.994
 9730SOL    HW230090   0.727   5.165   2.868
 9731SOL     OW30091   5.437   2.747   1.526
 9731SOL    HW130092   5.343   2.774   1.547
 9731SOL    HW230093   5.459   2.776   1.433
 9732SOL     OW30094   1.266   3.973   2.766
 9732SOL    HW130095   1.214   4.017   2.839
 9732SOL    HW230096   1.357   3.948   2.799
 9733SOL     OW30097   6.193   4.675   1.910
 9733SOL    HW130098   6.129   4.732   1.962
 9733SOL    HW230099   6.141   4.605   1.860
 9734SOL     OW30100   4.667   5.181   6.205
 9734SOL    HW130101   4.572   5.197   6.231
 9734SOL    HW230102   4.702   5.103   6.257
 9735SOL     OW30103   6.946   2.108   0.298
 9735SOL    HW130104   0.023   2.098   0.272
 9735SOL    HW230105   6.889   2.074   0.223
 9736SOL     OW30106   4.887   2.122   4.585
 9736SOL    HW130107   4.879   2.050   4.515
 9736SOL    HW230108   4.967   2.178   4.566
 9737SOL     OW30109   5.794   2.672   3.711
 9737SOL    HW130110   5.705   2.711   3.688
 9737SOL    HW230111   5.781   2.583   3.754
 9738SOL     OW30112   2.582   6.432   1.823
 9738SOL    HW130113   2.493   6.412   1.781
 9738SOL    HW230114   2.655   6.402   1.763
 9739SOL     OW30115   6.239   6.452   0.731
 9739SOL    HW130116   6.240   6.548   0.757
 9739SOL    HW230117   6.289   6.399   0.800
 9740SOL     OW30118   6.036   0.492   2.202
 9740SOL    HW130119   6.026   0.426   2.127
 9740SOL    HW230120   6.133   0.512   2.217
 9741SOL     OW30121   2.371   1.995   3.880
 9741SOL    HW130122   2.329   1.926   3.939
 9741SOL    HW230123   2.425   1.948   3.809
 9742SOL     OW30124   3.678   1.909   6.209
 9742SOL    HW130125   3.589   1.877   6.178
 9742SOL    HW230126   3.682   1.909   6.309
 9743SOL     OW30127   6.156   3.603   3.881
 9743SOL    HW130128   6.067   3.646   3.864
 9743SOL    HW230129   6.193   3.568   3.795
 9744SOL     OW30130   1.954   1.585   2.518
 9744SOL    HW130131   2.029   1.522   2.500
 9744SOL    HW230132   1.945   1.598   2.617
 9745SOL     OW30133   0.465   0.191   5.849
 9745SOL    HW130134   0.484   0.268   5.910
 9745SOL    HW230135   0.366   0.180   5.838
 9746SOL     OW30136   3.520   6.353   6.010
 9746SOL    HW130137   3.513   6.452   5.996
 9746SOL    HW230138   3.552   6.310   5.925
 9747SOL     OW30139   3.128   1.480   3.153
 9747SOL    HW130140   3.217   1.443   3.128
 9747SOL    HW230141   3.072   1.493   3.070
 9748SOL     OW30142   1.667   1.070   2.948
 9748SOL    HW130143   1.685   0.975   2.926
 9748SOL    HW230144   1.592   1.076   3.014
 9749SOL     OW30145   6.983   0.621   2.108
 9749SOL    HW130146   6.917   0.647   2.178
 9749SOL    HW230147   0.035   0.564   2.149
 9750SOL     OW30148   5.762   2.618   5.117
 9750SOL    HW130149   5.778   2.637   5.214
 9750SOL    HW230150   5.689   2.551   5.108
 9751SOL     OW30151   3.193   7.007   1.499
 9751SOL    HW130152   3.094   6.990   1.505
 9751SOL    HW230153   3.243   6.928   1.532
 9752SOL     OW30154   2.991   3.021   0.609
 9752SOL    HW130155   2.988   2.996   0.512
 9752SOL    HW230156   3.082   3.003   0.646
 9753SOL     OW30157   6.282   6.265   4.888
 9753SOL    HW130158   6.301   6.213   4.971
 9753SOL    HW230159   6.321   6.218   4.809
 9754SOL     OW30160   3.116   1.331   2.389
 9754SOL    HW130161   3.136   1.361   2.482
 9754SOL    HW230162   3.079   1.238   2.391
 9755SOL     OW30163   3.678   4.048   0.185
 9755SOL    HW130164   3.760   4.071   0.134
 9755SOL    HW230165   3.698   4.050   0.283
 9756SOL     OW30166   5.756   0.645   5.841
 9756SOL    HW130167   5.771   0.740   5.814
 9756SOL    HW230168   5.842   0.594   5.833
 9757SOL     OW30169   4.883   3.344   4.050
 9757SOL    HW130170   4.882   3.255   4.006
 9757SOL    HW230171   4.888   3.333   4.149
 9758SOL     OW30172   2.340   1.027   2.551
 9758SOL    HW130173   2.280   0.948   2.561
 9758SOL    HW230174   2.286   1.108   2.528
 9759SOL     OW30175   6.587   1.862   1.921
 9759SOL    HW130176   6.643   1.837   1.842
 9759SOL    HW230177   6.531   1.783   1.948
 9760SOL     OW30178   4.719   0.394   7.015
 9760SOL    HW130179   4.661   0.372   6.937
 9760SOL    HW230180   4.783   0.466   6.989
 9761SOL     OW30181   1.269   2.500   1.227
 9761SOL    HW130182   1.197   2.537   1.169
 9761SOL    HW230183   1.236   2.495   1.321
 9762SOL     OW30184   2.997   1.331   5.633
 9762SOL    HW130185   3.018   1.367   5.542
 9762SOL    HW230186   2.981   1.233   5.628
 9763SOL     OW30187   6.576   2.307   1.329
 9763SOL    HW130188   6.623   2.338   1.247
 9763SOL    HW230189   6.602   2.366   1.406
 9764SOL     OW30190   0.522   2.078   2.832
 9764SOL    HW130191   0.493   2.163   2.788
 9764SOL    HW230192   0.522   2.004   2.764
 9765SOL     OW30193   6.624   0.385   1.876
 9765SOL    HW130194   6.673   0.299   1.859
 9765SOL    HW230195   6.690   0.458   1.891
 9766SOL     OW30196   1.292   2.326   2.406
 9766SOL    HW130197   1.205   2.317   2.454
 9766SOL    HW230198   1.329   2.418   2.422
 9767SOL     OW30199   2.336   1.622   5.072
 9767SOL    HW130200   2.244   1.649   5.100
 9767SOL    HW230201   2.329   1.553   4.999
 9768SOL     OW30202   5.592   3.101   0.628
 9768SOL    HW130203   5.682   3.064   0.651
 9768SOL    HW230204   5.525   3.027   0.625
 9769SOL     OW30205   3.547   1.757   5.641
 9769SOL    HW130206   3.490   1.831   5.677
 9769SOL    HW230207   3.643   1.788   5.639
 9770SOL     OW30208   2.024   3.037   5.537
 9770SOL    HW130209   1.943   3.052   5.482
 9770SOL    HW230210   1.998   2.995   5.624
 9771SOL     OW30211   2.835   0.792   1.483
 9771SOL    HW130212   2.738   0.814   1.472
 9771SOL    HW230213   2.866   0.738   1.405
 9772SOL     OW30214   1.049   0.682   1.252
 9772SOL    HW130215   1.135   0.730   1.238
 9772SOL    HW230216   0.973   0.747   1.245
 9773SOL     OW30217   5.832   5.635   2.425
 9773SOL    HW130218   5.833   5.538   2.403
 9773SOL    HW230219   5.804   5.648   2.520
 9774SOL     OW30220   1.815   4.502   4.054
 9774SOL    HW130221   1.893   4.456   4.097
 9774SOL    HW230222   1.748   4.527   4.124
 9775SOL     OW30223   2.318   1.519   3.236
 9775SOL    HW130224   2.281   1.571   3.159
 9775SOL    HW230225   2.398   1.566   3.273
 9776SOL     OW30226   2.680   5.421   1.329
 9776SOL    HW130227   2.731   5.406   1.244
 9776SOL    HW230228   2.726   5.373   1.404
 9777SOL     OW30229   4.492   1.240   5.454
 9777SOL    HW130230   4.540   1.283   5.531
 9777SOL    HW230231   4.420   1.180   5.488
 9778SOL     OW30232   0.749   3.643   3.187
 9778SOL    HW130233   0.776   3.736   3.211
 9778SOL    HW230234   0.784   3.579   3.256
 9779SOL     OW30235   3.177   0.703   3.838
 9779SOL    HW130236   3.177   0.620   3.783
 9779SOL    HW230237   3.102   0.700   3.903
 9780SOL     OW30238   0.531   2.565   1.650
 9780SOL    HW130239   0.473   2.644   1.630
 9780SOL    HW230240   0.591   2.587   1.726
 9781SOL     OW30241   1.805   1.182   2.121
 9781SOL    HW130242   1.712   1.218   2.126
 9781SOL    HW230243   1.811   1.097   2.173
 9782SOL     OW30244   0.350   2.106   0.428
 9782SOL    HW130245   0.398   2.018   0.427
 9782SOL    HW230246   0.395   2.168   0.492
 9783SOL     OW30247   4.620   1.453   2.998
 9783SOL    HW130248   4.638   1.372   3.054
 9783SOL    HW230249   4.535   1.440   2.947
 9784SOL     OW30250   1.703   1.456   6.444
 9784SOL    HW130251   1.638   1.522   6.406
 9784SOL    HW230252   1.761   1.502   6.511
 9785SOL     OW30253   0.627   4.075   4.769
 9785SOL    HW130254   0.581   4.041   4.851
 9785SOL    HW230255   0.665   3.998   4.718
 9786SOL     OW30256   2.493   4.193   6.511
 9786SOL    HW130257   2.557   4.120   6.485
 9786SOL    HW230258   2.411   4.152   6.550
 9787SOL     OW30259   2.914   3.238   2.172
 9787SOL    HW130260   2.978   3.239   2.095
 9787SOL    HW230261   2.855   3.157   2.165
 9788SOL     OW30262   4.056   6.989   1.565
 9788SOL    HW130263   4.097   0.036   1.627
 9788SOL    HW230264   3.960   6.974   1.590
 9789SOL     OW30265   3.222   1.491   6.774
 9789SOL    HW130266   3.165   1.428   6.826
 9789SOL    HW230267   3.306   1.511   6.824
 9790SOL     OW30268   5.402   6.136   4.435
 9790SOL    HW130269   5.351   6.069   4.381
 9790SOL    HW230270   5.386   6.119   4.532
 9791SOL     OW30271   0.729   0.065   1.862
 9791SOL    HW130272   0.720   0.062   1.762
 9791SOL    HW230273   0.668   7.015   1.902
 9792SOL     OW30274   3.821   4.890   0.687
 9792SOL    HW130275   3.750   4.908   0.619
 9792SOL    HW230276   3.900   4.948   0.669
 9793SOL     OW30277   6.487   0.992   3.170
 9793SOL    HW130278   6.514   0.896   3.157
 9793SOL    HW230279   6.390   0.995   3.194
 9794SOL     OW30280   4.393   4.631   4.500
 9794SOL    HW130281   4.302   4.624   4.540
 9794SOL    HW230282   4.459   4.651   4.572
 9795SOL     OW30283   1.143   3.204   2.693
 9795SOL    HW130284   1.104   3.216   2.601
 9795SOL    HW230285   1.069   3.185   2.758
 9796SOL     OW30286   3.037   3.862   4.013
 9796SOL    HW130287   3.075   3.913   4.091
 9796SOL    HW230288   3.063   3.766   4.020
 9797SOL     OW30289   2.750   5.031   0.113
 9797SOL    HW130290   2.679   5.033   0.183
 9797SOL    HW230291   2.838   5.011   0.157
 9798SOL     OW30292   0.189   4.275   6.128
 9798SOL    HW130293   0.113   4.238   6.181
 9798SOL    HW230294   0.266   4.293   6.189
 9799SOL     OW30295   2.933   0.086   0.302
 9799SOL    HW130296   2.869   0.044   0.366
 9799SOL    HW230297   2.900   0.073   0.208
 9800SOL     OW30298   6.703   3.234   4.199
 9800SOL    HW130299   6.665   3.304   4.138
 9800SOL    HW230300   6.686   3.261   4.294
 9801SOL     OW30301   5.216   6.284   0.718
 9801SOL    HW130302   5.246   6.359   0.777
 9801SOL    HW230303   5.131   6.245   0.755
 9802SOL     OW30304   4.093   3.530   6.739
 9802SOL    HW130305   4.143   3.446   6.757
 9802SOL    HW230306   4.057   3.567   6.825
 9803SOL     OW30307   0.840   2.972   6.304
 9803SOL    HW130308   0.932   3.009   6.319
 9803SOL    HW230309   0.778   3.047   6.281
 9804SOL     OW30310   0.479   4.623   2.603
 9804SOL    HW130311   0.557   4.574   2.641
 9804SOL    HW230312   0.422   4.657   2.677
 9805SOL     OW30313   1.146   5.502   3.421
 9805SOL    HW130314   1.094   5.501   3.336
 9805SOL    HW230315   1.238   5.537   3.403
 9806SOL     OW30316   3.919   1.751   0.066
 9806SOL    HW130317   3.923   1.733   0.165
 9806SOL    HW230318   3.989   1.818   0.042
 9807SOL     OW30319   3.992   3.114   3.091
 9807SOL    HW130320   3.949   3.072   3.012
 9807SOL    HW230321   3.997   3.213   3.077
 9808SOL     OW30322   3.902   5.553   2.141
 9808SOL    HW130323   3.950   5.512   2.064
 9808SOL    HW230324   3.811   5.582   2.113
 9809SOL     OW30325   6.812   3.287   0.490
 9809SOL    HW130326   6.725   3.314   0.531
 9809SOL    HW230327   6.809   3.190   0.465
 9810SOL     OW30328   2.452   1.939   0.538
 9810SOL    HW130329   2.458   2.039   0.533
 9810SOL    HW230330   2.543   1.899   0.525
 9811SOL     OW30331   5.575   3.669   4.393
 9811SOL    HW130332   5.641   3.648   4.321
 9811SOL    HW230333   5.623   3.678   4.481
 9812SOL     OW30334   3.271   6.138   5.788
 9812SOL    HW130335   3.218   6.221   5.806
 9812SOL    HW230336   3.234   6.063   5.842
 9813SOL     OW30337   5.156   0.235   1.830
 9813SOL    HW130338   5.137   0.204   1.923
 9813SOL    HW230339   5.225   0.175   1.789
 9814SOL     OW30340   6.646   1.152   6.711
 9814SOL    HW130341   6.739   1.181   6.688
 9814SOL    HW230342   6.647   1.055   6.736
 9815SOL     OW30343   4.542   2.581   4.075
 9815SOL    HW130344   4.561   2.590   3.977
 9815SOL    HW230345   4.611   2.631   4.127
 9816SOL     OW30346   2.508   1.189   1.448
 9816SOL    HW130347   2.572   1.238   1.507
 9816SOL    HW230348   2.462   1.253   1.387
 9817SOL     OW30349   6.464   6.865   2.319
 9817SOL    HW130350   6.377   6.842   2.363
 9817SOL    HW230351   6.540   6.829   2.373
 9818SOL     OW30352   5.381   2.416   4.826
 9818SOL    HW130353   5.383   2.486   4.754
 9818SOL    HW230354   5.323   2.447   4.901
 9819SOL     OW30355   4.385   0.622   2.108
 9819SOL    HW130356   4.339   0.540   2.074
 9819SOL    HW230357   4.318   0.683   2.151
 9820SOL     OW30358   4.317   2.974   6.260
 9820SOL    HW130359   4.227   2.932   6.261
 9820SOL    HW230360   4.331   3.022   6.173
 9821SOL     OW30361   6.626   5.353   0.219
 9821SOL    HW130362   6.693   5.309   0.278
 9821SOL    HW230363   6.604   5.292   0.143
 9822SOL     OW30364   0.726   6.823   2.751
 9822SOL    HW130365   0.803   6.845   2.690
 9822SOL    HW230366   0.720   6.892   2.822
 9823SOL     OW30367   3.795   7.013   1.676
 9823SOL    HW130368   3.718   7.006   1.612
 9823SOL    HW230369   3.826   0.088   1.680
 9824SOL     OW30370   1.474   3.725   5.777
 9824SOL    HW130371   1.531   3.804   5.753
 9824SOL    HW230372   1.436   3.737   5.869
 9825SOL     OW30373   4.251   5.001   5.375
 9825SOL    HW130374   4.274   5.097   5.360
 9825SOL    HW230375   4.335   4.948   5.387
 9826SOL     OW30376   4.820   0.494   6.101
 9826SOL    HW130377   4.770   0.408   6.115
 9826SOL    HW230378   4.881   0.485   6.022
 9827SOL     OW30379   1.357   3.427   4.279
 9827SOL    HW130380   1.420   3.493   4.237
 9827SOL    HW230381   1.273   3.474   4.307
 9828SOL     OW30382   2.980   2.849   6.562
 9828SOL    HW130383   3.051   2.780   6.577
 9828SOL    HW230384   2.957   2.852   6.464
 9829SOL     OW30385   3.456   4.760   0.911
 9829SOL    HW130386   3.523   4.730   0.979
 9829SOL    HW230387   3.478   4.854   0.882
 9830SOL     OW30388   5.971   0.355   0.500
 9830SOL    HW130389   6.016   0.404   0.426
 9830SOL    HW230390   5.954   0.417   0.577
 9831SOL     OW30391   5.980   6.905   0.566
 9831SOL    HW130392   5.973   6.990   0.515
 9831SOL    HW230393   6.009   6.924   0.659
 9832SOL     OW30394   4.338   4.949   0.812
 9832SOL    HW130395   4.398   4.879   0.851
 9832SOL    HW230396   4.267   4.906   0.757
 9833SOL     OW30397   4.134   4.028   5.510
 9833SOL    HW130398   4.090   4.087   5.577
 9833SOL    HW230399   4.142   3.935   5.547
 9834SOL     OW30400   0.971   3.507   4.725
 9834SOL    HW130401   0.968   3.584   4.661
 9834SOL    HW230402   1.055   3.455   4.711
 9835SOL     OW30403   5.117   1.398   4.128
 9835SOL    HW130404   5.083   1.410   4.221
 9835SOL    HW230405   5.101   1.481   4.075
 9836SOL     OW30406   4.810   5.299   2.621
 9836SOL    HW130407   4.789   5.395   2.640
 9836SOL    HW230408   4.782   5.242   2.698
 9837SOL     OW30409   1.655   6.439   4.038
 9837SOL    HW130410   1.614   6.361   3.991
 9837SOL    HW230411   1.589   6.513   4.044
 9838SOL     OW30412   0.215   5.730   5.469
 9838SOL    HW130413   0.302   5.722   5.421
 9838SOL    HW230414   0.175   5.820   5.451
 9839SOL     OW30415   6.521   1.943   2.183
 9839SOL    HW130416   6.517   1.935   2.084
 9839SOL    HW230417   6.561   1.859   2.222
 9840SOL     OW30418   6.489   0.506   1.308
 9840SOL    HW130419   6.503   0.554   1.394
 9840SOL    HW230420   6.567   0.447   1.288
 9841SOL     OW30421   1.552   3.550   4.126
 9841SOL    HW130422   1.613   3.471   4.117
 9841SOL    HW230423   1.508   3.569   4.039
 9842SOL     OW30424   3.502   2.860   2.421
 9842SOL    HW130425   3.590   2.907   2.416
 9842SOL    HW230426   3.517   2.761   2.420
 9843SOL     OW30427   5.903   3.231   2.212
 9843SOL    HW130428   5.823   3.252   2.156
 9843SOL    HW230429   5.873   3.202   2.303
 9844SOL     OW30430   4.819   0.055   2.723
 9844SOL    HW130431   4.898   0.057   2.785
 9844SOL    HW230432   4.829   0.126   2.654
 9845SOL     OW30433   0.443   2.027   3.649
 9845SOL    HW130434   0.409   1.954   3.589
 9845SOL    HW230435   0.526   2.067   3.609
 9846SOL     OW30436   3.043   3.074   3.053
 9846SOL    HW130437   3.100   3.041   2.978
 9846SOL    HW230438   2.968   3.010   3.069
 9847SOL     OW30439   2.173   4.449   5.000
 9847SOL    HW130440   2.195   4.546   5.002
 9847SOL    HW230441   2.075   4.437   4.982
 9848SOL     OW30442   4.451   3.634   0.465
 9848SOL    HW130443   4.518   3.605   0.533
 9848SOL    HW230444   4.412   3.553   0.421
 9849SOL     OW30445   0.284   6.966   5.655
 9849SOL    HW130446   0.317   6.968   5.749
 9849SOL    HW230447   0.269   6.871   5.628
 9850SOL     OW30448   4.212   6.378   2.426
 9850SOL    HW130449   4.215   6.284   2.459
 9850SOL    HW230450   4.273   6.389   2.348
 9851SOL     OW30451   5.732   2.004   5.063
 9851SOL    HW130452   5.791   2.060   5.005
 9851SOL    HW230453   5.765   2.007   5.158
 9852SOL     OW30454   4.871   1.788   3.432
 9852SOL    HW130455   4.805   1.790   3.507
 9852SOL    HW230456   4.881   1.879   3.394
 9853SOL     OW30457   6.550   4.046   2.102
 9853SOL    HW130458   6.525   4.107   2.027
 9853SOL    HW230459   6.516   4.084   2.188
 9854SOL     OW30460   4.860   6.028   3.784
 9854SOL    HW130461   4.938   6.053   3.841
 9854SOL    HW230462   4.785   5.996   3.842
 9855SOL     OW30463   1.581   3.206   1.195
 9855SOL    HW130464   1.586   3.300   1.159
 9855SOL    HW230465   1.647   3.195   1.269
 9856SOL     OW30466   4.276   2.603   1.172
 9856SOL    HW130467   4.216   2.638   1.101
 9856SOL    HW230468   4.320   2.518   1.141
 9857SOL     OW30469   5.245   3.973   3.763
 9857SOL    HW130470   5.178   4.035   3.803
 9857SOL    HW230471   5.332   3.982   3.812
 9858SOL     OW30472   4.850   0.872   0.807
 9858SOL    HW130473   4.886   0.836   0.893
 9858SOL    HW230474   4.809   0.797   0.755
 9859SOL     OW30475   6.405   0.443   2.031
 9859SOL    HW130476   6.471   0.396   1.972
 9859SOL    HW230477   6.408   0.541   2.013
 9860SOL     OW30478   0.430   0.952   2.705
 9860SOL    HW130479   0.354   0.920   2.761
 9860SOL    HW230480   0.513   0.953   2.760
 9861SOL     OW30481   3.822   6.848   4.728
 9861SOL    HW130482   3.771   6.829   4.643
 9861SOL    HW230483   3.906   6.899   4.705
 9862SOL     OW30484   0.644   2.677   0.475
 9862SOL    HW130485   0.699   2.643   0.399
 9862SOL    HW230486   0.620   2.773   0.459
 9863SOL     OW30487   3.079   6.702   0.931
 9863SOL    HW130488   3.106   6.644   0.854
 9863SOL    HW230489   3.136   6.784   0.933
 9864SOL     OW30490   4.408   5.826   2.275
 9864SOL    HW130491   4.424   5.924   2.284
 9864SOL    HW230492   4.475   5.776   2.330
 9865SOL     OW30493   0.142   1.558   5.001
 9865SOL    HW130494   0.228   1.510   4.980
 9865SOL    HW230495   0.140   1.644   4.951
 9866SOL     OW30496   4.575   4.542   3.729
 9866SOL    HW130497   4.509   4.562   3.656
 9866SOL    HW230498   4.598   4.627   3.777
 9867SOL     OW30499   4.076   0.500   6.462
 9867SOL    HW130500   4.070   0.498   6.562
 9867SOL    HW230501   4.000   0.553   6.425
 9868SOL     OW30502   6.733   5.465   6.973
 9868SOL    HW130503   6.794   5.422   0.020
 9868SOL    HW230504   6.748   5.564   6.974
 9869SOL     OW30505   1.528   3.718   3.090
 9869SOL    HW130506   1.604   3.656   3.110
 9869SOL    HW230507   1.562   3.812   3.089
 9870SOL     OW30508   4.858   4.531   2.802
 9870SOL    HW130509   4.899   4.613   2.761
 9870SOL    HW230510   4.782   4.501   2.745
 9871SOL     OW30511   1.948   1.070   5.260
 9871SOL    HW130512   1.972   1.154   5.210
 9871SOL    HW230513   1.986   1.075   5.352
 9872SOL     OW30514   1.754   4.648   3.400
 9872SOL    HW130515   1.777   4.727   3.344
 9872SOL    HW230516   1.838   4.598   3.422
 9873SOL     OW30517   0.805   2.820   0.860
 9873SOL    HW130518   0.733   2.781   0.917
 9873SOL    HW230519   0.885   2.840   0.916
 9874SOL     OW30520   0.691   2.855   3.621
 9874SOL    HW130521   0.751   2.792   3.671
 9874SOL    HW230522   0.606   2.867   3.672
 9875SOL     OW30523   1.204   0.607   3.130
 9875SOL    HW130524   1.273   0.660   3.179
 9875SOL    HW230525   1.224   0.609   3.032
 9876SOL     OW30526   6.933   6.261   2.731
 9876SOL    HW130527   6.854   6.311   2.696
 9876SOL    HW230528   6.923   6.164   2.710
 9877SOL     OW30529   3.409   0.210   2.091
 9877SOL    HW130530   3.501   0.202   2.127
 9877SOL    HW230531   3.401   0.155   2.008
 9878SOL     OW30532   0.535   6.469   5.239
 9878SOL    HW130533   0.513   6.376   5.211
 9878SOL    HW230534   0.581   6.516   5.164
 9879SOL     OW30535   4.518   5.985   6.209
 9879SOL    HW130536   4.535   6.078   6.243
 9879SOL    HW230537   4.601   5.950   6.165
 9880SOL     OW30538   1.652   1.608   5.392
 9880SOL    HW130539   1.671   1.511   5.375
 9880SOL    HW230540   1.735   1.662   5.380
 9881SOL     OW30541   0.400   2.960   5.886
 9881SOL    HW130542   0.484   2.978   5.938
 9881SOL    HW230543   0.358   2.875   5.919
 9882SOL     OW30544   1.452   1.347   3.697
 9882SOL    HW130545   1.538   1.302   3.722
 9882SOL    HW230546   1.419   1.402   3.774
 9883SOL     OW30547   1.951   0.924   1.861
 9883SOL    HW130548   1.868   0.887   1.901
 9883SOL    HW230549   1.939   1.020   1.839
 9884SOL     OW30550   4.151   0.750   4.013
 9884SOL    HW130551   4.061   0.706   4.010
 9884SOL    HW230552   4.143   0.840   4.054
 9885SOL     OW30553   6.323   5.223   4.312
 9885SOL    HW130554   6.295   5.165   4.389
 9885SOL    HW230555   6.280   5.190   4.228
 9886SOL     OW30556   1.099   3.898   2.288
 9886SOL    HW130557   1.014   3.894   2.234
 9886SOL    HW230558   1.167   3.838   2.246
 9887SOL     OW30559   3.859   0.628   6.773
 9887SOL    HW130560   3.841   0.530   6.785
 9887SOL    HW230561   3.805   0.663   6.697
 9888SOL     OW30562   0.131   4.311   0.238
 9888SOL    HW130563   0.226   4.278   0.244
 9888SOL    HW230564   0.112   4.341   0.144
 9889SOL     OW30565   6.718   5.160   0.389
 9889SOL    HW130566   6.715   5.061   0.379
 9889SOL    HW230567   6.742   5.184   0.483
 9890SOL     OW30568   1.534   2.519   1.135
 9890SOL    HW130569   1.588   2.538   1.218
 9890SOL    HW230570   1.440   2.498   1.161
 9891SOL     OW30571   4.985   2.005   1.215
 9891SOL    HW130572   5.017   1.980   1.306
 9891SOL    HW230573   4.964   2.103   1.213
 9892SOL     OW30574   6.589   5.700   6.672
 9892SOL    HW130575   6.661   5.635   6.697
 9892SOL    HW230576   6.535   5.663   6.596
 9893SOL     OW30577   2.196   1.410   0.521
 9893SOL    HW130578   2.111   1.439   0.565
 9893SOL    HW230579   2.200   1.311   0.516
 9894SOL     OW30580   1.535   2.301   0.176
 9894SOL    HW130581   1.553   2.212   0.219
 9894SOL    HW230582   1.479   2.288   0.095
 9895SOL     OW30583   5.265   3.099   5.542
 9895SOL    HW130584   5.206   3.105   5.623
 9895SOL    HW230585   5.208   3.099   5.459
 9896SOL     OW30586   5.825   0.319   0.015
 9896SOL    HW130587   5.912   0.271   0.027
 9896SOL    HW230588   5.755   0.253   7.004
 9897SOL     OW30589   5.629   5.288   3.737
 9897SOL    HW130590   5.650   5.373   3.784
 9897SOL    HW230591   5.530   5.281   3.721
 9898SOL     OW30592   3.744   6.240   5.446
 9898SOL    HW130593   3.707   6.148   5.435
 9898SOL    HW230594   3.814   6.239   5.518
 9899SOL     OW30595   0.038   5.380   6.909
 9899SOL    HW130596   0.041   5.472   6.870
 9899SOL    HW230597   0.001   5.384   7.001
 9900SOL     OW30598   2.121   3.620   3.231
 9900SOL    HW130599   2.097   3.643   3.325
 9900SOL    HW230600   2.146   3.703   3.182
 9901SOL     OW30601   2.304   2.071   5.350
 9901SOL    HW130602   2.382   2.067   5.288
 9901SOL    HW230603   2.220   2.053   5.299
 9902SOL     OW30604   2.758   4.315   6.857
 9902SOL    HW130605   2.771   4.230   6.806
 9902SOL    HW230606   2.799   4.306   6.947
 9903SOL     OW30607   5.328   0.784   2.929
 9903SOL    HW130608   5.322   0.788   3.028
 9903SOL    HW230609   5.262   0.848   2.889
 9904SOL     OW30610   6.543   3.244   6.698
 9904SOL    HW130611   6.570   3.148   6.712
 9904SOL    HW230612   6.446   3.247   6.674
 9905SOL     OW30613   3.983   1.647   0.331
 9905SOL    HW130614   3.925   1.705   0.388
 9905SOL    HW230615   3.969   1.552   0.356
 9906SOL     OW30616   4.142   3.579   4.038
 9906SOL    HW130617   4.067   3.643   4.052
 9906SOL    HW230618   4.106   3.486   4.036
 9907SOL     OW30619   0.676   6.896   2.330
 9907SOL    HW130620   0.699   6.804   2.298
 9907SOL    HW230621   0.626   6.889   2.416
 9908SOL     OW30622   5.136   3.342   3.302
 9908SOL    HW130623   5.144   3.435   3.267
 9908SOL    HW230624   5.198   3.281   3.253
 9909SOL     OW30625   2.259   7.017   5.044
 9909SOL    HW130626   2.167   7.007   5.081
 9909SOL    HW230627   2.283   0.095   5.041
 9910SOL     OW30628   1.335   4.027   3.225
 9910SOL    HW130629   1.426   3.989   3.204
 9910SOL    HW230630   1.274   3.952   3.253
 9911SOL     OW30631   3.375   6.494   1.894
 9911SOL    HW130632   3.445   6.460   1.832
 9911SOL    HW230633   3.334   6.417   1.944
 9912SOL     OW30634   4.640   1.682   0.006
 9912SOL    HW130635   4.683   1.619   0.071
 9912SOL    HW230636   4.562   1.638   6.983
 9913SOL     OW30637   5.637   3.405   6.872
 9913SOL    HW130638   5.656   3.349   6.792
 9913SOL    HW230639   5.625   3.347   6.952
 9914SOL     OW30640   0.873   3.093   5.055
 9914SOL    HW130641   0.827   3.176   5.023
 9914SOL    HW230642   0.968   3.115   5.080
 9915SOL     OW30643   5.722   1.252   3.547
 9915SOL    HW130644   5.634   1.300   3.547
 9915SOL    HW230645   5.795   1.316   3.525
 9916SOL     OW30646   2.189   2.843   2.375
 9916SOL    HW130647   2.147   2.931   2.354
 9916SOL    HW230648   2.238   2.810   2.294
 9917SOL     OW30649   6.587   4.121   5.324
 9917SOL    HW130650   6.588   4.206   5.271
 9917SOL    HW230651   6.681   4.092   5.343
 9918SOL     OW30652   3.897   2.124   2.479
 9918SOL    HW130653   3.829   2.114   2.406
 9918SOL    HW230654   3.988   2.128   2.439
 9919SOL     OW30655   6.021   5.574   0.753
 9919SOL    HW130656   6.056   5.524   0.833
 9919SOL    HW230657   5.985   5.509   0.686
 9920SOL     OW30658   4.841   1.429   2.481
 9920SOL    HW130659   4.845   1.529   2.489
 9920SOL    HW230660   4.919   1.397   2.427
 9921SOL     OW30661   3.420   5.185   5.959
 9921SOL    HW130662   3.506   5.198   5.911
 9921SOL    HW230663   3.345   5.224   5.905
 9922SOL     OW30664   0.083   5.759   0.720
 9922SOL    HW130665   0.008   5.741   0.783
 9922SOL    HW230666   0.170   5.758   0.770
 9923SOL     OW30667   4.631   5.183   0.322
 9923SOL    HW130668   4.558   5.237   0.280
 9923SOL    HW230669   4.684   5.137   0.251
 9924SOL     OW30670   0.476   3.618   4.732
 9924SOL    HW130671   0.539   3.546   4.762
 9924SOL    HW230672   0.492   3.701   4.787
 9925SOL     OW30673   5.189   2.368   4.077
 9925SOL    HW130674   5.226   2.346   3.986
 9925SOL    HW230675   5.132   2.450   4.070
 9926SOL     OW30676   1.913   4.634   0.070
 9926SOL    HW130677   2.007   4.611   0.048
 9926SOL    HW230678   1.853   4.556   0.049
 9927SOL     OW30679   6.274   0.184   3.144
 9927SOL    HW130680   6.216   0.113   3.104
 9927SOL    HW230681   6.292   0.255   3.076
 9928SOL     OW30682   4.643   4.305   1.374
 9928SOL    HW130683   4.576   4.277   1.443
 9928SOL    HW230684   4.735   4.307   1.415
 9929SOL     OW30685   2.443   4.747   4.163
 9929SOL    HW130686   2.414   4.779   4.073
 9929SOL    HW230687   2.362   4.724   4.218
 9930SOL     OW30688   6.712   0.296   4.289
 9930SOL    HW130689   6.676   0.213   4.330
 9930SOL    HW230690   6.638   0.350   4.249
 9931SOL     OW30691   1.014   4.540   5.294
 9931SOL    HW130692   0.989   4.490   5.377
 9931SOL    HW230693   0.993   4.637   5.307
 9932SOL     OW30694   0.674   6.600   5.913
 9932SOL    HW130695   0.702   6.509   5.883
 9932SOL    HW230696   0.611   6.593   5.990
 9933SOL     OW30697   0.874   5.529   2.229
 9933SOL    HW130698   0.916   5.486   2.309
 9933SOL    HW230699   0.776   5.542   2.246
 9934SOL     OW30700   6.586   1.611   6.432
 9934SOL    HW130701   6.611   1.620   6.336
 9934SOL    HW230702   6.503   1.664   6.450
 9935SOL     OW30703   2.656   1.115   6.336
 9935SOL    HW130704   2.723   1.127   6.410
 9935SOL    HW230705   2.701   1.075   6.257
 9936SOL     OW30706   0.743   4.341   4.795
 9936SOL    HW130707   0.702   4.253   4.770
 9936SOL    HW230708   0.834   4.326   4.833
 9937SOL     OW30709   6.952   2.345   6.053
 9937SOL    HW130710   6.908   2.265   6.011
 9937SOL    HW230711   0.022   2.318   6.088
 9938SOL     OW30712   6.785   6.246   3.033
 9938SOL    HW130713   6.784   6.237   2.934
 9938SOL    HW230714   6.738   6.331   3.059
 9939SOL     OW30715   3.287   2.948   2.083
 9939SOL    HW130716   3.206   2.922   2.030
 9939SOL    HW230717   3.364   2.891   2.055
 9940SOL     OW30718   6.792   1.064   0.645
 9940SOL    HW130719   6.698   1.052   0.613
 9940SOL    HW230720   6.792   1.091   0.741
 9941SOL     OW30721   3.369   4.666   5.900
 9941SOL    HW130722   3.399   4.572   5.913
 9941SOL    HW230723   3.269   4.670   5.899
 9942SOL     OW30724   2.775   5.549   3.265
 9942SOL    HW130725   2.827   5.504   3.192
 9942SOL    HW230726   2.782   5.495   3.349
 9943SOL     OW30727   0.804   6.316   5.916
 9943SOL    HW130728   0.817   6.222   5.949
 9943SOL    HW230729   0.803   6.317   5.816
 9944SOL     OW30730   0.687   4.039   0.102
 9944SOL    HW130731   0.614   4.105   0.086
 9944SOL    HW230732   0.650   3.962   0.154
 9945SOL     OW30733   6.702   5.839   0.270
 9945SOL    HW130734   6.751   5.780   0.334
 9945SOL    HW230735   6.712   5.935   0.297
 9946SOL     OW30736   4.588   0.469   5.158
 9946SOL    HW130737   4.619   0.439   5.067
 9946SOL    HW230738   4.613   0.399   5.225
 9947SOL     OW30739   6.431   4.501   4.013
 9947SOL    HW130740   6.476   4.533   3.929
 9947SOL    HW230741   6.386   4.578   4.058
 9948SOL     OW30742   4.759   4.852   4.911
 9948SOL    HW130743   4.717   4.941   4.897
 9948SOL    HW230744   4.765   4.832   5.009
 9949SOL     OW30745   5.552   5.126   3.260
 9949SOL    HW130746   5.642   5.165   3.241
 9949SOL    HW230747   5.506   5.106   3.174
 9950SOL     OW30748   4.100   6.100   5.435
 9950SOL    HW130749   4.043   6.147   5.367
 9950SOL    HW230750   4.043   6.047   5.496
 9951SOL     OW30751   5.730   2.160   2.941
 9951SOL    HW130752   5.821   2.184   2.908
 9951SOL    HW230753   5.676   2.243   2.954
 9952SOL     OW30754   6.925   4.821   0.393
 9952SOL    HW130755   6.993   4.749   0.388
 9952SOL    HW230756   6.964   4.901   0.440
 9953SOL     OW30757   6.793   1.320   3.948
 9953SOL    HW130758   6.748   1.269   4.021
 9953SOL    HW230759   6.889   1.293   3.942
 9954SOL     OW30760   4.601   0.267   5.362
 9954SOL    HW130761   4.678   0.210   5.392
 9954SOL    HW230762   4.546   0.293   5.441
 9955SOL     OW30763   0.469   4.352   4.877
 9955SOL    HW130764   0.556   4.393   4.850
 9955SOL    HW230765   0.478   4.253   4.878
 9956SOL     OW30766   1.669   6.497   1.381
 9956SOL    HW130767   1.620   6.426   1.332
 9956SOL    HW230768   1.611   6.579   1.387
 9957SOL     OW30769   6.507   4.132   3.905
 9957SOL    HW130770   6.560   4.193   3.846
 9957SOL    HW230771   6.567   4.061   3.942
 9958SOL     OW30772   2.710   4.392   1.433
 9958SOL    HW130773   2.772   4.352   1.500
 9958SOL    HW230774   2.649   4.456   1.478
 9959SOL     OW30775   3.887   3.609   0.425
 9959SOL    HW130776   3.836   3.628   0.341
 9959SOL    HW230777   3.848   3.661   0.500
 9960SOL     OW30778   0.483   1.901   2.653
 9960SOL    HW130779   0.538   1.844   2.592
 9960SOL    HW230780   0.440   1.843   2.722
 9961SOL     OW30781   2.081   5.212   4.791
 9961SOL    HW130782   2.089   5.165   4.879
 9961SOL    HW230783   2.018   5.161   4.732
 9962SOL     OW30784   5.038   6.239   4.987
 9962SOL    HW130785   4.994   6.263   5.074
 9962SOL    HW230786   4.987   6.280   4.912
 9963SOL     OW30787   2.946   1.225   0.839
 9963SOL    HW130788   2.949   1.236   0.739
 9963SOL    HW230789   2.997   1.300   0.882
 9964SOL     OW30790   4.348   6.008   5.364
 9964SOL    HW130791   4.392   6.088   5.405
 9964SOL    HW230792   4.249   6.021   5.363
 9965SOL     OW30793   4.209   0.117   0.370
 9965SOL    HW130794   4.279   0.173   0.412
 9965SOL    HW230795   4.245   0.025   0.353
 9966SOL     OW30796   1.028   0.128   2.413
 9966SOL    HW130797   1.001   0.091   2.502
 9966SOL    HW230798   0.986   0.073   2.340
 9967SOL     OW30799   0.917   5.786   0.448
 9967SOL    HW130800   0.865   5.763   0.530
 9967SOL    HW230801   0.988   5.852   0.471
 9968SOL     OW30802   3.994   3.003   2.420
 9968SOL    HW130803   3.969   3.082   2.364
 9968SOL    HW230804   4.091   2.981   2.404
 9969SOL     OW30805   0.795   3.390   1.826
 9969SOL    HW130806   0.778   3.293   1.847
 9969SOL    HW230807   0.852   3.397   1.744
 9970SOL     OW30808   5.252   4.508   1.240
 9970SOL    HW130809   5.256   4.467   1.149
 9970SOL    HW230810   5.269   4.607   1.233
 9971SOL     OW30811   2.049   4.830   0.199
 9971SOL    HW130812   2.052   4.905   0.133
 9971SOL    HW230813   2.018   4.746   0.154
 9972SOL     OW30814   6.666   4.542   2.068
 9972SOL    HW130815   6.590   4.484   2.094
 9972SOL    HW230816   6.698   4.594   2.147
 9973SOL     OW30817   5.694   0.698   4.613
 9973SOL    HW130818   5.670   0.763   4.541
 9973SOL    HW230819   5.618   0.635   4.628
 9974SOL     OW30820   1.835   1.058   4.316
 9974SOL    HW130821   1.867   1.031   4.225
 9974SOL    HW230822   1.747   1.105   4.308
 9975SOL     OW30823   0.649   3.208   0.105
 9975SOL    HW130824   0.730   3.150   0.109
 9975SOL    HW230825   0.575   3.157   0.060
 9976SOL     OW30826   2.321   0.263   5.034
 9976SOL    HW130827   2.253   0.336   5.044
 9976SOL    HW230828   2.405   0.302   4.996
 9977SOL     OW30829   6.796   4.610   4.927
 9977SOL    HW130830   6.785   4.706   4.951
 9977SOL    HW230831   6.870   4.600   4.861
 9978SOL     OW30832   6.630   1.831   4.387
 9978SOL    HW130833   6.680   1.752   4.353
 9978SOL    HW230834   6.592   1.810   4.477
 9979SOL     OW30835   6.905   3.921   5.088
 9979SOL    HW130836   6.992   3.876   5.106
 9979SOL    HW230837   6.839   3.853   5.055
 9980SOL     OW30838   3.670   0.128   5.928
 9980SOL    HW130839   3.581   0.117   5.884
 9980SOL    HW230840   3.702   0.040   5.962
 9981SOL     OW30841   3.485   2.139   4.238
 9981SOL    HW130842   3.389   2.131   4.212
 9981SOL    HW230843   3.496   2.115   4.334
 9982SOL     OW30844   6.390   6.323   4.149
 9982SOL    HW130845   6.418   6.354   4.058
 9982SOL    HW230846   6.471   6.293   4.200
 9983SOL     OW30847   0.207   1.284   1.844
 9983SOL    HW130848   0.156   1.229   1.910
 9983SOL    HW230849   0.277   1.227   1.801
 9984SOL     OW30850   3.006   1.605   6.661
 9984SOL    HW130851   3.095   1.574   6.694
 9984SOL    HW230852   3.008   1.610   6.561
 9985SOL     OW30853   1.088   0.820   1.884
 9985SOL    HW130854   1.114   0.822   1.787
 9985SOL    HW230855   1.030   0.741   1.901
 9986SOL     OW30856   5.255   4.246   4.586
 9986SOL    HW130857   5.296   4.185   4.654
 9986SOL    HW230858   5.175   4.201   4.546
 9987SOL     OW30859   6.921   4.120   5.934
 9987SOL    HW130860   6.913   4.179   6.014
 9987SOL    HW230861   6.849   4.143   5.868
 9988SOL     OW30862   6.700   6.745   4.751
 9988SOL    HW130863   6.788   6.740   4.797
 9988SOL    HW230864   6.665   6.652   4.736
 9989SOL     OW30865   0.474   3.671   5.419
 9989SOL    HW130866   0.548   3.709   5.474
 9989SOL    HW230867   0.512   3.611   5.349
 9990SOL     OW30868   1.539   5.404   2.283
 9990SOL    HW130869   1.491   5.324   2.320
 9990SOL    HW230870   1.626   5.416   2.332
 9991SOL     OW30871   3.831   2.173   3.302
 9991SOL    HW130872   3.925   2.199   3.324
 9991SOL    HW230873   3.787   2.135   3.383
 9992SOL     OW30874   6.234   5.255   6.255
 9992SOL    HW130875   6.214   5.169   6.209
 9992SOL    HW230876   6.317   5.295   6.217
 9993SOL     OW30877   0.745   1.105   1.747
 9993SOL    HW130878   0.740   1.164   1.665
 9993SOL    HW230879   0.771   1.161   1.826
 9994SOL     OW30880   5.910   4.930   3.110
 9994SOL    HW130881   5.882   4.862   3.177
 9994SOL    HW230882   5.849   4.926   3.030
 9995SOL     OW30883   4.733   1.098   4.888
 9995SOL    HW130884   4.697   1.016   4.844
 9995SOL    HW230885   4.670   1.174   4.871
 9996SOL     OW30886   2.504   3.723   0.130
 9996SOL    HW130887   2.501   3.768   0.219
 9996SOL    HW230888   2.411   3.715   0.093
 9997SOL     OW30889   2.797   0.015   5.186
 9997SOL    HW130890   2.880   6.981   5.203
 9997SOL    HW230891   2.820   0.112   5.183
 9998SOL     OW30892   6.005   5.866   5.570
 9998SOL    HW130893   5.962   5.820   5.648
 9998SOL    HW230894   6.007   5.804   5.492
 9999SOL     OW30895   0.252   2.604   4.964
 9999SOL    HW130896   0.295   2.655   5.038
 9999SOL    HW230897   0.314   2.598   4.887
10000SOL     OW30898   6.993   3.401   6.760
10000SOL    HW130899   0.006   3.490   6.793
10000SOL    HW230900   7.005   3.333   6.832
10001SOL     OW30901   4.509   6.806   2.464
10001SOL    HW130902   4.501   6.864   2.544
10001SOL    HW230903   4.462   6.719   2.480
10002SOL     OW30904   0.947   1.210   1.951
10002SOL    HW130905   0.964   1.284   2.016
10002SOL    HW230906   0.989   1.126   1.985
10003SOL     OW30907   4.381   1.707   3.383
10003SOL    HW130908   4.301   1.652   3.407
10003SOL    HW230909   4.455   1.646   3.355
10004SOL     OW30910   0.431   1.769   3.134
10004SOL    HW130911   0.452   1.737   3.042
10004SOL    HW230912   0.503   1.740   3.197
10005SOL     OW30913   5.066   6.329   3.983
10005SOL    HW130914   5.140   6.377   4.031
10005SOL    HW230915   5.093   6.234   3.966
10006SOL     OW30916   3.772   0.809   4.554
10006SOL    HW130917   3.799   0.819   4.458
10006SOL    HW230918   3.813   0.883   4.608
10007SOL     OW30919   6.514   3.402   3.767
10007SOL    HW130920   6.472   3.318   3.801
10007SOL    HW230921   6.508   3.473   3.837
10008SOL     OW30922   3.634   0.158   4.100
10008SOL    HW130923   3.584   0.241   4.126
10008SOL    HW230924   3.691   0.176   4.020
10009SOL     OW30925   0.983   4.271   1.907
10009SOL    HW130926   0.989   4.348   1.971
10009SOL    HW230927   0.913   4.207   1.939
10010SOL     OW30928   0.785   1.613   6.537
10010SOL    HW130929   0.809   1.653   6.625
10010SOL    HW230930   0.686   1.609   6.528
10011SOL     OW30931   6.992   6.858   4.746
10011SOL    HW130932   6.981   6.918   4.825
10011SOL    HW230933   0.066   6.824   4.742
10012SOL     OW30934   5.891   1.450   3.875
10012SOL    HW130935   5.808   1.507   3.870
10012SOL    HW230936   5.876   1.364   3.827
10013SOL     OW30937   0.960   0.779   2.987
10013SOL    HW130938   0.884   0.841   2.969
10013SOL    HW230939   0.946   0.733   3.075
10014SOL     OW30940   1.354   4.844   5.933
10014SOL    HW130941   1.355   4.880   6.026
10014SOL    HW230942   1.260   4.828   5.904
10015SOL     OW30943   2.150   4.496   0.137
10015SOL    HW130944   2.145   4.535   0.229
10015SOL    HW230945   2.227   4.433   0.132
10016SOL     OW30946   2.409   0.625   5.602
10016SOL    HW130947   2.477   0.552   5.610
10016SOL    HW230948   2.406   0.657   5.507
10017SOL     OW30949   1.523   1.920   4.098
10017SOL    HW130950   1.583   1.900   4.176
10017SOL    HW230951   1.436   1.957   4.131
10018SOL     OW30952   4.666   6.701   6.506
10018SOL    HW130953   4.569   6.702   6.530
10018SOL    HW230954   4.682   6.760   6.428
10019SOL     OW30955   1.720   1.259   2.639
10019SOL    HW130956   1.695   1.164   2.661
10019SOL    HW230957   1.671   1.288   2.557
10020SOL     OW30958   0.383   3.128   0.707
10020SOL    HW130959   0.295   3.164   0.738
10020SOL    HW230960   0.368   3.059   0.636
10021SOL     OW30961   6.408   3.614   0.578
10021SOL    HW130962   6.387   3.711   0.586
10021SOL    HW230963   6.328   3.560   0.605
10022SOL     OW30964   1.725   0.847   6.906
10022SOL    HW130965   1.722   0.947   6.907
10022SOL    HW230966   1.781   0.814   6.982
10023SOL     OW30967   0.261   3.419   1.097
10023SOL    HW130968   0.261   3.474   1.181
10023SOL    HW230969   0.270   3.322   1.121
10024SOL     OW30970   1.294   4.486   3.524
10024SOL    HW130971   1.384   4.507   3.563
10024SOL    HW230972   1.306   4.437   3.438
10025SOL     OW30973   1.131   1.964   0.330
10025SOL    HW130974   1.077   1.898   0.276
10025SOL    HW230975   1.122   1.942   0.427
10026SOL     OW30976   6.952   0.802   3.706
10026SOL    HW130977   7.002   0.718   3.683
10026SOL    HW230978   6.918   0.845   3.622
10027SOL     OW30979   4.622   2.330   5.746
10027SOL    HW130980   4.700   2.333   5.809
10027SOL    HW230981   4.650   2.286   5.661
10028SOL     OW30982   1.805   1.226   0.866
10028SOL    HW130983   1.880   1.292   0.866
10028SOL    HW230984   1.725   1.268   0.910
10029SOL     OW30985   5.361   2.212   3.549
10029SOL    HW130986   5.440   2.215   3.611
10029SOL    HW230987   5.373   2.138   3.484
10030SOL     OW30988   2.349   0.702   3.570
10030SOL    HW130989   2.387   0.612   3.592
10030SOL    HW230990   2.298   0.736   3.649
10031SOL     OW30991   6.656   4.462   4.749
10031SOL    HW130992   6.576   4.411   4.780
10031SOL    HW230993   6.701   4.504   4.828
10032SOL     OW30994   3.185   1.618   5.419
10032SOL    HW130995   3.249   1.616   5.495
10032SOL    HW230996   3.095   1.588   5.450
10033SOL     OW30997   5.615   2.378   4.486
10033SOL    HW130998   5.524   2.419   4.482
10033SOL    HW230999   5.607   2.279   4.497
10034SOL     OW31000   4.810   0.723   6.265
10034SOL    HW131001   4.808   0.625   6.245
10034SOL    HW231002   4.903   0.758   6.253
10035SOL     OW31003   0.252   6.532   2.886
10035SOL    HW131004   0.255   6.484   2.975
10035SOL    HW231005   0.322   6.602   2.884
10036SOL     OW31006   6.917   0.788   0.541
10036SOL    HW131007   6.950   0.881   0.523
10036SOL    HW231008   6.901   0.742   0.453
10037SOL     OW31009   0.155   6.778   1.142
10037SOL    HW131010   0.153   6.694   1.198
10037SOL    HW231011   0.191   6.853   1.197
10038SOL     OW31012   6.677   0.847   1.117
10038SOL    HW131013   6.762   0.797   1.098
10038SOL    HW231014   6.599   0.788   1.094
10039SOL     OW31015   3.479   0.325   2.974
10039SOL    HW131016   3.456   0.422   2.979
10039SOL    HW231017   3.525   0.298   3.059
10040SOL     OW31018   0.428   2.511   1.013
10040SOL    HW131019   0.380   2.520   1.101
10040SOL    HW231020   0.497   2.583   1.006
10041SOL     OW31021   1.906   6.037   0.433
10041SOL    HW131022   1.894   5.944   0.399
10041SOL    HW231023   1.987   6.078   0.392
10042SOL     OW31024   5.703   2.884   2.821
10042SOL    HW131025   5.752   2.942   2.886
10042SOL    HW231026   5.684   2.936   2.738
10043SOL     OW31027   0.785   2.468   4.761
10043SOL    HW131028   0.738   2.551   4.729
10043SOL    HW231029   0.882   2.474   4.737
10044SOL     OW31030   3.905   1.206   6.187
10044SOL    HW131031   3.941   1.266   6.115
10044SOL    HW231032   3.821   1.245   6.224
10045SOL     OW31033   2.485   1.323   0.563
10045SOL    HW131034   2.555   1.362   0.503
10045SOL    HW231035   2.395   1.351   0.531
10046SOL     OW31036   1.233   5.225   1.135
10046SOL    HW131037   1.283   5.138   1.133
10046SOL    HW231038   1.144   5.213   1.092
10047SOL     OW31039   0.742   4.191   0.849
10047SOL    HW131040   0.776   4.282   0.874
10047SOL    HW231041   0.708   4.145   0.931
10048SOL     OW31042   5.733   5.261   3.113
10048SOL    HW131043   5.721   5.330   3.042
10048SOL    HW231044   5.830   5.236   3.119
10049SOL     OW31045   6.282   0.715   5.338
10049SOL    HW131046   6.193   0.704   5.294
10049SOL    HW231047   6.317   0.807   5.319
10050SOL     OW31048   0.219   2.792   6.539
10050SOL    HW131049   0.298   2.853   6.542
10050SOL    HW231050   0.224   2.727   6.614
10051SOL     OW31051   2.744   1.914   4.101
10051SOL    HW131052   2.801   1.993   4.121
10051SOL    HW231053   2.764   1.840   4.165
10052SOL     OW31054   1.738   0.123   3.388
10052SOL    HW131055   1.821   0.163   3.349
10052SOL    HW231056   1.738   0.136   3.487
10053SOL     OW31057   5.896   5.455   3.488
10053SOL    HW131058   5.915   5.414   3.577
10053SOL    HW231059   5.803   5.491   3.487
10054SOL     OW31060   6.923   4.310   4.544
10054SOL    HW131061   6.847   4.365   4.509
10054SOL    HW231062   6.917   4.217   4.507
10055SOL     OW31063   1.328   2.928   6.771
10055SOL    HW131064   1.265   2.984   6.826
10055SOL    HW231065   1.421   2.942   6.803
10056SOL     OW31066   6.266   1.982   3.694
10056SOL    HW131067   6.342   1.952   3.752
10056SOL    HW231068   6.220   1.902   3.655
10057SOL     OW31069   5.292   4.814   5.664
10057SOL    HW131070   5.271   4.742   5.598
10057SOL    HW231071   5.349   4.884   5.620
10058SOL     OW31072   0.255   4.018   4.912
10058SOL    HW131073   0.203   3.937   4.883
10058SOL    HW231074   0.191   4.089   4.942
10059SOL     OW31075   5.389   0.209   6.908
10059SOL    HW131076   5.441   0.288   6.874
10059SOL    HW231077   5.408   0.130   6.850
10060SOL     OW31078   3.089   1.998   1.778
10060SOL    HW131079   3.171   1.960   1.822
10060SOL    HW231080   3.055   1.934   1.709
10061SOL     OW31081   3.168   0.044   1.786
10061SOL    HW131082   3.267   0.046   1.800
10061SOL    HW231083   3.147   7.013   1.703
10062SOL     OW31084   0.861   6.504   4.949
10062SOL    HW131085   0.856   6.408   4.979
10062SOL    HW231086   0.956   6.532   4.941
10063SOL     OW31087   2.589   2.271   5.114
10063SOL    HW131088   2.491   2.265   5.099
10063SOL    HW231089   2.607   2.321   5.199
10064SOL     OW31090   2.730   6.817   1.021
10064SOL    HW131091   2.799   6.878   0.980
10064SOL    HW231092   2.639   6.857   1.008
10065SOL     OW31093   0.457   1.797   1.649
10065SOL    HW131094   0.385   1.850   1.693
10065SOL    HW231095   0.488   1.845   1.567
10066SOL     OW31096   6.314   4.924   3.781
10066SOL    HW131097   6.221   4.892   3.761
10066SOL    HW231098   6.380   4.869   3.730
10067SOL     OW31099   7.007   2.691   5.015
10067SOL    HW131100   0.060   2.623   5.025
10067SOL    HW231101   0.026   2.775   4.976
10068SOL     OW31102   1.452   3.731   2.591
10068SOL    HW131103   1.489   3.714   2.682
10068SOL    HW231104   1.413   3.823   2.587
10069SOL     OW31105   3.375   4.573   0.667
10069SOL    HW131106   3.393   4.655   0.721
10069SOL    HW231107   3.350   4.498   0.728
10070SOL     OW31108   5.198   6.860   0.077
10070SOL    HW131109   5.181   6.789   0.009
10070SOL    HW231110   5.200   6.949   0.032
10071SOL     OW31111   5.799   0.790   5.295
10071SOL    HW131112   5.872   0.740   5.249
10071SOL    HW231113   5.716   0.788   5.240
10072SOL     OW31114   5.992   3.220   1.372
10072SOL    HW131115   5.980   3.318   1.357
10072SOL    HW231116   5.997   3.203   1.471
10073SOL     OW31117   5.805   4.860   4.608
10073SOL    HW131118   5.880   4.793   4.612
10073SOL    HW231119   5.841   4.948   4.578
10074SOL     OW31120   2.460   4.719   7.019
10074SOL    HW131121   2.460   4.638   6.959
10074SOL    HW231122   2.505   4.696   0.086
10075SOL     OW31123   0.903   3.105   1.928
10075SOL    HW131124   0.925   3.013   1.894
10075SOL    HW231125   0.805   3.113   1.943
10076SOL     OW31126   5.773   4.987   4.292
10076SOL    HW131127   5.674   4.975   4.295
10076SOL    HW231128   5.796   5.055   4.222
10077SOL     OW31129   4.686   3.629   6.703
10077SOL    HW131130   4.734   3.641   6.616
10077SOL    HW231131   4.685   3.716   6.753
10078SOL     OW31132   6.335   5.434   4.647
10078SOL    HW131133   6.412   5.379   4.615
10078SOL    HW231134   6.308   5.498   4.575
10079SOL     OW31135   4.808   4.454   3.918
10079SOL    HW131136   4.751   4.437   3.838
10079SOL    HW231137   4.882   4.517   3.895
10080SOL     OW31138   5.163   1.528   5.588
10080SOL    HW131139   5.092   1.570   5.531
10080SOL    HW231140   5.246   1.584   5.585
10081SOL     OW31141   0.769   4.819   0.881
10081SOL    HW131142   0.774   4.855   0.974
10081SOL    HW231143   0.767   4.719   0.883
10082SOL     OW31144   0.804   4.548   1.353
10082SOL    HW131145   0.814   4.529   1.451
10082SOL    HW231146   0.796   4.462   1.303
10083SOL     OW31147   3.028   6.248   2.845
10083SOL    HW131148   3.012   6.158   2.806
10083SOL    HW231149   3.078   6.305   2.779
10084SOL     OW31150   0.840   1.990   4.841
10084SOL    HW131151   0.938   2.005   4.831
10084SOL    HW231152   0.812   1.915   4.780
10085SOL     OW31153   5.407   0.019   1.096
10085SOL    HW131154   5.383   7.006   1.188
10085SOL    HW231155   5.458   0.105   1.103
10086SOL     OW31156   4.562   6.320   3.554
10086SOL    HW131157   4.509   6.259   3.613
10086SOL    HW231158   4.660   6.308   3.573
10087SOL     OW31159   1.846   5.852   5.544
10087SOL    HW131160   1.907   5.776   5.521
10087SOL    HW231161   1.895   5.939   5.531
10088SOL     OW31162   6.392   2.338   1.615
10088SOL    HW131163   6.377   2.249   1.657
10088SOL    HW231164   6.317   2.399   1.639
10089SOL     OW31165   3.667   0.714   1.498
10089SOL    HW131166   3.662   0.674   1.406
10089SOL    HW231167   3.708   0.647   1.560
10090SOL     OW31168   1.761   6.689   3.069
10090SOL    HW131169   1.741   6.775   3.116
10090SOL    HW231170   1.828   6.637   3.121
10091SOL     OW31171   5.532   4.834   4.645
10091SOL    HW131172   5.627   4.857   4.624
10091SOL    HW231173   5.489   4.911   4.692
10092SOL     OW31174   0.942   2.167   3.687
10092SOL    HW131175   0.968   2.168   3.784
10092SOL    HW231176   0.958   2.076   3.649
10093SOL     OW31177   4.256   3.927   6.200
10093SOL    HW131178   4.222   4.017   6.175
10093SOL    HW231179   4.179   3.865   6.216
10094SOL     OW31180   3.773   2.085   0.442
10094SOL    HW131181   3.686   2.037   0.453
10094SOL    HW231182   3.767   2.176   0.484
10095SOL     OW31183   4.206   3.584   5.179
10095SOL    HW131184   4.175   3.531   5.099
10095SOL    HW231185   4.135   3.582   5.249
10096SOL     OW31186   6.489   3.574   2.453
10096SOL    HW131187   6.468   3.611   2.543
10096SOL    HW231188   6.583   3.540   2.451
10097SOL     OW31189   0.620   1.329   0.895
10097SOL    HW131190   0.554   1.306   0.966
10097SOL    HW231191   0.594   1.285   0.809
10098SOL     OW31192   3.336   5.401   4.600
10098SOL    HW131193   3.417   5.458   4.608
10098SOL    HW231194   3.362   5.308   4.576
10099SOL     OW31195   0.090   4.944   3.515
10099SOL    HW131196   0.056   5.004   3.587
10099SOL    HW231197   0.082   4.991   3.427
10100SOL     OW31198   5.394   4.897   3.742
10100SOL    HW131199   5.302   4.894   3.782
10100SOL    HW231200   5.387   4.893   3.642
10101SOL     OW31201   6.300   3.502   0.149
10101SOL    HW131202   6.254   3.576   0.100
10101SOL    HW231203   6.387   3.535   0.186
10102SOL     OW31204   6.455   4.574   3.622
10102SOL    HW131205   6.420   4.646   3.562
10102SOL    HW231206   6.516   4.614   3.690
10103SOL     OW31207   0.445   6.481   6.988
10103SOL    HW131208   0.498   6.425   0.032
10103SOL    HW231209   0.358   6.507   0.012
10104SOL     OW31210   3.267   1.281   4.630
10104SOL    HW131211   3.333   1.294   4.556
10104SOL    HW231212   3.228   1.369   4.656
10105SOL     OW31213   2.977   1.036   3.925
10105SOL    HW131214   3.053   1.001   3.981
10105SOL    HW231215   2.898   0.975   3.935
10106SOL     OW31216   6.057   4.055   1.689
10106SOL    HW131217   6.049   4.079   1.785
10106SOL    HW231218   6.019   4.128   1.633
10107SOL     OW31219   5.150   5.328   6.781
10107SOL    HW131220   5.202   5.254   6.738
10107SOL    HW231221   5.204   5.412   6.778
10108SOL     OW31222   2.044   2.597   4.969
10108SOL    HW131223   2.122   2.657   4.950
10108SOL    HW231224   2.068   2.503   4.944
10109SOL     OW31225   1.107   2.351   0.673
10109SOL    HW131226   1.174   2.424   0.682
10109SOL    HW231227   1.154   2.264   0.659
10110SOL     OW31228   5.888   5.916   2.524
10110SOL    HW131229   5.872   5.892   2.619
10110SOL    HW231230   5.917   5.835   2.473
10111SOL     OW31231   6.766   2.323   1.997
10111SOL    HW131232   6.714   2.310   2.082
10111SOL    HW231233   6.849   2.375   2.016
10112SOL     OW31234   5.805   2.416   3.962
10112SOL    HW131235   5.861   2.342   3.999
10112SOL    HW231236   5.796   2.404   3.863
10113SOL     OW31237   6.550   7.005   5.808
10113SOL    HW131238   6.636   7.010   5.859
10113SOL    HW231239   6.488   6.943   5.854
10114SOL     OW31240   5.665   3.250   2.096
10114SOL    HW131241   5.608   3.168   2.094
10114SOL    HW231242   5.647   3.306   2.015
10115SOL     OW31243   3.008   2.838   6.011
10115SOL    HW131244   3.033   2.858   6.105
10115SOL    HW231245   2.928   2.892   5.985
10116SOL     OW31246   0.939   0.241   6.268
10116SOL    HW131247   1.025   0.188   6.266
10116SOL    HW231248   0.959   0.334   6.299
10117SOL     OW31249   6.554   4.261   2.532
10117SOL    HW131250   6.584   4.228   2.621
10117SOL    HW231251   6.624   4.239   2.463
10118SOL     OW31252   3.566   5.257   3.718
10118SOL    HW131253   3.561   5.310   3.803
10118SOL    HW231254   3.475   5.225   3.693
10119SOL     OW31255   5.758   6.046   6.719
10119SOL    HW131256   5.701   6.045   6.637
10119SOL    HW231257   5.705   6.084   6.796
10120SOL     OW31258   2.627   2.409   3.391
10120SOL    HW131259   2.621   2.420   3.490
10120SOL    HW231260   2.693   2.338   3.369
10121SOL     OW31261   6.680   5.018   1.669
10121SOL    HW131262   6.648   4.950   1.603
10121SOL    HW231263   6.627   5.011   1.753
10122SOL     OW31264   2.365   0.131   3.458
10122SOL    HW131265   2.265   0.122   3.460
10122SOL    HW231266   2.405   0.069   3.526
10123SOL     OW31267   6.411   5.662   6.462
10123SOL    HW131268   6.395   5.758   6.440
10123SOL    HW231269   6.323   5.617   6.481
10124SOL     OW31270   2.541   4.986   2.852
10124SOL    HW131271   2.479   4.928   2.801
10124SOL    HW231272   2.594   4.929   2.916
10125SOL     OW31273   1.168   0.558   4.972
10125SOL    HW131274   1.126   0.505   4.898
10125SOL    HW231275   1.118   0.540   5.058
10126SOL     OW31276   6.616   6.125   5.288
10126SOL    HW131277   6.680   6.198   5.261
10126SOL    HW231278   6.569   6.151   5.372
10127SOL     OW31279   2.043   6.747   5.384
10127SOL    HW131280   2.106   6.812   5.426
10127SOL    HW231281   2.008   6.684   5.454
10128SOL     OW31282   2.179   2.249   7.009
10128SOL    HW131283   2.276   2.227   0.003
10128SOL    HW231284   2.167   2.293   6.920
10129SOL     OW31285   6.261   2.045   4.973
10129SOL    HW131286   6.346   2.030   4.922
10129SOL    HW231287   6.184   2.048   4.909
10130SOL     OW31288   0.685   2.177   3.580
10130SOL    HW131289   0.674   2.122   3.498
10130SOL    HW231290   0.783   2.188   3.600
10131SOL     OW31291   1.883   6.690   5.181
10131SOL    HW131292   1.948   6.692   5.256
10131SOL    HW231293   1.926   6.726   5.098
10132SOL     OW31294   6.025   0.305   2.425
10132SOL    HW131295   6.009   0.350   2.337
10132SOL    HW231296   5.995   0.210   2.419
10133SOL     OW31297   5.024   6.791   1.036
10133SOL    HW131298   5.116   6.824   1.056
10133SOL    HW231299   4.968   6.866   1.002
10134SOL     OW31300   0.551   6.889   3.639
10134SOL    HW131301   0.461   6.897   3.683
10134SOL    HW231302   0.611   6.962   3.672
10135SOL     OW31303   6.186   6.907   3.265
10135SOL    HW131304   6.121   6.984   3.267
10135SOL    HW231305   6.260   6.925   3.329
10136SOL     OW31306   4.891   1.387   3.330
10136SOL    HW131307   4.964   1.329   3.295
10136SOL    HW231308   4.877   1.464   3.268
10137SOL     OW31309   0.031   5.867   4.496
10137SOL    HW131310   0.028   5.812   4.413
10137SOL    HW231311   0.114   5.846   4.547
10138SOL     OW31312   6.991   2.465   2.092
10138SOL    HW131313   7.015   2.543   2.035
10138SOL    HW231314   6.998   2.490   2.189
10139SOL     OW31315   3.627   2.837   6.371
10139SOL    HW131316   3.541   2.838   6.422
10139SOL    HW231317   3.662   2.930   6.364
10140SOL     OW31318   0.297   6.018   5.242
10140SOL    HW131319   0.299   5.931   5.194
10140SOL    HW231320   0.222   6.018   5.309
10141SOL     OW31321   1.590   2.178   4.126
10141SOL    HW131322   1.632   2.206   4.213
10141SOL    HW231323   1.571   2.080   4.129
10142SOL     OW31324   4.730   5.534   2.757
10142SOL    HW131325   4.731   5.615   2.698
10142SOL    HW231326   4.635   5.513   2.782
10143SOL     OW31327   5.534   2.798   5.751
10143SOL    HW131328   5.526   2.849   5.665
10143SOL    HW231329   5.449   2.806   5.803
10144SOL     OW31330   3.267   6.849   0.652
10144SOL    HW131331   3.266   6.928   0.713
10144SOL    HW231332   3.253   6.878   0.558
10145SOL     OW31333   6.596   6.636   5.920
10145SOL    HW131334   6.558   6.640   5.828
10145SOL    HW231335   6.541   6.692   5.982
10146SOL     OW31336   1.558   2.862   5.029
10146SOL    HW131337   1.636   2.804   5.007
10146SOL    HW231338   1.533   2.849   5.126
10147SOL     OW31339   3.861   5.971   6.955
10147SOL    HW131340   3.945   5.935   6.915
10147SOL    HW231341   3.882   6.048   7.015
10148SOL     OW31342   0.706   4.987   6.698
10148SOL    HW131343   0.637   4.958   6.633
10148SOL    HW231344   0.759   4.908   6.728
10149SOL     OW31345   3.503   3.722   1.811
10149SOL    HW131346   3.421   3.671   1.837
10149SOL    HW231347   3.576   3.704   1.877
10150SOL     OW31348   4.795   4.090   1.157
10150SOL    HW131349   4.793   4.189   1.143
10150SOL    HW231350   4.721   4.063   1.217
10151SOL     OW31351   7.013   0.873   6.187
10151SOL    HW131352   0.065   0.943   6.177
10151SOL    HW231353   6.938   0.910   6.243
10152SOL     OW31354   3.954   6.729   2.710
10152SOL    HW131355   3.925   6.690   2.623
10152SOL    HW231356   4.016   6.666   2.756
10153SOL     OW31357   4.818   3.877   1.832
10153SOL    HW131358   4.745   3.937   1.864
10153SOL    HW231359   4.907   3.915   1.861
10154SOL     OW31360   4.135   5.527   5.144
10154SOL    HW131361   4.109   5.433   5.163
10154SOL    HW231362   4.053   5.585   5.147
10155SOL     OW31363   4.678   1.715   4.114
10155SOL    HW131364   4.619   1.794   4.133
10155SOL    HW231365   4.773   1.746   4.108
10156SOL     OW31366   4.099   1.788   5.971
10156SOL    HW131367   4.189   1.763   5.936
10156SOL    HW231368   4.028   1.741   5.918
10157SOL     OW31369   0.585   4.695   1.151
10157SOL    HW131370   0.568   4.779   1.203
10157SOL    HW231371   0.632   4.629   1.210
10158SOL     OW31372   5.275   5.003   6.850
10158SOL    HW131373   5.192   4.973   6.803
10158SOL    HW231374   5.349   4.939   6.830
10159SOL     OW31375   3.581   3.039   1.925
10159SOL    HW131376   3.575   2.969   1.996
10159SOL    HW231377   3.677   3.056   1.902
10160SOL     OW31378   0.429   4.072   2.699
10160SOL    HW131379   0.475   4.094   2.786
10160SOL    HW231380   0.342   4.121   2.695
10161SOL     OW31381   5.208   3.337   6.162
10161SOL    HW131382   5.302   3.324   6.130
10161SOL    HW231383   5.166   3.248   6.180
10162SOL     OW31384   1.860   2.651   2.420
10162SOL    HW131385   1.766   2.675   2.394
10162SOL    HW231386   1.879   2.556   2.396
10163SOL     OW31387   3.521   4.948   5.116
10163SOL    HW131388   3.428   4.937   5.080
10163SOL    HW231389   3.526   4.909   5.208
10164SOL     OW31390   0.371   1.328   3.773
10164SOL    HW131391   0.359   1.428   3.775
10164SOL    HW231392   0.380   1.298   3.678
10165SOL     OW31393   1.466   2.963   4.242
10165SOL    HW131394   1.443   2.915   4.158
10165SOL    HW231395   1.548   2.923   4.282
10166SOL     OW31396   2.855   6.569   2.858
10166SOL    HW131397   2.885   6.476   2.834
10166SOL    HW231398   2.881   6.589   2.953
10167SOL     OW31399   2.999   2.536   6.289
10167SOL    HW131400   2.944   2.532   6.373
10167SOL    HW231401   3.014   2.443   6.254
10168SOL     OW31402   0.299   0.543   0.182
10168SOL    HW131403   0.224   0.480   0.161
10168SOL    HW231404   0.358   0.553   0.102
10169SOL     OW31405   4.662   5.365   3.483
10169SOL    HW131406   4.598   5.435   3.451
10169SOL    HW231407   4.724   5.340   3.409
10170SOL     OW31408   5.259   6.861   0.701
10170SOL    HW131409   5.262   6.961   0.703
10170SOL    HW231410   5.352   6.826   0.712
10171SOL     OW31411   2.186   4.338   4.412
10171SOL    HW131412   2.170   4.371   4.505
10171SOL    HW231413   2.157   4.243   4.405
10172SOL     OW31414   0.226   0.861   2.848
10172SOL    HW131415   0.229   0.769   2.887
10172SOL    HW231416   0.145   0.872   2.792
10173SOL     OW31417   3.839   3.585   4.861
10173SOL    HW131418   3.852   3.584   4.960
10173SOL    HW231419   3.757   3.532   4.838
10174SOL     OW31420   4.769   4.881   1.007
10174SOL    HW131421   4.859   4.919   1.028
10174SOL    HW231422   4.732   4.837   1.089
10175SOL     OW31423   6.578   0.034   4.244
10175SOL    HW131424   6.648   7.010   4.301
10175SOL    HW231425   6.589   0.005   4.149
10176SOL     OW31426   0.287   0.801   4.727
10176SOL    HW131427   0.316   0.896   4.725
10176SOL    HW231428   0.208   0.791   4.788
10177SOL     OW31429   2.446   1.181   3.654
10177SOL    HW131430   2.348   1.168   3.671
10177SOL    HW231431   2.493   1.195   3.741
10178SOL     OW31432   0.545   1.583   1.786
10178SOL    HW131433   0.506   1.644   1.718
10178SOL    HW231434   0.632   1.548   1.753
10179SOL     OW31435   0.026   5.991   0.928
10179SOL    HW131436   0.011   5.915   0.865
10179SOL    HW231437   0.052   6.072   0.877
10180SOL     OW31438   3.293   6.767   6.638
10180SOL    HW131439   3.290   6.866   6.649
10180SOL    HW231440   3.386   6.735   6.657
10181SOL     OW31441   0.136   3.736   3.352
10181SOL    HW131442   0.166   3.774   3.439
10181SOL    HW231443   0.181   3.647   3.337
10182SOL     OW31444   3.786   0.613   0.488
10182SOL    HW131445   3.880   0.585   0.469
10182SOL    HW231446   3.744   0.549   0.553
10183SOL     OW31447   4.380   6.330   5.784
10183SOL    HW131448   4.345   6.298   5.872
10183SOL    HW231449   4.309   6.382   5.736
10184SOL     OW31450   5.621   2.002   5.621
10184SOL    HW131451   5.554   2.066   5.658
10184SOL    HW231452   5.578   1.944   5.552
10185SOL     OW31453   3.401   4.922   2.208
10185SOL    HW131454   3.330   4.953   2.144
10185SOL    HW231455   3.358   4.891   2.293
10186SOL     OW31456   3.321   2.741   6.943
10186SOL    HW131457   3.242   2.701   6.990
10186SOL    HW231458   3.402   2.687   6.965
10187SOL     OW31459   2.260   4.285   5.794
10187SOL    HW131460   2.288   4.356   5.729
10187SOL    HW231461   2.285   4.195   5.758
10188SOL     OW31462   2.231   6.737   6.681
10188SOL    HW131463   2.271   6.827   6.692
10188SOL    HW231464   2.298   6.675   6.639
10189SOL     OW31465   2.095   1.575   4.736
10189SOL    HW131466   2.149   1.537   4.661
10189SOL    HW231467   2.000   1.582   4.709
10190SOL     OW31468   4.463   4.485   1.087
10190SOL    HW131469   4.368   4.515   1.096
10190SOL    HW231470   4.517   4.523   1.162
10191SOL     OW31471   5.432   0.513   0.076
10191SOL    HW131472   5.463   0.505   7.001
10191SOL    HW231473   5.460   0.432   0.127
10192SOL     OW31474   2.087   0.762   4.200
10192SOL    HW131475   2.113   0.773   4.104
10192SOL    HW231476   2.162   0.719   4.250
10193SOL     OW31477   3.486   4.102   3.759
10193SOL    HW131478   3.424   4.030   3.726
10193SOL    HW231479   3.434   4.168   3.813
10194SOL     OW31480   3.163   6.770   2.993
10194SOL    HW131481   3.195   6.729   2.908
10194SOL    HW231482   3.200   6.862   3.002
10195SOL     OW31483   5.773   0.177   2.805
10195SOL    HW131484   5.720   0.141   2.882
10195SOL    HW231485   5.728   0.152   2.719
10196SOL     OW31486   5.109   3.946   4.387
10196SOL    HW131487   5.158   3.861   4.403
10196SOL    HW231488   5.037   3.931   4.320
10197SOL     OW31489   5.605   1.642   3.283
10197SOL    HW131490   5.627   1.737   3.261
10197SOL    HW231491   5.603   1.631   3.382
10198SOL     OW31492   3.246   1.092   1.457
10198SOL    HW131493   3.204   1.015   1.505
10198SOL    HW231494   3.201   1.177   1.485
10199SOL     OW31495   1.409   2.196   7.002
10199SOL    HW131496   1.404   2.097   7.009
10199SOL    HW231497   1.361   2.226   6.919
10200SOL     OW31498   5.766   6.045   5.009
10200SOL    HW131499   5.676   6.008   4.984
10200SOL    HW231500   5.789   6.120   4.946
10201SOL     OW31501   1.929   4.667   2.909
10201SOL    HW131502   1.991   4.621   2.973
10201SOL    HW231503   1.847   4.612   2.898
10202SOL     OW31504   0.248   2.408   3.282
10202SOL    HW131505   0.226   2.368   3.193
10202SOL    HW231506   0.223   2.343   3.355
10203SOL     OW31507   0.661   2.753   1.468
10203SOL    HW131508   0.686   2.849   1.468
10203SOL    HW231509   0.733   2.699   1.513
10204SOL     OW31510   2.702   4.715   4.467
10204SOL    HW131511   2.715   4.715   4.368
10204SOL    HW231512   2.683   4.622   4.498
10205SOL     OW31513   4.371   0.728   1.116
10205SOL    HW131514   4.424   0.744   1.033
10205SOL    HW231515   4.430   0.684   1.185
10206SOL     OW31516   4.742   0.123   6.412
10206SOL    HW131517   4.811   0.109   6.341
10206SOL    HW231518   4.759   0.059   6.487
10207SOL     OW31519   4.057   1.364   3.015
10207SOL    HW131520   4.094   1.432   2.951
10207SOL    HW231521   4.127   1.296   3.036
10208SOL     OW31522   6.726   3.829   5.683
10208SOL    HW131523   6.721   3.836   5.584
10208SOL    HW231524   6.782   3.905   5.718
10209SOL     OW31525   4.580   6.307   6.937
10209SOL    HW131526   4.612   6.271   6.849
10209SOL    HW231527   4.573   6.232   7.003
10210SOL     OW31528   5.428   5.737   0.390
10210SOL    HW131529   5.411   5.644   0.422
10210SOL    HW231530   5.376   5.801   0.447
10211SOL     OW31531   3.643   5.533   5.119
10211SOL    HW131532   3.667   5.476   5.041
10211SOL    HW231533   3.545   5.554   5.116
10212SOL     OW31534   5.939   6.060   5.828
10212SOL    HW131535   6.021   6.092   5.780
10212SOL    HW231536   5.964   5.988   5.892
10213SOL     OW31537   4.436   0.779   4.549
10213SOL    HW131538   4.381   0.860   4.567
10213SOL    HW231539   4.456   0.773   4.451
10214SOL     OW31540   0.644   0.920   0.919
10214SOL    HW131541   0.565   0.895   0.975
10214SOL    HW231542   0.616   0.929   0.824
10215SOL     OW31543   3.714   2.331   0.038
10215SOL    HW131544   3.659   2.407   0.073
10215SOL    HW231545   3.705   2.252   0.099
10216SOL     OW31546   4.550   0.188   2.189
10216SOL    HW131547   4.577   0.180   2.093
10216SOL    HW231548   4.553   0.099   2.232
10217SOL     OW31549   3.294   2.371   5.806
10217SOL    HW131550   3.373   2.410   5.853
10217SOL    HW231551   3.324   2.313   5.731
10218SOL     OW31552   2.976   2.268   6.879
10218SOL    HW131553   3.033   2.327   6.935
10218SOL    HW231554   2.920   2.210   6.937
10219SOL     OW31555   0.554   4.495   6.519
10219SOL    HW131556   0.596   4.519   6.606
10219SOL    HW231557   0.461   4.462   6.535
10220SOL     OW31558   3.782   2.824   0.583
10220SOL    HW131559   3.745   2.889   0.649
10220SOL    HW231560   3.801   2.869   0.497
10221SOL     OW31561   3.027   1.161   4.576
10221SOL    HW131562   3.117   1.196   4.603
10221SOL    HW231563   2.990   1.217   4.503
10222SOL     OW31564   1.783   4.732   5.782
10222SOL    HW131565   1.795   4.709   5.686
10222SOL    HW231566   1.868   4.716   5.832
10223SOL     OW31567   0.064   4.333   0.541
10223SOL    HW131568   6.987   4.361   0.548
10223SOL    HW231569   0.100   4.361   0.452
10224SOL     OW31570   2.579   0.610   4.669
10224SOL    HW131571   2.642   0.546   4.625
10224SOL    HW231572   2.628   0.694   4.692
10225SOL     OW31573   4.881   5.655   4.283
10225SOL    HW131574   4.819   5.671   4.206
10225SOL    HW231575   4.861   5.721   4.355
10226SOL     OW31576   0.511   2.856   6.906
10226SOL    HW131577   0.610   2.842   6.913
10226SOL    HW231578   0.472   2.785   6.848
10227SOL     OW31579   5.680   5.273   5.586
10227SOL    HW131580   5.597   5.217   5.594
10227SOL    HW231581   5.745   5.246   5.657
10228SOL     OW31582   1.218   3.558   2.527
10228SOL    HW131583   1.183   3.539   2.619
10228SOL    HW231584   1.299   3.617   2.535
10229SOL     OW31585   1.873   1.296   1.284
10229SOL    HW131586   1.867   1.242   1.368
10229SOL    HW231587   1.784   1.300   1.240
10230SOL     OW31588   6.253   6.612   3.962
10230SOL    HW131589   6.177   6.660   3.920
10230SOL    HW231590   6.307   6.677   4.016
10231SOL     OW31591   4.868   0.033   4.379
10231SOL    HW131592   4.953   0.016   4.328
10231SOL    HW231593   4.876   7.012   4.470
10232SOL     OW31594   4.188   1.818   3.754
10232SOL    HW131595   4.150   1.878   3.684
10232SOL    HW231596   4.180   1.861   3.843
10233SOL     OW31597   4.760   0.610   5.609
10233SOL    HW131598   4.760   0.653   5.700
10233SOL    HW231599   4.668   0.615   5.570
10234SOL     OW31600   4.620   5.568   1.434
10234SOL    HW131601   4.702   5.513   1.417
10234SOL    HW231602   4.586   5.605   1.348
10235SOL     OW31603   4.518   1.089   6.983
10235SOL    HW131604   4.464   1.153   6.929
10235SOL    HW231605   4.613   1.091   6.953
10236SOL     OW31606   2.166   6.154   1.831
10236SOL    HW131607   2.127   6.238   1.870
10236SOL    HW231608   2.098   6.081   1.832
10237SOL     OW31609   5.630   2.527   3.514
10237SOL    HW131610   5.608   2.617   3.476
10237SOL    HW231611   5.568   2.507   3.590
10238SOL     OW31612   4.479   6.069   4.932
10238SOL    HW131613   4.435   5.993   4.980
10238SOL    HW231614   4.551   6.035   4.873
10239SOL     OW31615   6.472   3.323   4.377
10239SOL    HW131616   6.430   3.331   4.467
10239SOL    HW231617   6.557   3.376   4.375
10240SOL     OW31618   5.633   3.482   3.753
10240SOL    HW131619   5.561   3.550   3.741
10240SOL    HW231620   5.619   3.407   3.688
10241SOL     OW31621   2.042   1.620   3.148
10241SOL    HW131622   1.990   1.595   3.229
10241SOL    HW231623   2.043   1.544   3.083
10242SOL     OW31624   0.708   5.795   6.305
10242SOL    HW131625   0.644   5.790   6.228
10242SOL    HW231626   0.660   5.772   6.390
10243SOL     OW31627   1.115   6.217   2.687
10243SOL    HW131628   1.146   6.129   2.651
10243SOL    HW231629   1.020   6.209   2.718
10244SOL     OW31630   1.339   5.943   0.274
10244SOL    HW131631   1.410   6.014   0.282
10244SOL    HW231632   1.263   5.979   0.220
10245SOL     OW31633   2.192   2.399   6.753
10245SOL    HW131634   2.108   2.452   6.760
10245SOL    HW231635   2.209   2.375   6.657
10246SOL     OW31636   3.479   3.504   4.226
10246SOL    HW131637   3.466   3.408   4.203
10246SOL    HW231638   3.519   3.552   4.148
10247SOL     OW31639   0.885   6.281   5.325
10247SOL    HW131640   0.855   6.372   5.353
10247SOL    HW231641   0.889   6.220   5.404
10248SOL     OW31642   5.218   1.086   2.645
10248SOL    HW131643   5.287   1.152   2.617
10248SOL    HW231644   5.161   1.127   2.717
10249SOL     OW31645   4.673   1.003   6.683
10249SOL    HW131646   4.700   0.912   6.716
10249SOL    HW231647   4.715   1.073   6.740
10250SOL     OW31648   5.526   0.307   0.280
10250SOL    HW131649   5.463   0.270   0.348
10250SOL    HW231650   5.601   0.354   0.327
10251SOL     OW31651   4.232   4.528   0.368
10251SOL    HW131652   4.246   4.556   0.463
10251SOL    HW231653   4.212   4.609   0.313
10252SOL     OW31654   6.891   4.735   1.585
10252SOL    HW131655   6.925   4.642   1.598
10252SOL    HW231656   6.903   4.787   1.670
10253SOL     OW31657   3.930   4.779   0.427
10253SOL    HW131658   3.842   4.812   0.394
10253SOL    HW231659   4.001   4.847   0.408
10254SOL     OW31660   2.507   1.190   4.714
10254SOL    HW131661   2.411   1.161   4.720
10254SOL    HW231662   2.556   1.159   4.795
10255SOL     OW31663   3.184   5.378   2.811
10255SOL    HW131664   3.125   5.352   2.734
10255SOL    HW231665   3.168   5.473   2.835
10256SOL     OW31666   5.589   6.194   6.943
10256SOL    HW131667   5.589   6.291   6.917
10256SOL    HW231668   5.625   6.186   0.017
10257SOL     OW31669   1.726   6.255   5.655
10257SOL    HW131670   1.632   6.255   5.690
10257SOL    HW231671   1.779   6.186   5.704
10258SOL     OW31672   4.563   1.052   3.634
10258SOL    HW131673   4.610   0.966   3.612
10258SOL    HW231674   4.467   1.033   3.653
10259SOL     OW31675   0.927   3.452   3.883
10259SOL    HW131676   0.829   3.445   3.904
10259SOL    HW231677   0.961   3.363   3.853
10260SOL     OW31678   6.685   6.130   1.938
10260SOL    HW131679   6.690   6.119   2.037
10260SOL    HW231680   6.633   6.212   1.916
10261SOL     OW31681   2.133   0.076   1.860
10261SOL    HW131682   2.223   0.119   1.857
10261SOL    HW231683   2.132   7.015   1.799
10262SOL     OW31684   1.133   5.372   4.892
10262SOL    HW131685   1.218   5.320   4.896
10262SOL    HW231686   1.084   5.352   4.808
10263SOL     OW31687   6.463   2.769   5.713
10263SOL    HW131688   6.434   2.804   5.802
10263SOL    HW231689   6.563   2.761   5.711
10264SOL     OW31690   0.326   0.066   0.094
10264SOL    HW131691   0.370   0.151   0.066
10264SOL    HW231692   0.385   0.017   0.159
10265SOL     OW31693   4.411   2.125   2.350
10265SOL    HW131694   4.390   2.160   2.442
10265SOL    HW231695   4.357   2.174   2.282
10266SOL     OW31696   4.174   3.615   6.476
10266SOL    HW131697   4.148   3.588   6.569
10266SOL    HW231698   4.272   3.637   6.474
10267SOL     OW31699   0.047   1.413   5.993
10267SOL    HW131700   0.007   1.455   6.075
10267SOL    HW231701   0.135   1.458   5.972
10268SOL     OW31702   6.126   4.472   1.484
10268SOL    HW131703   6.058   4.490   1.412
10268SOL    HW231704   6.204   4.533   1.472
10269SOL     OW31705   2.867   1.874   6.071
10269SOL    HW131706   2.830   1.824   6.149
10269SOL    HW231707   2.955   1.835   6.045
10270SOL     OW31708   2.782   6.783   1.278
10270SOL    HW131709   2.770   6.780   1.179
10270SOL    HW231710   2.740   6.866   1.315
10271SOL     OW31711   3.014   5.406   1.321
10271SOL    HW131712   3.060   5.326   1.359
10271SOL    HW231713   3.050   5.425   1.230
10272SOL     OW31714   1.520   1.897   4.564
10272SOL    HW131715   1.545   1.989   4.595
10272SOL    HW231716   1.438   1.866   4.612
10273SOL     OW31717   4.050   7.017   4.258
10273SOL    HW131718   4.119   0.045   4.203
10273SOL    HW231719   4.092   6.942   4.308
10274SOL     OW31720   2.669   5.098   6.680
10274SOL    HW131721   2.579   5.139   6.691
10274SOL    HW231722   2.669   5.006   6.719
10275SOL     OW31723   1.104   6.495   2.144
10275SOL    HW131724   1.103   6.583   2.192
10275SOL    HW231725   1.098   6.511   2.045
10276SOL     OW31726   0.138   6.079   6.805
10276SOL    HW131727   0.193   5.996   6.806
10276SOL    HW231728   0.051   6.062   6.757
10277SOL     OW31729   1.326   6.006   2.294
10277SOL    HW131730   1.274   5.983   2.212
10277SOL    HW231731   1.263   6.023   2.370
10278SOL     OW31732   6.786   0.227   5.948
10278SOL    HW131733   6.706   0.227   5.889
10278SOL    HW231734   6.832   0.138   5.942
10279SOL     OW31735   3.803   6.145   4.633
10279SOL    HW131736   3.809   6.242   4.611
10279SOL    HW231737   3.737   6.131   4.706
10280SOL     OW31738   3.197   2.700   6.677
10280SOL    HW131739   3.222   2.717   6.772
10280SOL    HW231740   3.181   2.603   6.663
10281SOL     OW31741   4.403   0.656   4.098
10281SOL    HW131742   4.303   0.655   4.092
10281SOL    HW231743   4.436   0.567   4.131
10282SOL     OW31744   1.179   3.076   4.519
10282SOL    HW131745   1.241   3.153   4.501
10282SOL    HW231746   1.231   2.995   4.544
10283SOL     OW31747   1.752   3.671   5.982
10283SOL    HW131748   1.818   3.741   5.957
10283SOL    HW231749   1.702   3.700   6.064
10284SOL     OW31750   5.011   2.857   6.963
10284SOL    HW131751   5.013   2.911   0.027
10284SOL    HW231752   5.060   2.771   6.978
10285SOL     OW31753   5.760   0.735   0.564
10285SOL    HW131754   5.685   0.784   0.611
10285SOL    HW231755   5.727   0.703   0.475
10286SOL     OW31756   4.436   1.023   4.062
10286SOL    HW131757   4.468   0.946   4.006
10286SOL    HW231758   4.474   1.108   4.025
10287SOL     OW31759   1.274   4.809   1.733
10287SOL    HW131760   1.200   4.756   1.693
10287SOL    HW231761   1.285   4.786   1.829
10288SOL     OW31762   4.972   6.431   4.562
10288SOL    HW131763   4.965   6.530   4.548
10288SOL    HW231764   5.027   6.392   4.488
10289SOL     OW31765   2.707   1.522   1.312
10289SOL    HW131766   2.627   1.577   1.288
10289SOL    HW231767   2.707   1.503   1.410
10290SOL     OW31768   3.089   3.314   1.963
10290SOL    HW131769   3.000   3.332   1.920
10290SOL    HW231770   3.162   3.345   1.902
10291SOL     OW31771   4.223   0.254   5.739
10291SOL    HW131772   4.166   0.282   5.817
10291SOL    HW231773   4.166   0.206   5.673
10292SOL     OW31774   0.553   0.884   5.154
10292SOL    HW131775   0.601   0.823   5.091
10292SOL    HW231776   0.566   0.979   5.125
10293SOL     OW31777   3.107   5.501   3.328
10293SOL    HW131778   3.020   5.549   3.320
10293SOL    HW231779   3.135   5.501   3.424
10294SOL     OW31780   6.638   1.198   3.061
10294SOL    HW131781   6.637   1.173   2.964
10294SOL    HW231782   6.570   1.142   3.110
10295SOL     OW31783   2.021   4.313   4.176
10295SOL    HW131784   2.100   4.355   4.222
10295SOL    HW231785   1.951   4.293   4.244
10296SOL     OW31786   6.543   2.756   1.498
10296SOL    HW131787   6.578   2.663   1.510
10296SOL    HW231788   6.605   2.808   1.439
10297SOL     OW31789   2.915   5.194   4.592
10297SOL    HW131790   2.958   5.108   4.620
10297SOL    HW231791   2.982   5.268   4.598
10298SOL     OW31792   5.927   3.632   2.814
10298SOL    HW131793   5.901   3.575   2.892
10298SOL    HW231794   6.025   3.654   2.820
10299SOL     OW31795   4.905   3.891   2.190
10299SOL    HW131796   4.877   3.864   2.282
10299SOL    HW231797   5.003   3.879   2.180
10300SOL     OW31798   1.764   5.977   1.644
10300SOL    HW131799   1.810   6.011   1.562
10300SOL    HW231800   1.778   5.878   1.651
10301SOL     OW31801   4.957   1.213   1.784
10301SOL    HW131802   5.010   1.128   1.795
10301SOL    HW231803   4.864   1.198   1.818
10302SOL     OW31804   0.871   4.754   3.682
10302SOL    HW131805   0.850   4.838   3.634
10302SOL    HW231806   0.968   4.733   3.673
10303SOL     OW31807   3.724   3.028   1.391
10303SOL    HW131808   3.729   2.947   1.332
10303SOL    HW231809   3.747   3.110   1.339
10304SOL     OW31810   5.952   6.433   3.924
10304SOL    HW131811   5.858   6.421   3.956
10304SOL    HW231812   6.014   6.379   3.982
10305SOL     OW31813   1.989   5.398   0.895
10305SOL    HW131814   1.955   5.457   0.823
10305SOL    HW231815   1.916   5.377   0.960
10306SOL     OW31816   4.003   4.584   0.598
10306SOL    HW131817   3.974   4.654   0.532
10306SOL    HW231818   4.091   4.610   0.637
10307SOL     OW31819   2.404   1.193   5.401
10307SOL    HW131820   2.453   1.273   5.435
10307SOL    HW231821   2.310   1.195   5.432
10308SOL     OW31822   3.006   5.269   3.701
10308SOL    HW131823   3.019   5.262   3.800
10308SOL    HW231824   2.968   5.184   3.667
10309SOL     OW31825   0.241   6.489   3.499
10309SOL    HW131826   0.216   6.529   3.587
10309SOL    HW231827   0.319   6.540   3.461
10310SOL     OW31828   3.400   3.180   4.187
10310SOL    HW131829   3.465   3.182   4.110
10310SOL    HW231830   3.448   3.201   4.272
10311SOL     OW31831   0.607   6.747   0.791
10311SOL    HW131832   0.541   6.809   0.834
10311SOL    HW231833   0.606   6.761   0.692
10312SOL     OW31834   2.032   4.643   0.939
10312SOL    HW131835   1.967   4.667   0.867
10312SOL    HW231836   1.991   4.575   1.000
10313SOL     OW31837   6.542   5.897   4.147
10313SOL    HW131838   6.542   5.853   4.237
10313SOL    HW231839   6.623   5.956   4.140
10314SOL     OW31840   6.032   4.943   5.094
10314SOL    HW131841   6.013   5.021   5.034
10314SOL    HW231842   6.080   4.872   5.043
10315SOL     OW31843   4.782   6.412   5.880
10315SOL    HW131844   4.767   6.314   5.894
10315SOL    HW231845   4.782   6.432   5.782
10316SOL     OW31846   0.143   3.271   2.542
10316SOL    HW131847   0.183   3.362   2.527
10316SOL    HW231848   0.054   3.281   2.588
10317SOL     OW31849   4.656   5.073   0.817
10317SOL    HW131850   4.561   5.048   0.800
10317SOL    HW231851   4.688   5.030   0.901
10318SOL     OW31852   6.324   5.763   2.850
10318SOL    HW131853   6.386   5.685   2.842
10318SOL    HW231854   6.328   5.817   2.766
10319SOL     OW31855   5.326   6.518   4.819
10319SOL    HW131856   5.389   6.503   4.896
10319SOL    HW231857   5.235   6.540   4.854
10320SOL     OW31858   4.221   5.876   1.705
10320SOL    HW131859   4.288   5.821   1.654
10320SOL    HW231860   4.208   5.838   1.796
10321SOL     OW31861   3.692   0.581   4.108
10321SOL    HW131862   3.783   0.562   4.073
10321SOL    HW231863   3.697   0.653   4.178
10322SOL     OW31864   0.507   2.464   6.875
10322SOL    HW131865   0.412   2.438   6.857
10322SOL    HW231866   0.513   2.509   6.964
10323SOL     OW31867   0.381   2.209   5.566
10323SOL    HW131868   0.460   2.267   5.547
10323SOL    HW231869   0.297   2.260   5.547
10324SOL     OW31870   3.971   3.058   4.188
10324SOL    HW131871   4.000   3.152   4.173
10324SOL    HW231872   4.045   3.007   4.231
10325SOL     OW31873   0.148   4.091   2.908
10325SOL    HW131874   0.069   4.153   2.905
10325SOL    HW231875   0.116   3.998   2.925
10326SOL     OW31876   5.209   1.761   1.262
10326SOL    HW131877   5.145   1.796   1.331
10326SOL    HW231878   5.160   1.706   1.195
10327SOL     OW31879   6.768   0.520   3.138
10327SOL    HW131880   6.832   0.577   3.189
10327SOL    HW231881   6.799   0.511   3.043
10328SOL     OW31882   6.576   3.489   2.899
10328SOL    HW131883   6.605   3.456   2.988
10328SOL    HW231884   6.537   3.414   2.846
10329SOL     OW31885   3.564   6.392   3.032
10329SOL    HW131886   3.563   6.307   2.978
10329SOL    HW231887   3.474   6.436   3.026
10330SOL     OW31888   3.431   4.149   1.082
10330SOL    HW131889   3.401   4.131   1.176
10330SOL    HW231890   3.354   4.140   1.020
10331SOL     OW31891   4.823   0.524   4.608
10331SOL    HW131892   4.762   0.582   4.552
10331SOL    HW231893   4.818   0.553   4.703
10332SOL     OW31894   0.144   1.507   6.578
10332SOL    HW131895   0.208   1.446   6.624
10332SOL    HW231896   0.052   1.495   6.617
10333SOL     OW31897   5.794   4.447   5.213
10333SOL    HW131898   5.834   4.527   5.258
10333SOL    HW231899   5.833   4.438   5.122
10334SOL     OW31900   1.021   4.964   5.042
10334SOL    HW131901   1.058   4.930   4.956
10334SOL    HW231902   0.951   5.033   5.024
10335SOL     OW31903   3.179   5.063   2.108
10335SOL    HW131904   3.137   4.973   2.098
10335SOL    HW231905   3.109   5.130   2.133
10336SOL     OW31906   4.908   6.426   2.838
10336SOL    HW131907   4.969   6.503   2.853
10336SOL    HW231908   4.867   6.398   2.925
10337SOL     OW31909   0.359   5.005   5.512
10337SOL    HW131910   0.357   5.067   5.434
10337SOL    HW231911   0.451   4.969   5.523
10338SOL     OW31912   3.174   5.191   3.038
10338SOL    HW131913   3.085   5.156   3.010
10338SOL    HW231914   3.200   5.268   2.980
10339SOL     OW31915   3.044   5.977   1.001
10339SOL    HW131916   2.966   6.040   0.992
10339SOL    HW231917   3.109   5.994   0.927
10340SOL     OW31918   1.514   6.499   0.194
10340SOL    HW131919   1.414   6.502   0.188
10340SOL    HW231920   1.548   6.590   0.217
10341SOL     OW31921   0.951   2.388   2.101
10341SOL    HW131922   0.957   2.455   2.175
10341SOL    HW231923   0.858   2.386   2.065
10342SOL     OW31924   3.267   6.408   3.992
10342SOL    HW131925   3.267   6.426   3.894
10342SOL    HW231926   3.195   6.342   4.014
10343SOL     OW31927   2.415   2.666   3.917
10343SOL    HW131928   2.493   2.606   3.935
10343SOL    HW231929   2.427   2.711   3.828
10344SOL     OW31930   4.534   4.013   1.257
10344SOL    HW131931   4.554   4.038   1.352
10344SOL    HW231932   4.445   4.050   1.230
10345SOL     OW31933   2.382   2.234   5.542
10345SOL    HW131934   2.478   2.214   5.559
10345SOL    HW231935   2.359   2.209   5.448
10346SOL     OW31936   5.636   4.796   0.179
10346SOL    HW131937   5.729   4.815   0.212
10346SOL    HW231938   5.571   4.855   0.228
10347SOL     OW31939   4.910   0.521   1.546
10347SOL    HW131940   4.966   0.562   1.617
10347SOL    HW231941   4.968   0.469   1.483
10348SOL     OW31942   6.501   5.118   5.421
10348SOL    HW131943   6.552   5.200   5.449
10348SOL    HW231944   6.405   5.130   5.443
10349SOL     OW31945   6.477   2.241   0.857
10349SOL    HW131946   6.499   2.231   0.760
10349SOL    HW231947   6.555   2.209   0.912
10350SOL     OW31948   2.350   4.922   4.830
10350SOL    HW131949   2.427   4.880   4.878
10350SOL    HW231950   2.353   4.895   4.734
10351SOL     OW31951   4.154   4.936   4.750
10351SOL    HW131952   4.206   4.953   4.667
10351SOL    HW231953   4.213   4.891   4.817
10352SOL     OW31954   6.486   1.086   0.140
10352SOL    HW131955   6.567   1.059   0.192
10352SOL    HW231956   6.404   1.055   0.186
10353SOL     OW31957   6.647   2.046   3.703
10353SOL    HW131958   6.675   2.142   3.714
10353SOL    HW231959   6.611   2.033   3.610
10354SOL     OW31960   6.106   2.651   1.229
10354SOL    HW131961   6.160   2.724   1.190
10354SOL    HW231962   6.166   2.583   1.270
10355SOL     OW31963   0.608   2.140   0.572
10355SOL    HW131964   0.698   2.184   0.564
10355SOL    HW231965   0.621   2.042   0.584
10356SOL     OW31966   5.172   2.111   6.478
10356SOL    HW131967   5.095   2.056   6.512
10356SOL    HW231968   5.137   2.178   6.413
10357SOL     OW31969   1.443   0.183   6.184
10357SOL    HW131970   1.393   0.268   6.168
10357SOL    HW231971   1.524   0.201   6.239
10358SOL     OW31972   0.113   2.948   2.991
10358SOL    HW131973   0.073   2.906   3.073
10358SOL    HW231974   0.207   2.976   3.010
10359SOL     OW31975   0.085   1.696   2.165
10359SOL    HW131976   0.129   1.786   2.170
10359SOL    HW231977   0.103   1.655   2.075
10360SOL     OW31978   6.086   4.057   1.352
10360SOL    HW131979   6.058   4.071   1.258
10360SOL    HW231980   6.026   4.108   1.413
10361SOL     OW31981   6.112   1.989   2.261
10361SOL    HW131982   6.045   2.055   2.229
10361SOL    HW231983   6.071   1.930   2.331
10362SOL     OW31984   1.388   5.250   1.602
10362SOL    HW131985   1.333   5.168   1.621
10362SOL    HW231986   1.328   5.329   1.596
10363SOL     OW31987   5.462   4.806   6.426
10363SOL    HW131988   5.381   4.762   6.465
10363SOL    HW231989   5.490   4.882   6.484
10364SOL     OW31990   5.485   5.561   2.686
10364SOL    HW131991   5.398   5.515   2.703
10364SOL    HW231992   5.469   5.659   2.673
10365SOL     OW31993   6.002   5.191   0.761
10365SOL    HW131994   6.059   5.239   0.828
10365SOL    HW231995   6.037   5.209   0.669
10366SOL     OW31996   2.953   6.241   3.849
10366SOL    HW131997   3.023   6.241   3.778
10366SOL    HW231998   2.995   6.222   3.938
10367SOL     OW31999   5.495   6.519   1.338
10367SOL    HW132000   5.577   6.475   1.374
10367SOL    HW232001   5.448   6.456   1.275
10368SOL     OW32002   1.601   5.662   1.468
10368SOL    HW132003   1.604   5.762   1.469
10368SOL    HW232004   1.538   5.630   1.539
10369SOL     OW32005   2.463   0.414   6.298
10369SOL    HW132006   2.486   0.502   6.257
10369SOL    HW232007   2.384   0.374   6.252
10370SOL     OW32008   2.034   1.443   5.363
10370SOL    HW132009   2.125   1.479   5.342
10370SOL    HW232010   1.996   1.491   5.442
10371SOL     OW32011   4.320   5.770   3.253
10371SOL    HW132012   4.220   5.778   3.254
10371SOL    HW232013   4.358   5.821   3.330
10372SOL     OW32014   2.127   6.714   1.214
10372SOL    HW132015   2.103   6.767   1.133
10372SOL    HW232016   2.216   6.670   1.201
10373SOL     OW32017   5.725   1.007   6.422
10373SOL    HW132018   5.719   0.954   6.338
10373SOL    HW232019   5.773   1.092   6.404
10374SOL     OW32020   3.555   4.976   3.299
10374SOL    HW132021   3.615   5.021   3.366
10374SOL    HW232022   3.611   4.941   3.224
10375SOL     OW32023   2.494   5.348   0.981
10375SOL    HW132024   2.465   5.259   0.946
10375SOL    HW232025   2.476   5.418   0.912
10376SOL     OW32026   2.437   4.986   4.320
10376SOL    HW132027   2.514   5.018   4.375
10376SOL    HW232028   2.466   4.907   4.266
10377SOL     OW32029   2.009   0.556   1.933
10377SOL    HW132030   2.032   0.621   2.006
10377SOL    HW232031   1.965   0.475   1.973
10378SOL     OW32032   0.445   5.875   4.376
10378SOL    HW132033   0.386   5.907   4.302
10378SOL    HW232034   0.534   5.919   4.369
10379SOL     OW32035   2.138   0.180   3.828
10379SOL    HW132036   2.181   0.092   3.851
10379SOL    HW232037   2.076   0.167   3.750
10380SOL     OW32038   3.083   2.139   4.415
10380SOL    HW132039   3.156   2.119   4.481
10380SOL    HW232040   3.028   2.216   4.449
10381SOL     OW32041   4.156   6.371   2.781
10381SOL    HW132042   4.162   6.273   2.763
10381SOL    HW232043   4.060   6.400   2.779
10382SOL     OW32044   4.293   5.388   1.346
10382SOL    HW132045   4.246   5.470   1.379
10382SOL    HW232046   4.360   5.359   1.414
10383SOL     OW32047   0.825   4.741   6.797
10383SOL    HW132048   0.884   4.707   6.870
10383SOL    HW232049   0.734   4.702   6.806
10384SOL     OW32050   5.680   5.246   1.267
10384SOL    HW132051   5.664   5.331   1.318
10384SOL    HW232052   5.622   5.244   1.186
10385SOL     OW32053   4.439   4.449   0.200
10385SOL    HW132054   4.511   4.519   0.203
10385SOL    HW232055   4.369   4.470   0.268
10386SOL     OW32056   0.334   0.760   0.821
10386SOL    HW132057   0.254   0.776   0.762
10386SOL    HW232058   0.407   0.719   0.767
10387SOL     OW32059   4.919   3.329   2.054
10387SOL    HW132060   4.848   3.259   2.060
10387SOL    HW232061   5.007   3.286   2.034
10388SOL     OW32062   1.693   6.886   5.232
10388SOL    HW132063   1.603   6.849   5.259
10388SOL    HW232064   1.760   6.812   5.232
10389SOL     OW32065   0.534   4.103   6.874
10389SOL    HW132066   0.507   4.076   6.781
10389SOL    HW232067   0.467   4.070   6.940
10390SOL     OW32068   2.276   2.281   2.086
10390SOL    HW132069   2.370   2.313   2.101
10390SOL    HW232070   2.212   2.349   2.120
10391SOL     OW32071   5.741   6.527   4.142
10391SOL    HW132072   5.796   6.577   4.209
10391SOL    HW232073   5.751   6.429   4.157
10392SOL     OW32074   6.331   3.746   4.556
10392SOL    HW132075   6.332   3.681   4.632
10392SOL    HW232076   6.299   3.835   4.589
10393SOL     OW32077   1.593   3.314   3.143
10393SOL    HW132078   1.646   3.229   3.134
10393SOL    HW232079   1.510   3.297   3.195
10394SOL     OW32080   3.217   0.438   4.555
10394SOL    HW132081   3.226   0.348   4.598
10394SOL    HW232082   3.305   0.484   4.558
10395SOL     OW32083   0.686   6.907   1.230
10395SOL    HW132084   0.754   6.900   1.304
10395SOL    HW232085   0.715   6.978   1.165
10396SOL     OW32086   3.273   2.162   4.606
10396SOL    HW132087   3.360   2.187   4.565
10396SOL    HW232088   3.288   2.092   4.675
10397SOL     OW32089   4.522   1.948   3.661
10397SOL    HW132090   4.488   2.041   3.676
10397SOL    HW232091   4.446   1.887   3.639
10398SOL     OW32092   5.659   3.133   1.789
10398SOL    HW132093   5.622   3.178   1.707
10398SOL    HW232094   5.636   3.036   1.787
10399SOL     OW32095   0.908   3.773   1.491
10399SOL    HW132096   0.837   3.792   1.559
10399SOL    HW232097   0.978   3.844   1.494
10400SOL     OW32098   2.423   6.311   0.822
10400SOL    HW132099   2.405   6.216   0.848
10400SOL    HW232100   2.471   6.357   0.896
10401SOL     OW32101   0.612   1.100   5.849
10401SOL    HW132102   0.519   1.133   5.860
10401SOL    HW232103   0.630   1.027   5.916
10402SOL     OW32104   0.372   2.815   5.166
10402SOL    HW132105   0.293   2.814   5.227
10402SOL    HW232106   0.402   2.909   5.152
10403SOL     OW32107   3.049   0.816   0.631
10403SOL    HW132108   3.110   0.780   0.701
10403SOL    HW232109   2.955   0.785   0.649
10404SOL     OW32110   6.897   6.532   6.416
10404SOL    HW132111   6.831   6.577   6.476
10404SOL    HW232112   6.852   6.456   6.368
10405SOL     OW32113   0.372   2.601   6.380
10405SOL    HW132114   0.407   2.667   6.314
10405SOL    HW232115   0.293   2.640   6.428
10406SOL     OW32116   2.608   4.987   1.718
10406SOL    HW132117   2.657   4.937   1.790
10406SOL    HW232118   2.631   5.084   1.724
10407SOL     OW32119   2.436   6.290   6.633
10407SOL    HW132120   2.354   6.236   6.654
10407SOL    HW232121   2.509   6.268   6.698
10408SOL     OW32122   4.099   1.918   6.977
10408SOL    HW132123   4.049   1.972   6.909
10408SOL    HW232124   4.171   1.974   7.017
10409SOL     OW32125   5.859   4.778   1.215
10409SOL    HW132126   5.848   4.719   1.295
10409SOL    HW232127   5.913   4.730   1.146
10410SOL     OW32128   5.618   0.896   0.760
10410SOL    HW132129   5.612   0.995   0.752
10410SOL    HW232130   5.531   0.859   0.791
10411SOL     OW32131   2.791   5.085   3.690
10411SOL    HW132132   2.723   5.125   3.629
10411SOL    HW232133   2.745   5.043   3.768
10412SOL     OW32134   6.445   0.426   0.435
10412SOL    HW132135   6.376   0.375   0.487
10412SOL    HW232136   6.402   0.473   0.358
10413SOL     OW32137   6.990   2.904   1.855
10413SOL    HW132138   6.967   2.917   1.759
10413SOL    HW232139   6.926   2.838   1.896
10414SOL     OW32140   5.228   2.539   3.689
10414SOL    HW132141   5.133   2.568   3.700
10414SOL    HW232142   5.235   2.440   3.700
10415SOL     OW32143   0.260   6.938   6.368
10415SOL    HW132144   0.357   6.923   6.388
10415SOL    HW232145   0.217   6.852   6.343
10416SOL     OW32146   5.596   2.888   4.648
10416SOL    HW132147   5.629   2.938   4.728
10416SOL    HW232148   5.643   2.921   4.566
10417SOL     OW32149   2.405   4.496   3.702
10417SOL    HW132150   2.372   4.407   3.732
10417SOL    HW232151   2.337   4.566   3.725
10418SOL     OW32152   1.130   5.065   6.123
10418SOL    HW132153   1.122   4.965   6.130
10418SOL    HW232154   1.045   5.102   6.085
10419SOL     OW32155   0.842   1.537   0.543
10419SOL    HW132156   0.925   1.487   0.520
10419SOL    HW232157   0.766   1.472   0.554
10420SOL     OW32158   0.121   3.458   3.587
10420SOL    HW132159   0.082   3.540   3.629
10420SOL    HW232160   0.202   3.429   3.638
10421SOL     OW32161   0.365   1.223   3.490
10421SOL    HW132162   0.375   1.281   3.409
10421SOL    HW232163   0.454   1.187   3.517
10422SOL     OW32164   5.771   2.781   5.924
10422SOL    HW132165   5.678   2.780   5.889
10422SOL    HW232166   5.774   2.833   6.010
10423SOL     OW32167   5.410   4.343   3.148
10423SOL    HW132168   5.397   4.290   3.232
10423SOL    HW232169   5.322   4.374   3.115
10424SOL     OW32170   4.578   2.009   6.366
10424SOL    HW132171   4.617   2.098   6.341
10424SOL    HW232172   4.479   2.012   6.358
10425SOL     OW32173   2.192   6.202   2.135
10425SOL    HW132174   2.290   6.212   2.149
10425SOL    HW232175   2.158   6.278   2.080
10426SOL     OW32176   6.457   3.648   6.742
10426SOL    HW132177   6.519   3.608   6.675
10426SOL    HW232178   6.477   3.745   6.752
10427SOL     OW32179   4.953   1.595   0.631
10427SOL    HW132180   4.999   1.529   0.571
10427SOL    HW232181   4.870   1.554   0.668
10428SOL     OW32182   4.759   1.016   4.458
10428SOL    HW132183   4.786   1.003   4.363
10428SOL    HW232184   4.771   0.930   4.508
10429SOL     OW32185   6.354   6.184   2.206
10429SOL    HW132186   6.303   6.241   2.142
10429SOL    HW232187   6.307   6.181   2.294
10430SOL     OW32188   4.151   6.389   3.051
10430SOL    HW132189   4.134   6.384   2.953
10430SOL    HW232190   4.249   6.379   3.069
10431SOL     OW32191   2.804   1.238   5.200
10431SOL    HW132192   2.756   1.158   5.237
10431SOL    HW232193   2.830   1.219   5.105
10432SOL     OW32194   5.885   1.059   5.255
10432SOL    HW132195   5.847   0.988   5.315
10432SOL    HW232196   5.960   1.022   5.202
10433SOL     OW32197   2.354   6.587   0.717
10433SOL    HW132198   2.260   6.584   0.748
10433SOL    HW232199   2.401   6.502   0.745
10434SOL     OW32200   2.414   1.467   3.692
10434SOL    HW132201   2.385   1.480   3.786
10434SOL    HW232202   2.412   1.370   3.669
10435SOL     OW32203   5.311   6.192   0.476
10435SOL    HW132204   5.326   6.264   0.408
10435SOL    HW232205   5.273   6.232   0.560
10436SOL     OW32206   1.512   6.867   2.812
10436SOL    HW132207   1.441   6.864   2.882
10436SOL    HW232208   1.531   6.775   2.779
10437SOL     OW32209   6.378   5.124   5.913
10437SOL    HW132210   6.394   5.186   5.989
10437SOL    HW232211   6.288   5.143   5.873
10438SOL     OW32212   3.498   5.945   6.589
10438SOL    HW132213   3.557   5.906   6.661
10438SOL    HW232214   3.528   5.911   6.500
10439SOL     OW32215   4.105   6.972   5.842
10439SOL    HW132216   4.127   0.019   5.770
10439SOL    HW232217   4.046   7.016   5.910
10440SOL     OW32218   2.090   5.306   0.375
10440SOL    HW132219   2.020   5.345   0.316
10440SOL    HW232220   2.179   5.308   0.329
10441SOL     OW32221   3.935   1.002   6.855
10441SOL    HW132222   4.029   0.971   6.842
10441SOL    HW232223   3.879   0.924   6.884
10442SOL     OW32224   4.440   5.552   5.788
10442SOL    HW132225   4.377   5.618   5.747
10442SOL    HW232226   4.408   5.528   5.880
10443SOL     OW32227   6.288   2.844   5.030
10443SOL    HW132228   6.219   2.915   5.048
10443SOL    HW232229   6.280   2.772   5.099
10444SOL     OW32230   4.075   4.808   4.007
10444SOL    HW132231   4.007   4.849   3.946
10444SOL    HW232232   4.160   4.791   3.956
10445SOL     OW32233   5.980   6.141   4.504
10445SOL    HW132234   5.978   6.193   4.590
10445SOL    HW232235   5.896   6.089   4.494
10446SOL     OW32236   0.994   5.660   6.286
10446SOL    HW132237   1.002   5.572   6.333
10446SOL    HW232238   0.898   5.685   6.280
10447SOL     OW32239   6.102   2.322   1.516
10447SOL    HW132240   6.163   2.269   1.457
10447SOL    HW232241   6.071   2.266   1.592
10448SOL     OW32242   3.267   4.041   2.402
10448SOL    HW132243   3.171   4.033   2.373
10448SOL    HW232244   3.326   4.032   2.322
10449SOL     OW32245   1.742   4.898   4.220
10449SOL    HW132246   1.814   4.874   4.155
10449SOL    HW232247   1.678   4.961   4.177
10450SOL     OW32248   0.100   3.100   0.938
10450SOL    HW132249   0.187   3.111   0.986
10450SOL    HW232250   0.077   3.003   0.931
10451SOL     OW32251   2.056   4.006   2.595
10451SOL    HW132252   2.066   3.928   2.533
10451SOL    HW232253   2.107   4.084   2.559
10452SOL     OW32254   1.167   3.688   4.862
10452SOL    HW132255   1.133   3.602   4.823
10452SOL    HW232256   1.117   3.709   4.946
10453SOL     OW32257   5.608   0.172   1.711
10453SOL    HW132258   5.665   0.100   1.671
10453SOL    HW232259   5.542   0.204   1.643
10454SOL     OW32260   5.159   3.212   2.000
10454SOL    HW132261   5.228   3.283   2.013
10454SOL    HW232262   5.190   3.128   2.045
10455SOL     OW32263   6.820   4.183   3.116
10455SOL    HW132264   6.789   4.088   3.109
10455SOL    HW232265   6.820   4.212   3.212
10456SOL     OW32266   3.898   5.635   0.884
10456SOL    HW132267   3.892   5.690   0.967
10456SOL    HW232268   3.973   5.667   0.827
10457SOL     OW32269   3.868   3.709   4.062
10457SOL    HW132270   3.768   3.710   4.063
10457SOL    HW232271   3.903   3.800   4.086
10458SOL     OW32272   6.917   0.295   2.122
10458SOL    HW132273   6.888   0.239   2.044
10458SOL    HW232274   6.847   0.365   2.141
10459SOL     OW32275   6.877   5.308   2.490
10459SOL    HW132276   6.953   5.314   2.426
10459SOL    HW232277   6.791   5.319   2.440
10460SOL     OW32278   2.188   5.625   2.134
10460SOL    HW132279   2.250   5.615   2.056
10460SOL    HW232280   2.116   5.690   2.112
10461SOL     OW32281   2.215   1.610   5.984
10461SOL    HW132282   2.305   1.645   6.008
10461SOL    HW232283   2.144   1.669   6.024
10462SOL     OW32284   6.311   6.764   1.118
10462SOL    HW132285   6.325   6.725   1.209
10462SOL    HW232286   6.254   6.846   1.126
10463SOL     OW32287   2.865   4.075   1.382
10463SOL    HW132288   2.938   4.144   1.375
10463SOL    HW232289   2.869   4.032   1.473
10464SOL     OW32290   5.442   0.271   1.482
10464SOL    HW132291   5.470   0.330   1.406
10464SOL    HW232292   5.381   0.322   1.543
10465SOL     OW32293   6.303   5.319   5.223
10465SOL    HW132294   6.379   5.360   5.271
10465SOL    HW232295   6.322   5.222   5.207
10466SOL     OW32296   5.309   5.838   6.150
10466SOL    HW132297   5.281   5.931   6.129
10466SOL    HW232298   5.310   5.784   6.066
10467SOL     OW32299   4.168   0.995   4.176
10467SOL    HW132300   4.262   1.014   4.146
10467SOL    HW232301   4.146   1.052   4.255
10468SOL     OW32302   3.546   5.811   2.877
10468SOL    HW132303   3.461   5.759   2.882
10468SOL    HW232304   3.574   5.839   2.969
10469SOL     OW32305   1.533   4.725   0.496
10469SOL    HW132306   1.594   4.791   0.541
10469SOL    HW232307   1.443   4.766   0.484
10470SOL     OW32308   2.711   1.527   4.112
10470SOL    HW132309   2.751   1.613   4.144
10470SOL    HW232310   2.752   1.501   4.025
10471SOL     OW32311   4.111   3.663   0.804
10471SOL    HW132312   4.140   3.714   0.723
10471SOL    HW232313   4.162   3.695   0.884
10472SOL     OW32314   4.819   1.407   2.791
10472SOL    HW132315   4.810   1.490   2.737
10472SOL    HW232316   4.805   1.428   2.888
10473SOL     OW32317   5.061   5.724   0.979
10473SOL    HW132318   5.160   5.736   0.978
10473SOL    HW232319   5.031   5.707   1.073
10474SOL     OW32320   4.218   0.158   4.076
10474SOL    HW132321   4.215   0.094   4.000
10474SOL    HW232322   4.308   0.201   4.079
10475SOL     OW32323   4.406   5.716   1.568
10475SOL    HW132324   4.495   5.677   1.545
10475SOL    HW232325   4.341   5.698   1.495
10476SOL     OW32326   0.082   4.605   0.372
10476SOL    HW132327   0.122   4.572   0.287
10476SOL    HW232328   0.154   4.617   0.440
10477SOL     OW32329   4.999   4.972   5.224
10477SOL    HW132330   4.937   4.896   5.244
10477SOL    HW232331   5.076   4.970   5.287
10478SOL     OW32332   0.480   6.294   2.144
10478SOL    HW132333   0.383   6.289   2.118
10478SOL    HW232334   0.533   6.333   2.069
10479SOL     OW32335   1.609   4.681   3.036
10479SOL    HW132336   1.573   4.615   2.970
10479SOL    HW232337   1.560   4.672   3.123
10480SOL     OW32338   6.451   0.284   2.935
10480SOL    HW132339   6.461   0.186   2.949
10480SOL    HW232340   6.354   0.305   2.920
10481SOL     OW32341   2.483   0.744   5.030
10481SOL    HW132342   2.453   0.707   4.942
10481SOL    HW232343   2.560   0.806   5.016
10482SOL     OW32344   0.716   5.364   5.831
10482SOL    HW132345   0.731   5.380   5.928
10482SOL    HW232346   0.622   5.337   5.815
10483SOL     OW32347   6.746   5.413   0.773
10483SOL    HW132348   6.717   5.509   0.778
10483SOL    HW232349   6.839   5.405   0.810
10484SOL     OW32350   5.798   2.041   1.502
10484SOL    HW132351   5.815   1.946   1.474
10484SOL    HW232352   5.873   2.073   1.559
10485SOL     OW32353   3.114   3.979   3.568
10485SOL    HW132354   3.115   3.879   3.569
10485SOL    HW232355   3.112   4.013   3.662
10486SOL     OW32356   5.993   5.921   5.180
10486SOL    HW132357   6.013   5.900   5.084
10486SOL    HW232358   5.927   5.997   5.184
10487SOL     OW32359   5.145   2.276   2.426
10487SOL    HW132360   5.075   2.293   2.496
10487SOL    HW232361   5.186   2.363   2.399
10488SOL     OW32362   6.836   2.403   5.186
10488SOL    HW132363   6.928   2.381   5.153
10488SOL    HW232364   6.809   2.493   5.153
10489SOL     OW32365   6.293   4.022   4.668
10489SOL    HW132366   6.293   4.073   4.754
10489SOL    HW232367   6.199   4.005   4.639
10490SOL     OW32368   5.743   6.974   0.229
10490SOL    HW132369   5.675   7.013   0.166
10490SOL    HW232370   5.712   6.885   0.261
10491SOL     OW32371   2.091   2.723   5.501
10491SOL    HW132372   2.106   2.820   5.522
10491SOL    HW232373   2.122   2.704   5.408
10492SOL     OW32374   3.892   6.478   0.018
10492SOL    HW132375   3.864   6.508   0.109
10492SOL    HW232376   3.858   6.544   6.969
10493SOL     OW32377   3.725   5.411   1.853
10493SOL    HW132378   3.824   5.401   1.858
10493SOL    HW232379   3.683   5.369   1.934
10494SOL     OW32380   1.002   4.160   4.368
10494SOL    HW132381   1.024   4.115   4.281
10494SOL    HW232382   0.907   4.193   4.365
10495SOL     OW32383   6.800   6.280   1.014
10495SOL    HW132384   6.877   6.284   0.950
10495SOL    HW232385   6.832   6.242   1.101
10496SOL     OW32386   0.537   3.897   6.272
10496SOL    HW132387   0.530   3.804   6.308
10496SOL    HW232388   0.457   3.950   6.301
10497SOL     OW32389   2.699   0.589   1.719
10497SOL    HW132390   2.742   0.540   1.643
10497SOL    HW232391   2.770   0.636   1.773
10498SOL     OW32392   4.803   4.307   6.827
10498SOL    HW132393   4.902   4.304   6.841
10498SOL    HW232394   4.773   4.403   6.818
10499SOL     OW32395   5.911   3.921   2.984
10499SOL    HW132396   5.815   3.893   2.981
10499SOL    HW232397   5.961   3.863   3.049
10500SOL     OW32398   0.817   3.808   5.100
10500SOL    HW132399   0.841   3.723   5.053
10500SOL    HW232400   0.829   3.797   5.198
10501SOL     OW32401   3.726   4.958   3.083
10501SOL    HW132402   3.773   5.039   3.048
10501SOL    HW232403   3.665   4.922   3.013
10502SOL     OW32404   3.841   3.509   2.598
10502SOL    HW132405   3.813   3.473   2.509
10502SOL    HW232406   3.931   3.551   2.590
10503SOL     OW32407   0.276   1.572   6.019
10503SOL    HW132408   0.249   1.661   6.056
10503SOL    HW232409   0.306   1.582   5.924
10504SOL     OW32410   0.276   3.580   5.590
10504SOL    HW132411   0.340   3.613   5.520
10504SOL    HW232412   0.187   3.623   5.577
10505SOL     OW32413   5.888   0.251   1.013
10505SOL    HW132414   5.886   0.171   0.954
10505SOL    HW232415   5.972   0.302   0.997
10506SOL     OW32416   1.043   3.798   6.387
10506SOL    HW132417   0.998   3.870   6.441
10506SOL    HW232418   1.118   3.759   6.440
10507SOL     OW32419   1.010   5.525   5.994
10507SOL    HW132420   0.962   5.460   6.053
10507SOL    HW232421   1.108   5.507   5.997
10508SOL     OW32422   1.911   5.302   5.885
10508SOL    HW132423   1.948   5.260   5.802
10508SOL    HW232424   1.863   5.233   5.939
10509SOL     OW32425   4.900   2.248   2.601
10509SOL    HW132426   4.890   2.316   2.528
10509SOL    HW232427   4.823   2.185   2.599
10510SOL     OW32428   6.122   5.860   3.482
10510SOL    HW132429   6.072   5.773   3.485
10510SOL    HW232430   6.077   5.926   3.542
10511SOL     OW32431   4.200   1.384   1.028
10511SOL    HW132432   4.239   1.446   1.096
10511SOL    HW232433   4.268   1.367   0.956
10512SOL     OW32434   4.162   1.010   5.379
10512SOL    HW132435   4.170   1.103   5.343
10512SOL    HW232436   4.146   0.946   5.303
10513SOL     OW32437   3.670   2.997   0.753
10513SOL    HW132438   3.710   2.957   0.835
10513SOL    HW232439   3.698   3.093   0.746
10514SOL     OW32440   1.867   4.019   1.803
10514SOL    HW132441   1.848   4.025   1.901
10514SOL    HW232442   1.835   4.102   1.758
10515SOL     OW32443   2.254   2.787   4.984
10515SOL    HW132444   2.338   2.737   4.963
10515SOL    HW232445   2.278   2.874   5.028
10516SOL     OW32446   4.917   2.299   1.735
10516SOL    HW132447   4.830   2.254   1.716
10516SOL    HW232448   4.912   2.395   1.705
10517SOL     OW32449   1.123   2.759   1.891
10517SOL    HW132450   1.130   2.765   1.990
10517SOL    HW232451   1.135   2.664   1.863
10518SOL     OW32452   1.081   5.242   2.322
10518SOL    HW132453   1.024   5.309   2.370
10518SOL    HW232454   1.023   5.167   2.288
10519SOL     OW32455   3.866   0.263   0.958
10519SOL    HW132456   3.916   0.329   0.902
10519SOL    HW232457   3.838   0.306   1.044
10520SOL     OW32458   0.999   2.644   6.253
10520SOL    HW132459   0.904   2.653   6.223
10520SOL    HW232460   1.054   2.716   6.210
10521SOL     OW32461   6.442   2.727   3.413
10521SOL    HW132462   6.526   2.689   3.376
10521SOL    HW232463   6.395   2.779   3.342
10522SOL     OW32464   5.477   1.764   3.767
10522SOL    HW132465   5.448   1.859   3.782
10522SOL    HW232466   5.428   1.726   3.690
10523SOL     OW32467   1.289   4.524   2.668
10523SOL    HW132468   1.226   4.484   2.602
10523SOL    HW232469   1.295   4.623   2.652
10524SOL     OW32470   6.841   6.466   4.964
10524SOL    HW132471   6.741   6.461   4.959
10524SOL    HW232472   6.869   6.498   5.054
10525SOL     OW32473   5.063   1.980   3.661
10525SOL    HW132474   5.055   1.977   3.561
10525SOL    HW232475   4.982   1.938   3.702
10526SOL     OW32476   0.661   5.073   6.987
10526SOL    HW132477   0.595   5.139   0.006
10526SOL    HW232478   0.636   5.053   6.892
10527SOL     OW32479   0.628   6.731   5.463
10527SOL    HW132480   0.577   6.707   5.546
10527SOL    HW232481   0.598   6.821   5.431
10528SOL     OW32482   1.190   4.478   5.541
10528SOL    HW132483   1.197   4.565   5.492
10528SOL    HW232484   1.261   4.474   5.611
10529SOL     OW32485   6.897   5.682   0.887
10529SOL    HW132486   6.856   5.609   0.943
10529SOL    HW232487   6.832   5.712   0.818
10530SOL     OW32488   0.124   6.333   1.891
10530SOL    HW132489   0.212   6.380   1.881
10530SOL    HW232490   0.097   6.293   1.804
10531SOL     OW32491   3.041   3.085   5.238
10531SOL    HW132492   2.957   3.051   5.282
10531SOL    HW232493   3.097   3.007   5.211
10532SOL     OW32494   5.006   5.709   6.320
10532SOL    HW132495   4.981   5.779   6.253
10532SOL    HW232496   5.062   5.750   6.392
10533SOL     OW32497   3.969   0.339   3.073
10533SOL    HW132498   3.967   0.369   2.978
10533SOL    HW232499   3.932   0.247   3.080
10534SOL     OW32500   1.515   5.601   3.765
10534SOL    HW132501   1.572   5.634   3.840
10534SOL    HW232502   1.466   5.518   3.794
10535SOL     OW32503   3.247   2.050   2.803
10535SOL    HW132504   3.173   2.089   2.857
10535SOL    HW232505   3.254   2.099   2.716
10536SOL     OW32506   5.158   3.382   4.861
10536SOL    HW132507   5.148   3.284   4.846
10536SOL    HW232508   5.248   3.411   4.828
10537SOL     OW32509   3.915   0.691   4.284
10537SOL    HW132510   3.936   0.623   4.213
10537SOL    HW232511   3.817   0.711   4.283
10538SOL     OW32512   6.858   3.221   3.294
10538SOL    HW132513   6.910   3.214   3.379
10538SOL    HW232514   6.808   3.136   3.278
10539SOL     OW32515   7.014   0.008   3.257
10539SOL    HW132516   0.072   0.063   3.226
10539SOL    HW232517   6.936   0.024   3.196
10540SOL     OW32518   1.344   4.461   6.805
10540SOL    HW132519   1.262   4.477   6.749
10540SOL    HW232520   1.320   4.408   6.886
10541SOL     OW32521   2.913   3.422   5.023
10541SOL    HW132522   2.939   3.416   5.119
10541SOL    HW232523   2.934   3.335   4.978
10542SOL     OW32524   5.032   6.756   3.167
10542SOL    HW132525   5.085   6.806   3.235
10542SOL    HW232526   4.973   6.689   3.212
10543SOL     OW32527   1.559   3.233   3.562
10543SOL    HW132528   1.518   3.231   3.653
10543SOL    HW232529   1.560   3.326   3.527
10544SOL     OW32530   3.313   1.390   3.378
10544SOL    HW132531   3.333   1.396   3.280
10544SOL    HW232532   3.392   1.351   3.425
10545SOL     OW32533   2.265   2.711   2.597
10545SOL    HW132534   2.223   2.737   2.510
10545SOL    HW232535   2.253   2.613   2.613
10546SOL     OW32536   2.325   0.141   6.896
10546SOL    HW132537   2.330   0.233   6.856
10546SOL    HW232538   2.312   0.074   6.823
10547SOL     OW32539   4.181   6.463   5.669
10547SOL    HW132540   4.187   6.560   5.695
10547SOL    HW232541   4.085   6.440   5.649
10548SOL     OW32542   0.440   5.604   3.252
10548SOL    HW132543   0.520   5.634   3.199
10548SOL    HW232544   0.357   5.641   3.211
10549SOL     OW32545   6.339   0.477   1.759
10549SOL    HW132546   6.378   0.487   1.851
10549SOL    HW232547   6.240   0.469   1.765
10550SOL     OW32548   5.207   5.994   2.693
10550SOL    HW132549   5.210   6.094   2.681
10550SOL    HW232550   5.298   5.956   2.677
10551SOL     OW32551   3.417   0.414   5.462
10551SOL    HW132552   3.326   0.399   5.426
10551SOL    HW232553   3.442   0.510   5.451
10552SOL     OW32554   2.983   0.111   3.847
10552SOL    HW132555   2.921   0.116   3.769
10552SOL    HW232556   3.011   0.016   3.862
10553SOL     OW32557   6.354   5.515   1.245
10553SOL    HW132558   6.430   5.571   1.210
10553SOL    HW232559   6.341   5.533   1.342
10554SOL     OW32560   6.238   6.355   2.744
10554SOL    HW132561   6.144   6.322   2.740
10554SOL    HW232562   6.297   6.283   2.781
10555SOL     OW32563   3.483   3.538   0.860
10555SOL    HW132564   3.453   3.474   0.932
10555SOL    HW232565   3.427   3.620   0.863
10556SOL     OW32566   2.475   1.532   2.339
10556SOL    HW132567   2.472   1.598   2.414
10556SOL    HW232568   2.533   1.455   2.365
10557SOL     OW32569   2.146   4.560   3.081
10557SOL    HW132570   2.217   4.620   3.044
10557SOL    HW232571   2.189   4.482   3.126
10558SOL     OW32572   3.393   5.229   5.141
10558SOL    HW132573   3.443   5.144   5.157
10558SOL    HW232574   3.420   5.267   5.052
10559SOL     OW32575   4.305   6.454   1.142
10559SOL    HW132576   4.224   6.441   1.199
10559SOL    HW232577   4.325   6.371   1.091
10560SOL     OW32578   5.490   6.877   3.042
10560SOL    HW132579   5.502   6.835   3.132
10560SOL    HW232580   5.522   6.815   2.971
10561SOL     OW32581   6.922   5.155   6.759
10561SOL    HW132582   6.955   5.193   6.845
10561SOL    HW232583   6.999   5.139   6.698
10562SOL     OW32584   4.544   5.872   2.691
10562SOL    HW132585   4.567   5.935   2.765
10562SOL    HW232586   4.461   5.821   2.714
10563SOL     OW32587   0.225   0.102   2.498
10563SOL    HW132588   0.130   0.113   2.528
10563SOL    HW232589   0.229   0.031   2.428
10564SOL     OW32590   4.867   4.571   3.318
10564SOL    HW132591   4.883   4.537   3.225
10564SOL    HW232592   4.869   4.494   3.382
10565SOL     OW32593   0.667   0.888   6.018
10565SOL    HW132594   0.687   0.790   6.016
10565SOL    HW232595   0.568   0.902   6.020
10566SOL     OW32596   3.706   2.355   0.431
10566SOL    HW132597   3.616   2.312   0.432
10566SOL    HW232598   3.710   2.424   0.359
10567SOL     OW32599   1.617   2.672   6.098
10567SOL    HW132600   1.715   2.685   6.086
10567SOL    HW232601   1.582   2.612   6.026
10568SOL     OW32602   4.807   2.395   6.296
10568SOL    HW132603   4.768   2.359   6.211
10568SOL    HW232604   4.753   2.363   6.374
10569SOL     OW32605   5.710   0.417   0.437
10569SOL    HW132606   5.663   0.387   0.520
10569SOL    HW232607   5.807   0.395   0.444
10570SOL     OW32608   1.140   3.499   2.778
10570SOL    HW132609   1.138   3.400   2.763
10570SOL    HW232610   1.224   3.524   2.827
10571SOL     OW32611   6.315   4.384   5.366
10571SOL    HW132612   6.242   4.407   5.301
10571SOL    HW232613   6.382   4.325   5.321
10572SOL     OW32614   6.040   4.075   1.094
10572SOL    HW132615   6.118   4.093   1.034
10572SOL    HW232616   5.968   4.141   1.077
10573SOL     OW32617   6.788   2.707   2.575
10573SOL    HW132618   6.816   2.625   2.624
10573SOL    HW232619   6.780   2.687   2.477
10574SOL     OW32620   5.228   2.531   2.391
10574SOL    HW132621   5.207   2.544   2.488
10574SOL    HW232622   5.327   2.523   2.380
10575SOL     OW32623   5.895   6.849   2.568
10575SOL    HW132624   5.931   6.764   2.531
10575SOL    HW232625   5.801   6.834   2.600
10576SOL     OW32626   1.033   4.483   3.881
10576SOL    HW132627   1.013   4.580   3.874
10576SOL    HW232628   1.122   4.464   3.838
10577SOL     OW32629   3.989   4.427   0.164
10577SOL    HW132630   3.922   4.444   0.236
10577SOL    HW232631   4.077   4.467   0.191
10578SOL     OW32632   0.709   3.479   3.616
10578SOL    HW132633   0.687   3.463   3.712
10578SOL    HW232634   0.631   3.451   3.559
10579SOL     OW32635   0.530   3.717   7.018
10579SOL    HW132636   0.527   3.743   0.095
10579SOL    HW232637   0.621   3.735   6.981
10580SOL     OW32638   5.505   6.714   0.033
10580SOL    HW132639   5.568   6.740   6.979
10580SOL    HW232640   5.442   6.789   0.052
10581SOL     OW32641   4.410   0.365   3.230
10581SOL    HW132642   4.504   0.339   3.208
10581SOL    HW232643   4.409   0.418   3.315
10582SOL     OW32644   6.509   3.585   6.354
10582SOL    HW132645   6.569   3.596   6.433
10582SOL    HW232646   6.420   3.551   6.383
10583SOL     OW32647   3.539   1.970   5.375
10583SOL    HW132648   3.545   2.017   5.287
10583SOL    HW232649   3.446   1.935   5.388
10584SOL     OW32650   0.946   6.119   3.335
10584SOL    HW132651   0.996   6.033   3.329
10584SOL    HW232652   1.007   6.194   3.308
10585SOL     OW32653   1.698   1.087   5.500
10585SOL    HW132654   1.599   1.080   5.486
10585SOL    HW232655   1.735   1.160   5.442
10586SOL     OW32656   4.462   4.254   5.243
10586SOL    HW132657   4.406   4.173   5.262
10586SOL    HW232658   4.403   4.329   5.213
10587SOL     OW32659   2.322   4.841   5.140
10587SOL    HW132660   2.388   4.911   5.114
10587SOL    HW232661   2.371   4.759   5.169
10588SOL     OW32662   1.560   3.481   3.478
10588SOL    HW132663   1.626   3.550   3.450
10588SOL    HW232664   1.473   3.497   3.431
10589SOL     OW32665   5.994   6.511   3.674
10589SOL    HW132666   5.979   6.479   3.768
10589SOL    HW232667   6.088   6.490   3.647
10590SOL     OW32668   0.504   4.743   2.155
10590SOL    HW132669   0.536   4.748   2.250
10590SOL    HW232670   0.404   4.739   2.153
10591SOL     OW32671   0.005   3.958   2.105
10591SOL    HW132672   6.933   3.972   2.066
10591SOL    HW232673   0.046   3.876   2.064
10592SOL     OW32674   0.329   1.239   4.981
10592SOL    HW132675   0.271   1.161   5.002
10592SOL    HW232676   0.371   1.273   5.065
10593SOL     OW32677   3.165   4.929   3.671
10593SOL    HW132678   3.243   4.878   3.707
10593SOL    HW232679   3.161   4.918   3.571
10594SOL     OW32680   3.333   5.175   3.546
10594SOL    HW132681   3.260   5.194   3.480
10594SOL    HW232682   3.314   5.090   3.594
10595SOL     OW32683   5.329   0.206   0.463
10595SOL    HW132684   5.354   0.115   0.428
10595SOL    HW232685   5.289   0.197   0.553
10596SOL     OW32686   5.068   3.493   0.235
10596SOL    HW132687   5.134   3.459   0.169
10596SOL    HW232688   5.078   3.593   0.243
10597SOL     OW32689   2.212   6.583   4.489
10597SOL    HW132690   2.222   6.652   4.417
10597SOL    HW232691   2.300   6.539   4.507
10598SOL     OW32692   3.137   0.639   6.787
10598SOL    HW132693   3.194   0.703   6.735
10598SOL    HW232694   3.107   0.683   6.872
10599SOL     OW32695   0.848   2.252   0.285
10599SOL    HW132696   0.850   2.278   0.381
10599SOL    HW232697   0.753   2.245   0.254
10600SOL     OW32698   3.778   1.367   1.665
10600SOL    HW132699   3.689   1.342   1.626
10600SOL    HW232700   3.796   1.310   1.746
10601SOL     OW32701   2.245   0.984   5.053
10601SOL    HW132702   2.340   1.008   5.036
10601SOL    HW232703   2.239   0.926   5.134
10602SOL     OW32704   6.703   0.426   2.215
10602SOL    HW132705   6.722   0.501   2.278
10602SOL    HW232706   6.611   0.436   2.178
10603SOL     OW32707   5.691   0.574   2.845
10603SOL    HW132708   5.734   0.563   2.935
10603SOL    HW232709   5.686   0.484   2.801
10604SOL     OW32710   4.610   0.859   4.779
10604SOL    HW132711   4.584   0.810   4.862
10604SOL    HW232712   4.564   0.819   4.700
10605SOL     OW32713   3.088   2.347   1.126
10605SOL    HW132714   3.127   2.434   1.158
10605SOL    HW232715   3.153   2.273   1.143
10606SOL     OW32716   6.801   0.260   6.785
10606SOL    HW132717   6.790   0.353   6.751
10606SOL    HW232718   6.786   0.258   6.884
10607SOL     OW32719   2.894   4.357   0.072
10607SOL    HW132720   2.865   4.451   0.092
10607SOL    HW232721   2.994   4.352   0.076
10608SOL     OW32722   5.326   4.320   4.168
10608SOL    HW132723   5.279   4.239   4.133
10608SOL    HW232724   5.364   4.373   4.092
10609SOL     OW32725   5.919   0.749   6.573
10609SOL    HW132726   6.009   0.789   6.591
10609SOL    HW232727   5.904   0.744   6.474
10610SOL     OW32728   0.896   1.399   3.474
10610SOL    HW132729   0.886   1.359   3.564
10610SOL    HW232730   0.945   1.336   3.414
10611SOL     OW32731   3.949   5.327   4.937
10611SOL    HW132732   4.016   5.338   5.011
10611SOL    HW232733   3.902   5.239   4.948
10612SOL     OW32734   6.643   2.511   3.738
10612SOL    HW132735   6.597   2.598   3.722
10612SOL    HW232736   6.579   2.436   3.721
10613SOL     OW32737   4.265   6.406   4.264
10613SOL    HW132738   4.273   6.383   4.167
10613SOL    HW232739   4.258   6.322   4.317
10614SOL     OW32740   3.788   1.860   5.952
10614SOL    HW132741   3.849   1.924   5.905
10614SOL    HW232742   3.761   1.899   6.040
10615SOL     OW32743   2.381   2.040   4.882
10615SOL    HW132744   2.461   2.006   4.933
10615SOL    HW232745   2.304   1.977   4.896
10616SOL     OW32746   1.496   5.965   6.667
10616SOL    HW132747   1.411   5.930   6.706
10616SOL    HW232748   1.494   5.956   6.568
10617SOL     OW32749   1.816   2.948   1.284
10617SOL    HW132750   1.775   2.858   1.272
10617SOL    HW232751   1.890   2.961   1.218
10618SOL     OW32752   0.993   5.091   3.647
10618SOL    HW132753   0.985   5.052   3.738
10618SOL    HW232754   0.952   5.182   3.646
10619SOL     OW32755   1.342   2.591   2.259
10619SOL    HW132756   1.339   2.569   2.162
10619SOL    HW232757   1.263   2.649   2.282
10620SOL     OW32758   3.135   0.350   5.676
10620SOL    HW132759   3.045   0.390   5.663
10620SOL    HW232760   3.191   0.411   5.732
10621SOL     OW32761   0.409   3.288   2.945
10621SOL    HW132762   0.312   3.299   2.925
10621SOL    HW232763   0.450   3.225   2.878
10622SOL     OW32764   4.414   2.311   6.906
10622SOL    HW132765   4.327   2.291   6.862
10622SOL    HW232766   4.459   2.386   6.858
10623SOL     OW32767   5.119   6.061   5.267
10623SOL    HW132768   5.165   6.120   5.334
10623SOL    HW232769   5.177   6.049   5.187
10624SOL     OW32770   0.570   2.250   0.247
10624SOL    HW132771   0.530   2.166   0.282
10624SOL    HW232772   0.547   2.326   0.308
10625SOL     OW32773   6.250   5.436   0.513
10625SOL    HW132774   6.325   5.383   0.473
10625SOL    HW232775   6.282   5.477   0.599
10626SOL     OW32776   5.553   2.847   1.016
10626SOL    HW132777   5.628   2.914   1.008
10626SOL    HW232778   5.589   2.763   1.056
10627SOL     OW32779   5.924   5.168   4.958
10627SOL    HW132780   5.907   5.193   4.862
10627SOL    HW232781   5.999   5.223   4.994
10628SOL     OW32782   2.942   6.505   0.195
10628SOL    HW132783   2.921   6.595   0.233
10628SOL    HW232784   3.039   6.485   0.206
10629SOL     OW32785   4.304   5.278   4.888
10629SOL    HW132786   4.402   5.287   4.870
10629SOL    HW232787   4.254   5.347   4.837
10630SOL     OW32788   4.102   1.265   1.743
10630SOL    HW132789   4.160   1.341   1.772
10630SOL    HW232790   4.018   1.263   1.797
10631SOL     OW32791   3.736   5.848   1.484
10631SOL    HW132792   3.729   5.750   1.503
10631SOL    HW232793   3.832   5.874   1.475
10632SOL     OW32794   5.489   6.638   4.099
10632SOL    HW132795   5.573   6.584   4.111
10632SOL    HW232796   5.494   6.691   4.015
10633SOL     OW32797   1.953   3.801   0.746
10633SOL    HW132798   1.968   3.814   0.648
10633SOL    HW232799   1.883   3.731   0.760
10634SOL     OW32800   0.037   4.554   6.671
10634SOL    HW132801   0.004   4.546   6.577
10634SOL    HW232802   0.045   4.651   6.695
10635SOL     OW32803   2.885   5.870   6.805
10635SOL    HW132804   2.841   5.780   6.804
10635SOL    HW232805   2.829   5.935   6.756
10636SOL     OW32806   6.926   2.973   0.047
10636SOL    HW132807   6.871   2.895   0.019
10636SOL    HW232808   6.885   3.058   0.013
10637SOL     OW32809   2.367   1.111   6.737
10637SOL    HW132810   2.435   1.059   6.789
10637SOL    HW232811   2.297   1.048   6.702
10638SOL     OW32812   5.858   5.033   0.943
10638SOL    HW132813   5.904   5.032   1.032
10638SOL    HW232814   5.919   5.073   0.874
10639SOL     OW32815   0.326   5.344   1.804
10639SOL    HW132816   0.339   5.282   1.727
10639SOL    HW232817   0.229   5.359   1.819
10640SOL     OW32818   4.601   6.733   3.589
10640SOL    HW132819   4.564   6.673   3.519
10640SOL    HW232820   4.554   6.715   3.676
10641SOL     OW32821   1.017   1.658   3.179
10641SOL    HW132822   1.058   1.567   3.182
10641SOL    HW232823   1.073   1.717   3.120
10642SOL     OW32824   6.634   3.487   6.135
10642SOL    HW132825   6.590   3.505   6.223
10642SOL    HW232826   6.730   3.463   6.150
10643SOL     OW32827   2.203   5.151   5.778
10643SOL    HW132828   2.252   5.068   5.804
10643SOL    HW232829   2.105   5.135   5.787
10644SOL     OW32830   6.211   3.050   3.048
10644SOL    HW132831   6.200   2.982   3.121
10644SOL    HW232832   6.234   3.005   2.962
10645SOL     OW32833   1.827   2.155   3.118
10645SOL    HW132834   1.759   2.082   3.122
10645SOL    HW232835   1.781   2.244   3.127
10646SOL     OW32836   5.480   0.251   3.713
10646SOL    HW132837   5.470   0.349   3.726
10646SOL    HW232838   5.546   0.215   3.779
10647SOL     OW32839   3.672   5.418   5.673
10647SOL    HW132840   3.688   5.341   5.612
10647SOL    HW232841   3.757   5.443   5.720
10648SOL     OW32842   4.844   4.088   5.775
10648SOL    HW132843   4.892   4.008   5.739
10648SOL    HW232844   4.753   4.094   5.734
10649SOL     OW32845   6.309   3.750   3.074
10649SOL    HW132846   6.400   3.743   3.032
10649SOL    HW232847   6.318   3.749   3.173
10650SOL     OW32848   1.175   0.001   3.589
10650SOL    HW132849   1.152   0.088   3.545
10650SOL    HW232850   1.275   7.010   3.591
10651SOL     OW32851   3.013   5.835   5.988
10651SOL    HW132852   2.967   5.855   6.074
10651SOL    HW232853   2.945   5.802   5.921
10652SOL     OW32854   1.591   0.169   0.377
10652SOL    HW132855   1.609   0.236   0.449
10652SOL    HW232856   1.659   0.180   0.304
10653SOL     OW32857   4.840   6.002   4.222
10653SOL    HW132858   4.796   6.076   4.171
10653SOL    HW232859   4.823   5.915   4.176
10654SOL     OW32860   6.263   2.029   4.531
10654SOL    HW132861   6.324   1.979   4.593
10654SOL    HW232862   6.246   1.973   4.450
10655SOL     OW32863   6.932   4.079   1.566
10655SOL    HW132864   6.914   4.052   1.472
10655SOL    HW232865   6.866   4.149   1.594
10656SOL     OW32866   5.918   1.971   4.311
10656SOL    HW132867   5.957   1.954   4.221
10656SOL    HW232868   5.955   2.056   4.348
10657SOL     OW32869   4.937   6.696   4.521
10657SOL    HW132870   5.007   6.708   4.591
10657SOL    HW232871   4.861   6.758   4.540
10658SOL     OW32872   0.887   2.115   5.904
10658SOL    HW132873   0.888   2.064   5.990
10658SOL    HW232874   0.918   2.056   5.830
10659SOL     OW32875   0.523   5.789   0.906
10659SOL    HW132876   0.569   5.751   0.986
10659SOL    HW232877   0.486   5.880   0.928
10660SOL     OW32878   5.836   2.701   5.373
10660SOL    HW132879   5.803   2.711   5.467
10660SOL    HW232880   5.934   2.684   5.373
10661SOL     OW32881   2.975   5.033   5.460
10661SOL    HW132882   2.969   4.934   5.466
10661SOL    HW232883   3.006   5.059   5.369
10662SOL     OW32884   2.266   1.390   1.484
10662SOL    HW132885   2.176   1.406   1.524
10662SOL    HW232886   2.256   1.364   1.388
10663SOL     OW32887   0.979   1.653   3.520
10663SOL    HW132888   1.076   1.634   3.527
10663SOL    HW232889   0.929   1.567   3.508
10664SOL     OW32890   0.813   5.140   4.960
10664SOL    HW132891   0.794   5.192   5.043
10664SOL    HW232892   0.783   5.193   4.880
10665SOL     OW32893   2.986   3.524   0.171
10665SOL    HW132894   2.900   3.574   0.178
10665SOL    HW232895   2.994   3.482   0.081
10666SOL     OW32896   3.719   4.064   1.376
10666SOL    HW132897   3.702   3.975   1.335
10666SOL    HW232898   3.634   4.101   1.414
10667SOL     OW32899   5.378   2.828   3.211
10667SOL    HW132900   5.331   2.875   3.286
10667SOL    HW232901   5.475   2.821   3.231
10668SOL     OW32902   3.274   2.944   5.997
10668SOL    HW132903   3.185   2.900   6.007
10668SOL    HW232904   3.283   2.979   5.903
10669SOL     OW32905   5.410   1.718   1.448
10669SOL    HW132906   5.358   1.716   1.363
10669SOL    HW232907   5.507   1.701   1.428
10670SOL     OW32908   4.861   3.899   4.264
10670SOL    HW132909   4.826   3.814   4.225
10670SOL    HW232910   4.800   3.975   4.240
10671SOL     OW32911   1.469   3.547   5.401
10671SOL    HW132912   1.447   3.526   5.496
10671SOL    HW232913   1.405   3.615   5.366
10672SOL     OW32914   5.635   3.719   1.831
10672SOL    HW132915   5.710   3.762   1.779
10672SOL    HW232916   5.638   3.620   1.818
10673SOL     OW32917   2.051   1.804   0.967
10673SOL    HW132918   2.119   1.826   1.037
10673SOL    HW232919   1.981   1.876   0.965
10674SOL     OW32920   3.603   4.159   3.367
10674SOL    HW132921   3.505   4.160   3.388
10674SOL    HW232922   3.616   4.133   3.271
10675SOL     OW32923   4.099   6.788   5.455
10675SOL    HW132924   4.037   6.735   5.513
10675SOL    HW232925   4.194   6.761   5.474
10676SOL     OW32926   1.658   0.241   5.849
10676SOL    HW132927   1.603   0.316   5.812
10676SOL    HW232928   1.694   0.268   5.939
10677SOL     OW32929   0.198   1.332   0.573
10677SOL    HW132930   0.148   1.270   0.633
10677SOL    HW232931   0.280   1.286   0.537
10678SOL     OW32932   3.706   5.810   2.653
10678SOL    HW132933   3.801   5.779   2.652
10678SOL    HW232934   3.665   5.786   2.741
10679SOL     OW32935   4.131   3.326   6.521
10679SOL    HW132936   4.155   3.415   6.481
10679SOL    HW232937   4.182   3.254   6.475
10680SOL     OW32938   4.000   1.254   4.812
10680SOL    HW132939   4.048   1.258   4.899
10680SOL    HW232940   4.047   1.310   4.744
10681SOL     OW32941   1.812   3.386   5.154
10681SOL    HW132942   1.802   3.372   5.055
10681SOL    HW232943   1.726   3.365   5.200
10682SOL     OW32944   5.093   3.098   6.245
10682SOL    HW132945   5.006   3.117   6.292
10682SOL    HW232946   5.165   3.083   6.312
10683SOL     OW32947   3.091   0.359   3.804
10683SOL    HW132948   3.061   0.403   3.720
10683SOL    HW232949   3.048   0.269   3.812
10684SOL     OW32950   4.599   4.910   2.251
10684SOL    HW132951   4.693   4.879   2.232
10684SOL    HW232952   4.562   4.955   2.170
10685SOL     OW32953   0.681   6.430   1.729
10685SOL    HW132954   0.725   6.461   1.644
10685SOL    HW232955   0.628   6.347   1.711
10686SOL     OW32956   2.576   1.272   6.593
10686SOL    HW132957   2.497   1.251   6.651
10686SOL    HW232958   2.559   1.240   6.500
10687SOL     OW32959   0.598   3.941   3.401
10687SOL    HW132960   0.534   3.893   3.341
10687SOL    HW232961   0.559   4.029   3.428
10688SOL     OW32962   5.088   1.523   2.308
10688SOL    HW132963   5.144   1.586   2.254
10688SOL    HW232964   5.010   1.572   2.346
10689SOL     OW32965   0.420   0.462   2.749
10689SOL    HW132966   0.345   0.494   2.807
10689SOL    HW232967   0.503   0.454   2.804
10690SOL     OW32968   0.237   6.903   4.218
10690SOL    HW132969   0.276   6.929   4.129
10690SOL    HW232970   0.311   6.888   4.283
10691SOL     OW32971   3.666   0.310   2.383
10691SOL    HW132972   3.740   0.287   2.447
10691SOL    HW232973   3.581   0.321   2.434
10692SOL     OW32974   2.363   0.874   4.027
10692SOL    HW132975   2.403   0.906   3.941
10692SOL    HW232976   2.425   0.809   4.070
10693SOL     OW32977   1.456   5.305   6.994
10693SOL    HW132978   1.401   5.275   0.052
10693SOL    HW232979   1.518   5.378   0.004
10694SOL     OW32980   4.348   7.007   5.463
10694SOL    HW132981   4.340   6.917   5.505
10694SOL    HW232982   4.414   7.004   5.389
10695SOL     OW32983   5.712   4.116   2.187
10695SOL    HW132984   5.630   4.075   2.226
10695SOL    HW232985   5.726   4.207   2.226
10696SOL     OW32986   6.785   4.752   4.026
10696SOL    HW132987   6.841   4.669   4.025
10696SOL    HW232988   6.740   4.762   4.115
10697SOL     OW32989   1.885   5.267   5.311
10697SOL    HW132990   1.918   5.351   5.266
10697SOL    HW232991   1.961   5.203   5.321
10698SOL     OW32992   4.266   3.101   0.190
10698SOL    HW132993   4.364   3.096   0.173
10698SOL    HW232994   4.233   3.194   0.172
10699SOL     OW32995   3.294   3.029   0.666
10699SOL    HW132996   3.263   3.073   0.581
10699SOL    HW232997   3.368   2.966   0.645
10700SOL     OW32998   4.782   1.132   1.548
10700SOL    HW132999   4.853   1.201   1.562
10700SOL    HW233000   4.702   1.155   1.603
10701SOL     OW33001   2.943   0.223   6.442
10701SOL    HW133002   2.872   0.190   6.380
10701SOL    HW233003   2.933   0.178   6.531
10702SOL     OW33004   6.136   2.535   2.044
10702SOL    HW133005   6.207   2.499   1.984
10702SOL    HW233006   6.047   2.500   2.015
10703SOL     OW33007   0.815   3.167   6.026
10703SOL    HW133008   0.888   3.189   6.090
10703SOL    HW233009   0.772   3.251   5.994
10704SOL     OW33010   5.779   6.646   1.466
10704SOL    HW133011   5.839   6.719   1.498
10704SOL    HW233012   5.796   6.628   1.369
10705SOL     OW33013   5.917   4.227   1.510
10705SOL    HW133014   5.836   4.192   1.557
10705SOL    HW233015   5.891   4.300   1.447
10706SOL     OW33016   4.495   0.340   0.924
10706SOL    HW133017   4.563   0.340   0.851
10706SOL    HW233018   4.414   0.289   0.895
10707SOL     OW33019   5.738   0.654   4.243
10707SOL    HW133020   5.764   0.747   4.269
10707SOL    HW233021   5.737   0.647   4.143
10708SOL     OW33022   4.208   1.497   2.164
10708SOL    HW133023   4.277   1.569   2.166
10708SOL    HW233024   4.119   1.535   2.185
10709SOL     OW33025   5.831   4.835   3.864
10709SOL    HW133026   5.810   4.740   3.842
10709SOL    HW233027   5.757   4.894   3.833
10710SOL     OW33028   5.321   1.047   3.666
10710SOL    HW133029   5.270   0.962   3.678
10710SOL    HW233030   5.311   1.079   3.572
10711SOL     OW33031   4.193   6.798   1.476
10711SOL    HW133032   4.156   6.877   1.525
10711SOL    HW233033   4.266   6.829   1.414
10712SOL     OW33034   4.972   0.073   2.997
10712SOL    HW133035   4.952   0.053   3.093
10712SOL    HW233036   4.987   0.171   2.986
10713SOL     OW33037   1.341   4.256   1.405
10713SOL    HW133038   1.337   4.352   1.431
10713SOL    HW233039   1.436   4.226   1.405
10714SOL     OW33040   3.468   4.176   4.256
10714SOL    HW133041   3.502   4.109   4.322
10714SOL    HW233042   3.386   4.219   4.292
10715SOL     OW33043   6.148   1.069   1.753
10715SOL    HW133044   6.062   1.117   1.767
10715SOL    HW233045   6.188   1.096   1.665
10716SOL     OW33046   6.003   1.910   3.329
10716SOL    HW133047   5.992   1.829   3.272
10716SOL    HW233048   6.081   1.964   3.297
10717SOL     OW33049   1.321   2.677   0.008
10717SOL    HW133050   1.331   2.624   6.943
10717SOL    HW233051   1.305   2.616   0.085
10718SOL     OW33052   1.387   4.969   5.388
10718SOL    HW133053   1.370   5.007   5.297
10718SOL    HW233054   1.337   5.023   5.456
10719SOL     OW33055   6.195   5.872   4.565
10719SOL    HW133056   6.111   5.819   4.578
10719SOL    HW233057   6.178   5.968   4.590
10720SOL     OW33058   6.406   5.235   3.747
10720SOL    HW133059   6.342   5.288   3.691
10720SOL    HW233060   6.355   5.169   3.803
10721SOL     OW33061   5.082   3.807   5.193
10721SOL    HW133062   5.117   3.899   5.173
10721SOL    HW233063   5.157   3.742   5.192
10722SOL     OW33064   6.688   4.306   5.851
10722SOL    HW133065   6.665   4.299   5.754
10722SOL    HW233066   6.770   4.362   5.862
10723SOL     OW33067   5.940   0.103   0.360
10723SOL    HW133068   5.900   0.187   0.396
10723SOL    HW233069   5.872   0.054   0.306
10724SOL     OW33070   6.664   6.481   0.326
10724SOL    HW133071   6.582   6.506   0.377
10724SOL    HW233072   6.721   6.421   0.382
10725SOL     OW33073   2.803   5.267   5.465
10725SOL    HW133074   2.842   5.175   5.467
10725SOL    HW233075   2.754   5.281   5.379
10726SOL     OW33076   5.002   0.775   4.374
10726SOL    HW133077   4.937   0.762   4.449
10726SOL    HW233078   5.059   0.693   4.364
10727SOL     OW33079   1.444   5.918   5.877
10727SOL    HW133080   1.526   5.886   5.829
10727SOL    HW233081   1.363   5.873   5.838
10728SOL     OW33082   6.484   5.720   0.901
10728SOL    HW133083   6.390   5.747   0.883
10728SOL    HW233084   6.501   5.721   1.000
10729SOL     OW33085   6.704   2.818   1.262
10729SOL    HW133086   6.760   2.852   1.187
10729SOL    HW233087   6.654   2.737   1.233
10730SOL     OW33088   4.095   0.340   1.677
10730SOL    HW133089   4.156   0.273   1.720
10730SOL    HW233090   4.130   0.432   1.695
10731SOL     OW33091   4.255   1.095   0.529
10731SOL    HW133092   4.290   1.043   0.607
10731SOL    HW233093   4.329   1.115   0.466
10732SOL     OW33094   0.773   4.980   5.334
10732SOL    HW133095   0.693   4.964   5.277
10732SOL    HW233096   0.744   5.015   5.423
10733SOL     OW33097   5.567   3.023   6.896
10733SOL    HW133098   5.568   2.970   6.811
10733SOL    HW233099   5.659   3.055   6.916
10734SOL     OW33100   6.926   1.978   1.488
10734SOL    HW133101   6.828   1.996   1.474
10734SOL    HW233102   6.956   1.906   1.424
10735SOL     OW33103   0.626   3.624   2.726
10735SOL    HW133104   0.626   3.618   2.626
10735SOL    HW233105   0.532   3.611   2.760
10736SOL     OW33106   3.539   6.896   3.591
10736SOL    HW133107   3.480   6.840   3.532
10736SOL    HW233108   3.509   6.991   3.587
10737SOL     OW33109   0.408   2.519   1.402
10737SOL    HW133110   0.462   2.495   1.483
10737SOL    HW233111   0.408   2.619   1.392
10738SOL     OW33112   4.739   1.025   3.033
10738SOL    HW133113   4.755   1.056   2.940
10738SOL    HW233114   4.657   1.069   3.070
10739SOL     OW33115   2.162   2.109   1.902
10739SOL    HW133116   2.240   2.157   1.942
10739SOL    HW233117   2.077   2.157   1.927
10740SOL     OW33118   5.013   4.651   3.821
10740SOL    HW133119   5.052   4.601   3.743
10740SOL    HW233120   4.953   4.723   3.787
10741SOL     OW33121   3.908   0.499   2.408
10741SOL    HW133122   3.811   0.494   2.436
10741SOL    HW233123   3.936   0.595   2.403
10742SOL     OW33124   5.707   5.321   0.662
10742SOL    HW133125   5.721   5.310   0.760
10742SOL    HW233126   5.796   5.325   0.615
10743SOL     OW33127   2.051   2.141   4.293
10743SOL    HW133128   2.102   2.206   4.237
10743SOL    HW233129   2.114   2.091   4.352
10744SOL     OW33130   3.659   2.389   0.859
10744SOL    HW133131   3.682   2.339   0.942
10744SOL    HW233132   3.736   2.385   0.795
10745SOL     OW33133   0.146   5.655   5.747
10745SOL    HW133134   0.186   5.723   5.810
10745SOL    HW233135   0.155   5.688   5.653
10746SOL     OW33136   0.095   4.296   5.268
10746SOL    HW133137   0.101   4.237   5.187
10746SOL    HW233138   0.046   4.380   5.244
10747SOL     OW33139   2.910   1.107   4.974
10747SOL    HW133140   3.004   1.140   4.984
10747SOL    HW233141   2.882   1.117   4.878
10748SOL     OW33142   4.748   1.229   2.255
10748SOL    HW133143   4.791   1.143   2.225
10748SOL    HW233144   4.775   1.303   2.193
10749SOL     OW33145   2.047   6.757   4.963
10749SOL    HW133146   2.058   6.719   4.871
10749SOL    HW233147   2.131   6.802   4.991
10750SOL     OW33148   3.510   0.792   5.705
10750SOL    HW133149   3.577   0.719   5.716
10750SOL    HW233150   3.557   0.878   5.683
10751SOL     OW33151   2.165   4.723   4.221
10751SOL    HW133152   2.107   4.730   4.302
10751SOL    HW233153   2.167   4.811   4.173
10752SOL     OW33154   5.565   5.213   4.489
10752SOL    HW133155   5.465   5.208   4.488
10752SOL    HW233156   5.603   5.125   4.463
10753SOL     OW33157   0.194   3.212   4.002
10753SOL    HW133158   0.153   3.131   4.044
10753SOL    HW233159   0.131   3.289   4.008
10754SOL     OW33160   1.583   0.700   2.574
10754SOL    HW133161   1.627   0.673   2.489
10754SOL    HW233162   1.576   0.620   2.634
10755SOL     OW33163   6.531   6.102   1.642
10755SOL    HW133164   6.450   6.043   1.646
10755SOL    HW233165   6.611   6.047   1.618
10756SOL     OW33166   6.603   6.962   5.128
10756SOL    HW133167   6.577   0.012   5.060
10756SOL    HW233168   6.533   6.891   5.132
10757SOL     OW33169   2.153   3.288   0.782
10757SOL    HW133170   2.146   3.229   0.702
10757SOL    HW233171   2.115   3.378   0.761
10758SOL     OW33172   0.632   5.650   3.490
10758SOL    HW133173   0.574   5.624   3.413
10758SOL    HW233174   0.647   5.570   3.550
10759SOL     OW33175   0.180   2.958   0.078
10759SOL    HW133176   0.086   2.983   0.099
10759SOL    HW233177   0.238   3.040   0.085
10760SOL     OW33178   6.219   0.720   3.508
10760SOL    HW133179   6.241   0.811   3.542
10760SOL    HW233180   6.274   0.702   3.426
10761SOL     OW33181   2.914   4.735   5.563
10761SOL    HW133182   2.845   4.735   5.635
10761SOL    HW233183   2.871   4.715   5.475
10762SOL     OW33184   3.347   0.673   4.260
10762SOL    HW133185   3.314   0.767   4.258
10762SOL    HW233186   3.278   0.613   4.218
10763SOL     OW33187   3.989   0.392   3.332
10763SOL    HW133188   3.929   0.466   3.359
10763SOL    HW233189   3.980   0.376   3.233
10764SOL     OW33190   5.370   0.401   4.063
10764SOL    HW133191   5.285   0.364   4.025
10764SOL    HW233192   5.394   0.486   4.017
10765SOL     OW33193   5.003   3.171   1.271
10765SOL    HW133194   5.097   3.188   1.301
10765SOL    HW233195   4.971   3.250   1.219
10766SOL     OW33196   3.798   3.324   1.330
10766SOL    HW133197   3.854   3.390   1.382
10766SOL    HW233198   3.789   3.356   1.236
10767SOL     OW33199   2.435   1.270   1.941
10767SOL    HW133200   2.412   1.272   2.039
10767SOL    HW233201   2.352   1.271   1.887
10768SOL     OW33202   6.663   4.837   0.374
10768SOL    HW133203   6.619   4.769   0.316
10768SOL    HW233204   6.763   4.828   0.366
10769SOL     OW33205   1.808   3.496   6.270
10769SOL    HW133206   1.778   3.448   6.352
10769SOL    HW233207   1.873   3.439   6.220
10770SOL     OW33208   4.889   6.179   3.170
10770SOL    HW133209   4.900   6.241   3.247
10770SOL    HW233210   4.972   6.180   3.114
10771SOL     OW33211   3.120   0.609   3.459
10771SOL    HW133212   3.157   0.577   3.372
10771SOL    HW233213   3.078   0.532   3.508
10772SOL     OW33214   6.273   5.726   3.707
10772SOL    HW133215   6.217   5.764   3.633
10772SOL    HW233216   6.369   5.733   3.682
10773SOL     OW33217   5.116   5.134   3.961
10773SOL    HW133218   5.117   5.183   3.874
10773SOL    HW233219   5.164   5.047   3.951
10774SOL     OW33220   1.583   1.361   4.096
10774SOL    HW133221   1.487   1.380   4.074
10774SOL    HW233222   1.633   1.448   4.098
10775SOL     OW33223   0.527   4.161   1.924
10775SOL    HW133224   0.462   4.142   1.851
10775SOL    HW233225   0.524   4.259   1.946
10776SOL     OW33226   1.906   0.342   6.922
10776SOL    HW133227   1.891   0.243   6.925
10776SOL    HW233228   1.993   0.364   6.967
10777SOL     OW33229   3.582   6.343   1.719
10777SOL    HW133230   3.652   6.414   1.715
10777SOL    HW233231   3.619   6.257   1.684
10778SOL     OW33232   5.822   5.974   3.260
10778SOL    HW133233   5.858   6.008   3.346
10778SOL    HW233234   5.883   5.904   3.223
10779SOL     OW33235   5.816   2.359   3.428
10779SOL    HW133236   5.865   2.407   3.356
10779SOL    HW233237   5.748   2.419   3.469
10780SOL     OW33238   0.982   1.244   3.261
10780SOL    HW133239   1.057   1.297   3.220
10780SOL    HW233240   1.004   1.147   3.258
10781SOL     OW33241   3.239   0.220   4.064
10781SOL    HW133242   3.169   0.273   4.017
10781SOL    HW233243   3.329   0.257   4.041
10782SOL     OW33244   6.370   6.147   4.627
10782SOL    HW133245   6.470   6.146   4.628
10782SOL    HW233246   6.338   6.210   4.556
10783SOL     OW33247   6.793   2.114   2.691
10783SOL    HW133248   6.699   2.146   2.676
10783SOL    HW233249   6.837   2.172   2.759
10784SOL     OW33250   2.446   1.139   4.200
10784SOL    HW133251   2.423   1.042   4.185
10784SOL    HW233252   2.484   1.150   4.292
10785SOL     OW33253   0.318   4.048   0.026
10785SOL    HW133254   0.264   3.968   7.018
10785SOL    HW233255   0.324   4.052   0.126
10786SOL     OW33256   0.070   5.396   3.257
10786SOL    HW133257   0.019   5.481   3.245
10786SOL    HW233258   0.118   5.399   3.345
10787SOL     OW33259   1.872   2.279   5.528
10787SOL    HW133260   1.876   2.325   5.440
10787SOL    HW233261   1.938   2.204   5.529
10788SOL     OW33262   6.308   4.052   5.946
10788SOL    HW133263   6.319   4.065   5.847
10788SOL    HW233264   6.392   4.080   5.993
10789SOL     OW33265   6.592   2.050   0.324
10789SOL    HW133266   6.495   2.068   0.309
10789SOL    HW233267   6.604   1.955   0.352
10790SOL     OW33268   6.795   0.214   2.846
10790SOL    HW133269   6.852   0.132   2.855
10790SOL    HW233270   6.718   0.194   2.785
10791SOL     OW33271   6.499   6.104   2.514
10791SOL    HW133272   6.415   6.159   2.510
10791SOL    HW233273   6.481   6.013   2.478
10792SOL     OW33274   3.893   4.070   4.862
10792SOL    HW133275   3.938   4.141   4.915
10792SOL    HW233276   3.892   4.095   4.766
10793SOL     OW33277   5.635   3.123   4.861
10793SOL    HW133278   5.731   3.151   4.867
10793SOL    HW233279   5.577   3.204   4.859
10794SOL     OW33280   3.330   3.401   3.866
10794SOL    HW133281   3.385   3.326   3.831
10794SOL    HW233282   3.241   3.366   3.896
10795SOL     OW33283   1.144   4.189   3.074
10795SOL    HW133284   1.204   4.257   3.030
10795SOL    HW233285   1.200   4.116   3.112
10796SOL     OW33286   1.336   5.609   5.157
10796SOL    HW133287   1.397   5.549   5.209
10796SOL    HW233288   1.382   5.641   5.075
10797SOL     OW33289   3.493   2.847   0.626
10797SOL    HW133290   3.493   2.753   0.659
10797SOL    HW233291   3.557   2.902   0.680
10798SOL     OW33292   0.640   1.878   0.653
10798SOL    HW133293   0.722   1.834   0.689
10798SOL    HW233294   0.574   1.809   0.625
10799SOL     OW33295   4.207   1.319   2.398
10799SOL    HW133296   4.202   1.374   2.314
10799SOL    HW233297   4.209   1.222   2.374
10800SOL     OW33298   1.176   6.890   0.263
10800SOL    HW133299   1.138   6.878   0.354
10800SOL    HW233300   1.263   6.939   0.269
10801SOL     OW33301   1.331   1.023   0.690
10801SOL    HW133302   1.317   1.079   0.609
10801SOL    HW233303   1.415   0.970   0.680
10802SOL     OW33304   6.196   0.091   3.698
10802SOL    HW133305   6.196   0.159   3.772
10802SOL    HW233306   6.280   0.037   3.702
10803SOL     OW33307   2.303   4.960   6.705
10803SOL    HW133308   2.373   5.009   6.757
10803SOL    HW233309   2.342   4.874   6.671
10804SOL     OW33310   6.892   3.527   3.825
10804SOL    HW133311   6.913   3.448   3.768
10804SOL    HW233312   6.952   3.529   3.904
10805SOL     OW33313   6.370   0.856   5.620
10805SOL    HW133314   6.356   0.823   5.527
10805SOL    HW233315   6.366   0.956   5.620
10806SOL     OW33316   1.910   4.674   6.777
10806SOL    HW133317   1.836   4.739   6.798
10806SOL    HW233318   1.993   4.702   6.825
10807SOL     OW33319   2.858   6.333   4.381
10807SOL    HW133320   2.857   6.433   4.375
10807SOL    HW233321   2.937   6.298   4.331
10808SOL     OW33322   0.328   2.483   6.148
10808SOL    HW133323   0.402   2.425   6.114
10808SOL    HW233324   0.346   2.510   6.242
10809SOL     OW33325   2.237   5.811   4.658
10809SOL    HW133326   2.281   5.863   4.731
10809SOL    HW233327   2.161   5.864   4.620
10810SOL     OW33328   0.293   0.220   4.376
10810SOL    HW133329   0.252   0.275   4.302
10810SOL    HW233330   0.366   0.273   4.420
10811SOL     OW33331   5.179   4.918   5.399
10811SOL    HW133332   5.121   4.837   5.409
10811SOL    HW233333   5.273   4.890   5.382
10812SOL     OW33334   6.657   2.717   6.893
10812SOL    HW133335   6.756   2.704   6.898
10812SOL    HW233336   6.622   2.676   6.809
10813SOL     OW33337   0.339   4.087   6.394
10813SOL    HW133338   0.354   4.186   6.392
10813SOL    HW233339   0.248   4.066   6.358
10814SOL     OW33340   2.576   0.568   1.104
10814SOL    HW133341   2.533   0.657   1.119
10814SOL    HW233342   2.539   0.501   1.169
10815SOL     OW33343   5.191   1.261   4.467
10815SOL    HW133344   5.246   1.227   4.543
10815SOL    HW233345   5.148   1.184   4.421
10816SOL     OW33346   3.947   3.377   3.722
10816SOL    HW133347   3.935   3.306   3.653
10816SOL    HW233348   3.859   3.421   3.740
10817SOL     OW33349   2.911   6.789   3.091
10817SOL    HW133350   2.879   6.708   3.139
10817SOL    HW233351   3.009   6.780   3.072
10818SOL     OW33352   4.385   5.225   6.200
10818SOL    HW133353   4.316   5.228   6.127
10818SOL    HW233354   4.363   5.152   6.264
10819SOL     OW33355   6.625   5.573   6.273
10819SOL    HW133356   6.586   5.509   6.206
10819SOL    HW233357   6.556   5.597   6.341
10820SOL     OW33358   2.688   4.596   5.985
10820SOL    HW133359   2.738   4.652   6.051
10820SOL    HW233360   2.744   4.518   5.957
10821SOL     OW33361   4.823   5.304   3.257
10821SOL    HW133362   4.827   5.373   3.184
10821SOL    HW233363   4.910   5.256   3.262
10822SOL     OW33364   5.605   2.431   1.514
10822SOL    HW133365   5.554   2.510   1.548
10822SOL    HW233366   5.593   2.424   1.415
10823SOL     OW33367   6.622   6.349   2.572
10823SOL    HW133368   6.582   6.262   2.544
10823SOL    HW233369   6.684   6.382   2.502
10824SOL     OW33370   0.891   2.380   4.129
10824SOL    HW133371   0.845   2.467   4.110
10824SOL    HW233372   0.944   2.352   4.049
10825SOL     OW33373   0.862   1.812   0.397
10825SOL    HW133374   0.928   1.877   0.437
10825SOL    HW233375   0.862   1.728   0.451
10826SOL     OW33376   0.755   2.887   2.635
10826SOL    HW133377   0.759   2.908   2.732
10826SOL    HW233378   0.833   2.830   2.609
10827SOL     OW33379   0.224   3.281   4.745
10827SOL    HW133380   0.186   3.276   4.653
10827SOL    HW233381   0.323   3.291   4.741
10828SOL     OW33382   6.222   5.099   5.593
10828SOL    HW133383   6.139   5.114   5.648
10828SOL    HW233384   6.257   5.007   5.611
10829SOL     OW33385   4.000   3.630   5.394
10829SOL    HW133386   3.933   3.664   5.460
10829SOL    HW233387   4.007   3.531   5.402
10830SOL     OW33388   4.865   1.210   3.571
10830SOL    HW133389   4.805   1.220   3.650
10830SOL    HW233390   4.840   1.277   3.501
10831SOL     OW33391   3.900   1.093   3.056
10831SOL    HW133392   3.985   1.136   3.085
10831SOL    HW233393   3.918   0.999   3.026
10832SOL     OW33394   0.096   3.769   0.462
10832SOL    HW133395   0.116   3.814   0.548
10832SOL    HW233396   0.033   3.692   0.478
10833SOL     OW33397   0.434   1.216   0.333
10833SOL    HW133398   0.533   1.226   0.344
10833SOL    HW233399   0.398   1.295   0.284
10834SOL     OW33400   6.903   6.644   0.958
10834SOL    HW133401   6.989   6.656   0.909
10834SOL    HW233402   6.827   6.663   0.895
10835SOL     OW33403   6.747   2.549   6.067
10835SOL    HW133404   6.795   2.462   6.072
10835SOL    HW233405   6.766   2.603   6.149
10836SOL     OW33406   0.165   1.810   3.703
10836SOL    HW133407   0.107   1.886   3.676
10836SOL    HW233408   0.252   1.815   3.653
10837SOL     OW33409   0.372   4.171   3.056
10837SOL    HW133410   0.456   4.128   3.025
10837SOL    HW233411   0.295   4.109   3.039
10838SOL     OW33412   6.929   5.630   3.222
10838SOL    HW133413   6.984   5.712   3.210
10838SOL    HW233414   6.838   5.656   3.255
10839SOL     OW33415   4.881   2.793   1.156
10839SOL    HW133416   4.786   2.823   1.160
10839SOL    HW233417   4.941   2.874   1.153
10840SOL     OW33418   3.322   0.905   1.247
10840SOL    HW133419   3.285   0.961   1.321
10840SOL    HW233420   3.422   0.916   1.244
10841SOL     OW33421   1.474   5.234   5.287
10841SOL    HW133422   1.411   5.234   5.209
10841SOL    HW233423   1.495   5.329   5.313
10842SOL     OW33424   5.227   4.523   0.457
10842SOL    HW133425   5.130   4.536   0.477
10842SOL    HW233426   5.279   4.601   0.490
10843SOL     OW33427   2.490   2.278   1.722
10843SOL    HW133428   2.586   2.297   1.705
10843SOL    HW233429   2.478   2.181   1.744
10844SOL     OW33430   1.373   5.566   5.557
10844SOL    HW133431   1.316   5.489   5.585
10844SOL    HW233432   1.321   5.628   5.498
10845SOL     OW33433   4.395   6.478   5.248
10845SOL    HW133434   4.444   6.426   5.178
10845SOL    HW233435   4.344   6.414   5.307
10846SOL     OW33436   5.199   0.878   0.317
10846SOL    HW133437   5.166   0.845   0.405
10846SOL    HW233438   5.250   0.804   0.272
10847SOL     OW33439   1.770   1.096   0.044
10847SOL    HW133440   1.822   1.150   0.109
10847SOL    HW233441   1.806   1.110   6.971
10848SOL     OW33442   1.953   4.380   1.814
10848SOL    HW133443   1.893   4.332   1.750
10848SOL    HW233444   2.024   4.428   1.763
10849SOL     OW33445   2.495   6.440   3.860
10849SOL    HW133446   2.528   6.434   3.954
10849SOL    HW233447   2.403   6.404   3.854
10850SOL     OW33448   3.278   5.517   0.308
10850SOL    HW133449   3.273   5.589   0.377
10850SOL    HW233450   3.198   5.457   0.316
10851SOL     OW33451   2.051   5.124   0.824
10851SOL    HW133452   2.087   5.162   0.909
10851SOL    HW233453   2.010   5.196   0.769
10852SOL     OW33454   2.136   1.756   1.619
10852SOL    HW133455   2.129   1.854   1.638
10852SOL    HW233456   2.169   1.709   1.701
10853SOL     OW33457   2.703   2.106   6.059
10853SOL    HW133458   2.759   2.024   6.044
10853SOL    HW233459   2.709   2.134   6.155
10854SOL     OW33460   3.863   6.125   5.689
10854SOL    HW133461   3.777   6.151   5.732
10854SOL    HW233462   3.893   6.037   5.726
10855SOL     OW33463   3.436   1.606   6.913
10855SOL    HW133464   3.491   1.683   6.880
10855SOL    HW233465   3.497   1.531   6.940
10856SOL     OW33466   0.288   1.025   0.191
10856SOL    HW133467   0.224   0.974   0.248
10856SOL    HW233468   0.346   1.082   0.249
10857SOL     OW33469   6.446   2.440   2.358
10857SOL    HW133470   6.468   2.480   2.447
10857SOL    HW233471   6.503   2.359   2.343
10858SOL     OW33472   2.516   6.000   1.980
10858SOL    HW133473   2.559   5.946   2.053
10858SOL    HW233474   2.550   6.094   1.984
10859SOL     OW33475   1.782   5.372   3.546
10859SOL    HW133476   1.796   5.469   3.531
10859SOL    HW233477   1.725   5.359   3.628
10860SOL     OW33478   6.985   2.460   3.534
10860SOL    HW133479   6.908   2.481   3.595
10860SOL    HW233480   0.015   2.544   3.513
10861SOL     OW33481   3.848   3.070   4.596
10861SOL    HW133482   3.782   3.072   4.672
10861SOL    HW233483   3.846   2.980   4.552
10862SOL     OW33484   1.699   0.578   4.549
10862SOL    HW133485   1.617   0.586   4.606
10862SOL    HW233486   1.711   0.662   4.496
10863SOL     OW33487   3.072   5.855   4.770
10863SOL    HW133488   3.023   5.848   4.684
10863SOL    HW233489   3.008   5.882   4.843
10864SOL     OW33490   3.197   5.951   2.628
10864SOL    HW133491   3.104   5.975   2.654
10864SOL    HW233492   3.213   5.854   2.645
10865SOL     OW33493   5.914   2.259   6.140
10865SOL    HW133494   5.929   2.215   6.228
10865SOL    HW233495   5.872   2.349   6.154
10866SOL     OW33496   5.584   4.882   0.527
10866SOL    HW133497   5.615   4.852   0.617
10866SOL    HW233498   5.492   4.848   0.509
10867SOL     OW33499   3.345   2.600   0.325
10867SOL    HW133500   3.378   2.510   0.353
10867SOL    HW233501   3.247   2.607   0.342
10868SOL     OW33502   2.890   1.913   2.624
10868SOL    HW133503   2.958   1.979   2.593
10868SOL    HW233504   2.920   1.821   2.599
10869NA      NA33505   6.362   2.243   6.099
10870NA      NA33506   4.345   4.654   5.203
10871NA      NA33507   2.457   3.781   1.497
10872NA      NA33508   4.893   3.674   5.239
10873NA      NA33509   4.257   2.328   5.223
10874NA      NA33510   3.720   4.775   1.694
10875NA      NA33511   6.702   5.927   5.211
10876NA      NA33512   3.854   3.817   4.891
10877NA      NA33513   4.486   6.885   0.166
10878NA      NA33514   4.003   6.827   5.249
10879NA      NA33515   6.933   4.871   2.790
10880NA      NA33516   2.684   0.557   2.964
10881NA      NA33517   3.624   4.199   0.964
10882NA      NA33518   3.429   3.525   2.869
   7.01931   7.01931   7.01931
