Generated by trjconv : CNT in water t= 154.00000
33518
    1C        C    1   2.842   2.768   4.746
    1C        C    2   2.895   2.716   4.866
    1C        C    3   2.841   2.767   4.985
    1C        C    4   2.845   2.770   4.261
    1C        C    5   2.899   2.728   4.384
    1C        C    6   2.841   2.771   4.506
    1C        C    7   3.009   2.634   4.623
    1C        C    8   2.894   2.716   4.625
    1C        C    9   3.075   2.604   4.744
    1C        C   10   3.008   2.633   4.865
    1C        C   11   3.183   2.490   4.974
    1C        C   12   3.064   2.564   4.974
    1C        C   13   2.848   2.768   3.772
    1C        C   14   2.897   2.719   3.895
    1C        C   15   2.846   2.770   4.017
    1C        C   16   3.015   2.641   4.138
    1C        C   17   2.898   2.721   4.139
    1C        C   18   3.079   2.613   4.261
    1C        C   19   3.016   2.647   4.382
    1C        C   20   3.211   2.563   4.502
    1C        C   21   3.077   2.606   4.503
    1C        C   22   3.279   2.540   4.624
    1C        C   23   3.208   2.553   4.745
    1C        C   24   3.412   2.484   4.866
    1C        C   25   3.271   2.505   4.863
    1C        C   26   3.489   2.471   4.982
    1C        C   27   2.849   2.768   3.282
    1C        C   28   2.903   2.723   3.404
    1C        C   29   2.850   2.768   3.527
    1C        C   30   3.020   2.644   3.652
    1C        C   31   2.902   2.722   3.650
    1C        C   32   3.080   2.608   3.775
    1C        C   33   3.013   2.639   3.895
    1C        C   34   3.208   2.552   4.014
    1C        C   35   3.078   2.605   4.016
    1C        C   36   3.277   2.537   4.136
    1C        C   37   3.211   2.564   4.258
    1C        C   38   3.416   2.510   4.380
    1C        C   39   3.278   2.540   4.380
    1C        C   40   3.487   2.507   4.502
    1C        C   41   3.416   2.506   4.624
    1C        C   42   3.630   2.485   4.746
    1C        C   43   3.488   2.490   4.745
    1C        C   44   3.705   2.490   4.866
    1C        C   45   3.628   2.479   4.983
    1C        C   46   2.841   2.754   2.794
    1C        C   47   2.895   2.712   2.918
    1C        C   48   2.840   2.756   3.040
    1C        C   49   3.014   2.631   3.163
    1C        C   50   2.899   2.714   3.161
    1C        C   51   3.078   2.601   3.286
    1C        C   52   3.019   2.641   3.408
    1C        C   53   3.209   2.551   3.528
    1C        C   54   3.077   2.601   3.530
    1C        C   55   3.280   2.533   3.649
    1C        C   56   3.210   2.552   3.770
    1C        C   57   3.418   2.509   3.894
    1C        C   58   3.278   2.532   3.892
    1C        C   59   3.488   2.504   4.017
    1C        C   60   3.416   2.512   4.139
    1C        C   61   3.629   2.495   4.262
    1C        C   62   3.488   2.494   4.259
    1C        C   63   3.702   2.505   4.383
    1C        C   64   3.629   2.504   4.503
    1C        C   65   3.835   2.547   4.623
    1C        C   66   3.699   2.508   4.625
    1C        C   67   3.904   2.566   4.745
    1C        C   68   3.841   2.527   4.865
    1C        C   69   4.050   2.587   4.980
    1C        C   70   3.921   2.532   4.979
    1C        C   71   2.822   2.729   2.310
    1C        C   72   2.881   2.688   2.432
    1C        C   73   2.829   2.741   2.552
    1C        C   74   3.009   2.626   2.672
    1C        C   75   2.890   2.701   2.673
    1C        C   76   3.074   2.599   2.795
    1C        C   77   3.016   2.638   2.917
    1C        C   78   3.209   2.554   3.038
    1C        C   79   3.077   2.605   3.040
    1C        C   80   3.277   2.534   3.160
    1C        C   81   3.210   2.551   3.283
    1C        C   82   3.416   2.507   3.405
    1C        C   83   3.278   2.534   3.406
    1C        C   84   3.487   2.496   3.527
    1C        C   85   3.418   2.504   3.650
    1C        C   86   3.630   2.499   3.771
    1C        C   87   3.489   2.498   3.773
    1C        C   88   3.699   2.504   3.894
    1C        C   89   3.629   2.505   4.017
    1C        C   90   3.834   2.551   4.135
    1C        C   91   3.698   2.512   4.140
    1C        C   92   3.903   2.571   4.257
    1C        C   93   3.837   2.546   4.379
    1C        C   94   4.028   2.636   4.499
    1C        C   95   3.904   2.568   4.502
    1C        C   96   4.090   2.673   4.621
    1C        C   97   4.032   2.628   4.742
    1C        C   98   4.190   2.766   4.864
    1C        C   99   4.099   2.656   4.864
    1C        C  100   4.215   2.843   4.978
    1C        C  101   2.822   2.730   2.073
    1C        C  102   2.995   2.594   2.191
    1C        C  103   2.878   2.677   2.190
    1C        C  104   3.064   2.568   2.313
    1C        C  105   3.002   2.616   2.430
    1C        C  106   3.202   2.539   2.551
    1C        C  107   3.070   2.589   2.550
    1C        C  108   3.271   2.521   2.673
    1C        C  109   3.202   2.539   2.795
    1C        C  110   3.412   2.500   2.914
    1C        C  111   3.273   2.522   2.916
    1C        C  112   3.483   2.493   3.036
    1C        C  113   3.414   2.502   3.159
    1C        C  114   3.626   2.497   3.281
    1C        C  115   3.485   2.498   3.282
    1C        C  116   3.696   2.507   3.404
    1C        C  117   3.628   2.497   3.527
    1C        C  118   3.837   2.541   3.648
    1C        C  119   3.700   2.506   3.648
    1C        C  120   3.904   2.567   3.769
    1C        C  121   3.835   2.541   3.890
    1C        C  122   4.026   2.635   4.015
    1C        C  123   3.900   2.570   4.012
    1C        C  124   4.092   2.670   4.135
    1C        C  125   4.030   2.632   4.257
    1C        C  126   4.198   2.764   4.378
    1C        C  127   4.090   2.672   4.378
    1C        C  128   4.245   2.819   4.499
    1C        C  129   4.191   2.771   4.620
    1C        C  130   4.323   2.936   4.740
    1C        C  131   4.240   2.821   4.743
    1C        C  132   4.352   3.004   4.861
    1C        C  133   4.286   2.963   4.977
    1C        C  134   3.170   2.462   2.083
    1C        C  135   3.037   2.507   2.086
    1C        C  136   3.259   2.480   2.189
    1C        C  137   3.197   2.516   2.310
    1C        C  138   3.407   2.478   2.429
    1C        C  139   3.268   2.502   2.431
    1C        C  140   3.481   2.478   2.549
    1C        C  141   3.409   2.491   2.671
    1C        C  142   3.624   2.496   2.792
    1C        C  143   3.483   2.492   2.791
    1C        C  144   3.693   2.504   2.914
    1C        C  145   3.624   2.496   3.037
    1C        C  146   3.832   2.542   3.159
    1C        C  147   3.697   2.500   3.158
    1C        C  148   3.900   2.564   3.281
    1C        C  149   3.833   2.541   3.403
    1C        C  150   4.030   2.623   3.525
    1C        C  151   3.902   2.564   3.524
    1C        C  152   4.086   2.667   3.647
    1C        C  153   4.028   2.633   3.771
    1C        C  154   4.193   2.767   3.890
    1C        C  155   4.085   2.675   3.894
    1C        C  156   4.245   2.816   4.012
    1C        C  157   4.198   2.763   4.134
    1C        C  158   4.335   2.926   4.254
    1C        C  159   4.248   2.815   4.256
    1C        C  160   4.376   2.983   4.377
    1C        C  161   4.334   2.929   4.500
    1C        C  162   4.441   3.116   4.618
    1C        C  163   4.369   2.995   4.620
    1C        C  164   4.469   3.183   4.739
    1C        C  165   4.429   3.122   4.860
    1C        C  166   4.519   3.318   4.971
    1C        C  167   4.475   3.187   4.976
    1C        C  168   3.476   2.436   2.072
    1C        C  169   3.398   2.455   2.188
    1C        C  170   3.617   2.470   2.306
    1C        C  171   3.475   2.462   2.306
    1C        C  172   3.692   2.486   2.425
    1C        C  173   3.622   2.484   2.548
    1C        C  174   3.830   2.536   2.667
    1C        C  175   3.692   2.506   2.668
    1C        C  176   3.896   2.557   2.791
    1C        C  177   3.831   2.535   2.914
    1C        C  178   4.025   2.622   3.033
    1C        C  179   3.898   2.560   3.035
    1C        C  180   4.087   2.658   3.154
    1C        C  181   4.028   2.623   3.278
    1C        C  182   4.195   2.751   3.399
    1C        C  183   4.086   2.661   3.401
    1C        C  184   4.245   2.802   3.521
    1C        C  185   4.194   2.758   3.645
    1C        C  186   4.335   2.919   3.764
    1C        C  187   4.242   2.812   3.766
    1C        C  188   4.375   2.980   3.885
    1C        C  189   4.333   2.926   4.009
    1C        C  190   4.438   3.111   4.129
    1C        C  191   4.374   2.985   4.131
    1C        C  192   4.461   3.177   4.252
    1C        C  193   4.436   3.110   4.374
    1C        C  194   4.505   3.315   4.493
    1C        C  195   4.461   3.180   4.494
    1C        C  196   4.525   3.387   4.612
    1C        C  197   4.512   3.319   4.735
    1C        C  198   4.563   3.534   4.850
    1C        C  199   4.538   3.393   4.854
    1C        C  200   4.587   3.620   4.961
    1C        C  201   3.615   2.427   2.074
    1C        C  202   3.831   2.508   2.181
    1C        C  203   3.695   2.463   2.187
    1C        C  204   3.898   2.540   2.302
    1C        C  205   3.830   2.516   2.423
    1C        C  206   4.019   2.621   2.544
    1C        C  207   3.895   2.554   2.543
    1C        C  208   4.083   2.654   2.665
    1C        C  209   4.022   2.620   2.788
    1C        C  210   4.189   2.753   2.908
    1C        C  211   4.082   2.661   2.909
    1C        C  212   4.245   2.798   3.030
    1C        C  213   4.198   2.747   3.153
    1C        C  214   4.327   2.913   3.272
    1C        C  215   4.244   2.799   3.275
    1C        C  216   4.365   2.972   3.394
    1C        C  217   4.334   2.912   3.519
    1C        C  218   4.434   3.101   3.638
    1C        C  219   4.375   2.973   3.640
    1C        C  220   4.463   3.171   3.757
    1C        C  221   4.441   3.104   3.880
    1C        C  222   4.499   3.307   4.004
    1C        C  223   4.465   3.170   4.003
    1C        C  224   4.510   3.380   4.124
    1C        C  225   4.501   3.312   4.247
    1C        C  226   4.517   3.524   4.364
    1C        C  227   4.516   3.382   4.369
    1C        C  228   4.522   3.596   4.485
    1C        C  229   4.527   3.529   4.609
    1C        C  230   4.502   3.741   4.728
    1C        C  231   4.541   3.604   4.728
    1C        C  232   4.497   3.818   4.846
    1C        C  233   4.546   3.754   4.961
    1C        C  234   4.020   2.605   2.063
    1C        C  235   3.895   2.544   2.062
    1C        C  236   4.083   2.649   2.181
    1C        C  237   4.025   2.605   2.302
    1C        C  238   4.199   2.735   2.420
    1C        C  239   4.083   2.653   2.422
    1C        C  240   4.250   2.784   2.543
    1C        C  241   4.194   2.742   2.665
    1C        C  242   4.336   2.903   2.782
    1C        C  243   4.246   2.794   2.786
    1C        C  244   4.376   2.963   2.904
    1C        C  245   4.337   2.905   3.027
    1C        C  246   4.435   3.094   3.149
    1C        C  247   4.372   2.967   3.149
    1C        C  248   4.455   3.163   3.271
    1C        C  249   4.423   3.100   3.393
    1C        C  250   4.487   3.305   3.513
    1C        C  251   4.451   3.168   3.514
    1C        C  252   4.506   3.375   3.634
    1C        C  253   4.498   3.308   3.759
    1C        C  254   4.528   3.516   3.877
    1C        C  255   4.515   3.376   3.881
    1C        C  256   4.523   3.590   3.998
    1C        C  257   4.518   3.521   4.121
    1C        C  258   4.495   3.734   4.243
    1C        C  259   4.514   3.594   4.242
    1C        C  260   4.472   3.803   4.364
    1C        C  261   4.493   3.734   4.486
    1C        C  262   4.429   3.940   4.604
    1C        C  263   4.477   3.807   4.606
    1C        C  264   4.402   4.010   4.724
    1C        C  265   4.434   3.945   4.845
    1C        C  266   4.320   4.128   4.958
    1C        C  267   4.395   4.011   4.962
    1C        C  268   4.258   2.777   2.061
    1C        C  269   4.197   2.732   2.179
    1C        C  270   4.343   2.890   2.299
    1C        C  271   4.255   2.779   2.298
    1C        C  272   4.381   2.955   2.419
    1C        C  273   4.340   2.893   2.539
    1C        C  274   4.446   3.082   2.663
    1C        C  275   4.379   2.957   2.659
    1C        C  276   4.470   3.153   2.782
    1C        C  277   4.443   3.087   2.904
    1C        C  278   4.502   3.293   3.026
    1C        C  279   4.463   3.157   3.026
    1C        C  280   4.517   3.367   3.146
    1C        C  281   4.492   3.299   3.267
    1C        C  282   4.515   3.511   3.389
    1C        C  283   4.502   3.370   3.389
    1C        C  284   4.518   3.584   3.510
    1C        C  285   4.519   3.515   3.634
    1C        C  286   4.491   3.726   3.752
    1C        C  287   4.520   3.588   3.755
    1C        C  288   4.478   3.796   3.874
    1C        C  289   4.499   3.729   3.997
    1C        C  290   4.428   3.930   4.114
    1C        C  291   4.477   3.798   4.118
    1C        C  292   4.399   3.997   4.236
    1C        C  293   4.428   3.937   4.360
    1C        C  294   4.334   4.128   4.479
    1C        C  295   4.400   4.003   4.482
    1C        C  296   4.291   4.192   4.598
    1C        C  297   4.332   4.133   4.720
    1C        C  298   4.202   4.309   4.839
    1C        C  299   4.290   4.197   4.840
    1C        C  300   4.166   4.392   4.950
    1C        C  301   4.345   2.886   2.063
    1C        C  302   4.466   3.071   2.177
    1C        C  303   4.392   2.948   2.179
    1C        C  304   4.482   3.143   2.299
    1C        C  305   4.444   3.081   2.420
    1C        C  306   4.502   3.286   2.539
    1C        C  307   4.472   3.148   2.541
    1C        C  308   4.516   3.360   2.658
    1C        C  309   4.501   3.290   2.780
    1C        C  310   4.522   3.501   2.899
    1C        C  311   4.513   3.360   2.903
    1C        C  312   4.521   3.574   3.020
    1C        C  313   4.527   3.508   3.145
    1C        C  314   4.486   3.717   3.262
    1C        C  315   4.518   3.580   3.266
    1C        C  316   4.471   3.788   3.383
    1C        C  317   4.491   3.722   3.507
    1C        C  318   4.429   3.926   3.628
    1C        C  319   4.472   3.792   3.628
    1C        C  320   4.398   3.991   3.750
    1C        C  321   4.430   3.929   3.873
    1C        C  322   4.319   4.113   3.991
    1C        C  323   4.398   3.996   3.993
    1C        C  324   4.280   4.172   4.114
    1C        C  325   4.323   4.116   4.236
    1C        C  326   4.191   4.284   4.355
    1C        C  327   4.287   4.181   4.356
    1C        C  328   4.137   4.339   4.474
    1C        C  329   4.192   4.293   4.595
    1C        C  330   4.027   4.431   4.715
    1C        C  331   4.141   4.345   4.715
    1C        C  332   3.971   4.490   4.830
    1C        C  333   4.053   4.476   4.942
    1C        C  334   4.557   3.267   2.063
    1C        C  335   4.528   3.130   2.063
    1C        C  336   4.541   3.351   2.174
    1C        C  337   4.514   3.282   2.294
    1C        C  338   4.525   3.494   2.412
    1C        C  339   4.520   3.353   2.416
    1C        C  340   4.527   3.569   2.532
    1C        C  341   4.530   3.501   2.656
    1C        C  342   4.492   3.710   2.772
    1C        C  343   4.524   3.572   2.777
    1C        C  344   4.478   3.780   2.894
    1C        C  345   4.498   3.713   3.016
    1C        C  346   4.431   3.917   3.138
    1C        C  347   4.474   3.782   3.137
    1C        C  348   4.403   3.987   3.257
    1C        C  349   4.433   3.924   3.380
    1C        C  350   4.324   4.105   3.500
    1C        C  351   4.402   3.987   3.503
    1C        C  352   4.280   4.163   3.621
    1C        C  353   4.318   4.107   3.745
    1C        C  354   4.173   4.263   3.869
    1C        C  355   4.271   4.161   3.867
    1C        C  356   4.125   4.318   3.990
    1C        C  357   4.179   4.271   4.112
    1C        C  358   4.015   4.404   4.232
    1C        C  359   4.134   4.328   4.233
    1C        C  360   3.955   4.449   4.351
    1C        C  361   4.017   4.413   4.473
    1C        C  362   3.830   4.516   4.591
    1C        C  363   3.960   4.459   4.594
    1C        C  364   3.762   4.538   4.713
    1C        C  365   3.840   4.542   4.831
    1C        C  366   3.627   4.586   4.951
    1C        C  367   3.765   4.569   4.946
    1C        C  368   4.508   3.563   2.051
    1C        C  369   4.525   3.491   2.170
    1C        C  370   4.501   3.705   2.286
    1C        C  371   4.518   3.565   2.290
    1C        C  372   4.488   3.779   2.406
    1C        C  373   4.505   3.709   2.527
    1C        C  374   4.429   3.909   2.650
    1C        C  375   4.479   3.777   2.648
    1C        C  376   4.397   3.975   2.770
    1C        C  377   4.433   3.914   2.893
    1C        C  378   4.322   4.096   3.011
    1C        C  379   4.402   3.979   3.015
    1C        C  380   4.273   4.150   3.132
    1C        C  381   4.318   4.100   3.256
    1C        C  382   4.175   4.256   3.379
    1C        C  383   4.277   4.157   3.378
    1C        C  384   4.119   4.302   3.500
    1C        C  385   4.177   4.259   3.622
    1C        C  386   4.009   4.389   3.744
    1C        C  387   4.123   4.306   3.744
    1C        C  388   3.947   4.429   3.864
    1C        C  389   4.008   4.396   3.987
    1C        C  390   3.815   4.479   4.107
    1C        C  391   3.947   4.430   4.111
    1C        C  392   3.750   4.506   4.230
    1C        C  393   3.824   4.503   4.350
    1C        C  394   3.618   4.553   4.473
    1C        C  395   3.757   4.530   4.471
    1C        C  396   3.548   4.567   4.595
    1C        C  397   3.623   4.564   4.714
    1C        C  398   3.410   4.556   4.835
    1C        C  399   3.551   4.571   4.835
    1C        C  400   3.344   4.520   4.953
    1C        C  401   4.497   3.701   2.046
    1C        C  402   4.452   3.912   2.166
    1C        C  403   4.487   3.775   2.165
    1C        C  404   4.413   3.977   2.285
    1C        C  405   4.444   3.913   2.407
    1C        C  406   4.330   4.095   2.526
    1C        C  407   4.407   3.977   2.528
    1C        C  408   4.275   4.146   2.646
    1C        C  409   4.314   4.089   2.769
    1C        C  410   4.172   4.248   2.889
    1C        C  411   4.273   4.149   2.890
    1C        C  412   4.121   4.297   3.011
    1C        C  413   4.173   4.250   3.134
    1C        C  414   3.999   4.371   3.252
    1C        C  415   4.117   4.294   3.256
    1C        C  416   3.938   4.405   3.375
    1C        C  417   3.999   4.377   3.499
    1C        C  418   3.810   4.468   3.622
    1C        C  419   3.941   4.415   3.623
    1C        C  420   3.747   4.502   3.744
    1C        C  421   3.817   4.483   3.865
    1C        C  422   3.608   4.534   3.984
    1C        C  423   3.746   4.503   3.986
    1C        C  424   3.542   4.549   4.108
    1C        C  425   3.612   4.538   4.230
    1C        C  426   3.402   4.548   4.355
    1C        C  427   3.544   4.554   4.353
    1C        C  428   3.332   4.545   4.477
    1C        C  429   3.407   4.554   4.596
    1C        C  430   3.194   4.522   4.722
    1C        C  431   3.334   4.549   4.717
    1C        C  432   3.127   4.494   4.844
    1C        C  433   3.207   4.494   4.958
    1C        C  434   4.378   4.118   2.054
    1C        C  435   4.442   3.994   2.053
    1C        C  436   4.296   4.158   2.165
    1C        C  437   4.334   4.095   2.286
    1C        C  438   4.184   4.252   2.402
    1C        C  439   4.286   4.154   2.405
    1C        C  440   4.121   4.291   2.523
    1C        C  441   4.173   4.244   2.645
    1C        C  442   4.003   4.373   2.765
    1C        C  443   4.120   4.294   2.766
    1C        C  444   3.937   4.405   2.887
    1C        C  445   4.002   4.372   3.008
    1C        C  446   3.812   4.468   3.132
    1C        C  447   3.941   4.410   3.129
    1C        C  448   3.746   4.489   3.255
    1C        C  449   3.813   4.471   3.378
    1C        C  450   3.606   4.523   3.494
    1C        C  451   3.744   4.493   3.499
    1C        C  452   3.538   4.538   3.617
    1C        C  453   3.610   4.534   3.739
    1C        C  454   3.399   4.546   3.864
    1C        C  455   3.540   4.547   3.861
    1C        C  456   3.329   4.536   3.987
    1C        C  457   3.401   4.545   4.108
    1C        C  458   3.197   4.502   4.238
    1C        C  459   3.334   4.534   4.232
    1C        C  460   3.128   4.485   4.360
    1C        C  461   3.195   4.511   4.482
    1C        C  462   2.995   4.434   4.603
    1C        C  463   3.124   4.492   4.603
    1C        C  464   2.931   4.401   4.725
    1C        C  465   2.992   4.444   4.845
    1C        C  466   2.799   4.340   4.960
    1C        C  467   2.908   4.428   4.960
    1C        C  468   4.125   4.287   2.038
    1C        C  469   4.184   4.246   2.158
    1C        C  470   4.002   4.363   2.280
    1C        C  471   4.124   4.289   2.280
    1C        C  472   3.940   4.400   2.401
    1C        C  473   4.003   4.369   2.523
    1C        C  474   3.807   4.457   2.645
    1C        C  475   3.939   4.405   2.643
    1C        C  476   3.742   4.491   2.766
    1C        C  477   3.809   4.464   2.887
    1C        C  478   3.605   4.514   3.011
    1C        C  479   3.744   4.488   3.010
    1C        C  480   3.533   4.524   3.131
    1C        C  481   3.607   4.514   3.251
    1C        C  482   3.393   4.525   3.376
    1C        C  483   3.535   4.526   3.372
    1C        C  484   3.324   4.529   3.499
    1C        C  485   3.397   4.541   3.620
    1C        C  486   3.190   4.502   3.746
    1C        C  487   3.327   4.536   3.742
    1C        C  488   3.126   4.479   3.870
    1C        C  489   3.193   4.499   3.993
    1C        C  490   3.003   4.415   4.116
    1C        C  491   3.128   4.480   4.117
    1C        C  492   2.944   4.380   4.240
    1C        C  493   3.002   4.422   4.362
    1C        C  494   2.822   4.307   4.482
    1C        C  495   2.933   4.394   4.482
    1C        C  496   2.774   4.258   4.606
    1C        C  497   2.817   4.315   4.727
    1C        C  498   2.658   4.170   4.843
    1C        C  499   2.749   4.278   4.845
    1C        C  500   2.599   4.117   4.958
    1C        C  501   4.002   4.352   2.042
    1C        C  502   3.813   4.461   2.157
    1C        C  503   3.941   4.401   2.158
    1C        C  504   3.744   4.479   2.278
    1C        C  505   3.810   4.454   2.401
    1C        C  506   3.603   4.507   2.521
    1C        C  507   3.741   4.478   2.522
    1C        C  508   3.533   4.517   2.643
    1C        C  509   3.604   4.518   2.765
    1C        C  510   3.393   4.523   2.887
    1C        C  511   3.535   4.524   2.888
    1C        C  512   3.321   4.528   3.008
    1C        C  513   3.391   4.532   3.131
    1C        C  514   3.184   4.497   3.255
    1C        C  515   3.322   4.526   3.254
    1C        C  516   3.119   4.475   3.378
    1C        C  517   3.185   4.501   3.500
    1C        C  518   2.994   4.419   3.626
    1C        C  519   3.123   4.477   3.624
    1C        C  520   2.937   4.377   3.749
    1C        C  521   3.001   4.413   3.869
    1C        C  522   2.833   4.289   3.995
    1C        C  523   2.947   4.373   3.993
    1C        C  524   2.786   4.243   4.120
    1C        C  525   2.832   4.294   4.244
    1C        C  526   2.691   4.134   4.364
    1C        C  527   2.771   4.250   4.363
    1C        C  528   2.654   4.076   4.488
    1C        C  529   2.693   4.143   4.606
    1C        C  530   2.581   3.962   4.726
    1C        C  531   2.636   4.093   4.726
    1C        C  532   2.548   3.900   4.850
    1C        C  533   2.535   3.992   4.959
    1C        C  534   3.619   4.558   2.041
    1C        C  535   3.752   4.514   2.042
    1C        C  536   3.536   4.537   2.156
    1C        C  537   3.606   4.511   2.277
    1C        C  538   3.393   4.518   2.400
    1C        C  539   3.534   4.520   2.398
    1C        C  540   3.321   4.510   2.522
    1C        C  541   3.392   4.513   2.644
    1C        C  542   3.182   4.488   2.765
    1C        C  543   3.322   4.510   2.766
    1C        C  544   3.114   4.475   2.888
    1C        C  545   3.183   4.500   3.009
    1C        C  546   2.991   4.411   3.136
    1C        C  547   3.118   4.474   3.132
    1C        C  548   2.934   4.374   3.259
    1C        C  549   2.993   4.410   3.382
    1C        C  550   2.823   4.290   3.504
    1C        C  551   2.932   4.378   3.506
    1C        C  552   2.777   4.237   3.627
    1C        C  553   2.830   4.285   3.749
    1C        C  554   2.705   4.120   3.877
    1C        C  555   2.783   4.237   3.874
    1C        C  556   2.666   4.064   4.001
    1C        C  557   2.704   4.128   4.120
    1C        C  558   2.600   3.942   4.244
    1C        C  559   2.662   4.069   4.242
    1C        C  560   2.564   3.882   4.367
    1C        C  561   2.588   3.951   4.487
    1C        C  562   2.535   3.747   4.615
    1C        C  563   2.559   3.887   4.609
    1C        C  564   2.523   3.678   4.737
    1C        C  565   2.528   3.759   4.854
    1C        C  566   2.532   3.547   4.980
    1C        C  567   2.527   3.686   4.973
    1C        C  568   3.328   4.472   2.044
    1C        C  569   3.396   4.511   2.160
    1C        C  570   3.182   4.473   2.279
    1C        C  571   3.320   4.507   2.280
    1C        C  572   3.115   4.458   2.403
    1C        C  573   3.183   4.479   2.525
    1C        C  574   2.983   4.404   2.647
    1C        C  575   3.110   4.465   2.645
    1C        C  576   2.925   4.370   2.771
    1C        C  577   2.991   4.407   2.891
    1C        C  578   2.823   4.281   3.015
    1C        C  579   2.932   4.370   3.014
    1C        C  580   2.775   4.230   3.138
    1C        C  581   2.826   4.282   3.259
    1C        C  582   2.698   4.117   3.382
    1C        C  583   2.776   4.235   3.383
    1C        C  584   2.662   4.061   3.507
    1C        C  585   2.695   4.123   3.629
    1C        C  586   2.600   3.937   3.755
    1C        C  587   2.664   4.063   3.754
    1C        C  588   2.577   3.870   3.878
    1C        C  589   2.603   3.937   3.999
    1C        C  590   2.538   3.739   4.127
    1C        C  591   2.575   3.875   4.123
    1C        C  592   2.526   3.672   4.251
    1C        C  593   2.531   3.744   4.372
    1C        C  594   2.517   3.533   4.498
    1C        C  595   2.523   3.674   4.495
    1C        C  596   2.523   3.463   4.621
    1C        C  597   2.523   3.536   4.742
    1C        C  598   2.537   3.326   4.863
    1C        C  599   2.535   3.467   4.864
    1C        C  600   2.530   3.245   4.977
    1C        C  601   3.195   4.437   2.044
    1C        C  602   2.981   4.390   2.161
    1C        C  603   3.115   4.440   2.159
    1C        C  604   2.925   4.350   2.286
    1C        C  605   2.989   4.396   2.403
    1C        C  606   2.816   4.274   2.530
    1C        C  607   2.924   4.365   2.525
    1C        C  608   2.767   4.225   2.654
    1C        C  609   2.817   4.280   2.774
    1C        C  610   2.683   4.115   2.898
    1C        C  611   2.769   4.228   2.896
    1C        C  612   2.651   4.054   3.021
    1C        C  613   2.693   4.115   3.142
    1C        C  614   2.597   3.925   3.267
    1C        C  615   2.658   4.052   3.263
    1C        C  616   2.573   3.864   3.392
    1C        C  617   2.600   3.934   3.512
    1C        C  618   2.530   3.734   3.636
    1C        C  619   2.572   3.869   3.635
    1C        C  620   2.517   3.666   3.759
    1C        C  621   2.536   3.735   3.881
    1C        C  622   2.518   3.528   4.010
    1C        C  623   2.527   3.669   4.005
    1C        C  624   2.521   3.457   4.132
    1C        C  625   2.517   3.531   4.253
    1C        C  626   2.540   3.322   4.377
    1C        C  627   2.517   3.462   4.376
    1C        C  628   2.554   3.252   4.498
    1C        C  629   2.541   3.323   4.620
    1C        C  630   2.595   3.118   4.746
    1C        C  631   2.551   3.253   4.742
    1C        C  632   2.616   3.047   4.867
    1C        C  633   2.560   3.108   4.984
    1C        C  634   2.776   4.309   2.056
    1C        C  635   2.891   4.389   2.050
    1C        C  636   2.742   4.234   2.169
    1C        C  637   2.802   4.279   2.289
    1C        C  638   2.676   4.109   2.411
    1C        C  639   2.760   4.223   2.411
    1C        C  640   2.637   4.052   2.534
    1C        C  641   2.681   4.113   2.654
    1C        C  642   2.592   3.922   2.774
    1C        C  643   2.648   4.052   2.777
    1C        C  644   2.571   3.858   2.898
    1C        C  645   2.592   3.926   3.020
    1C        C  646   2.531   3.725   3.149
    1C        C  647   2.568   3.862   3.144
    1C        C  648   2.521   3.656   3.272
    1C        C  649   2.532   3.729   3.392
    1C        C  650   2.512   3.520   3.520
    1C        C  651   2.521   3.661   3.515
    1C        C  652   2.519   3.451   3.643
    1C        C  653   2.515   3.524   3.764
    1C        C  654   2.540   3.317   3.889
    1C        C  655   2.515   3.456   3.888
    1C        C  656   2.555   3.248   4.011
    1C        C  657   2.540   3.317   4.133
    1C        C  658   2.607   3.118   4.258
    1C        C  659   2.558   3.251   4.257
    1C        C  660   2.631   3.052   4.381
    1C        C  661   2.601   3.118   4.502
    1C        C  662   2.702   2.934   4.625
    1C        C  663   2.628   3.054   4.625
    1C        C  664   2.745   2.872   4.745
    1C        C  665   2.701   2.931   4.867
    1C        C  666   2.749   2.871   4.983
    1C        C  667   2.679   4.025   2.051
    1C        C  668   2.689   4.103   2.167
    1C        C  669   2.589   3.916   2.288
    1C        C  670   2.644   4.047   2.288
    1C        C  671   2.557   3.853   2.410
    1C        C  672   2.584   3.921   2.531
    1C        C  673   2.521   3.720   2.659
    1C        C  674   2.560   3.856   2.654
    1C        C  675   2.515   3.651   2.782
    1C        C  676   2.536   3.721   2.903
    1C        C  677   2.519   3.513   3.031
    1C        C  678   2.525   3.654   3.027
    1C        C  679   2.511   3.443   3.154
    1C        C  680   2.513   3.515   3.275
    1C        C  681   2.533   3.307   3.401
    1C        C  682   2.514   3.447   3.399
    1C        C  683   2.552   3.241   3.524
    1C        C  684   2.536   3.311   3.646
    1C        C  685   2.605   3.112   3.771
    1C        C  686   2.554   3.244   3.769
    1C        C  687   2.637   3.049   3.893
    1C        C  688   2.605   3.116   4.014
    1C        C  689   2.708   2.932   4.139
    1C        C  690   2.633   3.052   4.136
    1C        C  691   2.750   2.874   4.260
    1C        C  692   2.707   2.933   4.381
    1C        C  693   2.748   2.877   4.504
    1C        C  694   2.630   3.894   2.054
    1C        C  695   2.525   3.707   2.177
    1C        C  696   2.578   3.837   2.171
    1C        C  697   2.513   3.637   2.299
    1C        C  698   2.522   3.716   2.416
    1C        C  699   2.499   3.507   2.543
    1C        C  700   2.506   3.648   2.538
    1C        C  701   2.511   3.437   2.665
    1C        C  702   2.508   3.510   2.786
    1C        C  703   2.537   3.302   2.911
    1C        C  704   2.518   3.441   2.909
    1C        C  705   2.552   3.235   3.035
    1C        C  706   2.537   3.304   3.158
    1C        C  707   2.599   3.103   3.277
    1C        C  708   2.549   3.236   3.280
    1C        C  709   2.634   3.047   3.402
    1C        C  710   2.609   3.111   3.525
    1C        C  711   2.706   2.926   3.649
    1C        C  712   2.637   3.049   3.648
    1C        C  713   2.754   2.873   3.771
    1C        C  714   2.708   2.927   3.893
    1C        C  715   2.752   2.875   4.017
    1C        C  716   2.447   3.500   2.066
    1C        C  717   2.484   3.635   2.063
    1C        C  718   2.463   3.421   2.184
    1C        C  719   2.488   3.497   2.302
    1C        C  720   2.517   3.290   2.424
    1C        C  721   2.491   3.429   2.425
    1C        C  722   2.537   3.223   2.547
    1C        C  723   2.528   3.297   2.667
    1C        C  724   2.600   3.099   2.789
    1C        C  725   2.548   3.230   2.790
    1C        C  726   2.623   3.034   2.912
    1C        C  727   2.596   3.101   3.033
    1C        C  728   2.707   2.920   3.160
    1C        C  729   2.632   3.040   3.155
    1C        C  730   2.755   2.873   3.284
    1C        C  731   2.710   2.928   3.406
    1C        C  732   2.750   2.867   3.528
    1C        C  733   2.489   3.197   2.071
    1C        C  734   2.492   3.281   2.183
    1C        C  735   2.584   3.086   2.305
    1C        C  736   2.530   3.217   2.304
    1C        C  737   2.614   3.021   2.427
    1C        C  738   2.588   3.091   2.547
    1C        C  739   2.702   2.912   2.670
    1C        C  740   2.632   3.034   2.668
    1C        C  741   2.745   2.858   2.793
    1C        C  742   2.701   2.916   2.915
    1C        C  743   2.748   2.863   3.037
    1C        C  744   2.541   3.068   2.076
    1C        C  745   2.685   2.895   2.187
    1C        C  746   2.600   3.008   2.188
    1C        C  747   2.732   2.839   2.307
    1C        C  748   2.692   2.903   2.426
    1C        C  749   2.736   2.848   2.549
    1C        C  750   2.741   2.843   2.070
    1C        C  751   3.667   2.335   1.971
    1C        O  752   3.755   2.245   1.986
    1C        O  753   3.643   2.371   1.838
    1C        C  754   4.611   3.048   1.972
    1C        O  755   4.579   3.013   1.855
    1C        O  756   4.737   3.002   2.011
    1C        C  757   4.467   4.216   1.987
    1C        O  758   4.564   4.276   2.039
    1C        O  759   4.474   4.240   1.849
    1C        C  760   3.594   4.685   1.969
    1C        O  761   3.683   4.773   1.954
    1C        O  762   3.520   4.681   1.850
    1C        C  763   2.888   4.504   1.957
    1C        O  764   2.927   4.488   1.838
    1C        O  765   2.835   4.629   1.991
    1C        C  766   2.345   3.474   1.962
    1C        O  767   2.373   3.478   1.839
    1C        O  768   2.215   3.423   1.977
    1C        C  769   4.694   3.578   5.055
    1C        O  770   4.674   3.561   5.178
    1C        O  771   4.829   3.602   5.029
    1C        C  772   4.274   4.437   5.040
    1C        O  773   4.242   4.446   5.161
    1C        O  774   4.354   4.545   5.001
    1C        C  775   4.147   2.521   5.070
    1C        O  776   4.201   2.414   5.031
    1C        O  777   4.110   2.505   5.205
    1C        C  778   2.899   4.531   5.065
    1C        O  779   2.807   4.617   5.069
    1C        O  780   2.946   4.496   5.193
    1C        C  781   2.484   3.030   5.084
    1C        O  782   2.358   3.022   5.083
    1C        O  783   2.535   3.030   5.213
    1C        C  784   2.405   3.992   5.030
    1C        O  785   2.305   4.061   4.997
    1C        O  786   2.417   3.973   5.168
    1C        C  787   2.952   2.419   2.003
    1C        O  788   2.935   2.443   1.881
    1C        O  789   2.879   2.312   2.055
    1C        C  790   3.188   2.370   5.061
    1C        O  791   3.130   2.263   5.029
    1C        O  792   3.171   2.392   5.199
    1C        H  793   4.251   3.035   5.049
    1C        H  794   4.167   2.827   5.072
    1C        H  795   4.481   3.131   5.067
    1C        H  796   4.522   3.367   5.066
    1C        H  797   4.503   3.788   5.053
    1C        H  798   4.446   3.989   5.054
    1C        H  799   4.294   4.173   5.052
    1C        H  800   4.062   4.561   5.007
    1C        H  801   3.821   4.580   5.037
    1C        H  802   3.597   4.655   5.027
    1C        H  803   3.399   4.487   5.038
    1C        H  804   3.164   4.487   5.056
    1C        H  805   3.876   2.516   5.075
    1C        H  806   3.677   2.434   5.067
    1C        H  807   3.017   2.564   5.070
    1C        H  808   3.442   2.493   5.075
    1C        H  809   2.859   2.725   5.082
    1C        H  810   2.763   2.932   5.070
    1C        H  811   2.450   3.276   5.041
    1C        H  812   2.571   3.511   5.073
    1C        H  813   2.518   3.743   5.063
    1C        H  814   2.592   4.180   5.044
    1C        H  815   2.772   4.307   5.058
    1C        H  816   2.666   2.827   1.994
    1C        H  817   2.826   2.672   1.983
    1C        H  818   3.197   2.389   2.009
    1C        H  819   3.429   2.417   1.978
    1C        H  820   3.846   2.533   1.967
    1C        H  821   4.068   2.601   1.968
    1C        H  822   4.277   2.700   1.989
    1C        H  823   4.379   2.921   1.968
    1C        H  824   4.567   3.310   1.966
    1C        H  825   4.468   3.511   1.966
    1C        H  826   4.538   3.747   1.959
    1C        H  827   3.797   4.513   1.945
    1C        H  828   3.933   4.312   1.970
    1C        H  829   4.137   4.220   1.956
    1C        H  830   4.426   3.946   1.958
    1C        H  831   2.699   3.824   2.009
    1C        H  832   2.668   4.081   1.960
    1C        H  833   2.702   4.322   1.979
    1C        H  834   3.393   4.423   1.974
    1C        H  835   3.150   4.452   1.948
    1C        H  836   2.531   3.014   1.984
    1C        H  837   2.444   3.231   1.980
    1C        H  838   2.458   3.690   1.975
    2V3OU   H29  839   2.810   3.546   1.689
    2V3OU   C27  840   2.786   3.501   1.789
    2V3OU   H27  841   2.724   3.573   1.849
    2V3OU   H28  842   2.734   3.407   1.759
    2V3OU   O11  843   2.914   3.483   1.850
    2V3OU   C15  844   2.924   3.393   1.955
    2V3OU   C13  845   3.053   3.371   2.008
    2V3OU   C14  846   3.082   3.271   2.101
    2V3OU   C16  847   2.978   3.191   2.147
    2V3OU    H6  848   2.992   3.103   2.212
    2V3OU   C12  849   3.216   3.234   2.151
    2V3OU    O2  850   3.234   3.131   2.220
    2V3OU   C10  851   3.330   3.306   2.093
    2V3OU    C8  852   3.460   3.270   2.126
    2V3OU   O10  853   3.494   3.159   2.197
    2V3OU   H26  854   3.409   3.124   2.229
    2V3OU    C6  855   3.566   3.351   2.077
    2V3OU    C5  856   3.539   3.470   2.011
    2V3OU    C4  857   3.705   3.296   2.074
    2V3OU    H4  858   3.726   3.227   2.161
    2V3OU    H5  859   3.713   3.227   1.984
    2V3OU    C2  860   3.816   3.400   2.075
    2V3OU    O6  861   3.802   3.472   2.198
    2V3OU   H21  862   3.761   3.558   2.181
    2V3OU    C3  863   3.785   3.500   1.962
    2V3OU    H2  864   3.863   3.580   1.954
    2V3OU    H3  865   3.784   3.449   1.863
    2V3OU   C25  866   3.952   3.331   2.063
    2V3OU    O7  867   4.007   3.296   1.959
    2V3OU   C26  868   4.034   3.292   2.185
    2V3OU   H22  869   4.066   3.377   2.251
    2V3OU   H23  870   4.121   3.229   2.154
    2V3OU    O8  871   3.960   3.209   2.272
    2V3OU   H24  872   3.919   3.267   2.338
    2V3OU    C1  873   3.649   3.566   1.976
    2V3OU    H1  874   3.625   3.618   1.878
    2V3OU    O3  875   3.658   3.653   2.088
    2V3OU   C19  876   3.622   3.791   2.072
    2V3OU    H9  877   3.530   3.802   2.008
    2V3OU    O4  878   3.712   3.846   1.979
    2V3OU   C20  879   3.842   3.878   2.030
    2V3OU   H10  880   3.895   3.779   2.040
    2V3OU   C24  881   3.609   3.855   2.210
    2V3OU   H16  882   3.542   3.797   2.278
    2V3OU   H17  883   3.568   3.959   2.199
    2V3OU   C23  884   3.750   3.880   2.267
    2V3OU   H15  885   3.793   3.777   2.289
    2V3OU    N1  886   3.734   3.956   2.389
    2V3OU   H19  887   3.806   3.929   2.453
    2V3OU   H20  888   3.645   3.936   2.429
    2V3OU   C21  889   3.847   3.948   2.166
    2V3OU   H11  890   3.949   3.929   2.211
    2V3OU    O5  891   3.830   4.089   2.165
    2V3OU   H18  892   3.776   4.099   2.244
    2V3OU   C22  893   3.910   3.954   1.917
    2V3OU   H12  894   3.862   4.053   1.899
    2V3OU   H13  895   3.907   3.893   1.823
    2V3OU   H14  896   4.020   3.961   1.941
    2V3OU   C11  897   3.159   3.472   1.996
    2V3OU    O1  898   3.132   3.579   1.937
    2V3OU    C9  899   3.297   3.427   2.025
    2V3OU    C7  900   3.403   3.506   1.983
    2V3OU    O9  901   3.387   3.621   1.909
    2V3OU   H25  902   3.293   3.636   1.888
    2V3OU   C17  903   2.820   3.312   2.005
    2V3OU    H7  904   2.717   3.348   2.005
    2V3OU   C18  905   2.851   3.209   2.094
    2V3OU    H8  906   2.764   3.159   2.139
    3SOL     OW  907   2.044   4.151   0.883
    3SOL    HW1  908   2.131   4.136   0.836
    3SOL    HW2  909   2.019   4.068   0.935
    4SOL     OW  910   6.798   5.269   2.196
    4SOL    HW1  911   6.832   5.270   2.102
    4SOL    HW2  912   6.826   5.353   2.242
    5SOL     OW  913   3.779   1.622   2.234
    5SOL    HW1  914   3.835   1.705   2.240
    5SOL    HW2  915   3.818   1.552   2.293
    6SOL     OW  916   3.837   1.037   2.162
    6SOL    HW1  917   3.904   1.108   2.140
    6SOL    HW2  918   3.761   1.042   2.098
    7SOL     OW  919   6.404   3.250   1.660
    7SOL    HW1  920   6.312   3.217   1.638
    7SOL    HW2  921   6.404   3.350   1.659
    8SOL     OW  922   2.587   6.831   5.200
    8SOL    HW1  923   2.552   6.908   5.253
    8SOL    HW2  924   2.633   6.865   5.119
    9SOL     OW  925   0.947   5.687   6.315
    9SOL    HW1  926   0.918   5.603   6.269
    9SOL    HW2  927   0.932   5.765   6.254
   10SOL     OW  928   1.249   4.662   5.396
   10SOL    HW1  929   1.346   4.640   5.387
   10SOL    HW2  930   1.233   4.755   5.363
   11SOL     OW  931   2.772   0.452   0.452
   11SOL    HW1  932   2.706   0.379   0.472
   11SOL    HW2  933   2.728   0.541   0.463
   12SOL     OW  934   3.948   5.947   4.179
   12SOL    HW1  935   3.957   5.853   4.145
   12SOL    HW2  936   3.947   5.946   4.279
   13SOL     OW  937   3.762   6.102   4.100
   13SOL    HW1  938   3.713   6.033   4.047
   13SOL    HW2  939   3.838   6.058   4.148
   14SOL     OW  940   4.725   5.637   6.774
   14SOL    HW1  941   4.801   5.572   6.772
   14SOL    HW2  942   4.639   5.586   6.774
   15SOL     OW  943   1.642   5.452   0.157
   15SOL    HW1  944   1.635   5.536   0.211
   15SOL    HW2  945   1.590   5.380   0.203
   16SOL     OW  946   5.699   1.974   5.901
   16SOL    HW1  947   5.738   1.893   5.945
   16SOL    HW2  948   5.730   1.979   5.807
   17SOL     OW  949   6.234   5.947   4.721
   17SOL    HW1  950   6.190   5.987   4.801
   17SOL    HW2  951   6.176   5.962   4.641
   18SOL     OW  952   2.834   1.041   6.807
   18SOL    HW1  953   2.853   1.124   6.754
   18SOL    HW2  954   2.779   0.978   6.752
   19SOL     OW  955   0.296   6.993   2.975
   19SOL    HW1  956   0.384   6.967   2.937
   19SOL    HW2  957   0.307   0.050   3.033
   20SOL     OW  958   3.336   1.681   4.169
   20SOL    HW1  959   3.269   1.753   4.152
   20SOL    HW2  960   3.403   1.678   4.095
   21SOL     OW  961   3.235   2.142   2.406
   21SOL    HW1  962   3.320   2.165   2.454
   21SOL    HW2  963   3.164   2.207   2.432
   22SOL     OW  964   1.916   0.163   6.646
   22SOL    HW1  965   1.840   0.217   6.611
   22SOL    HW2  966   1.965   0.217   6.715
   23SOL     OW  967   4.409   6.592   3.628
   23SOL    HW1  968   4.397   6.628   3.536
   23SOL    HW2  969   4.452   6.502   3.623
   24SOL     OW  970   5.275   1.699   4.093
   24SOL    HW1  971   5.227   1.631   4.149
   24SOL    HW2  972   5.332   1.756   4.151
   25SOL     OW  973   3.102   5.795   6.206
   25SOL    HW1  974   3.051   5.779   6.122
   25SOL    HW2  975   3.194   5.757   6.196
   26SOL     OW  976   6.148   1.214   1.034
   26SOL    HW1  977   6.190   1.302   1.010
   26SOL    HW2  978   6.080   1.229   1.106
   27SOL     OW  979   0.394   1.012   2.023
   27SOL    HW1  980   0.324   0.953   2.062
   27SOL    HW2  981   0.442   1.060   2.096
   28SOL     OW  982   3.908   0.753   0.251
   28SOL    HW1  983   3.834   0.789   0.308
   28SOL    HW2  984   3.982   0.720   0.309
   29SOL     OW  985   5.285   2.440   1.743
   29SOL    HW1  986   5.376   2.401   1.730
   29SOL    HW2  987   5.281   2.484   1.833
   30SOL     OW  988   3.592   0.016   5.177
   30SOL    HW1  989   3.564   0.017   5.081
   30SOL    HW2  990   3.594   0.110   5.212
   31SOL     OW  991   1.112   1.992   5.870
   31SOL    HW1  992   1.177   1.972   5.796
   31SOL    HW2  993   1.130   2.083   5.906
   32SOL     OW  994   0.563   1.462   3.072
   32SOL    HW1  995   0.566   1.561   3.084
   32SOL    HW2  996   0.608   1.417   3.149
   33SOL     OW  997   2.205   3.336   6.832
   33SOL    HW1  998   2.145   3.381   6.766
   33SOL    HW2  999   2.278   3.288   6.783
   34SOL     OW 1000   2.181   1.032   3.961
   34SOL    HW1 1001   2.096   1.007   3.914
   34SOL    HW2 1002   2.186   1.132   3.967
   35SOL     OW 1003   3.854   2.188   6.723
   35SOL    HW1 1004   3.865   2.188   6.823
   35SOL    HW2 1005   3.796   2.111   6.696
   36SOL     OW 1006   0.874   0.747   6.450
   36SOL    HW1 1007   0.861   0.676   6.381
   36SOL    HW2 1008   0.943   0.718   6.517
   37SOL     OW 1009   2.336   0.473   0.602
   37SOL    HW1 1010   2.346   0.429   0.692
   37SOL    HW2 1011   2.239   0.478   0.578
   38SOL     OW 1012   0.600   5.116   3.518
   38SOL    HW1 1013   0.507   5.080   3.524
   38SOL    HW2 1014   0.621   5.139   3.422
   39SOL     OW 1015   6.513   4.433   6.464
   39SOL    HW1 1016   6.591   4.488   6.495
   39SOL    HW2 1017   6.482   4.465   6.375
   40SOL     OW 1018   6.191   2.092   1.458
   40SOL    HW1 1019   6.181   2.025   1.384
   40SOL    HW2 1020   6.152   2.179   1.430
   41SOL     OW 1021   1.422   6.473   4.229
   41SOL    HW1 1022   1.418   6.374   4.244
   41SOL    HW2 1023   1.352   6.518   4.284
   42SOL     OW 1024   3.106   6.361   6.349
   42SOL    HW1 1025   3.114   6.461   6.342
   42SOL    HW2 1026   3.018   6.332   6.312
   43SOL     OW 1027   5.981   6.362   5.741
   43SOL    HW1 1028   5.891   6.402   5.761
   43SOL    HW2 1029   5.970   6.284   5.679
   44SOL     OW 1030   6.308   2.467   6.191
   44SOL    HW1 1031   6.300   2.460   6.091
   44SOL    HW2 1032   6.364   2.546   6.214
   45SOL     OW 1033   3.262   0.727   3.668
   45SOL    HW1 1034   3.319   0.733   3.586
   45SOL    HW2 1035   3.272   0.636   3.709
   46SOL     OW 1036   1.335   3.462   4.269
   46SOL    HW1 1037   1.269   3.537   4.272
   46SOL    HW2 1038   1.394   3.472   4.189
   47SOL     OW 1039   5.103   3.919   3.029
   47SOL    HW1 1040   5.148   4.002   2.997
   47SOL    HW2 1041   5.148   3.885   3.111
   48SOL     OW 1042   0.552   2.970   5.140
   48SOL    HW1 1043   0.619   2.901   5.112
   48SOL    HW2 1044   0.542   2.969   5.239
   49SOL     OW 1045   4.579   4.011   1.677
   49SOL    HW1 1046   4.558   4.080   1.745
   49SOL    HW2 1047   4.576   4.052   1.586
   50SOL     OW 1048   6.342   2.374   5.610
   50SOL    HW1 1049   6.422   2.358   5.553
   50SOL    HW2 1050   6.309   2.286   5.646
   51SOL     OW 1051   3.299   6.025   2.942
   51SOL    HW1 1052   3.267   5.944   2.891
   51SOL    HW2 1053   3.257   6.107   2.903
   52SOL     OW 1054   4.821   2.039   3.835
   52SOL    HW1 1055   4.819   1.963   3.900
   52SOL    HW2 1056   4.879   2.112   3.871
   53SOL     OW 1057   4.578   0.685   4.341
   53SOL    HW1 1058   4.515   0.613   4.367
   53SOL    HW2 1059   4.662   0.678   4.396
   54SOL     OW 1060   3.817   5.075   0.839
   54SOL    HW1 1061   3.815   5.103   0.935
   54SOL    HW2 1062   3.743   5.010   0.821
   55SOL     OW 1063   3.510   1.447   6.422
   55SOL    HW1 1064   3.475   1.376   6.483
   55SOL    HW2 1065   3.443   1.463   6.349
   56SOL     OW 1066   1.385   0.583   1.481
   56SOL    HW1 1067   1.354   0.678   1.488
   56SOL    HW2 1068   1.458   0.567   1.547
   57SOL     OW 1069   5.088   0.891   1.349
   57SOL    HW1 1070   5.149   0.844   1.414
   57SOL    HW2 1071   5.095   0.847   1.260
   58SOL     OW 1072   6.822   6.760   5.695
   58SOL    HW1 1073   6.842   6.709   5.611
   58SOL    HW2 1074   6.723   6.777   5.700
   59SOL     OW 1075   2.020   1.156   5.904
   59SOL    HW1 1076   1.970   1.171   5.819
   59SOL    HW2 1077   1.956   1.145   5.980
   60SOL     OW 1078   6.179   0.673   5.911
   60SOL    HW1 1079   6.236   0.681   5.829
   60SOL    HW2 1080   6.226   0.617   5.979
   61SOL     OW 1081   5.341   1.332   4.598
   61SOL    HW1 1082   5.362   1.276   4.518
   61SOL    HW2 1083   5.361   1.428   4.578
   62SOL     OW 1084   0.704   0.992   3.488
   62SOL    HW1 1085   0.607   1.000   3.510
   62SOL    HW2 1086   0.755   1.067   3.531
   63SOL     OW 1087   6.281   1.606   3.587
   63SOL    HW1 1088   6.220   1.539   3.631
   63SOL    HW2 1089   6.368   1.562   3.567
   64SOL     OW 1090   0.318   4.162   6.618
   64SOL    HW1 1091   0.245   4.224   6.646
   64SOL    HW2 1092   0.350   4.188   6.526
   65SOL     OW 1093   6.488   4.294   5.083
   65SOL    HW1 1094   6.413   4.322   5.023
   65SOL    HW2 1095   6.450   4.253   5.167
   66SOL     OW 1096   3.658   0.529   6.528
   66SOL    HW1 1097   3.634   0.623   6.505
   66SOL    HW2 1098   3.728   0.496   6.465
   67SOL     OW 1099   6.033   5.066   5.270
   67SOL    HW1 1100   6.022   4.991   5.335
   67SOL    HW2 1101   5.971   5.141   5.295
   68SOL     OW 1102   6.196   0.592   6.395
   68SOL    HW1 1103   6.265   0.526   6.427
   68SOL    HW2 1104   6.235   0.648   6.322
   69SOL     OW 1105   1.660   3.920   6.555
   69SOL    HW1 1106   1.720   3.979   6.500
   69SOL    HW2 1107   1.650   3.831   6.510
   70SOL     OW 1108   6.577   5.206   3.256
   70SOL    HW1 1109   6.631   5.278   3.301
   70SOL    HW2 1110   6.524   5.245   3.182
   71SOL     OW 1111   3.429   2.115   2.592
   71SOL    HW1 1112   3.410   2.151   2.684
   71SOL    HW2 1113   3.527   2.099   2.582
   72SOL     OW 1114   3.201   5.883   4.848
   72SOL    HW1 1115   3.279   5.946   4.854
   72SOL    HW2 1116   3.234   5.789   4.854
   73SOL     OW 1117   3.314   1.627   0.623
   73SOL    HW1 1118   3.304   1.588   0.531
   73SOL    HW2 1119   3.342   1.723   0.616
   74SOL     OW 1120   5.299   6.535   6.424
   74SOL    HW1 1121   5.381   6.484   6.449
   74SOL    HW2 1122   5.309   6.630   6.451
   75SOL     OW 1123   3.580   6.671   5.951
   75SOL    HW1 1124   3.535   6.602   5.895
   75SOL    HW2 1125   3.547   6.762   5.925
   76SOL     OW 1126   1.926   2.822   1.068
   76SOL    HW1 1127   1.997   2.820   1.139
   76SOL    HW2 1128   1.836   2.828   1.110
   77SOL     OW 1129   4.702   6.246   4.681
   77SOL    HW1 1130   4.754   6.331   4.695
   77SOL    HW2 1131   4.728   6.207   4.592
   78SOL     OW 1132   6.183   0.384   5.674
   78SOL    HW1 1133   6.179   0.363   5.576
   78SOL    HW2 1134   6.100   0.434   5.700
   79SOL     OW 1135   3.032   6.928   0.344
   79SOL    HW1 1136   2.995   6.865   0.413
   79SOL    HW2 1137   3.130   6.941   0.359
   80SOL     OW 1138   5.654   1.345   4.497
   80SOL    HW1 1139   5.610   1.279   4.436
   80SOL    HW2 1140   5.718   1.297   4.557
   81SOL     OW 1141   2.242   0.283   2.205
   81SOL    HW1 1142   2.190   0.358   2.163
   81SOL    HW2 1143   2.216   0.196   2.163
   82SOL     OW 1144   0.224   5.511   0.524
   82SOL    HW1 1145   0.309   5.476   0.563
   82SOL    HW2 1146   0.194   5.451   0.449
   83SOL     OW 1147   6.572   6.948   0.445
   83SOL    HW1 1148   6.669   6.924   0.439
   83SOL    HW2 1149   6.554   6.993   0.532
   84SOL     OW 1150   4.941   3.440   3.358
   84SOL    HW1 1151   4.942   3.369   3.288
   84SOL    HW2 1152   4.940   3.398   3.449
   85SOL     OW 1153   1.449   1.639   5.525
   85SOL    HW1 1154   1.441   1.543   5.553
   85SOL    HW2 1155   1.362   1.671   5.488
   86SOL     OW 1156   0.771   0.180   5.718
   86SOL    HW1 1157   0.864   0.145   5.706
   86SOL    HW2 1158   0.728   0.191   5.628
   87SOL     OW 1159   5.115   3.307   0.452
   87SOL    HW1 1160   5.059   3.302   0.535
   87SOL    HW2 1161   5.080   3.380   0.393
   88SOL     OW 1162   4.384   1.779   6.258
   88SOL    HW1 1163   4.369   1.739   6.349
   88SOL    HW2 1164   4.372   1.879   6.263
   89SOL     OW 1165   1.200   3.193   6.640
   89SOL    HW1 1166   1.205   3.199   6.740
   89SOL    HW2 1167   1.127   3.253   6.606
   90SOL     OW 1168   4.739   6.423   3.789
   90SOL    HW1 1169   4.665   6.412   3.855
   90SOL    HW2 1170   4.749   6.520   3.766
   91SOL     OW 1171   4.649   4.241   4.111
   91SOL    HW1 1172   4.678   4.182   4.187
   91SOL    HW2 1173   4.589   4.313   4.146
   92SOL     OW 1174   3.090   4.250   0.673
   92SOL    HW1 1175   3.113   4.153   0.681
   92SOL    HW2 1176   3.020   4.262   0.602
   93SOL     OW 1177   2.340   4.458   6.474
   93SOL    HW1 1178   2.413   4.400   6.438
   93SOL    HW2 1179   2.265   4.400   6.505
   94SOL     OW 1180   2.616   6.346   6.480
   94SOL    HW1 1181   2.576   6.357   6.571
   94SOL    HW2 1182   2.543   6.336   6.412
   95SOL     OW 1183   0.796   1.539   2.772
   95SOL    HW1 1184   0.797   1.544   2.872
   95SOL    HW2 1185   0.712   1.580   2.737
   96SOL     OW 1186   2.945   6.874   5.711
   96SOL    HW1 1187   2.856   6.905   5.679
   96SOL    HW2 1188   3.008   6.951   5.715
   97SOL     OW 1189   0.721   4.004   5.664
   97SOL    HW1 1190   0.695   3.919   5.618
   97SOL    HW2 1191   0.653   4.028   5.732
   98SOL     OW 1192   6.673   4.026   0.010
   98SOL    HW1 1193   6.623   3.959   0.065
   98SOL    HW2 1194   6.717   4.093   0.071
   99SOL     OW 1195   4.397   3.936   1.060
   99SOL    HW1 1196   4.485   3.981   1.075
   99SOL    HW2 1197   4.328   3.976   1.122
  100SOL     OW 1198   0.664   6.986   5.854
  100SOL    HW1 1199   0.692   6.976   5.950
  100SOL    HW2 1200   0.680   0.057   5.825
  101SOL     OW 1201   1.558   5.691   2.717
  101SOL    HW1 1202   1.639   5.689   2.776
  101SOL    HW2 1203   1.569   5.764   2.649
  102SOL     OW 1204   4.971   0.591   2.776
  102SOL    HW1 1205   4.884   0.559   2.815
  102SOL    HW2 1206   4.958   0.680   2.733
  103SOL     OW 1207   3.875   0.912   2.417
  103SOL    HW1 1208   3.879   0.963   2.332
  103SOL    HW2 1209   3.825   0.826   2.403
  104SOL     OW 1210   0.557   5.167   2.609
  104SOL    HW1 1211   0.479   5.229   2.599
  104SOL    HW2 1212   0.625   5.209   2.669
  105SOL     OW 1213   6.317   1.921   6.430
  105SOL    HW1 1214   6.329   1.847   6.364
  105SOL    HW2 1215   6.219   1.937   6.445
  106SOL     OW 1216   3.339   6.317   5.117
  106SOL    HW1 1217   3.366   6.221   5.105
  106SOL    HW2 1218   3.416   6.376   5.093
  107SOL     OW 1219   1.814   2.065   2.073
  107SOL    HW1 1220   1.780   2.056   1.980
  107SOL    HW2 1221   1.906   2.025   2.079
  108SOL     OW 1222   4.059   4.707   6.562
  108SOL    HW1 1223   4.002   4.784   6.592
  108SOL    HW2 1224   4.041   4.628   6.619
  109SOL     OW 1225   0.500   1.451   1.386
  109SOL    HW1 1226   0.418   1.495   1.349
  109SOL    HW2 1227   0.573   1.519   1.396
  110SOL     OW 1228   3.631   6.647   5.524
  110SOL    HW1 1229   3.607   6.701   5.443
  110SOL    HW2 1230   3.594   6.554   5.513
  111SOL     OW 1231   3.251   0.623   5.506
  111SOL    HW1 1232   3.249   0.536   5.457
  111SOL    HW2 1233   3.338   0.669   5.488
  112SOL     OW 1234   6.121   6.237   6.206
  112SOL    HW1 1235   6.159   6.320   6.166
  112SOL    HW2 1236   6.026   6.224   6.175
  113SOL     OW 1237   6.707   4.994   3.153
  113SOL    HW1 1238   6.674   5.083   3.182
  113SOL    HW2 1239   6.646   4.923   3.189
  114SOL     OW 1240   0.801   0.439   1.192
  114SOL    HW1 1241   0.789   0.391   1.279
  114SOL    HW2 1242   0.721   0.423   1.134
  115SOL     OW 1243   3.734   1.436   4.161
  115SOL    HW1 1244   3.686   1.353   4.188
  115SOL    HW2 1245   3.667   1.507   4.138
  116SOL     OW 1246   6.272   5.184   2.395
  116SOL    HW1 1247   6.358   5.161   2.350
  116SOL    HW2 1248   6.222   5.251   2.339
  117SOL     OW 1249   1.264   1.482   6.374
  117SOL    HW1 1250   1.327   1.452   6.303
  117SOL    HW2 1251   1.221   1.568   6.347
  118SOL     OW 1252   1.045   1.364   2.129
  118SOL    HW1 1253   1.138   1.365   2.165
  118SOL    HW2 1254   1.047   1.335   2.033
  119SOL     OW 1255   1.652   2.412   6.093
  119SOL    HW1 1256   1.652   2.312   6.096
  119SOL    HW2 1257   1.696   2.448   6.175
  120SOL     OW 1258   6.798   6.828   0.307
  120SOL    HW1 1259   6.724   6.812   0.241
  120SOL    HW2 1260   6.832   6.922   0.295
  121SOL     OW 1261   2.384   4.022   6.834
  121SOL    HW1 1262   2.403   4.082   6.756
  121SOL    HW2 1263   2.441   4.048   6.911
  122SOL     OW 1264   1.657   4.496   6.314
  122SOL    HW1 1265   1.748   4.529   6.341
  122SOL    HW2 1266   1.632   4.418   6.370
  123SOL     OW 1267   0.588   2.407   1.756
  123SOL    HW1 1268   0.493   2.438   1.754
  123SOL    HW2 1269   0.602   2.340   1.684
  124SOL     OW 1270   5.409   2.736   0.116
  124SOL    HW1 1271   5.491   2.786   0.143
  124SOL    HW2 1272   5.349   2.725   0.195
  125SOL     OW 1273   2.215   2.060   1.861
  125SOL    HW1 1274   2.150   2.020   1.796
  125SOL    HW2 1275   2.306   2.024   1.843
  126SOL     OW 1276   2.289   4.111   0.757
  126SOL    HW1 1277   2.311   4.203   0.792
  126SOL    HW2 1278   2.359   4.046   0.788
  127SOL     OW 1279   0.140   5.485   6.368
  127SOL    HW1 1280   0.165   5.483   6.465
  127SOL    HW2 1281   0.200   5.424   6.317
  128SOL     OW 1282   4.509   2.446   1.511
  128SOL    HW1 1283   4.442   2.476   1.578
  128SOL    HW2 1284   4.473   2.366   1.462
  129SOL     OW 1285   4.307   3.853   6.004
  129SOL    HW1 1286   4.366   3.901   6.068
  129SOL    HW2 1287   4.326   3.884   5.911
  130SOL     OW 1288   0.505   0.997   4.047
  130SOL    HW1 1289   0.553   0.922   4.001
  130SOL    HW2 1290   0.435   0.960   4.108
  131SOL     OW 1291   5.749   1.259   2.157
  131SOL    HW1 1292   5.702   1.319   2.092
  131SOL    HW2 1293   5.693   1.178   2.174
  132SOL     OW 1294   2.536   2.993   0.921
  132SOL    HW1 1295   2.472   3.035   0.985
  132SOL    HW2 1296   2.622   3.043   0.922
  133SOL     OW 1297   5.226   6.184   3.962
  133SOL    HW1 1298   5.160   6.233   3.906
  133SOL    HW2 1299   5.240   6.233   4.048
  134SOL     OW 1300   5.891   1.529   2.186
  134SOL    HW1 1301   5.818   1.492   2.128
  134SOL    HW2 1302   5.891   1.480   2.273
  135SOL     OW 1303   5.802   3.174   1.582
  135SOL    HW1 1304   5.731   3.140   1.644
  135SOL    HW2 1305   5.875   3.216   1.635
  136SOL     OW 1306   3.891   3.815   6.415
  136SOL    HW1 1307   3.880   3.883   6.342
  136SOL    HW2 1308   3.803   3.801   6.460
  137SOL     OW 1309   5.223   0.699   5.094
  137SOL    HW1 1310   5.320   0.704   5.118
  137SOL    HW2 1311   5.212   0.644   5.011
  138SOL     OW 1312   0.414   4.028   3.631
  138SOL    HW1 1313   0.348   3.970   3.584
  138SOL    HW2 1314   0.470   3.972   3.693
  139SOL     OW 1315   2.562   5.972   5.286
  139SOL    HW1 1316   2.496   6.046   5.299
  139SOL    HW2 1317   2.531   5.912   5.213
  140SOL     OW 1318   0.468   6.027   3.233
  140SOL    HW1 1319   0.426   6.068   3.314
  140SOL    HW2 1320   0.429   5.936   3.219
  141SOL     OW 1321   6.238   3.111   5.355
  141SOL    HW1 1322   6.301   3.041   5.389
  141SOL    HW2 1323   6.240   3.190   5.416
  142SOL     OW 1324   1.718   4.941   0.601
  142SOL    HW1 1325   1.738   5.039   0.602
  142SOL    HW2 1326   1.801   4.890   0.622
  143SOL     OW 1327   5.707   4.100   1.544
  143SOL    HW1 1328   5.792   4.117   1.494
  143SOL    HW2 1329   5.729   4.058   1.633
  144SOL     OW 1330   1.390   6.567   6.832
  144SOL    HW1 1331   1.421   6.489   6.886
  144SOL    HW2 1332   1.329   6.535   6.759
  145SOL     OW 1333   0.563   5.004   0.319
  145SOL    HW1 1334   0.507   4.946   0.378
  145SOL    HW2 1335   0.545   5.100   0.341
  146SOL     OW 1336   4.768   0.191   6.057
  146SOL    HW1 1337   4.705   0.263   6.030
  146SOL    HW2 1338   4.861   0.214   6.026
  147SOL     OW 1339   5.856   2.838   6.688
  147SOL    HW1 1340   5.776   2.854   6.629
  147SOL    HW2 1341   5.836   2.871   6.780
  148SOL     OW 1342   0.295   4.810   6.356
  148SOL    HW1 1343   0.290   4.822   6.257
  148SOL    HW2 1344   0.203   4.802   6.394
  149SOL     OW 1345   2.823   1.715   4.354
  149SOL    HW1 1346   2.757   1.654   4.397
  149SOL    HW2 1347   2.775   1.782   4.298
  150SOL     OW 1348   5.509   5.042   6.512
  150SOL    HW1 1349   5.514   5.049   6.412
  150SOL    HW2 1350   5.413   5.038   6.541
  151SOL     OW 1351   3.602   2.151   1.065
  151SOL    HW1 1352   3.616   2.110   0.975
  151SOL    HW2 1353   3.622   2.084   1.136
  152SOL     OW 1354   1.507   1.644   3.972
  152SOL    HW1 1355   1.438   1.705   4.012
  152SOL    HW2 1356   1.539   1.682   3.885
  153SOL     OW 1357   2.617   0.069   1.610
  153SOL    HW1 1358   2.669   0.109   1.534
  153SOL    HW2 1359   2.654   7.003   1.632
  154SOL     OW 1360   0.656   2.697   3.031
  154SOL    HW1 1361   0.647   2.777   3.089
  154SOL    HW2 1362   0.694   2.724   2.942
  155SOL     OW 1363   0.273   0.931   3.247
  155SOL    HW1 1364   0.312   0.859   3.190
  155SOL    HW2 1365   0.174   0.934   3.233
  156SOL     OW 1366   6.949   1.960   1.278
  156SOL    HW1 1367   6.958   1.871   1.233
  156SOL    HW2 1368   6.874   2.011   1.235
  157SOL     OW 1369   6.099   3.521   1.782
  157SOL    HW1 1370   6.111   3.574   1.866
  157SOL    HW2 1371   6.187   3.514   1.735
  158SOL     OW 1372   2.893   0.027   2.211
  158SOL    HW1 1373   2.888   0.103   2.275
  158SOL    HW2 1374   2.877   0.060   2.118
  159SOL     OW 1375   4.402   4.389   1.449
  159SOL    HW1 1376   4.359   4.333   1.520
  159SOL    HW2 1377   4.453   4.464   1.492
  160SOL     OW 1378   6.785   5.134   0.116
  160SOL    HW1 1379   6.764   5.127   0.213
  160SOL    HW2 1380   6.701   5.145   0.063
  161SOL     OW 1381   1.609   5.378   4.657
  161SOL    HW1 1382   1.568   5.358   4.568
  161SOL    HW2 1383   1.615   5.293   4.710
  162SOL     OW 1384   3.912   6.701   0.375
  162SOL    HW1 1385   3.837   6.703   0.309
  162SOL    HW2 1386   3.935   6.606   0.397
  163SOL     OW 1387   5.154   5.742   1.274
  163SOL    HW1 1388   5.062   5.758   1.312
  163SOL    HW2 1389   5.149   5.741   1.175
  164SOL     OW 1390   6.615   4.530   1.127
  164SOL    HW1 1391   6.711   4.507   1.141
  164SOL    HW2 1392   6.604   4.630   1.128
  165SOL     OW 1393   5.586   3.155   0.712
  165SOL    HW1 1394   5.534   3.226   0.759
  165SOL    HW2 1395   5.671   3.138   0.763
  166SOL     OW 1396   0.556   4.868   3.676
  166SOL    HW1 1397   0.565   4.918   3.589
  166SOL    HW2 1398   0.631   4.803   3.684
  167SOL     OW 1399   5.911   2.270   0.623
  167SOL    HW1 1400   5.835   2.224   0.576
  167SOL    HW2 1401   5.953   2.207   0.688
  168SOL     OW 1402   2.776   3.628   0.854
  168SOL    HW1 1403   2.746   3.632   0.759
  168SOL    HW2 1404   2.711   3.676   0.913
  169SOL     OW 1405   3.906   0.283   2.566
  169SOL    HW1 1406   3.998   0.297   2.528
  169SOL    HW2 1407   3.887   0.354   2.634
  170SOL     OW 1408   0.490   1.753   3.618
  170SOL    HW1 1409   0.549   1.685   3.660
  170SOL    HW2 1410   0.539   1.841   3.613
  171SOL     OW 1411   3.922   4.417   0.332
  171SOL    HW1 1412   3.909   4.416   0.233
  171SOL    HW2 1413   4.008   4.462   0.354
  172SOL     OW 1414   6.395   1.854   4.459
  172SOL    HW1 1415   6.493   1.856   4.480
  172SOL    HW2 1416   6.346   1.808   4.532
  173SOL     OW 1417   6.508   1.575   4.000
  173SOL    HW1 1418   6.581   1.618   4.053
  173SOL    HW2 1419   6.455   1.645   3.952
  174SOL     OW 1420   2.956   5.287   4.110
  174SOL    HW1 1421   3.023   5.258   4.178
  174SOL    HW2 1422   2.864   5.264   4.142
  175SOL     OW 1423   2.040   6.737   2.056
  175SOL    HW1 1424   2.013   6.710   1.964
  175SOL    HW2 1425   1.959   6.759   2.110
  176SOL     OW 1426   0.923   3.960   1.178
  176SOL    HW1 1427   1.015   3.974   1.214
  176SOL    HW2 1428   0.925   3.888   1.109
  177SOL     OW 1429   5.658   3.111   2.568
  177SOL    HW1 1430   5.653   3.091   2.470
  177SOL    HW2 1431   5.737   3.170   2.586
  178SOL     OW 1432   4.287   3.152   6.111
  178SOL    HW1 1433   4.267   3.200   6.197
  178SOL    HW2 1434   4.235   3.195   6.037
  179SOL     OW 1435   2.697   1.945   6.052
  179SOL    HW1 1436   2.682   1.858   6.005
  179SOL    HW2 1437   2.684   2.020   5.987
  180SOL     OW 1438   1.281   0.037   6.267
  180SOL    HW1 1439   1.262   0.006   6.174
  180SOL    HW2 1440   1.359   7.010   6.304
  181SOL     OW 1441   3.480   1.451   6.756
  181SOL    HW1 1442   3.554   1.450   6.689
  181SOL    HW2 1443   3.490   1.530   6.816
  182SOL     OW 1444   3.796   2.154   4.489
  182SOL    HW1 1445   3.872   2.187   4.544
  182SOL    HW2 1446   3.822   2.152   4.393
  183SOL     OW 1447   3.414   1.767   3.748
  183SOL    HW1 1448   3.495   1.815   3.783
  183SOL    HW2 1449   3.427   1.748   3.651
  184SOL     OW 1450   1.544   6.228   4.136
  184SOL    HW1 1451   1.475   6.200   4.069
  184SOL    HW2 1452   1.619   6.275   4.089
  185SOL     OW 1453   0.812   2.607   6.458
  185SOL    HW1 1454   0.806   2.593   6.557
  185SOL    HW2 1455   0.762   2.535   6.410
  186SOL     OW 1456   6.606   1.376   3.257
  186SOL    HW1 1457   6.674   1.314   3.218
  186SOL    HW2 1458   6.571   1.436   3.186
  187SOL     OW 1459   4.952   0.585   3.701
  187SOL    HW1 1460   4.980   0.637   3.782
  187SOL    HW2 1461   5.023   0.517   3.680
  188SOL     OW 1462   6.165   1.815   2.611
  188SOL    HW1 1463   6.158   1.909   2.646
  188SOL    HW2 1464   6.098   1.757   2.657
  189SOL     OW 1465   1.953   5.570   2.696
  189SOL    HW1 1466   1.922   5.640   2.631
  189SOL    HW2 1467   2.002   5.615   2.771
  190SOL     OW 1468   3.905   1.687   4.724
  190SOL    HW1 1469   3.980   1.630   4.691
  190SOL    HW2 1470   3.880   1.754   4.654
  191SOL     OW 1471   5.338   5.901   5.743
  191SOL    HW1 1472   5.353   5.941   5.833
  191SOL    HW2 1473   5.292   5.968   5.684
  192SOL     OW 1474   0.144   5.658   1.695
  192SOL    HW1 1475   0.105   5.582   1.746
  192SOL    HW2 1476   0.132   5.642   1.597
  193SOL     OW 1477   4.347   2.736   5.586
  193SOL    HW1 1478   4.359   2.681   5.669
  193SOL    HW2 1479   4.273   2.697   5.531
  194SOL     OW 1480   3.428   1.060   2.899
  194SOL    HW1 1481   3.380   1.140   2.934
  194SOL    HW2 1482   3.526   1.079   2.893
  195SOL     OW 1483   1.851   6.434   4.307
  195SOL    HW1 1484   1.911   6.356   4.292
  195SOL    HW2 1485   1.865   6.470   4.399
  196SOL     OW 1486   2.405   1.412   6.897
  196SOL    HW1 1487   2.394   1.436   6.994
  196SOL    HW2 1488   2.396   1.495   6.842
  197SOL     OW 1489   2.244   0.723   6.975
  197SOL    HW1 1490   2.252   0.823   6.980
  197SOL    HW2 1491   2.149   0.698   6.960
  198SOL     OW 1492   4.670   1.225   3.292
  198SOL    HW1 1493   4.588   1.167   3.288
  198SOL    HW2 1494   4.743   1.182   3.239
  199SOL     OW 1495   1.032   2.109   3.961
  199SOL    HW1 1496   1.004   2.090   3.866
  199SOL    HW2 1497   0.964   2.167   4.004
  200SOL     OW 1498   1.303   3.549   0.824
  200SOL    HW1 1499   1.314   3.542   0.923
  200SOL    HW2 1500   1.209   3.522   0.800
  201SOL     OW 1501   0.417   6.366   5.422
  201SOL    HW1 1502   0.352   6.326   5.488
  201SOL    HW2 1503   0.502   6.313   5.424
  202SOL     OW 1504   3.929   1.677   6.478
  202SOL    HW1 1505   3.830   1.668   6.473
  202SOL    HW2 1506   3.960   1.746   6.412
  203SOL     OW 1507   5.925   2.196   5.211
  203SOL    HW1 1508   5.928   2.098   5.194
  203SOL    HW2 1509   5.846   2.218   5.269
  204SOL     OW 1510   0.868   6.778   4.421
  204SOL    HW1 1511   0.920   6.854   4.384
  204SOL    HW2 1512   0.930   6.710   4.460
  205SOL     OW 1513   2.082   2.588   2.722
  205SOL    HW1 1514   2.005   2.628   2.673
  205SOL    HW2 1515   2.101   2.497   2.686
  206SOL     OW 1516   1.035   3.220   1.211
  206SOL    HW1 1517   1.064   3.126   1.193
  206SOL    HW2 1518   1.114   3.273   1.242
  207SOL     OW 1519   5.741   0.270   3.438
  207SOL    HW1 1520   5.759   0.302   3.531
  207SOL    HW2 1521   5.732   0.349   3.377
  208SOL     OW 1522   0.549   4.004   5.893
  208SOL    HW1 1523   0.485   3.936   5.857
  208SOL    HW2 1524   0.504   4.093   5.900
  209SOL     OW 1525   6.213   4.513   2.961
  209SOL    HW1 1526   6.133   4.455   2.945
  209SOL    HW2 1527   6.218   4.537   3.058
  210SOL     OW 1528   4.378   1.912   0.775
  210SOL    HW1 1529   4.305   1.866   0.723
  210SOL    HW2 1530   4.414   1.988   0.721
  211SOL     OW 1531   1.188   6.849   2.603
  211SOL    HW1 1532   1.177   6.762   2.651
  211SOL    HW2 1533   1.107   6.906   2.617
  212SOL     OW 1534   1.375   3.916   2.756
  212SOL    HW1 1535   1.375   3.820   2.784
  212SOL    HW2 1536   1.469   3.948   2.747
  213SOL     OW 1537   1.577   5.812   1.025
  213SOL    HW1 1538   1.537   5.887   1.078
  213SOL    HW2 1539   1.627   5.850   0.947
  214SOL     OW 1540   3.550   5.108   3.021
  214SOL    HW1 1541   3.597   5.033   2.974
  214SOL    HW2 1542   3.477   5.070   3.078
  215SOL     OW 1543   2.881   4.236   1.240
  215SOL    HW1 1544   2.949   4.167   1.265
  215SOL    HW2 1545   2.825   4.258   1.320
  216SOL     OW 1546   0.800   5.991   3.282
  216SOL    HW1 1547   0.885   5.985   3.229
  216SOL    HW2 1548   0.740   6.060   3.241
  217SOL     OW 1549   1.164   2.268   4.976
  217SOL    HW1 1550   1.244   2.271   5.036
  217SOL    HW2 1551   1.162   2.180   4.928
  218SOL     OW 1552   0.321   2.850   4.758
  218SOL    HW1 1553   0.248   2.885   4.700
  218SOL    HW2 1554   0.309   2.752   4.771
  219SOL     OW 1555   4.481   0.671   0.902
  219SOL    HW1 1556   4.547   0.651   0.830
  219SOL    HW2 1557   4.500   0.761   0.941
  220SOL     OW 1558   2.753   0.181   0.762
  220SOL    HW1 1559   2.821   0.191   0.690
  220SOL    HW2 1560   2.695   0.263   0.766
  221SOL     OW 1561   6.180   4.247   1.371
  221SOL    HW1 1562   6.200   4.210   1.280
  221SOL    HW2 1563   6.186   4.346   1.369
  222SOL     OW 1564   1.708   4.390   6.066
  222SOL    HW1 1565   1.686   4.439   6.151
  222SOL    HW2 1566   1.655   4.430   5.991
  223SOL     OW 1567   6.815   2.761   5.234
  223SOL    HW1 1568   6.734   2.705   5.250
  223SOL    HW2 1569   6.800   2.820   5.154
  224SOL     OW 1570   3.320   1.068   0.105
  224SOL    HW1 1571   3.312   0.993   0.040
  224SOL    HW2 1572   3.284   1.152   0.065
  225SOL     OW 1573   4.169   3.987   6.251
  225SOL    HW1 1574   4.229   3.992   6.171
  225SOL    HW2 1575   4.074   3.990   6.221
  226SOL     OW 1576   0.972   1.236   6.066
  226SOL    HW1 1577   0.880   1.251   6.030
  226SOL    HW2 1578   0.966   1.179   6.148
  227SOL     OW 1579   2.184   4.470   2.515
  227SOL    HW1 1580   2.177   4.504   2.422
  227SOL    HW2 1581   2.198   4.371   2.514
  228SOL     OW 1582   2.036   0.569   2.673
  228SOL    HW1 1583   2.042   0.508   2.752
  228SOL    HW2 1584   1.992   0.520   2.597
  229SOL     OW 1585   5.233   5.473   6.107
  229SOL    HW1 1586   5.278   5.548   6.060
  229SOL    HW2 1587   5.171   5.426   6.044
  230SOL     OW 1588   4.504   5.716   4.569
  230SOL    HW1 1589   4.587   5.739   4.620
  230SOL    HW2 1590   4.525   5.644   4.502
  231SOL     OW 1591   6.116   1.328   6.102
  231SOL    HW1 1592   6.102   1.332   6.201
  231SOL    HW2 1593   6.137   1.233   6.076
  232SOL     OW 1594   0.425   3.320   6.313
  232SOL    HW1 1595   0.353   3.299   6.246
  232SOL    HW2 1596   0.410   3.264   6.395
  233SOL     OW 1597   4.219   1.557   3.248
  233SOL    HW1 1598   4.286   1.495   3.289
  233SOL    HW2 1599   4.239   1.651   3.276
  234SOL     OW 1600   6.193   0.928   6.801
  234SOL    HW1 1601   6.274   0.870   6.793
  234SOL    HW2 1602   6.149   0.913   6.890
  235SOL     OW 1603   4.862   3.160   2.255
  235SOL    HW1 1604   4.942   3.120   2.209
  235SOL    HW2 1605   4.778   3.123   2.215
  236SOL     OW 1606   4.958   2.942   6.865
  236SOL    HW1 1607   4.916   2.879   6.799
  236SOL    HW2 1608   4.901   3.024   6.873
  237SOL     OW 1609   0.137   4.158   1.615
  237SOL    HW1 1610   0.139   4.249   1.656
  237SOL    HW2 1611   0.170   4.091   1.681
  238SOL     OW 1612   6.191   1.774   0.018
  238SOL    HW1 1613   6.160   1.728   6.959
  238SOL    HW2 1614   6.279   1.737   0.046
  239SOL     OW 1615   0.948   4.491   0.372
  239SOL    HW1 1616   0.934   4.425   0.299
  239SOL    HW2 1617   0.871   4.488   0.436
  240SOL     OW 1618   0.802   3.259   3.406
  240SOL    HW1 1619   0.847   3.169   3.400
  240SOL    HW2 1620   0.872   3.331   3.403
  241SOL     OW 1621   2.929   2.234   4.862
  241SOL    HW1 1622   2.860   2.204   4.929
  241SOL    HW2 1623   3.010   2.267   4.910
  242SOL     OW 1624   3.105   3.482   3.764
  242SOL    HW1 1625   3.030   3.548   3.754
  242SOL    HW2 1626   3.192   3.530   3.761
  243SOL     OW 1627   4.452   1.822   0.246
  243SOL    HW1 1628   4.490   1.897   0.300
  243SOL    HW2 1629   4.521   1.793   0.179
  244SOL     OW 1630   5.982   3.962   5.280
  244SOL    HW1 1631   5.971   4.056   5.248
  244SOL    HW2 1632   5.893   3.926   5.309
  245SOL     OW 1633   4.281   2.176   3.709
  245SOL    HW1 1634   4.338   2.242   3.661
  245SOL    HW2 1635   4.207   2.224   3.757
  246SOL     OW 1636   5.064   1.872   4.054
  246SOL    HW1 1637   5.123   1.807   4.102
  246SOL    HW2 1638   5.090   1.876   3.957
  247SOL     OW 1639   2.430   1.375   0.461
  247SOL    HW1 1640   2.481   1.433   0.397
  247SOL    HW2 1641   2.446   1.279   0.438
  248SOL     OW 1642   2.759   1.282   2.953
  248SOL    HW1 1643   2.672   1.235   2.934
  248SOL    HW2 1644   2.832   1.238   2.901
  249SOL     OW 1645   5.317   6.715   5.834
  249SOL    HW1 1646   5.315   6.804   5.789
  249SOL    HW2 1647   5.297   6.643   5.768
  250SOL     OW 1648   4.672   3.264   0.797
  250SOL    HW1 1649   4.603   3.272   0.725
  250SOL    HW2 1650   4.642   3.197   0.865
  251SOL     OW 1651   4.441   3.464   5.291
  251SOL    HW1 1652   4.369   3.471   5.222
  251SOL    HW2 1653   4.526   3.503   5.254
  252SOL     OW 1654   6.905   6.754   4.828
  252SOL    HW1 1655   6.838   6.686   4.858
  252SOL    HW2 1656   6.984   6.707   4.788
  253SOL     OW 1657   3.539   5.359   6.768
  253SOL    HW1 1658   3.441   5.363   6.748
  253SOL    HW2 1659   3.552   5.332   6.864
  254SOL     OW 1660   6.446   2.479   3.720
  254SOL    HW1 1661   6.514   2.474   3.793
  254SOL    HW2 1662   6.491   2.497   3.633
  255SOL     OW 1663   2.045   4.600   5.816
  255SOL    HW1 1664   2.140   4.576   5.796
  255SOL    HW2 1665   1.987   4.574   5.738
  256SOL     OW 1666   5.706   3.534   6.050
  256SOL    HW1 1667   5.623   3.566   6.096
  256SOL    HW2 1668   5.781   3.599   6.067
  257SOL     OW 1669   5.173   0.446   3.623
  257SOL    HW1 1670   5.226   0.530   3.612
  257SOL    HW2 1671   5.234   0.372   3.653
  258SOL     OW 1672   2.432   4.191   5.359
  258SOL    HW1 1673   2.411   4.283   5.326
  258SOL    HW2 1674   2.423   4.126   5.283
  259SOL     OW 1675   5.983   0.471   2.375
  259SOL    HW1 1676   5.972   0.373   2.364
  259SOL    HW2 1677   5.973   0.517   2.287
  260SOL     OW 1678   4.339   5.776   3.061
  260SOL    HW1 1679   4.336   5.733   3.151
  260SOL    HW2 1680   4.343   5.876   3.071
  261SOL     OW 1681   5.764   3.627   0.966
  261SOL    HW1 1682   5.688   3.562   0.964
  261SOL    HW2 1683   5.730   3.719   0.945
  262SOL     OW 1684   1.080   4.184   0.598
  262SOL    HW1 1685   1.074   4.143   0.689
  262SOL    HW2 1686   0.989   4.212   0.568
  263SOL     OW 1687   1.936   0.363   4.529
  263SOL    HW1 1688   2.015   0.411   4.490
  263SOL    HW2 1689   1.885   0.426   4.588
  264SOL     OW 1690   6.389   2.411   6.942
  264SOL    HW1 1691   6.351   2.380   6.854
  264SOL    HW2 1692   6.409   2.509   6.936
  265SOL     OW 1693   5.405   6.432   2.904
  265SOL    HW1 1694   5.320   6.380   2.917
  265SOL    HW2 1695   5.437   6.421   2.810
  266SOL     OW 1696   4.610   3.062   5.870
  266SOL    HW1 1697   4.573   3.036   5.780
  266SOL    HW2 1698   4.709   3.070   5.864
  267SOL     OW 1699   0.812   1.472   5.785
  267SOL    HW1 1700   0.809   1.567   5.752
  267SOL    HW2 1701   0.876   1.420   5.729
  268SOL     OW 1702   2.781   1.008   6.438
  268SOL    HW1 1703   2.807   1.099   6.407
  268SOL    HW2 1704   2.791   0.943   6.363
  269SOL     OW 1705   2.217   3.852   0.940
  269SOL    HW1 1706   2.152   3.841   0.865
  269SOL    HW2 1707   2.308   3.867   0.904
  270SOL     OW 1708   0.922   6.428   0.877
  270SOL    HW1 1709   0.823   6.413   0.887
  270SOL    HW2 1710   0.971   6.348   0.913
  271SOL     OW 1711   6.787   1.481   6.364
  271SOL    HW1 1712   6.828   1.391   6.353
  271SOL    HW2 1713   6.833   1.547   6.305
  272SOL     OW 1714   3.731   6.202   3.859
  272SOL    HW1 1715   3.791   6.168   3.931
  272SOL    HW2 1716   3.665   6.267   3.897
  273SOL     OW 1717   2.411   4.710   4.469
  273SOL    HW1 1718   2.491   4.702   4.409
  273SOL    HW2 1719   2.403   4.627   4.525
  274SOL     OW 1720   3.965   1.542   3.627
  274SOL    HW1 1721   3.882   1.492   3.653
  274SOL    HW2 1722   4.031   1.539   3.701
  275SOL     OW 1723   6.398   5.432   3.200
  275SOL    HW1 1724   6.426   5.526   3.184
  275SOL    HW2 1725   6.391   5.415   3.299
  276SOL     OW 1726   6.783   6.978   3.843
  276SOL    HW1 1727   6.731   6.898   3.813
  276SOL    HW2 1728   6.866   6.948   3.888
  277SOL     OW 1729   1.876   4.146   0.366
  277SOL    HW1 1730   1.958   4.148   0.423
  277SOL    HW2 1731   1.824   4.063   0.385
  278SOL     OW 1732   0.315   3.550   2.088
  278SOL    HW1 1733   0.360   3.631   2.050
  278SOL    HW2 1734   0.379   3.502   2.148
  279SOL     OW 1735   5.695   3.191   4.456
  279SOL    HW1 1736   5.661   3.102   4.488
  279SOL    HW2 1737   5.683   3.260   4.527
  280SOL     OW 1738   2.741   5.246   2.259
  280SOL    HW1 1739   2.707   5.340   2.267
  280SOL    HW2 1740   2.773   5.230   2.165
  281SOL     OW 1741   2.496   4.481   1.529
  281SOL    HW1 1742   2.451   4.563   1.493
  281SOL    HW2 1743   2.586   4.505   1.566
  282SOL     OW 1744   3.267   1.579   5.578
  282SOL    HW1 1745   3.314   1.554   5.493
  282SOL    HW2 1746   3.192   1.642   5.557
  283SOL     OW 1747   6.254   2.706   6.561
  283SOL    HW1 1748   6.324   2.694   6.631
  283SOL    HW2 1749   6.202   2.789   6.579
  284SOL     OW 1750   1.641   3.398   3.829
  284SOL    HW1 1751   1.722   3.340   3.821
  284SOL    HW2 1752   1.571   3.367   3.765
  285SOL     OW 1753   5.126   4.967   4.386
  285SOL    HW1 1754   5.212   4.917   4.376
  285SOL    HW2 1755   5.140   5.048   4.444
  286SOL     OW 1756   3.426   4.904   6.841
  286SOL    HW1 1757   3.524   4.899   6.863
  286SOL    HW2 1758   3.381   4.964   6.908
  287SOL     OW 1759   1.163   3.118   0.787
  287SOL    HW1 1760   1.209   3.068   0.713
  287SOL    HW2 1761   1.230   3.152   0.852
  288SOL     OW 1762   3.806   1.563   6.732
  288SOL    HW1 1763   3.764   1.651   6.756
  288SOL    HW2 1764   3.878   1.578   6.665
  289SOL     OW 1765   2.224   4.455   5.303
  289SOL    HW1 1766   2.296   4.499   5.248
  289SOL    HW2 1767   2.198   4.369   5.260
  290SOL     OW 1768   6.067   2.233   4.982
  290SOL    HW1 1769   6.099   2.139   4.965
  290SOL    HW2 1770   6.011   2.235   5.064
  291SOL     OW 1771   0.647   1.542   4.124
  291SOL    HW1 1772   0.590   1.557   4.205
  291SOL    HW2 1773   0.638   1.447   4.095
  292SOL     OW 1774   2.434   1.728   3.112
  292SOL    HW1 1775   2.408   1.793   3.183
  292SOL    HW2 1776   2.487   1.775   3.041
  293SOL     OW 1777   4.515   5.680   2.879
  293SOL    HW1 1778   4.555   5.603   2.929
  293SOL    HW2 1779   4.437   5.716   2.929
  294SOL     OW 1780   6.433   6.012   6.801
  294SOL    HW1 1781   6.358   6.072   6.775
  294SOL    HW2 1782   6.454   5.951   6.725
  295SOL     OW 1783   3.569   1.427   3.105
  295SOL    HW1 1784   3.597   1.436   3.010
  295SOL    HW2 1785   3.604   1.341   3.142
  296SOL     OW 1786   3.383   1.469   2.684
  296SOL    HW1 1787   3.401   1.565   2.703
  296SOL    HW2 1788   3.369   1.420   2.770
  297SOL     OW 1789   2.440   4.323   3.934
  297SOL    HW1 1790   2.409   4.244   3.988
  297SOL    HW2 1791   2.446   4.297   3.838
  298SOL     OW 1792   4.442   5.992   1.829
  298SOL    HW1 1793   4.511   5.937   1.876
  298SOL    HW2 1794   4.474   6.014   1.736
  299SOL     OW 1795   5.201   3.827   5.165
  299SOL    HW1 1796   5.244   3.750   5.118
  299SOL    HW2 1797   5.112   3.798   5.202
  300SOL     OW 1798   6.779   0.440   2.324
  300SOL    HW1 1799   6.738   0.526   2.292
  300SOL    HW2 1800   6.711   0.390   2.378
  301SOL     OW 1801   5.468   3.964   0.358
  301SOL    HW1 1802   5.428   3.968   0.267
  301SOL    HW2 1803   5.525   3.883   0.367
  302SOL     OW 1804   1.434   0.246   3.210
  302SOL    HW1 1805   1.353   0.186   3.215
  302SOL    HW2 1806   1.405   0.341   3.220
  303SOL     OW 1807   5.242   0.464   1.760
  303SOL    HW1 1808   5.316   0.412   1.716
  303SOL    HW2 1809   5.203   0.528   1.694
  304SOL     OW 1810   1.958   0.122   3.543
  304SOL    HW1 1811   1.913   0.063   3.610
  304SOL    HW2 1812   2.057   0.121   3.559
  305SOL     OW 1813   0.343   3.526   6.516
  305SOL    HW1 1814   0.411   3.584   6.560
  305SOL    HW2 1815   0.374   3.503   6.424
  306SOL     OW 1816   1.435   1.494   3.630
  306SOL    HW1 1817   1.499   1.550   3.682
  306SOL    HW2 1818   1.359   1.468   3.688
  307SOL     OW 1819   5.148   6.311   1.430
  307SOL    HW1 1820   5.130   6.214   1.445
  307SOL    HW2 1821   5.063   6.363   1.441
  308SOL     OW 1822   6.865   4.768   4.485
  308SOL    HW1 1823   6.866   4.852   4.539
  308SOL    HW2 1824   6.939   4.770   4.418
  309SOL     OW 1825   3.716   4.322   5.266
  309SOL    HW1 1826   3.805   4.279   5.250
  309SOL    HW2 1827   3.656   4.302   5.190
  310SOL     OW 1828   5.723   0.132   5.585
  310SOL    HW1 1829   5.738   0.190   5.666
  310SOL    HW2 1830   5.811   0.108   5.544
  311SOL     OW 1831   6.850   4.993   2.168
  311SOL    HW1 1832   6.774   4.939   2.203
  311SOL    HW2 1833   6.864   5.074   2.225
  312SOL     OW 1834   4.742   1.641   5.433
  312SOL    HW1 1835   4.827   1.623   5.481
  312SOL    HW2 1836   4.753   1.722   5.374
  313SOL     OW 1837   2.844   4.015   1.475
  313SOL    HW1 1838   2.807   4.107   1.464
  313SOL    HW2 1839   2.815   3.977   1.563
  314SOL     OW 1840   3.346   5.762   0.853
  314SOL    HW1 1841   3.278   5.792   0.787
  314SOL    HW2 1842   3.369   5.666   0.836
  315SOL     OW 1843   0.553   2.157   3.315
  315SOL    HW1 1844   0.590   2.116   3.232
  315SOL    HW2 1845   0.616   2.227   3.349
  316SOL     OW 1846   2.396   2.745   4.694
  316SOL    HW1 1847   2.362   2.816   4.755
  316SOL    HW2 1848   2.321   2.712   4.636
  317SOL     OW 1849   0.708   1.480   6.584
  317SOL    HW1 1850   0.673   1.395   6.623
  317SOL    HW2 1851   0.687   1.556   6.646
  318SOL     OW 1852   1.031   5.306   1.163
  318SOL    HW1 1853   1.063   5.211   1.167
  318SOL    HW2 1854   1.109   5.366   1.143
  319SOL     OW 1855   0.800   0.177   2.160
  319SOL    HW1 1856   0.896   0.159   2.182
  319SOL    HW2 1857   0.770   0.259   2.209
  320SOL     OW 1858   5.946   2.548   0.055
  320SOL    HW1 1859   5.895   2.495   7.011
  320SOL    HW2 1860   6.029   2.498   0.081
  321SOL     OW 1861   2.223   1.788   2.391
  321SOL    HW1 1862   2.267   1.724   2.454
  321SOL    HW2 1863   2.128   1.760   2.376
  322SOL     OW 1864   3.280   3.023   4.208
  322SOL    HW1 1865   3.336   2.949   4.247
  322SOL    HW2 1866   3.201   3.039   4.268
  323SOL     OW 1867   0.579   4.613   0.198
  323SOL    HW1 1868   0.601   4.653   0.287
  323SOL    HW2 1869   0.650   4.637   0.132
  324SOL     OW 1870   0.862   2.704   4.490
  324SOL    HW1 1871   0.834   2.790   4.531
  324SOL    HW2 1872   0.782   2.645   4.477
  325SOL     OW 1873   2.345   3.110   1.282
  325SOL    HW1 1874   2.435   3.083   1.317
  325SOL    HW2 1875   2.305   3.178   1.343
  326SOL     OW 1876   1.785   6.083   6.716
  326SOL    HW1 1877   1.692   6.052   6.733
  326SOL    HW2 1878   1.816   6.141   6.792
  327SOL     OW 1879   0.344   4.695   4.415
  327SOL    HW1 1880   0.389   4.764   4.471
  327SOL    HW2 1881   0.386   4.692   4.324
  328SOL     OW 1882   3.462   5.301   2.601
  328SOL    HW1 1883   3.506   5.317   2.690
  328SOL    HW2 1884   3.448   5.389   2.555
  329SOL     OW 1885   3.455   4.074   3.198
  329SOL    HW1 1886   3.539   4.128   3.197
  329SOL    HW2 1887   3.473   3.983   3.236
  330SOL     OW 1888   2.823   6.705   1.914
  330SOL    HW1 1889   2.736   6.659   1.926
  330SOL    HW2 1890   2.847   6.756   1.997
  331SOL     OW 1891   4.862   5.190   6.358
  331SOL    HW1 1892   4.929   5.253   6.398
  331SOL    HW2 1893   4.908   5.125   6.299
  332SOL     OW 1894   3.525   2.066   3.882
  332SOL    HW1 1895   3.441   2.117   3.862
  332SOL    HW2 1896   3.542   2.066   3.980
  333SOL     OW 1897   4.064   0.011   6.541
  333SOL    HW1 1898   4.124   0.080   6.499
  333SOL    HW2 1899   4.109   6.998   6.622
  334SOL     OW 1900   3.065   6.809   2.247
  334SOL    HW1 1901   3.004   6.888   2.254
  334SOL    HW2 1902   3.038   6.739   2.313
  335SOL     OW 1903   3.715   5.802   3.728
  335SOL    HW1 1904   3.671   5.855   3.801
  335SOL    HW2 1905   3.810   5.833   3.717
  336SOL     OW 1906   2.246   1.201   3.446
  336SOL    HW1 1907   2.191   1.262   3.502
  336SOL    HW2 1908   2.251   1.237   3.352
  337SOL     OW 1909   6.977   3.226   1.190
  337SOL    HW1 1910   7.021   3.313   1.215
  337SOL    HW2 1911   6.878   3.235   1.198
  338SOL     OW 1912   2.804   3.047   1.658
  338SOL    HW1 1913   2.858   3.060   1.741
  338SOL    HW2 1914   2.790   3.136   1.614
  339SOL     OW 1915   3.794   0.400   2.954
  339SOL    HW1 1916   3.718   0.378   3.015
  339SOL    HW2 1917   3.880   0.383   3.001
  340SOL     OW 1918   5.251   4.248   4.535
  340SOL    HW1 1919   5.243   4.347   4.543
  340SOL    HW2 1920   5.345   4.220   4.554
  341SOL     OW 1921   5.640   6.206   3.920
  341SOL    HW1 1922   5.629   6.277   3.990
  341SOL    HW2 1923   5.713   6.143   3.948
  342SOL     OW 1924   5.782   4.291   7.019
  342SOL    HW1 1925   5.731   4.207   7.002
  342SOL    HW2 1926   5.840   4.280   0.076
  343SOL     OW 1927   2.877   6.471   1.769
  343SOL    HW1 1928   2.782   6.442   1.786
  343SOL    HW2 1929   2.898   6.551   1.825
  344SOL     OW 1930   2.284   5.052   0.859
  344SOL    HW1 1931   2.302   5.044   0.761
  344SOL    HW2 1932   2.328   4.977   0.908
  345SOL     OW 1933   0.231   0.681   5.704
  345SOL    HW1 1934   0.160   0.618   5.733
  345SOL    HW2 1935   0.318   0.633   5.697
  346SOL     OW 1936   1.481   0.910   2.941
  346SOL    HW1 1937   1.465   0.965   3.022
  346SOL    HW2 1938   1.454   0.962   2.859
  347SOL     OW 1939   5.662   0.291   6.741
  347SOL    HW1 1940   5.721   0.340   6.678
  347SOL    HW2 1941   5.618   0.215   6.693
  348SOL     OW 1942   4.126   5.069   1.651
  348SOL    HW1 1943   4.040   5.019   1.644
  348SOL    HW2 1944   4.109   5.166   1.630
  349SOL     OW 1945   0.351   4.655   1.939
  349SOL    HW1 1946   0.371   4.625   2.032
  349SOL    HW2 1947   0.274   4.718   1.940
  350SOL     OW 1948   3.968   3.603   1.481
  350SOL    HW1 1949   4.046   3.666   1.482
  350SOL    HW2 1950   3.998   3.512   1.507
  351SOL     OW 1951   2.640   1.840   0.633
  351SOL    HW1 1952   2.610   1.834   0.728
  351SOL    HW2 1953   2.723   1.894   0.627
  352SOL     OW 1954   3.667   0.788   4.869
  352SOL    HW1 1955   3.715   0.840   4.797
  352SOL    HW2 1956   3.569   0.788   4.851
  353SOL     OW 1957   1.999   6.590   0.289
  353SOL    HW1 1958   1.958   6.663   0.235
  353SOL    HW2 1959   2.097   6.606   0.298
  354SOL     OW 1960   4.125   2.214   0.829
  354SOL    HW1 1961   4.063   2.192   0.904
  354SOL    HW2 1962   4.213   2.243   0.866
  355SOL     OW 1963   6.657   2.888   2.610
  355SOL    HW1 1964   6.615   2.809   2.566
  355SOL    HW2 1965   6.756   2.885   2.594
  356SOL     OW 1966   4.623   5.120   4.994
  356SOL    HW1 1967   4.653   5.049   4.931
  356SOL    HW2 1968   4.670   5.205   4.973
  357SOL     OW 1969   0.417   5.993   5.956
  357SOL    HW1 1970   0.356   5.920   5.926
  357SOL    HW2 1971   0.512   5.965   5.941
  358SOL     OW 1972   6.285   0.355   1.235
  358SOL    HW1 1973   6.236   0.375   1.151
  358SOL    HW2 1974   6.338   0.435   1.264
  359SOL     OW 1975   1.585   2.632   2.617
  359SOL    HW1 1976   1.522   2.561   2.650
  359SOL    HW2 1977   1.560   2.658   2.524
  360SOL     OW 1978   3.367   6.513   6.233
  360SOL    HW1 1979   3.463   6.532   6.212
  360SOL    HW2 1980   3.346   6.418   6.209
  361SOL     OW 1981   5.517   5.260   2.978
  361SOL    HW1 1982   5.565   5.224   2.898
  361SOL    HW2 1983   5.499   5.357   2.966
  362SOL     OW 1984   2.880   4.270   0.488
  362SOL    HW1 1985   2.827   4.318   0.418
  362SOL    HW2 1986   2.862   4.172   0.482
  363SOL     OW 1987   3.868   4.877   4.223
  363SOL    HW1 1988   3.849   4.864   4.126
  363SOL    HW2 1989   3.964   4.857   4.241
  364SOL     OW 1990   0.545   5.485   5.778
  364SOL    HW1 1991   0.521   5.501   5.682
  364SOL    HW2 1992   0.643   5.468   5.785
  365SOL     OW 1993   4.860   5.899   2.954
  365SOL    HW1 1994   4.834   5.972   2.892
  365SOL    HW2 1995   4.909   5.938   3.032
  366SOL     OW 1996   6.039   1.176   6.724
  366SOL    HW1 1997   6.093   1.092   6.733
  366SOL    HW2 1998   6.009   1.206   6.815
  367SOL     OW 1999   5.119   3.000   0.748
  367SOL    HW1 2000   5.122   2.905   0.718
  367SOL    HW2 2001   5.208   3.043   0.731
  368SOL     OW 2002   1.472   4.958   4.872
  368SOL    HW1 2003   1.522   4.890   4.926
  368SOL    HW2 2004   1.399   4.913   4.821
  369SOL     OW 2005   6.331   4.580   1.723
  369SOL    HW1 2006   6.395   4.640   1.770
  369SOL    HW2 2007   6.367   4.486   1.723
  370SOL     OW 2008   2.629   0.610   5.605
  370SOL    HW1 2009   2.630   0.577   5.699
  370SOL    HW2 2010   2.646   0.533   5.542
  371SOL     OW 2011   2.336   3.621   6.805
  371SOL    HW1 2012   2.313   3.637   6.901
  371SOL    HW2 2013   2.267   3.663   6.746
  372SOL     OW 2014   0.123   0.096   5.006
  372SOL    HW1 2015   0.067   0.111   4.925
  372SOL    HW2 2016   0.113   0.174   5.068
  373SOL     OW 2017   0.033   6.471   6.736
  373SOL    HW1 2018   0.026   6.438   6.642
  373SOL    HW2 2019   6.968   6.505   6.766
  374SOL     OW 2020   3.772   0.150   2.861
  374SOL    HW1 2021   3.861   0.107   2.841
  374SOL    HW2 2022   3.785   0.249   2.872
  375SOL     OW 2023   6.862   4.959   3.973
  375SOL    HW1 2024   6.849   5.038   4.033
  375SOL    HW2 2025   6.941   4.907   4.004
  376SOL     OW 2026   1.557   2.801   3.745
  376SOL    HW1 2027   1.487   2.813   3.674
  376SOL    HW2 2028   1.532   2.854   3.826
  377SOL     OW 2029   5.464   2.244   2.622
  377SOL    HW1 2030   5.427   2.332   2.594
  377SOL    HW2 2031   5.563   2.249   2.627
  378SOL     OW 2032   4.076   3.390   5.648
  378SOL    HW1 2033   4.008   3.374   5.577
  378SOL    HW2 2034   4.031   3.423   5.731
  379SOL     OW 2035   6.024   3.571   1.006
  379SOL    HW1 2036   6.045   3.489   0.951
  379SOL    HW2 2037   5.925   3.584   1.007
  380SOL     OW 2038   1.247   1.717   1.106
  380SOL    HW1 2039   1.175   1.714   1.036
  380SOL    HW2 2040   1.231   1.646   1.174
  381SOL     OW 2041   2.452   4.903   1.841
  381SOL    HW1 2042   2.438   5.001   1.852
  381SOL    HW2 2043   2.544   4.879   1.871
  382SOL     OW 2044   3.253   6.025   0.460
  382SOL    HW1 2045   3.211   5.960   0.523
  382SOL    HW2 2046   3.330   6.070   0.505
  383SOL     OW 2047   6.797   2.782   6.490
  383SOL    HW1 2048   6.793   2.698   6.436
  383SOL    HW2 2049   6.808   2.758   6.587
  384SOL     OW 2050   0.538   5.467   5.485
  384SOL    HW1 2051   0.445   5.487   5.514
  384SOL    HW2 2052   0.537   5.434   5.390
  385SOL     OW 2053   4.681   6.101   0.473
  385SOL    HW1 2054   4.613   6.044   0.519
  385SOL    HW2 2055   4.731   6.046   0.406
  386SOL     OW 2056   3.839   6.748   5.241
  386SOL    HW1 2057   3.887   6.689   5.305
  386SOL    HW2 2058   3.756   6.784   5.284
  387SOL     OW 2059   7.017   0.167   4.205
  387SOL    HW1 2060   0.092   0.179   4.194
  387SOL    HW2 2061   7.000   0.114   4.288
  388SOL     OW 2062   7.015   2.961   5.266
  388SOL    HW1 2063   6.934   2.907   5.244
  388SOL    HW2 2064   6.988   3.049   5.305
  389SOL     OW 2065   4.271   4.313   1.695
  389SOL    HW1 2066   4.228   4.226   1.669
  389SOL    HW2 2067   4.346   4.295   1.758
  390SOL     OW 2068   3.718   1.245   0.651
  390SOL    HW1 2069   3.683   1.158   0.688
  390SOL    HW2 2070   3.677   1.321   0.701
  391SOL     OW 2071   2.544   3.827   6.121
  391SOL    HW1 2072   2.586   3.816   6.031
  391SOL    HW2 2073   2.509   3.739   6.153
  392SOL     OW 2074   1.207   4.051   2.298
  392SOL    HW1 2075   1.197   4.106   2.215
  392SOL    HW2 2076   1.150   4.090   2.371
  393SOL     OW 2077   0.861   4.587   1.047
  393SOL    HW1 2078   0.834   4.614   0.955
  393SOL    HW2 2079   0.818   4.500   1.070
  394SOL     OW 2080   6.485   2.663   6.960
  394SOL    HW1 2081   6.449   2.731   6.897
  394SOL    HW2 2082   6.521   2.709   0.017
  395SOL     OW 2083   4.688   4.345   1.721
  395SOL    HW1 2084   4.608   4.328   1.779
  395SOL    HW2 2085   4.771   4.327   1.774
  396SOL     OW 2086   3.197   2.047   2.130
  396SOL    HW1 2087   3.118   1.987   2.132
  396SOL    HW2 2088   3.209   2.088   2.221
  397SOL     OW 2089   4.619   1.100   5.177
  397SOL    HW1 2090   4.574   1.165   5.115
  397SOL    HW2 2091   4.675   1.036   5.124
  398SOL     OW 2092   1.141   0.160   4.625
  398SOL    HW1 2093   1.141   0.184   4.528
  398SOL    HW2 2094   1.064   0.100   4.645
  399SOL     OW 2095   5.024   5.234   4.000
  399SOL    HW1 2096   5.025   5.284   4.086
  399SOL    HW2 2097   4.930   5.209   3.977
  400SOL     OW 2098   6.006   0.572   4.489
  400SOL    HW1 2099   5.936   0.540   4.552
  400SOL    HW2 2100   5.975   0.560   4.394
  401SOL     OW 2101   6.309   6.940   5.718
  401SOL    HW1 2102   6.336   0.011   5.732
  401SOL    HW2 2103   6.336   6.911   5.626
  402SOL     OW 2104   5.972   0.118   2.697
  402SOL    HW1 2105   5.893   0.149   2.643
  402SOL    HW2 2106   6.031   0.062   2.639
  403SOL     OW 2107   2.695   0.555   6.482
  403SOL    HW1 2108   2.687   0.457   6.465
  403SOL    HW2 2109   2.752   0.570   6.563
  404SOL     OW 2110   3.597   6.177   5.885
  404SOL    HW1 2111   3.502   6.206   5.871
  404SOL    HW2 2112   3.625   6.202   5.978
  405SOL     OW 2113   1.982   3.889   3.942
  405SOL    HW1 2114   1.887   3.891   3.909
  405SOL    HW2 2115   2.000   3.800   3.985
  406SOL     OW 2116   0.809   5.534   5.513
  406SOL    HW1 2117   0.720   5.490   5.497
  406SOL    HW2 2118   0.874   5.504   5.443
  407SOL     OW 2119   1.053   3.073   4.099
  407SOL    HW1 2120   0.984   3.012   4.061
  407SOL    HW2 2121   1.068   3.052   4.195
  408SOL     OW 2122   3.400   1.640   3.020
  408SOL    HW1 2123   3.459   1.693   2.959
  408SOL    HW2 2124   3.450   1.559   3.052
  409SOL     OW 2125   1.289   4.161   2.697
  409SOL    HW1 2126   1.350   4.193   2.624
  409SOL    HW2 2127   1.325   4.075   2.734
  410SOL     OW 2128   1.730   2.425   1.252
  410SOL    HW1 2129   1.663   2.358   1.284
  410SOL    HW2 2130   1.817   2.410   1.299
  411SOL     OW 2131   0.193   2.060   1.681
  411SOL    HW1 2132   0.156   1.967   1.685
  411SOL    HW2 2133   0.152   2.115   1.754
  412SOL     OW 2134   2.355   5.035   2.743
  412SOL    HW1 2135   2.378   4.940   2.764
  412SOL    HW2 2136   2.439   5.088   2.734
  413SOL     OW 2137   4.138   4.975   2.438
  413SOL    HW1 2138   4.127   4.944   2.344
  413SOL    HW2 2139   4.108   4.903   2.501
  414SOL     OW 2140   2.516   6.852   4.022
  414SOL    HW1 2141   2.544   6.772   3.967
  414SOL    HW2 2142   2.583   6.867   4.094
  415SOL     OW 2143   6.439   0.742   0.862
  415SOL    HW1 2144   6.385   0.686   0.798
  415SOL    HW2 2145   6.407   0.837   0.858
  416SOL     OW 2146   5.241   3.632   4.991
  416SOL    HW1 2147   5.176   3.563   5.019
  416SOL    HW2 2148   5.219   3.664   4.898
  417SOL     OW 2149   3.457   2.422   6.773
  417SOL    HW1 2150   3.464   2.343   6.834
  417SOL    HW2 2151   3.548   2.444   6.737
  418SOL     OW 2152   3.707   6.437   4.183
  418SOL    HW1 2153   3.639   6.511   4.183
  418SOL    HW2 2154   3.667   6.355   4.144
  419SOL     OW 2155   0.818   7.018   1.884
  419SOL    HW1 2156   0.785   0.088   1.880
  419SOL    HW2 2157   0.883   7.008   1.960
  420SOL     OW 2158   5.964   0.360   6.564
  420SOL    HW1 2159   5.959   0.262   6.549
  420SOL    HW2 2160   5.942   0.408   6.478
  421SOL     OW 2161   5.140   4.153   3.898
  421SOL    HW1 2162   5.066   4.088   3.879
  421SOL    HW2 2163   5.107   4.222   3.963
  422SOL     OW 2164   5.362   2.723   1.459
  422SOL    HW1 2165   5.287   2.754   1.518
  422SOL    HW2 2166   5.383   2.795   1.393
  423SOL     OW 2167   2.879   1.232   6.326
  423SOL    HW1 2168   2.967   1.246   6.280
  423SOL    HW2 2169   2.806   1.269   6.270
  424SOL     OW 2170   1.473   4.485   3.331
  424SOL    HW1 2171   1.381   4.509   3.362
  424SOL    HW2 2172   1.470   4.400   3.279
  425SOL     OW 2173   3.477   0.780   5.449
  425SOL    HW1 2174   3.486   0.861   5.508
  425SOL    HW2 2175   3.558   0.773   5.391
  426SOL     OW 2176   2.545   2.524   4.645
  426SOL    HW1 2177   2.522   2.620   4.661
  426SOL    HW2 2178   2.562   2.479   4.732
  427SOL     OW 2179   4.392   1.777   3.339
  427SOL    HW1 2180   4.450   1.719   3.282
  427SOL    HW2 2181   4.426   1.871   3.335
  428SOL     OW 2182   2.657   1.218   5.053
  428SOL    HW1 2183   2.746   1.263   5.061
  428SOL    HW2 2184   2.586   1.287   5.043
  429SOL     OW 2185   1.134   6.220   3.600
  429SOL    HW1 2186   1.094   6.138   3.558
  429SOL    HW2 2187   1.228   6.231   3.567
  430SOL     OW 2188   1.827   6.789   3.648
  430SOL    HW1 2189   1.851   6.869   3.703
  430SOL    HW2 2190   1.904   6.725   3.647
  431SOL     OW 2191   2.482   2.039   1.733
  431SOL    HW1 2192   2.572   2.006   1.704
  431SOL    HW2 2193   2.466   2.130   1.695
  432SOL     OW 2194   4.250   2.089   1.558
  432SOL    HW1 2195   4.223   2.169   1.611
  432SOL    HW2 2196   4.326   2.113   1.497
  433SOL     OW 2197   2.137   6.875   6.750
  433SOL    HW1 2198   2.175   6.961   6.784
  433SOL    HW2 2199   2.117   6.815   6.827
  434SOL     OW 2200   4.577   6.453   3.998
  434SOL    HW1 2201   4.517   6.521   4.041
  434SOL    HW2 2202   4.578   6.370   4.054
  435SOL     OW 2203   3.129   1.692   6.375
  435SOL    HW1 2204   3.202   1.692   6.307
  435SOL    HW2 2205   3.170   1.697   6.467
  436SOL     OW 2206   4.311   7.008   3.413
  436SOL    HW1 2207   4.377   0.046   3.456
  436SOL    HW2 2208   4.333   6.914   3.436
  437SOL     OW 2209   0.380   0.011   4.458
  437SOL    HW1 2210   0.289   0.026   4.496
  437SOL    HW2 2211   0.377   0.023   4.359
  438SOL     OW 2212   0.964   4.490   2.744
  438SOL    HW1 2213   0.873   4.498   2.786
  438SOL    HW2 2214   0.961   4.419   2.674
  439SOL     OW 2215   5.616   0.677   3.076
  439SOL    HW1 2216   5.697   0.629   3.042
  439SOL    HW2 2217   5.534   0.634   3.040
  440SOL     OW 2218   4.377   0.977   0.163
  440SOL    HW1 2219   4.366   0.878   0.162
  440SOL    HW2 2220   4.296   1.020   0.124
  441SOL     OW 2221   0.221   4.519   2.553
  441SOL    HW1 2222   0.136   4.469   2.539
  441SOL    HW2 2223   0.203   4.618   2.549
  442SOL     OW 2224   5.409   3.531   5.546
  442SOL    HW1 2225   5.467   3.521   5.465
  442SOL    HW2 2226   5.425   3.454   5.608
  443SOL     OW 2227   4.833   4.003   3.082
  443SOL    HW1 2228   4.927   3.969   3.084
  443SOL    HW2 2229   4.770   3.926   3.090
  444SOL     OW 2230   4.640   1.257   1.021
  444SOL    HW1 2231   4.577   1.195   1.068
  444SOL    HW2 2232   4.686   1.314   1.089
  445SOL     OW 2233   1.943   5.028   2.379
  445SOL    HW1 2234   2.032   5.017   2.335
  445SOL    HW2 2235   1.872   4.983   2.324
  446SOL     OW 2236   5.706   6.688   2.266
  446SOL    HW1 2237   5.647   6.684   2.347
  446SOL    HW2 2238   5.723   6.783   2.242
  447SOL     OW 2239   5.818   3.786   6.922
  447SOL    HW1 2240   5.761   3.848   6.976
  447SOL    HW2 2241   5.791   3.691   6.942
  448SOL     OW 2242   2.857   0.460   3.265
  448SOL    HW1 2243   2.870   0.470   3.166
  448SOL    HW2 2244   2.793   0.386   3.283
  449SOL     OW 2245   1.880   2.523   4.465
  449SOL    HW1 2246   1.955   2.566   4.413
  449SOL    HW2 2247   1.793   2.548   4.424
  450SOL     OW 2248   0.818   3.860   3.303
  450SOL    HW1 2249   0.750   3.898   3.240
  450SOL    HW2 2250   0.839   3.928   3.374
  451SOL     OW 2251   0.771   2.432   2.814
  451SOL    HW1 2252   0.786   2.338   2.782
  451SOL    HW2 2253   0.685   2.437   2.864
  452SOL     OW 2254   4.345   6.721   3.381
  452SOL    HW1 2255   4.246   6.736   3.379
  452SOL    HW2 2256   4.381   6.724   3.287
  453SOL     OW 2257   3.988   0.139   0.269
  453SOL    HW1 2258   4.047   0.074   0.222
  453SOL    HW2 2259   3.899   0.143   0.222
  454SOL     OW 2260   0.052   4.679   6.433
  454SOL    HW1 2261   0.025   4.590   6.470
  454SOL    HW2 2262   0.002   4.751   6.481
  455SOL     OW 2263   6.477   4.785   6.021
  455SOL    HW1 2264   6.457   4.855   6.089
  455SOL    HW2 2265   6.546   4.818   5.957
  456SOL     OW 2266   2.636   1.050   2.799
  456SOL    HW1 2267   2.571   1.122   2.823
  456SOL    HW2 2268   2.672   1.068   2.707
  457SOL     OW 2269   2.306   6.801   6.179
  457SOL    HW1 2270   2.390   6.855   6.173
  457SOL    HW2 2271   2.249   6.838   6.252
  458SOL     OW 2272   2.025   1.677   3.092
  458SOL    HW1 2273   2.090   1.655   3.019
  458SOL    HW2 2274   2.054   1.760   3.140
  459SOL     OW 2275   2.552   6.970   4.844
  459SOL    HW1 2276   2.505   6.933   4.764
  459SOL    HW2 2277   2.485   7.012   4.906
  460SOL     OW 2278   1.232   1.716   4.838
  460SOL    HW1 2279   1.139   1.750   4.832
  460SOL    HW2 2280   1.252   1.657   4.760
  461SOL     OW 2281   1.125   5.036   5.706
  461SOL    HW1 2282   1.193   5.067   5.772
  461SOL    HW2 2283   1.170   5.010   5.621
  462SOL     OW 2284   3.128   4.074   4.607
  462SOL    HW1 2285   3.095   4.092   4.515
  462SOL    HW2 2286   3.055   4.094   4.673
  463SOL     OW 2287   5.959   6.588   2.103
  463SOL    HW1 2288   5.952   6.489   2.098
  463SOL    HW2 2289   5.900   6.622   2.176
  464SOL     OW 2290   3.464   6.054   6.616
  464SOL    HW1 2291   3.450   6.134   6.557
  464SOL    HW2 2292   3.522   5.987   6.569
  465SOL     OW 2293   1.841   2.485   0.352
  465SOL    HW1 2294   1.896   2.437   0.421
  465SOL    HW2 2295   1.900   2.512   0.275
  466SOL     OW 2296   3.657   5.763   4.714
  466SOL    HW1 2297   3.611   5.846   4.745
  466SOL    HW2 2298   3.595   5.710   4.656
  467SOL     OW 2299   6.526   0.814   2.402
  467SOL    HW1 2300   6.484   0.897   2.439
  467SOL    HW2 2301   6.561   0.831   2.311
  468SOL     OW 2302   4.094   6.679   6.737
  468SOL    HW1 2303   4.171   6.630   6.697
  468SOL    HW2 2304   4.116   6.776   6.743
  469SOL     OW 2305   2.915   5.067   5.994
  469SOL    HW1 2306   2.985   5.135   6.017
  469SOL    HW2 2307   2.831   5.114   5.968
  470SOL     OW 2308   2.152   5.064   2.969
  470SOL    HW1 2309   2.228   5.076   2.905
  470SOL    HW2 2310   2.111   4.973   2.957
  471SOL     OW 2311   2.744   2.360   4.195
  471SOL    HW1 2312   2.686   2.418   4.137
  471SOL    HW2 2313   2.713   2.367   4.290
  472SOL     OW 2314   6.403   4.401   5.964
  472SOL    HW1 2315   6.448   4.335   5.905
  472SOL    HW2 2316   6.390   4.487   5.914
  473SOL     OW 2317   6.801   2.181   2.539
  473SOL    HW1 2318   6.748   2.227   2.468
  473SOL    HW2 2319   6.893   2.163   2.507
  474SOL     OW 2320   5.308   5.935   4.499
  474SOL    HW1 2321   5.405   5.911   4.506
  474SOL    HW2 2322   5.252   5.852   4.505
  475SOL     OW 2323   5.969   1.310   1.218
  475SOL    HW1 2324   5.916   1.368   1.156
  475SOL    HW2 2325   5.906   1.252   1.270
  476SOL     OW 2326   0.675   4.323   1.504
  476SOL    HW1 2327   0.743   4.250   1.492
  476SOL    HW2 2328   0.722   4.411   1.504
  477SOL     OW 2329   1.506   4.636   3.826
  477SOL    HW1 2330   1.493   4.570   3.900
  477SOL    HW2 2331   1.599   4.673   3.830
  478SOL     OW 2332   4.582   5.802   1.994
  478SOL    HW1 2333   4.500   5.781   2.048
  478SOL    HW2 2334   4.600   5.725   1.932
  479SOL     OW 2335   3.930   3.858   4.076
  479SOL    HW1 2336   3.946   3.946   4.121
  479SOL    HW2 2337   3.842   3.822   4.105
  480SOL     OW 2338   2.006   0.201   2.641
  480SOL    HW1 2339   1.972   0.236   2.728
  480SOL    HW2 2340   1.989   0.269   2.569
  481SOL     OW 2341   0.357   0.027   0.870
  481SOL    HW1 2342   0.399   7.020   0.955
  481SOL    HW2 2343   0.416   0.094   0.826
  482SOL     OW 2344   5.101   4.980   1.556
  482SOL    HW1 2345   5.186   4.999   1.507
  482SOL    HW2 2346   5.053   5.065   1.574
  483SOL     OW 2347   5.808   2.101   3.158
  483SOL    HW1 2348   5.866   2.175   3.192
  483SOL    HW2 2349   5.756   2.063   3.235
  484SOL     OW 2350   2.117   4.120   4.369
  484SOL    HW1 2351   2.169   4.201   4.396
  484SOL    HW2 2352   2.070   4.138   4.283
  485SOL     OW 2353   5.310   3.265   2.101
  485SOL    HW1 2354   5.273   3.245   2.192
  485SOL    HW2 2355   5.235   3.273   2.036
  486SOL     OW 2356   5.931   6.560   6.255
  486SOL    HW1 2357   5.995   6.579   6.181
  486SOL    HW2 2358   5.982   6.553   6.341
  487SOL     OW 2359   6.965   6.607   4.583
  487SOL    HW1 2360   6.949   6.508   4.575
  487SOL    HW2 2361   0.039   6.626   4.572
  488SOL     OW 2362   1.487   6.244   3.764
  488SOL    HW1 2363   1.454   6.169   3.823
  488SOL    HW2 2364   1.578   6.273   3.795
  489SOL     OW 2365   0.155   5.943   6.252
  489SOL    HW1 2366   0.122   5.966   6.160
  489SOL    HW2 2367   0.199   5.854   6.251
  490SOL     OW 2368   1.441   4.853   5.593
  490SOL    HW1 2369   1.395   4.793   5.657
  490SOL    HW2 2370   1.514   4.803   5.545
  491SOL     OW 2371   0.412   2.686   1.548
  491SOL    HW1 2372   0.330   2.660   1.599
  491SOL    HW2 2373   0.456   2.764   1.592
  492SOL     OW 2374   1.442   2.116   5.857
  492SOL    HW1 2375   1.366   2.174   5.827
  492SOL    HW2 2376   1.476   2.062   5.780
  493SOL     OW 2377   2.424   5.969   4.814
  493SOL    HW1 2378   2.487   5.938   4.742
  493SOL    HW2 2379   2.388   6.059   4.789
  494SOL     OW 2380   2.200   6.715   5.154
  494SOL    HW1 2381   2.190   6.767   5.069
  494SOL    HW2 2382   2.166   6.770   5.230
  495SOL     OW 2383   3.579   5.537   5.936
  495SOL    HW1 2384   3.663   5.592   5.947
  495SOL    HW2 2385   3.580   5.492   5.847
  496SOL     OW 2386   5.120   1.617   2.687
  496SOL    HW1 2387   5.129   1.522   2.714
  496SOL    HW2 2388   5.027   1.648   2.703
  497SOL     OW 2389   3.274   0.933   6.681
  497SOL    HW1 2390   3.192   0.933   6.737
  497SOL    HW2 2391   3.344   0.989   6.724
  498SOL     OW 2392   0.367   5.700   1.895
  498SOL    HW1 2393   0.408   5.766   1.832
  498SOL    HW2 2394   0.269   5.718   1.904
  499SOL     OW 2395   3.543   5.861   0.372
  499SOL    HW1 2396   3.638   5.891   0.384
  499SOL    HW2 2397   3.483   5.941   0.365
  500SOL     OW 2398   5.666   1.998   0.369
  500SOL    HW1 2399   5.697   1.940   0.294
  500SOL    HW2 2400   5.588   2.053   0.339
  501SOL     OW 2401   1.279   0.381   2.907
  501SOL    HW1 2402   1.226   0.305   2.946
  501SOL    HW2 2403   1.375   0.370   2.932
  502SOL     OW 2404   1.988   5.209   6.630
  502SOL    HW1 2405   2.071   5.219   6.684
  502SOL    HW2 2406   1.943   5.123   6.654
  503SOL     OW 2407   3.508   5.245   0.005
  503SOL    HW1 2408   3.425   5.188   0.008
  503SOL    HW2 2409   3.559   5.233   0.090
  504SOL     OW 2410   5.811   6.392   1.791
  504SOL    HW1 2411   5.817   6.462   1.720
  504SOL    HW2 2412   5.899   6.384   1.838
  505SOL     OW 2413   5.205   6.938   5.068
  505SOL    HW1 2414   5.297   6.964   5.039
  505SOL    HW2 2415   5.170   6.866   5.008
  506SOL     OW 2416   3.946   5.386   2.691
  506SOL    HW1 2417   4.041   5.372   2.717
  506SOL    HW2 2418   3.892   5.304   2.713
  507SOL     OW 2419   3.393   1.082   1.147
  507SOL    HW1 2420   3.373   1.089   1.245
  507SOL    HW2 2421   3.461   1.010   1.133
  508SOL     OW 2422   0.066   4.804   4.319
  508SOL    HW1 2423   0.159   4.787   4.352
  508SOL    HW2 2424   0.060   4.779   4.222
  509SOL     OW 2425   4.788   6.280   6.179
  509SOL    HW1 2426   4.749   6.297   6.269
  509SOL    HW2 2427   4.809   6.367   6.134
  510SOL     OW 2428   6.992   4.245   6.949
  510SOL    HW1 2429   6.944   4.318   6.900
  510SOL    HW2 2430   6.950   4.157   6.927
  511SOL     OW 2431   1.145   1.902   0.741
  511SOL    HW1 2432   1.069   1.965   0.721
  511SOL    HW2 2433   1.220   1.919   0.678
  512SOL     OW 2434   6.631   2.358   6.403
  512SOL    HW1 2435   6.670   2.443   6.368
  512SOL    HW2 2436   6.533   2.356   6.384
  513SOL     OW 2437   4.993   0.213   3.132
  513SOL    HW1 2438   4.944   0.142   3.080
  513SOL    HW2 2439   5.091   0.203   3.117
  514SOL     OW 2440   6.409   6.794   4.319
  514SOL    HW1 2441   6.424   6.875   4.264
  514SOL    HW2 2442   6.336   6.813   4.386
  515SOL     OW 2443   3.543   6.722   6.689
  515SOL    HW1 2444   3.638   6.690   6.687
  515SOL    HW2 2445   3.498   6.699   6.603
  516SOL     OW 2446   2.057   5.398   1.346
  516SOL    HW1 2447   2.037   5.420   1.250
  516SOL    HW2 2448   2.153   5.418   1.365
  517SOL     OW 2449   3.426   5.095   2.216
  517SOL    HW1 2450   3.462   5.055   2.300
  517SOL    HW2 2451   3.493   5.083   2.142
  518SOL     OW 2452   2.155   3.281   3.559
  518SOL    HW1 2453   2.179   3.186   3.582
  518SOL    HW2 2454   2.142   3.333   3.644
  519SOL     OW 2455   0.280   6.930   3.334
  519SOL    HW1 2456   0.362   6.900   3.284
  519SOL    HW2 2457   0.219   6.852   3.348
  520SOL     OW 2458   1.632   2.981   0.369
  520SOL    HW1 2459   1.667   3.075   0.378
  520SOL    HW2 2460   1.675   2.923   0.437
  521SOL     OW 2461   5.729   4.960   5.373
  521SOL    HW1 2462   5.774   4.909   5.300
  521SOL    HW2 2463   5.631   4.937   5.374
  522SOL     OW 2464   4.297   3.732   1.301
  522SOL    HW1 2465   4.318   3.663   1.370
  522SOL    HW2 2466   4.315   3.823   1.338
  523SOL     OW 2467   0.650   6.602   1.787
  523SOL    HW1 2468   0.734   6.554   1.761
  523SOL    HW2 2469   0.593   6.615   1.706
  524SOL     OW 2470   6.651   2.305   2.037
  524SOL    HW1 2471   6.618   2.399   2.034
  524SOL    HW2 2472   6.586   2.245   1.991
  525SOL     OW 2473   1.413   3.859   6.658
  525SOL    HW1 2474   1.501   3.902   6.637
  525SOL    HW2 2475   1.356   3.860   6.575
  526SOL     OW 2476   3.144   7.020   4.711
  526SOL    HW1 2477   3.072   6.979   4.655
  526SOL    HW2 2478   3.104   0.068   4.769
  527SOL     OW 2479   1.026   2.071   0.231
  527SOL    HW1 2480   0.980   2.087   0.144
  527SOL    HW2 2481   0.958   2.047   0.300
  528SOL     OW 2482   6.774   2.793   4.156
  528SOL    HW1 2483   6.680   2.827   4.149
  528SOL    HW2 2484   6.793   2.766   4.250
  529SOL     OW 2485   2.005   0.560   5.754
  529SOL    HW1 2486   1.977   0.513   5.838
  529SOL    HW2 2487   2.105   0.563   5.749
  530SOL     OW 2488   3.513   3.535   0.858
  530SOL    HW1 2489   3.418   3.513   0.835
  530SOL    HW2 2490   3.529   3.514   0.954
  531SOL     OW 2491   1.838   0.716   2.277
  531SOL    HW1 2492   1.803   0.667   2.197
  531SOL    HW2 2493   1.860   0.810   2.252
  532SOL     OW 2494   2.809   2.318   0.638
  532SOL    HW1 2495   2.842   2.238   0.589
  532SOL    HW2 2496   2.719   2.298   0.678
  533SOL     OW 2497   3.957   0.135   3.795
  533SOL    HW1 2498   3.975   0.066   3.865
  533SOL    HW2 2499   3.860   0.132   3.770
  534SOL     OW 2500   0.866   5.499   1.214
  534SOL    HW1 2501   0.779   5.468   1.174
  534SOL    HW2 2502   0.930   5.423   1.216
  535SOL     OW 2503   5.171   3.750   3.239
  535SOL    HW1 2504   5.239   3.799   3.294
  535SOL    HW2 2505   5.099   3.716   3.299
  536SOL     OW 2506   6.495   5.971   3.010
  536SOL    HW1 2507   6.570   6.037   3.002
  536SOL    HW2 2508   6.459   5.972   3.103
  537SOL     OW 2509   3.193   0.873   4.287
  537SOL    HW1 2510   3.200   0.831   4.378
  537SOL    HW2 2511   3.245   0.819   4.221
  538SOL     OW 2512   2.173   5.025   5.637
  538SOL    HW1 2513   2.203   5.119   5.618
  538SOL    HW2 2514   2.183   5.007   5.735
  539SOL     OW 2515   0.714   6.128   0.254
  539SOL    HW1 2516   0.691   6.201   0.318
  539SOL    HW2 2517   0.687   6.040   0.292
  540SOL     OW 2518   1.289   0.368   3.642
  540SOL    HW1 2519   1.208   0.377   3.699
  540SOL    HW2 2520   1.371   0.380   3.698
  541SOL     OW 2521   4.030   6.263   4.420
  541SOL    HW1 2522   4.109   6.205   4.438
  541SOL    HW2 2523   4.039   6.304   4.329
  542SOL     OW 2524   2.775   6.623   6.783
  542SOL    HW1 2525   2.774   6.553   6.711
  542SOL    HW2 2526   2.681   6.643   6.811
  543SOL     OW 2527   5.259   2.722   4.283
  543SOL    HW1 2528   5.181   2.781   4.304
  543SOL    HW2 2529   5.324   2.771   4.226
  544SOL     OW 2530   0.629   4.730   0.430
  544SOL    HW1 2531   0.554   4.705   0.491
  544SOL    HW2 2532   0.662   4.822   0.454
  545SOL     OW 2533   5.395   1.241   1.761
  545SOL    HW1 2534   5.372   1.219   1.667
  545SOL    HW2 2535   5.353   1.329   1.786
  546SOL     OW 2536   0.215   4.209   2.555
  546SOL    HW1 2537   0.171   4.241   2.639
  546SOL    HW2 2538   0.242   4.113   2.566
  547SOL     OW 2539   4.301   1.351   0.040
  547SOL    HW1 2540   4.280   1.395   0.127
  547SOL    HW2 2541   4.261   1.260   0.038
  548SOL     OW 2542   3.624   2.757   6.956
  548SOL    HW1 2543   3.703   2.695   6.956
  548SOL    HW2 2544   3.540   2.703   6.962
  549SOL     OW 2545   6.239   2.012   0.527
  549SOL    HW1 2546   6.272   1.953   0.454
  549SOL    HW2 2547   6.315   2.034   0.589
  550SOL     OW 2548   7.012   4.509   3.016
  550SOL    HW1 2549   0.061   4.486   2.952
  550SOL    HW2 2550   0.013   4.477   3.107
  551SOL     OW 2551   6.814   0.744   0.310
  551SOL    HW1 2552   6.774   0.829   0.275
  551SOL    HW2 2553   6.819   0.748   0.410
  552SOL     OW 2554   5.577   5.736   5.770
  552SOL    HW1 2555   5.575   5.642   5.734
  552SOL    HW2 2556   5.497   5.786   5.738
  553SOL     OW 2557   3.300   1.509   5.835
  553SOL    HW1 2558   3.298   1.530   5.738
  553SOL    HW2 2559   3.292   1.410   5.848
  554SOL     OW 2560   5.929   5.908   0.853
  554SOL    HW1 2561   5.949   5.815   0.820
  554SOL    HW2 2562   5.846   5.942   0.809
  555SOL     OW 2563   2.486   5.474   5.508
  555SOL    HW1 2564   2.495   5.506   5.414
  555SOL    HW2 2565   2.496   5.374   5.510
  556SOL     OW 2566   4.797   1.914   4.086
  556SOL    HW1 2567   4.763   1.832   4.040
  556SOL    HW2 2568   4.885   1.894   4.129
  557SOL     OW 2569   6.665   4.883   5.533
  557SOL    HW1 2570   6.575   4.926   5.524
  557SOL    HW2 2571   6.736   4.948   5.507
  558SOL     OW 2572   3.632   3.409   2.580
  558SOL    HW1 2573   3.658   3.344   2.652
  558SOL    HW2 2574   3.535   3.395   2.556
  559SOL     OW 2575   6.265   6.391   5.409
  559SOL    HW1 2576   6.294   6.368   5.502
  559SOL    HW2 2577   6.165   6.383   5.402
  560SOL     OW 2578   6.479   3.100   2.952
  560SOL    HW1 2579   6.389   3.124   2.988
  560SOL    HW2 2580   6.472   3.016   2.899
  561SOL     OW 2581   0.378   3.122   6.054
  561SOL    HW1 2582   0.382   3.163   5.962
  561SOL    HW2 2583   0.356   3.025   6.046
  562SOL     OW 2584   4.378   0.492   5.476
  562SOL    HW1 2585   4.432   0.565   5.516
  562SOL    HW2 2586   4.306   0.464   5.540
  563SOL     OW 2587   1.520   1.582   4.350
  563SOL    HW1 2588   1.565   1.669   4.329
  563SOL    HW2 2589   1.452   1.562   4.279
  564SOL     OW 2590   0.574   1.727   5.714
  564SOL    HW1 2591   0.492   1.764   5.758
  564SOL    HW2 2592   0.648   1.795   5.720
  565SOL     OW 2593   3.559   2.878   3.623
  565SOL    HW1 2594   3.462   2.897   3.635
  565SOL    HW2 2595   3.583   2.888   3.526
  566SOL     OW 2596   3.449   5.551   2.950
  566SOL    HW1 2597   3.383   5.552   3.025
  566SOL    HW2 2598   3.418   5.614   2.879
  567SOL     OW 2599   2.429   2.400   6.634
  567SOL    HW1 2600   2.423   2.475   6.701
  567SOL    HW2 2601   2.522   2.395   6.598
  568SOL     OW 2602   6.129   6.936   0.539
  568SOL    HW1 2603   6.037   6.930   0.502
  568SOL    HW2 2604   6.135   6.883   0.624
  569SOL     OW 2605   0.479   2.364   0.100
  569SOL    HW1 2606   0.532   2.285   0.068
  569SOL    HW2 2607   0.504   2.445   0.047
  570SOL     OW 2608   2.689   0.289   6.411
  570SOL    HW1 2609   2.654   0.309   6.320
  570SOL    HW2 2610   2.765   0.225   6.405
  571SOL     OW 2611   2.770   4.681   2.849
  571SOL    HW1 2612   2.681   4.640   2.830
  571SOL    HW2 2613   2.792   4.669   2.946
  572SOL     OW 2614   2.039   6.242   4.259
  572SOL    HW1 2615   2.128   6.267   4.297
  572SOL    HW2 2616   2.051   6.209   4.166
  573SOL     OW 2617   5.933   2.362   5.801
  573SOL    HW1 2618   5.999   2.301   5.756
  573SOL    HW2 2619   5.866   2.306   5.850
  574SOL     OW 2620   2.747   1.535   5.118
  574SOL    HW1 2621   2.736   1.534   5.217
  574SOL    HW2 2622   2.777   1.625   5.088
  575SOL     OW 2623   3.469   3.344   0.251
  575SOL    HW1 2624   3.472   3.247   0.276
  575SOL    HW2 2625   3.511   3.398   0.323
  576SOL     OW 2626   2.145   3.627   3.073
  576SOL    HW1 2627   2.214   3.642   3.143
  576SOL    HW2 2628   2.131   3.529   3.059
  577SOL     OW 2629   1.348   1.415   2.352
  577SOL    HW1 2630   1.286   1.437   2.427
  577SOL    HW2 2631   1.390   1.500   2.318
  578SOL     OW 2632   1.987   5.161   0.012
  578SOL    HW1 2633   1.915   5.093   7.022
  578SOL    HW2 2634   2.076   5.117   0.008
  579SOL     OW 2635   2.625   4.582   2.474
  579SOL    HW1 2636   2.725   4.592   2.478
  579SOL    HW2 2637   2.592   4.622   2.388
  580SOL     OW 2638   4.338   5.813   5.260
  580SOL    HW1 2639   4.409   5.813   5.189
  580SOL    HW2 2640   4.314   5.908   5.282
  581SOL     OW 2641   0.945   2.932   3.749
  581SOL    HW1 2642   0.956   2.857   3.685
  581SOL    HW2 2643   0.930   2.895   3.841
  582SOL     OW 2644   5.639   5.208   3.227
  582SOL    HW1 2645   5.701   5.131   3.217
  582SOL    HW2 2646   5.585   5.218   3.143
  583SOL     OW 2647   3.131   5.244   6.308
  583SOL    HW1 2648   3.199   5.258   6.380
  583SOL    HW2 2649   3.099   5.332   6.274
  584SOL     OW 2650   3.888   0.206   6.565
  584SOL    HW1 2651   3.885   0.252   6.654
  584SOL    HW2 2652   3.924   0.114   6.576
  585SOL     OW 2653   2.255   6.508   1.607
  585SOL    HW1 2654   2.237   6.415   1.641
  585SOL    HW2 2655   2.194   6.528   1.530
  586SOL     OW 2656   4.462   0.166   1.446
  586SOL    HW1 2657   4.501   0.172   1.537
  586SOL    HW2 2658   4.481   0.251   1.396
  587SOL     OW 2659   5.259   2.093   1.942
  587SOL    HW1 2660   5.198   2.051   2.009
  587SOL    HW2 2661   5.352   2.099   1.980
  588SOL     OW 2662   1.289   5.523   1.382
  588SOL    HW1 2663   1.273   5.505   1.285
  588SOL    HW2 2664   1.317   5.618   1.394
  589SOL     OW 2665   3.542   5.838   1.655
  589SOL    HW1 2666   3.605   5.761   1.657
  589SOL    HW2 2667   3.573   5.909   1.718
  590SOL     OW 2668   5.704   1.249   0.862
  590SOL    HW1 2669   5.782   1.195   0.895
  590SOL    HW2 2670   5.664   1.299   0.939
  591SOL     OW 2671   4.052   5.164   4.411
  591SOL    HW1 2672   4.008   5.253   4.417
  591SOL    HW2 2673   3.985   5.092   4.431
  592SOL     OW 2674   4.708   1.225   4.418
  592SOL    HW1 2675   4.697   1.239   4.320
  592SOL    HW2 2676   4.804   1.208   4.439
  593SOL     OW 2677   3.732   1.988   5.655
  593SOL    HW1 2678   3.651   2.013   5.601
  593SOL    HW2 2679   3.756   2.064   5.715
  594SOL     OW 2680   5.606   1.713   1.563
  594SOL    HW1 2681   5.653   1.712   1.652
  594SOL    HW2 2682   5.559   1.800   1.551
  595SOL     OW 2683   5.232   6.157   2.591
  595SOL    HW1 2684   5.312   6.097   2.583
  595SOL    HW2 2685   5.191   6.171   2.501
  596SOL     OW 2686   6.963   3.726   3.965
  596SOL    HW1 2687   6.936   3.652   3.904
  596SOL    HW2 2688   7.021   3.690   4.038
  597SOL     OW 2689   2.960   6.689   5.921
  597SOL    HW1 2690   3.040   6.686   5.981
  597SOL    HW2 2691   2.974   6.758   5.850
  598SOL     OW 2692   3.112   3.811   4.857
  598SOL    HW1 2693   3.131   3.751   4.780
  598SOL    HW2 2694   3.096   3.756   4.939
  599SOL     OW 2695   1.554   5.753   1.962
  599SOL    HW1 2696   1.463   5.775   1.926
  599SOL    HW2 2697   1.581   5.823   2.028
  600SOL     OW 2698   7.000   4.287   4.872
  600SOL    HW1 2699   6.994   4.306   4.774
  600SOL    HW2 2700   0.057   4.333   4.909
  601SOL     OW 2701   1.099   0.887   4.860
  601SOL    HW1 2702   1.103   0.854   4.955
  601SOL    HW2 2703   1.166   0.960   4.848
  602SOL     OW 2704   2.534   6.350   4.909
  602SOL    HW1 2705   2.602   6.277   4.902
  602SOL    HW2 2706   2.445   6.316   4.879
  603SOL     OW 2707   1.486   0.967   5.080
  603SOL    HW1 2708   1.507   0.869   5.069
  603SOL    HW2 2709   1.553   1.021   5.030
  604SOL     OW 2710   6.887   2.387   1.882
  604SOL    HW1 2711   6.869   2.391   1.980
  604SOL    HW2 2712   6.834   2.311   1.842
  605SOL     OW 2713   0.115   4.280   1.895
  605SOL    HW1 2714   0.173   4.252   1.972
  605SOL    HW2 2715   0.146   4.368   1.860
  606SOL     OW 2716   3.985   0.103   4.898
  606SOL    HW1 2717   3.960   0.013   4.933
  606SOL    HW2 2718   4.084   0.118   4.911
  607SOL     OW 2719   1.519   4.946   6.022
  607SOL    HW1 2720   1.541   4.849   6.011
  607SOL    HW2 2721   1.548   4.996   5.940
  608SOL     OW 2722   4.081   0.102   6.102
  608SOL    HW1 2723   4.051   0.160   6.026
  608SOL    HW2 2724   4.171   0.133   6.133
  609SOL     OW 2725   3.881   2.314   1.462
  609SOL    HW1 2726   3.915   2.382   1.526
  609SOL    HW2 2727   3.791   2.283   1.490
  610SOL     OW 2728   4.590   2.613   0.274
  610SOL    HW1 2729   4.600   2.712   0.264
  610SOL    HW2 2730   4.679   2.573   0.296
  611SOL     OW 2731   4.106   0.277   2.368
  611SOL    HW1 2732   4.074   0.285   2.274
  611SOL    HW2 2733   4.143   0.186   2.383
  612SOL     OW 2734   3.924   4.809   5.869
  612SOL    HW1 2735   3.943   4.888   5.928
  612SOL    HW2 2736   3.976   4.731   5.902
  613SOL     OW 2737   5.429   5.838   4.939
  613SOL    HW1 2738   5.341   5.885   4.949
  613SOL    HW2 2739   5.477   5.836   5.026
  614SOL     OW 2740   5.050   5.407   5.138
  614SOL    HW1 2741   5.052   5.330   5.075
  614SOL    HW2 2742   5.011   5.487   5.093
  615SOL     OW 2743   0.355   4.344   0.819
  615SOL    HW1 2744   0.279   4.403   0.789
  615SOL    HW2 2745   0.324   4.287   0.895
  616SOL     OW 2746   6.590   2.754   3.275
  616SOL    HW1 2747   6.566   2.698   3.354
  616SOL    HW2 2748   6.687   2.744   3.255
  617SOL     OW 2749   2.340   5.703   6.273
  617SOL    HW1 2750   2.285   5.693   6.190
  617SOL    HW2 2751   2.393   5.619   6.289
  618SOL     OW 2752   1.488   1.349   1.744
  618SOL    HW1 2753   1.532   1.314   1.661
  618SOL    HW2 2754   1.438   1.433   1.721
  619SOL     OW 2755   1.744   2.383   6.369
  619SOL    HW1 2756   1.684   2.304   6.354
  619SOL    HW2 2757   1.797   2.369   6.452
  620SOL     OW 2758   4.886   2.722   0.664
  620SOL    HW1 2759   4.951   2.727   0.588
  620SOL    HW2 2760   4.931   2.750   0.749
  621SOL     OW 2761   6.363   5.056   0.146
  621SOL    HW1 2762   6.311   5.139   0.167
  621SOL    HW2 2763   6.451   5.082   0.105
  622SOL     OW 2764   1.964   1.621   0.460
  622SOL    HW1 2765   1.889   1.621   0.394
  622SOL    HW2 2766   2.051   1.633   0.413
  623SOL     OW 2767   1.005   4.870   6.322
  623SOL    HW1 2768   0.930   4.925   6.359
  623SOL    HW2 2769   1.084   4.877   6.383
  624SOL     OW 2770   0.526   2.645   2.601
  624SOL    HW1 2771   0.572   2.606   2.521
  624SOL    HW2 2772   0.457   2.711   2.571
  625SOL     OW 2773   3.057   1.910   2.388
  625SOL    HW1 2774   3.115   1.855   2.448
  625SOL    HW2 2775   3.096   2.002   2.379
  626SOL     OW 2776   2.333   6.389   3.104
  626SOL    HW1 2777   2.386   6.434   3.176
  626SOL    HW2 2778   2.310   6.455   3.033
  627SOL     OW 2779   5.554   1.121   0.444
  627SOL    HW1 2780   5.509   1.097   0.530
  627SOL    HW2 2781   5.492   1.103   0.368
  628SOL     OW 2782   4.856   4.909   4.348
  628SOL    HW1 2783   4.950   4.940   4.360
  628SOL    HW2 2784   4.853   4.839   4.278
  629SOL     OW 2785   0.616   0.220   1.666
  629SOL    HW1 2786   0.528   0.177   1.687
  629SOL    HW2 2787   0.674   0.220   1.747
  630SOL     OW 2788   4.759   1.298   1.808
  630SOL    HW1 2789   4.667   1.294   1.770
  630SOL    HW2 2790   4.756   1.280   1.906
  631SOL     OW 2791   2.659   0.060   5.649
  631SOL    HW1 2792   2.740   0.041   5.594
  631SOL    HW2 2793   2.577   0.050   5.594
  632SOL     OW 2794   2.379   0.702   0.504
  632SOL    HW1 2795   2.405   0.767   0.575
  632SOL    HW2 2796   2.379   0.610   0.542
  633SOL     OW 2797   3.461   6.149   0.592
  633SOL    HW1 2798   3.498   6.214   0.659
  633SOL    HW2 2799   3.483   6.056   0.621
  634SOL     OW 2800   4.264   5.514   1.243
  634SOL    HW1 2801   4.272   5.535   1.146
  634SOL    HW2 2802   4.276   5.597   1.297
  635SOL     OW 2803   3.321   0.404   3.006
  635SOL    HW1 2804   3.306   0.489   2.954
  635SOL    HW2 2805   3.301   0.325   2.948
  636SOL     OW 2806   5.274   5.301   6.634
  636SOL    HW1 2807   5.252   5.337   6.725
  636SOL    HW2 2808   5.251   5.203   6.631
  637SOL     OW 2809   4.851   4.835   1.624
  637SOL    HW1 2810   4.922   4.903   1.605
  637SOL    HW2 2811   4.769   4.881   1.657
  638SOL     OW 2812   5.071   1.270   1.761
  638SOL    HW1 2813   5.021   1.200   1.812
  638SOL    HW2 2814   5.017   1.299   1.682
  639SOL     OW 2815   4.180   4.581   1.714
  639SOL    HW1 2816   4.166   4.622   1.624
  639SOL    HW2 2817   4.192   4.483   1.705
  640SOL     OW 2818   2.300   3.959   5.442
  640SOL    HW1 2819   2.337   4.043   5.484
  640SOL    HW2 2820   2.324   3.958   5.345
  641SOL     OW 2821   0.638   5.991   4.921
  641SOL    HW1 2822   0.690   6.038   4.992
  641SOL    HW2 2823   0.621   5.897   4.948
  642SOL     OW 2824   0.334   4.993   5.082
  642SOL    HW1 2825   0.351   5.085   5.048
  642SOL    HW2 2826   0.244   4.962   5.051
  643SOL     OW 2827   6.575   5.684   5.663
  643SOL    HW1 2828   6.499   5.745   5.645
  643SOL    HW2 2829   6.657   5.738   5.685
  644SOL     OW 2830   1.379   6.400   2.965
  644SOL    HW1 2831   1.390   6.460   2.886
  644SOL    HW2 2832   1.308   6.436   3.024
  645SOL     OW 2833   4.634   2.587   4.483
  645SOL    HW1 2834   4.696   2.531   4.428
  645SOL    HW2 2835   4.540   2.555   4.471
  646SOL     OW 2836   1.372   1.075   3.874
  646SOL    HW1 2837   1.310   1.026   3.812
  646SOL    HW2 2838   1.337   1.167   3.890
  647SOL     OW 2839   6.228   2.781   7.014
  647SOL    HW1 2840   6.242   2.690   6.976
  647SOL    HW2 2841   6.182   2.773   0.079
  648SOL     OW 2842   5.803   3.505   2.383
  648SOL    HW1 2843   5.873   3.482   2.316
  648SOL    HW2 2844   5.767   3.596   2.363
  649SOL     OW 2845   4.029   4.288   1.005
  649SOL    HW1 2846   3.974   4.315   1.084
  649SOL    HW2 2847   3.972   4.237   0.940
  650SOL     OW 2848   4.699   4.498   0.429
  650SOL    HW1 2849   4.792   4.470   0.451
  650SOL    HW2 2850   4.636   4.422   0.446
  651SOL     OW 2851   0.437   6.521   1.136
  651SOL    HW1 2852   0.520   6.562   1.175
  651SOL    HW2 2853   0.371   6.505   1.210
  652SOL     OW 2854   4.437   0.209   2.926
  652SOL    HW1 2855   4.380   0.247   2.853
  652SOL    HW2 2856   4.380   0.190   3.006
  653SOL     OW 2857   3.363   5.146   4.142
  653SOL    HW1 2858   3.304   5.089   4.200
  653SOL    HW2 2859   3.459   5.119   4.155
  654SOL     OW 2860   6.697   5.594   6.688
  654SOL    HW1 2861   6.717   5.497   6.696
  654SOL    HW2 2862   6.783   5.646   6.683
  655SOL     OW 2863   0.784   0.247   1.437
  655SOL    HW1 2864   0.742   0.256   1.527
  655SOL    HW2 2865   0.883   0.239   1.447
  656SOL     OW 2866   2.486   6.658   2.178
  656SOL    HW1 2867   2.544   6.655   2.260
  656SOL    HW2 2868   2.538   6.624   2.099
  657SOL     OW 2869   2.754   1.339   0.742
  657SOL    HW1 2870   2.668   1.389   0.753
  657SOL    HW2 2871   2.777   1.332   0.645
  658SOL     OW 2872   3.053   3.850   6.914
  658SOL    HW1 2873   3.039   3.752   6.929
  658SOL    HW2 2874   3.144   3.865   6.876
  659SOL     OW 2875   2.497   0.024   7.006
  659SOL    HW1 2876   2.482   0.109   6.955
  659SOL    HW2 2877   2.564   6.992   6.958
  660SOL     OW 2878   3.992   5.748   2.262
  660SOL    HW1 2879   4.017   5.815   2.192
  660SOL    HW2 2880   3.930   5.791   2.328
  661SOL     OW 2881   4.664   5.479   3.025
  661SOL    HW1 2882   4.609   5.493   3.108
  661SOL    HW2 2883   4.752   5.525   3.035
  662SOL     OW 2884   3.485   1.171   6.080
  662SOL    HW1 2885   3.408   1.163   6.017
  662SOL    HW2 2886   3.539   1.252   6.056
  663SOL     OW 2887   1.964   4.518   4.799
  663SOL    HW1 2888   1.932   4.423   4.799
  663SOL    HW2 2889   1.992   4.543   4.707
  664SOL     OW 2890   0.268   6.372   6.780
  664SOL    HW1 2891   0.178   6.402   6.750
  664SOL    HW2 2892   0.307   6.311   6.711
  665SOL     OW 2893   3.307   5.751   3.527
  665SOL    HW1 2894   3.220   5.707   3.549
  665SOL    HW2 2895   3.382   5.688   3.548
  666SOL     OW 2896   4.037   0.954   2.618
  666SOL    HW1 2897   3.979   0.942   2.537
  666SOL    HW2 2898   3.981   0.950   2.700
  667SOL     OW 2899   0.853   5.256   1.837
  667SOL    HW1 2900   0.841   5.349   1.872
  667SOL    HW2 2901   0.905   5.259   1.752
  668SOL     OW 2902   5.763   4.680   6.271
  668SOL    HW1 2903   5.672   4.642   6.284
  668SOL    HW2 2904   5.766   4.735   6.187
  669SOL     OW 2905   5.874   1.217   2.628
  669SOL    HW1 2906   5.782   1.218   2.665
  669SOL    HW2 2907   5.884   1.140   2.565
  670SOL     OW 2908   1.839   1.798   3.648
  670SOL    HW1 2909   1.882   1.797   3.738
  670SOL    HW2 2910   1.847   1.707   3.607
  671SOL     OW 2911   2.525   6.492   1.126
  671SOL    HW1 2912   2.426   6.503   1.136
  671SOL    HW2 2913   2.544   6.410   1.073
  672SOL     OW 2914   0.457   5.802   2.181
  672SOL    HW1 2915   0.409   5.721   2.147
  672SOL    HW2 2916   0.555   5.792   2.162
  673SOL     OW 2917   5.580   6.822   1.169
  673SOL    HW1 2918   5.576   6.786   1.076
  673SOL    HW2 2919   5.670   6.802   1.209
  674SOL     OW 2920   6.619   1.536   4.932
  674SOL    HW1 2921   6.718   1.541   4.944
  674SOL    HW2 2922   6.596   1.464   4.866
  675SOL     OW 2923   5.985   2.440   1.821
  675SOL    HW1 2924   6.061   2.505   1.819
  675SOL    HW2 2925   6.008   2.365   1.884
  676SOL     OW 2926   2.636   4.655   4.841
  676SOL    HW1 2927   2.542   4.628   4.865
  676SOL    HW2 2928   2.700   4.609   4.903
  677SOL     OW 2929   4.702   0.582   1.410
  677SOL    HW1 2930   4.619   0.632   1.434
  677SOL    HW2 2931   4.781   0.641   1.419
  678SOL     OW 2932   2.658   4.576   5.327
  678SOL    HW1 2933   2.687   4.589   5.422
  678SOL    HW2 2934   2.738   4.580   5.267
  679SOL     OW 2935   5.660   1.684   4.720
  679SOL    HW1 2936   5.755   1.657   4.706
  679SOL    HW2 2937   5.604   1.648   4.645
  680SOL     OW 2938   5.553   6.741   4.190
  680SOL    HW1 2939   5.627   6.748   4.123
  680SOL    HW2 2940   5.560   6.816   4.255
  681SOL     OW 2941   5.196   6.148   2.313
  681SOL    HW1 2942   5.175   6.050   2.300
  681SOL    HW2 2943   5.163   6.199   2.233
  682SOL     OW 2944   0.316   0.851   2.437
  682SOL    HW1 2945   0.368   0.775   2.398
  682SOL    HW2 2946   0.266   0.898   2.365
  683SOL     OW 2947   4.302   3.356   1.254
  683SOL    HW1 2948   4.332   3.428   1.318
  683SOL    HW2 2949   4.320   3.386   1.160
  684SOL     OW 2950   6.497   0.488   6.421
  684SOL    HW1 2951   6.528   0.394   6.430
  684SOL    HW2 2952   6.505   0.518   6.326
  685SOL     OW 2953   3.561   1.170   3.614
  685SOL    HW1 2954   3.489   1.101   3.619
  685SOL    HW2 2955   3.546   1.239   3.684
  686SOL     OW 2956   4.383   1.159   3.872
  686SOL    HW1 2957   4.408   1.170   3.968
  686SOL    HW2 2958   4.338   1.242   3.840
  687SOL     OW 2959   0.834   1.746   4.060
  687SOL    HW1 2960   0.773   1.693   4.119
  687SOL    HW2 2961   0.785   1.772   3.976
  688SOL     OW 2962   0.346   1.207   6.282
  688SOL    HW1 2963   0.252   1.238   6.265
  688SOL    HW2 2964   0.410   1.271   6.239
  689SOL     OW 2965   0.936   4.929   5.436
  689SOL    HW1 2966   1.030   4.904   5.460
  689SOL    HW2 2967   0.933   5.026   5.412
  690SOL     OW 2968   6.469   3.357   2.837
  690SOL    HW1 2969   6.506   3.274   2.879
  690SOL    HW2 2970   6.401   3.332   2.768
  691SOL     OW 2971   3.858   1.371   6.920
  691SOL    HW1 2972   3.933   1.417   6.968
  691SOL    HW2 2973   3.844   1.414   6.830
  692SOL     OW 2974   3.194   1.191   5.598
  692SOL    HW1 2975   3.208   1.153   5.507
  692SOL    HW2 2976   3.107   1.240   5.602
  693SOL     OW 2977   4.735   5.715   3.408
  693SOL    HW1 2978   4.688   5.761   3.333
  693SOL    HW2 2979   4.833   5.735   3.403
  694SOL     OW 2980   3.856   6.257   4.649
  694SOL    HW1 2981   3.774   6.306   4.618
  694SOL    HW2 2982   3.922   6.252   4.574
  695SOL     OW 2983   3.174   6.058   4.329
  695SOL    HW1 2984   3.136   6.032   4.240
  695SOL    HW2 2985   3.272   6.076   4.318
  696SOL     OW 2986   5.224   4.150   3.261
  696SOL    HW1 2987   5.177   4.201   3.188
  696SOL    HW2 2988   5.291   4.210   3.305
  697SOL     OW 2989   0.848   4.109   1.445
  697SOL    HW1 2990   0.922   4.063   1.494
  697SOL    HW2 2991   0.867   4.108   1.347
  698SOL     OW 2992   4.930   6.696   1.338
  698SOL    HW1 2993   4.861   6.767   1.323
  698SOL    HW2 2994   4.961   6.661   1.250
  699SOL     OW 2995   2.491   2.786   6.965
  699SOL    HW1 2996   2.398   2.753   6.983
  699SOL    HW2 2997   2.488   2.858   6.895
  700SOL     OW 2998   3.302   6.951   2.349
  700SOL    HW1 2999   3.257   0.016   2.352
  700SOL    HW2 3000   3.235   6.878   2.362
  701SOL     OW 3001   6.307   4.646   0.656
  701SOL    HW1 3002   6.226   4.608   0.701
  701SOL    HW2 3003   6.382   4.581   0.661
  702SOL     OW 3004   2.736   0.908   4.484
  702SOL    HW1 3005   2.807   0.972   4.458
  702SOL    HW2 3006   2.673   0.952   4.548
  703SOL     OW 3007   3.121   3.233   5.463
  703SOL    HW1 3008   3.173   3.309   5.424
  703SOL    HW2 3009   3.111   3.161   5.394
  704SOL     OW 3010   1.298   2.792   6.442
  704SOL    HW1 3011   1.211   2.754   6.412
  704SOL    HW2 3012   1.283   2.853   6.519
  705SOL     OW 3013   6.495   6.155   4.175
  705SOL    HW1 3014   6.506   6.250   4.205
  705SOL    HW2 3015   6.557   6.096   4.226
  706SOL     OW 3016   4.123   1.068   5.648
  706SOL    HW1 3017   4.222   1.064   5.639
  706SOL    HW2 3018   4.080   1.057   5.558
  707SOL     OW 3019   3.934   5.451   3.474
  707SOL    HW1 3020   3.845   5.449   3.518
  707SOL    HW2 3021   3.998   5.392   3.523
  708SOL     OW 3022   3.186   1.039   3.149
  708SOL    HW1 3023   3.169   1.134   3.122
  708SOL    HW2 3024   3.126   1.014   3.226
  709SOL     OW 3025   1.711   6.658   1.670
  709SOL    HW1 3026   1.629   6.693   1.625
  709SOL    HW2 3027   1.763   6.735   1.708
  710SOL     OW 3028   4.923   2.819   1.496
  710SOL    HW1 3029   4.945   2.745   1.432
  710SOL    HW2 3030   4.888   2.898   1.445
  711SOL     OW 3031   0.009   2.859   5.670
  711SOL    HW1 3032   6.942   2.843   5.706
  711SOL    HW2 3033   0.024   2.802   5.589
  712SOL     OW 3034   4.348   3.046   1.232
  712SOL    HW1 3035   4.371   3.128   1.285
  712SOL    HW2 3036   4.318   3.073   1.141
  713SOL     OW 3037   4.450   2.647   5.317
  713SOL    HW1 3038   4.449   2.728   5.376
  713SOL    HW2 3039   4.362   2.601   5.323
  714SOL     OW 3040   6.057   4.807   3.584
  714SOL    HW1 3041   6.134   4.772   3.530
  714SOL    HW2 3042   5.995   4.731   3.606
  715SOL     OW 3043   6.583   5.144   5.748
  715SOL    HW1 3044   6.569   5.152   5.649
  715SOL    HW2 3045   6.604   5.049   5.771
  716SOL     OW 3046   2.190   0.907   2.316
  716SOL    HW1 3047   2.145   0.914   2.405
  716SOL    HW2 3048   2.162   0.984   2.259
  717SOL     OW 3049   6.072   4.577   3.857
  717SOL    HW1 3050   6.130   4.587   3.777
  717SOL    HW2 3051   6.113   4.512   3.921
  718SOL     OW 3052   4.645   2.119   4.462
  718SOL    HW1 3053   4.645   2.113   4.362
  718SOL    HW2 3054   4.556   2.089   4.497
  719SOL     OW 3055   6.801   0.326   2.834
  719SOL    HW1 3056   6.747   0.373   2.903
  719SOL    HW2 3057   6.797   0.376   2.747
  720SOL     OW 3058   1.870   0.543   6.041
  720SOL    HW1 3059   1.950   0.602   6.051
  720SOL    HW2 3060   1.788   0.599   6.027
  721SOL     OW 3061   0.799   2.349   2.246
  721SOL    HW1 3062   0.890   2.382   2.272
  721SOL    HW2 3063   0.807   2.288   2.167
  722SOL     OW 3064   4.265   0.170   6.416
  722SOL    HW1 3065   4.273   0.263   6.452
  722SOL    HW2 3066   4.284   0.171   6.317
  723SOL     OW 3067   2.364   6.085   3.391
  723SOL    HW1 3068   2.391   6.100   3.295
  723SOL    HW2 3069   2.265   6.073   3.396
  724SOL     OW 3070   0.781   1.033   3.231
  724SOL    HW1 3071   0.747   1.021   3.324
  724SOL    HW2 3072   0.813   0.945   3.195
  725SOL     OW 3073   2.446   4.582   2.247
  725SOL    HW1 3074   2.457   4.485   2.265
  725SOL    HW2 3075   2.536   4.625   2.239
  726SOL     OW 3076   2.530   5.192   0.527
  726SOL    HW1 3077   2.519   5.289   0.507
  726SOL    HW2 3078   2.592   5.180   0.605
  727SOL     OW 3079   4.511   5.312   6.512
  727SOL    HW1 3080   4.427   5.273   6.475
  727SOL    HW2 3081   4.518   5.408   6.485
  728SOL     OW 3082   6.992   3.601   4.688
  728SOL    HW1 3083   6.979   3.677   4.625
  728SOL    HW2 3084   7.010   3.637   4.780
  729SOL     OW 3085   0.435   2.796   0.966
  729SOL    HW1 3086   0.384   2.857   0.905
  729SOL    HW2 3087   0.398   2.703   0.958
  730SOL     OW 3088   5.069   0.526   3.365
  730SOL    HW1 3089   5.088   0.501   3.459
  730SOL    HW2 3090   4.973   0.554   3.357
  731SOL     OW 3091   4.828   4.242   6.432
  731SOL    HW1 3092   4.817   4.185   6.351
  731SOL    HW2 3093   4.855   4.185   6.510
  732SOL     OW 3094   5.259   2.082   2.736
  732SOL    HW1 3095   5.318   2.011   2.774
  732SOL    HW2 3096   5.315   2.152   2.692
  733SOL     OW 3097   6.003   6.957   3.919
  733SOL    HW1 3098   5.917   6.936   3.873
  733SOL    HW2 3099   6.030   0.027   3.898
  734SOL     OW 3100   6.521   4.844   2.684
  734SOL    HW1 3101   6.430   4.821   2.650
  734SOL    HW2 3102   6.516   4.873   2.779
  735SOL     OW 3103   5.794   0.623   1.842
  735SOL    HW1 3104   5.823   0.665   1.756
  735SOL    HW2 3105   5.724   0.679   1.885
  736SOL     OW 3106   1.384   1.354   4.007
  736SOL    HW1 3107   1.312   1.373   4.075
  736SOL    HW2 3108   1.439   1.436   3.993
  737SOL     OW 3109   5.869   1.412   5.850
  737SOL    HW1 3110   5.844   1.408   5.947
  737SOL    HW2 3111   5.817   1.485   5.805
  738SOL     OW 3112   2.765   3.869   1.228
  738SOL    HW1 3113   2.671   3.850   1.202
  738SOL    HW2 3114   2.767   3.916   1.316
  739SOL     OW 3115   3.190   6.702   5.124
  739SOL    HW1 3116   3.184   6.787   5.176
  739SOL    HW2 3117   3.284   6.668   5.127
  740SOL     OW 3118   5.713   2.352   2.721
  740SOL    HW1 3119   5.758   2.291   2.786
  740SOL    HW2 3120   5.662   2.422   2.771
  741SOL     OW 3121   2.128   0.417   4.802
  741SOL    HW1 3122   2.033   0.402   4.831
  741SOL    HW2 3123   2.131   0.432   4.703
  742SOL     OW 3124   1.413   6.362   0.578
  742SOL    HW1 3125   1.495   6.308   0.561
  742SOL    HW2 3126   1.402   6.430   0.506
  743SOL     OW 3127   0.662   6.291   3.823
  743SOL    HW1 3128   0.723   6.235   3.880
  743SOL    HW2 3129   0.706   6.307   3.735
  744SOL     OW 3130   6.623   1.831   0.686
  744SOL    HW1 3131   6.695   1.848   0.619
  744SOL    HW2 3132   6.567   1.753   0.656
  745SOL     OW 3133   2.040   5.687   4.788
  745SOL    HW1 3134   1.963   5.713   4.846
  745SOL    HW2 3135   2.017   5.603   4.738
  746SOL     OW 3136   5.424   4.128   4.912
  746SOL    HW1 3137   5.334   4.090   4.932
  746SOL    HW2 3138   5.414   4.210   4.856
  747SOL     OW 3139   5.406   5.110   3.500
  747SOL    HW1 3140   5.434   5.160   3.418
  747SOL    HW2 3141   5.315   5.070   3.485
  748SOL     OW 3142   4.959   5.281   2.561
  748SOL    HW1 3143   4.960   5.358   2.497
  748SOL    HW2 3144   4.936   5.313   2.652
  749SOL     OW 3145   4.898   3.646   3.532
  749SOL    HW1 3146   4.929   3.573   3.472
  749SOL    HW2 3147   4.920   3.623   3.627
  750SOL     OW 3148   2.575   1.259   1.430
  750SOL    HW1 3149   2.568   1.319   1.511
  750SOL    HW2 3150   2.653   1.198   1.441
  751SOL     OW 3151   4.857   2.088   0.558
  751SOL    HW1 3152   4.814   2.005   0.593
  751SOL    HW2 3153   4.926   2.120   0.622
  752SOL     OW 3154   3.286   2.316   5.627
  752SOL    HW1 3155   3.251   2.259   5.701
  752SOL    HW2 3156   3.385   2.326   5.637
  753SOL     OW 3157   3.640   3.550   5.247
  753SOL    HW1 3158   3.676   3.459   5.266
  753SOL    HW2 3159   3.665   3.577   5.154
  754SOL     OW 3160   6.211   0.994   6.413
  754SOL    HW1 3161   6.200   0.929   6.338
  754SOL    HW2 3162   6.306   1.022   6.421
  755SOL     OW 3163   2.934   4.253   5.282
  755SOL    HW1 3164   3.023   4.227   5.320
  755SOL    HW2 3165   2.946   4.332   5.221
  756SOL     OW 3166   2.651   5.095   0.041
  756SOL    HW1 3167   2.685   5.132   6.979
  756SOL    HW2 3168   2.715   5.119   0.115
  757SOL     OW 3169   2.240   6.601   2.487
  757SOL    HW1 3170   2.275   6.570   2.575
  757SOL    HW2 3171   2.188   6.528   2.443
  758SOL     OW 3172   4.289   1.140   3.568
  758SOL    HW1 3173   4.306   1.238   3.574
  758SOL    HW2 3174   4.368   1.090   3.604
  759SOL     OW 3175   6.849   2.899   3.348
  759SOL    HW1 3176   6.918   2.924   3.415
  759SOL    HW2 3177   6.863   2.952   3.264
  760SOL     OW 3178   6.969   6.480   3.740
  760SOL    HW1 3179   0.022   6.442   3.792
  760SOL    HW2 3180   6.883   6.446   3.778
  761SOL     OW 3181   5.344   3.885   5.409
  761SOL    HW1 3182   5.287   3.876   5.327
  761SOL    HW2 3183   5.379   3.796   5.435
  762SOL     OW 3184   3.099   6.273   5.757
  762SOL    HW1 3185   3.041   6.208   5.707
  762SOL    HW2 3186   3.095   6.362   5.713
  763SOL     OW 3187   5.457   0.471   6.743
  763SOL    HW1 3188   5.470   0.544   6.676
  763SOL    HW2 3189   5.523   0.398   6.726
  764SOL     OW 3190   5.681   1.076   5.700
  764SOL    HW1 3191   5.631   1.006   5.750
  764SOL    HW2 3192   5.630   1.162   5.703
  765SOL     OW 3193   0.900   6.901   0.864
  765SOL    HW1 3194   0.864   6.993   0.883
  765SOL    HW2 3195   0.856   6.835   0.925
  766SOL     OW 3196   2.362   2.244   4.932
  766SOL    HW1 3197   2.440   2.303   4.909
  766SOL    HW2 3198   2.392   2.173   4.996
  767SOL     OW 3199   7.003   6.914   3.992
  767SOL    HW1 3200   0.038   6.880   3.919
  767SOL    HW2 3201   0.026   6.905   4.080
  768SOL     OW 3202   1.944   6.361   2.688
  768SOL    HW1 3203   1.978   6.360   2.594
  768SOL    HW2 3204   1.941   6.455   2.721
  769SOL     OW 3205   3.476   1.757   5.279
  769SOL    HW1 3206   3.492   1.687   5.350
  769SOL    HW2 3207   3.562   1.778   5.234
  770SOL     OW 3208   2.050   5.087   4.524
  770SOL    HW1 3209   2.020   5.046   4.610
  770SOL    HW2 3210   2.026   5.027   4.448
  771SOL     OW 3211   1.140   5.331   3.492
  771SOL    HW1 3212   1.107   5.255   3.549
  771SOL    HW2 3213   1.199   5.389   3.547
  772SOL     OW 3214   5.436   4.923   6.987
  772SOL    HW1 3215   5.455   4.855   6.915
  772SOL    HW2 3216   5.371   4.885   0.029
  773SOL     OW 3217   1.304   3.415   3.507
  773SOL    HW1 3218   1.364   3.489   3.475
  773SOL    HW2 3219   1.355   3.353   3.566
  774SOL     OW 3220   2.231   1.872   4.065
  774SOL    HW1 3221   2.302   1.904   4.127
  774SOL    HW2 3222   2.152   1.934   4.070
  775SOL     OW 3223   2.172   3.939   4.120
  775SOL    HW1 3224   2.182   3.871   4.192
  775SOL    HW2 3225   2.104   3.907   4.054
  776SOL     OW 3226   0.861   6.705   6.163
  776SOL    HW1 3227   0.949   6.688   6.208
  776SOL    HW2 3228   0.877   6.745   6.073
  777SOL     OW 3229   1.806   3.842   6.990
  777SOL    HW1 3230   1.867   3.900   0.020
  777SOL    HW2 3231   1.753   3.898   6.927
  778SOL     OW 3232   3.551   6.860   1.629
  778SOL    HW1 3233   3.580   6.946   1.671
  778SOL    HW2 3234   3.462   6.873   1.585
  779SOL     OW 3235   0.501   2.813   2.076
  779SOL    HW1 3236   0.479   2.725   2.035
  779SOL    HW2 3237   0.591   2.808   2.120
  780SOL     OW 3238   1.485   2.010   4.693
  780SOL    HW1 3239   1.387   1.997   4.677
  780SOL    HW2 3240   1.537   1.967   4.619
  781SOL     OW 3241   0.492   4.587   0.666
  781SOL    HW1 3242   0.425   4.560   0.596
  781SOL    HW2 3243   0.481   4.529   0.747
  782SOL     OW 3244   1.797   3.984   5.690
  782SOL    HW1 3245   1.810   3.928   5.608
  782SOL    HW2 3246   1.760   3.927   5.763
  783SOL     OW 3247   5.555   4.657   6.526
  783SOL    HW1 3248   5.645   4.629   6.560
  783SOL    HW2 3249   5.487   4.589   6.552
  784SOL     OW 3250   2.843   5.850   1.701
  784SOL    HW1 3251   2.854   5.833   1.799
  784SOL    HW2 3252   2.801   5.940   1.687
  785SOL     OW 3253   1.136   6.867   4.055
  785SOL    HW1 3254   1.136   6.919   3.970
  785SOL    HW2 3255   1.088   6.781   4.041
  786SOL     OW 3256   6.372   1.213   3.691
  786SOL    HW1 3257   6.434   1.156   3.638
  786SOL    HW2 3258   6.423   1.287   3.735
  787SOL     OW 3259   2.330   0.510   0.103
  787SOL    HW1 3260   2.274   0.504   0.186
  787SOL    HW2 3261   2.319   0.600   0.061
  788SOL     OW 3262   4.081   3.053   1.462
  788SOL    HW1 3263   4.122   2.979   1.515
  788SOL    HW2 3264   4.031   3.114   1.523
  789SOL     OW 3265   4.419   5.345   2.042
  789SOL    HW1 3266   4.397   5.295   2.126
  789SOL    HW2 3267   4.515   5.373   2.043
  790SOL     OW 3268   0.858   2.945   1.811
  790SOL    HW1 3269   0.836   2.848   1.827
  790SOL    HW2 3270   0.786   3.002   1.850
  791SOL     OW 3271   2.808   5.657   5.278
  791SOL    HW1 3272   2.854   5.720   5.215
  791SOL    HW2 3273   2.863   5.573   5.287
  792SOL     OW 3274   0.719   1.105   0.637
  792SOL    HW1 3275   0.800   1.121   0.694
  792SOL    HW2 3276   0.674   1.193   0.617
  793SOL     OW 3277   4.197   5.609   3.692
  793SOL    HW1 3278   4.108   5.600   3.736
  793SOL    HW2 3279   4.185   5.639   3.597
  794SOL     OW 3280   2.872   3.675   3.590
  794SOL    HW1 3281   2.895   3.598   3.531
  794SOL    HW2 3282   2.810   3.737   3.542
  795SOL     OW 3283   3.436   0.996   6.295
  795SOL    HW1 3284   3.393   0.908   6.272
  795SOL    HW2 3285   3.458   1.046   6.212
  796SOL     OW 3286   1.457   3.046   6.697
  796SOL    HW1 3287   1.367   3.087   6.682
  796SOL    HW2 3288   1.526   3.103   6.653
  797SOL     OW 3289   4.683   0.094   1.154
  797SOL    HW1 3290   4.589   0.068   1.175
  797SOL    HW2 3291   4.694   0.101   1.055
  798SOL     OW 3292   3.046   6.187   1.434
  798SOL    HW1 3293   3.010   6.266   1.485
  798SOL    HW2 3294   3.145   6.195   1.426
  799SOL     OW 3295   1.278   2.091   6.710
  799SOL    HW1 3296   1.317   2.167   6.762
  799SOL    HW2 3297   1.187   2.070   6.745
  800SOL     OW 3298   6.163   1.198   2.035
  800SOL    HW1 3299   6.154   1.296   2.021
  800SOL    HW2 3300   6.210   1.157   1.957
  801SOL     OW 3301   2.078   5.756   5.565
  801SOL    HW1 3302   2.129   5.681   5.522
  801SOL    HW2 3303   2.143   5.823   5.601
  802SOL     OW 3304   5.441   2.122   6.950
  802SOL    HW1 3305   5.410   2.217   6.957
  802SOL    HW2 3306   5.381   2.072   6.888
  803SOL     OW 3307   2.681   0.870   5.524
  803SOL    HW1 3308   2.702   0.908   5.434
  803SOL    HW2 3309   2.674   0.770   5.518
  804SOL     OW 3310   6.228   0.501   1.955
  804SOL    HW1 3311   6.199   0.487   1.861
  804SOL    HW2 3312   6.165   0.565   2.000
  805SOL     OW 3313   2.965   0.990   3.281
  805SOL    HW1 3314   2.921   0.903   3.301
  805SOL    HW2 3315   2.946   1.055   3.355
  806SOL     OW 3316   0.884   0.167   5.286
  806SOL    HW1 3317   0.922   0.257   5.308
  806SOL    HW2 3318   0.872   0.160   5.187
  807SOL     OW 3319   0.687   6.302   5.243
  807SOL    HW1 3320   0.645   6.391   5.224
  807SOL    HW2 3321   0.781   6.316   5.274
  808SOL     OW 3322   5.837   2.956   0.523
  808SOL    HW1 3323   5.815   2.892   0.449
  808SOL    HW2 3324   5.888   2.908   0.594
  809SOL     OW 3325   0.476   5.153   0.021
  809SOL    HW1 3326   0.397   5.093   0.013
  809SOL    HW2 3327   0.449   5.238   0.066
  810SOL     OW 3328   2.874   3.362   0.362
  810SOL    HW1 3329   2.915   3.273   0.380
  810SOL    HW2 3330   2.867   3.376   0.263
  811SOL     OW 3331   5.327   5.120   5.176
  811SOL    HW1 3332   5.247   5.066   5.204
  811SOL    HW2 3333   5.317   5.148   5.081
  812SOL     OW 3334   1.013   2.008   2.400
  812SOL    HW1 3335   0.965   1.999   2.313
  812SOL    HW2 3336   1.018   1.918   2.445
  813SOL     OW 3337   2.072   1.200   4.567
  813SOL    HW1 3338   2.079   1.292   4.605
  813SOL    HW2 3339   2.001   1.149   4.615
  814SOL     OW 3340   6.794   5.624   2.939
  814SOL    HW1 3341   6.790   5.711   2.988
  814SOL    HW2 3342   6.774   5.549   3.001
  815SOL     OW 3343   4.973   2.276   3.877
  815SOL    HW1 3344   5.016   2.357   3.837
  815SOL    HW2 3345   5.025   2.247   3.957
  816SOL     OW 3346   4.790   3.914   0.256
  816SOL    HW1 3347   4.710   3.855   0.263
  816SOL    HW2 3348   4.833   3.923   0.346
  817SOL     OW 3349   1.152   5.543   0.853
  817SOL    HW1 3350   1.097   5.551   0.770
  817SOL    HW2 3351   1.237   5.594   0.842
  818SOL     OW 3352   5.965   2.680   3.474
  818SOL    HW1 3353   5.910   2.669   3.391
  818SOL    HW2 3354   5.952   2.600   3.533
  819SOL     OW 3355   5.859   2.288   1.581
  819SOL    HW1 3356   5.935   2.300   1.645
  819SOL    HW2 3357   5.778   2.257   1.631
  820SOL     OW 3358   2.403   2.185   4.510
  820SOL    HW1 3359   2.497   2.181   4.543
  820SOL    HW2 3360   2.398   2.144   4.419
  821SOL     OW 3361   5.682   4.004   4.711
  821SOL    HW1 3362   5.721   3.982   4.621
  821SOL    HW2 3363   5.655   3.920   4.757
  822SOL     OW 3364   0.784   4.154   3.406
  822SOL    HW1 3365   0.713   4.176   3.339
  822SOL    HW2 3366   0.751   4.176   3.498
  823SOL     OW 3367   1.065   3.832   5.807
  823SOL    HW1 3368   1.045   3.770   5.883
  823SOL    HW2 3369   1.036   3.924   5.830
  824SOL     OW 3370   5.677   0.961   4.995
  824SOL    HW1 3371   5.744   1.018   5.043
  824SOL    HW2 3372   5.700   0.864   5.008
  825SOL     OW 3373   6.110   6.138   0.861
  825SOL    HW1 3374   6.098   6.180   0.772
  825SOL    HW2 3375   6.046   6.062   0.871
  826SOL     OW 3376   3.889   1.157   5.871
  826SOL    HW1 3377   3.926   1.239   5.914
  826SOL    HW2 3378   3.959   1.113   5.816
  827SOL     OW 3379   3.352   3.881   4.558
  827SOL    HW1 3380   3.263   3.900   4.601
  827SOL    HW2 3381   3.421   3.869   4.629
  828SOL     OW 3382   6.209   5.375   4.315
  828SOL    HW1 3383   6.282   5.308   4.331
  828SOL    HW2 3384   6.206   5.440   4.390
  829SOL     OW 3385   3.618   2.898   2.526
  829SOL    HW1 3386   3.661   2.882   2.615
  829SOL    HW2 3387   3.677   2.956   2.470
  830SOL     OW 3388   6.335   4.521   6.692
  830SOL    HW1 3389   6.419   4.571   6.710
  830SOL    HW2 3390   6.352   4.450   6.623
  831SOL     OW 3391   5.388   6.102   1.283
  831SOL    HW1 3392   5.488   6.102   1.284
  831SOL    HW2 3393   5.354   6.055   1.364
  832SOL     OW 3394   3.682   1.389   5.275
  832SOL    HW1 3395   3.642   1.409   5.186
  832SOL    HW2 3396   3.769   1.342   5.263
  833SOL     OW 3397   1.123   3.813   6.430
  833SOL    HW1 3398   1.062   3.890   6.416
  833SOL    HW2 3399   1.193   3.813   6.359
  834SOL     OW 3400   4.458   3.447   6.539
  834SOL    HW1 3401   4.374   3.433   6.590
  834SOL    HW2 3402   4.436   3.482   6.448
  835SOL     OW 3403   1.175   0.180   4.359
  835SOL    HW1 3404   1.108   0.128   4.305
  835SOL    HW2 3405   1.267   0.147   4.339
  836SOL     OW 3406   3.496   2.034   5.485
  836SOL    HW1 3407   3.410   2.004   5.525
  836SOL    HW2 3408   3.479   2.105   5.417
  837SOL     OW 3409   1.525   0.498   1.263
  837SOL    HW1 3410   1.474   0.551   1.331
  837SOL    HW2 3411   1.464   0.432   1.220
  838SOL     OW 3412   2.444   5.556   3.934
  838SOL    HW1 3413   2.480   5.625   3.872
  838SOL    HW2 3414   2.518   5.493   3.960
  839SOL     OW 3415   2.072   1.023   0.894
  839SOL    HW1 3416   2.068   1.089   0.819
  839SOL    HW2 3417   2.132   0.947   0.869
  840SOL     OW 3418   6.017   5.382   0.007
  840SOL    HW1 3419   6.041   5.304   6.972
  840SOL    HW2 3420   5.931   5.422   6.999
  841SOL     OW 3421   4.299   5.360   5.824
  841SOL    HW1 3422   4.221   5.324   5.772
  841SOL    HW2 3423   4.381   5.309   5.800
  842SOL     OW 3424   3.221   6.950   6.787
  842SOL    HW1 3425   3.172   0.008   6.819
  842SOL    HW2 3426   3.158   6.873   6.782
  843SOL     OW 3427   1.581   1.730   1.435
  843SOL    HW1 3428   1.528   1.645   1.430
  843SOL    HW2 3429   1.619   1.751   1.344
  844SOL     OW 3430   0.557   6.924   1.581
  844SOL    HW1 3431   0.526   6.931   1.677
  844SOL    HW2 3432   0.650   6.959   1.574
  845SOL     OW 3433   4.019   1.705   2.809
  845SOL    HW1 3434   4.013   1.722   2.711
  845SOL    HW2 3435   4.010   1.607   2.827
  846SOL     OW 3436   2.819   1.442   6.513
  846SOL    HW1 3437   2.851   1.382   6.440
  846SOL    HW2 3438   2.720   1.453   6.505
  847SOL     OW 3439   2.495   3.492   1.624
  847SOL    HW1 3440   2.433   3.471   1.700
  847SOL    HW2 3441   2.554   3.413   1.606
  848SOL     OW 3442   6.030   6.718   6.011
  848SOL    HW1 3443   5.940   6.734   5.970
  848SOL    HW2 3444   6.097   6.700   5.940
  849SOL     OW 3445   5.503   3.635   6.994
  849SOL    HW1 3446   5.482   3.613   0.065
  849SOL    HW2 3447   5.598   3.609   6.974
  850SOL     OW 3448   6.179   0.639   4.988
  850SOL    HW1 3449   6.231   0.571   4.937
  850SOL    HW2 3450   6.164   0.607   5.082
  851SOL     OW 3451   6.269   3.082   6.756
  851SOL    HW1 3452   6.267   3.164   6.699
  851SOL    HW2 3453   6.194   3.021   6.730
  852SOL     OW 3454   6.877   4.075   1.104
  852SOL    HW1 3455   6.841   4.095   1.013
  852SOL    HW2 3456   6.977   4.082   1.102
  853SOL     OW 3457   2.062   4.489   0.260
  853SOL    HW1 3458   2.044   4.529   0.350
  853SOL    HW2 3459   1.994   4.418   0.241
  854SOL     OW 3460   6.026   6.523   7.021
  854SOL    HW1 3461   6.008   6.527   6.923
  854SOL    HW2 3462   6.038   6.615   0.033
  855SOL     OW 3463   6.917   0.530   0.023
  855SOL    HW1 3464   6.836   0.574   0.060
  855SOL    HW2 3465   6.937   0.447   0.076
  856SOL     OW 3466   2.249   6.646   6.569
  856SOL    HW1 3467   2.251   6.746   6.577
  856SOL    HW2 3468   2.218   6.606   6.655
  857SOL     OW 3469   0.209   4.553   3.303
  857SOL    HW1 3470   0.268   4.521   3.377
  857SOL    HW2 3471   0.253   4.630   3.257
  858SOL     OW 3472   3.789   3.769   0.608
  858SOL    HW1 3473   3.866   3.832   0.617
  858SOL    HW2 3474   3.759   3.766   0.513
  859SOL     OW 3475   4.501   6.369   5.251
  859SOL    HW1 3476   4.492   6.433   5.327
  859SOL    HW2 3477   4.596   6.370   5.218
  860SOL     OW 3478   5.283   2.784   5.583
  860SOL    HW1 3479   5.252   2.723   5.656
  860SOL    HW2 3480   5.338   2.732   5.518
  861SOL     OW 3481   1.933   5.395   3.126
  861SOL    HW1 3482   1.907   5.334   3.051
  861SOL    HW2 3483   1.854   5.449   3.154
  862SOL     OW 3484   1.837   4.420   3.927
  862SOL    HW1 3485   1.822   4.430   3.829
  862SOL    HW2 3486   1.914   4.477   3.956
  863SOL     OW 3487   6.718   0.056   5.543
  863SOL    HW1 3488   6.761   0.144   5.523
  863SOL    HW2 3489   6.773   0.007   5.611
  864SOL     OW 3490   4.376   0.010   5.639
  864SOL    HW1 3491   4.459   0.030   5.587
  864SOL    HW2 3492   4.297   0.046   5.590
  865SOL     OW 3493   2.122   5.936   4.819
  865SOL    HW1 3494   2.220   5.955   4.825
  865SOL    HW2 3495   2.108   5.837   4.816
  866SOL     OW 3496   3.045   6.761   0.972
  866SOL    HW1 3497   3.046   6.661   0.965
  866SOL    HW2 3498   3.129   6.792   1.017
  867SOL     OW 3499   6.075   2.141   0.781
  867SOL    HW1 3500   6.105   2.169   0.872
  867SOL    HW2 3501   6.155   2.123   0.723
  868SOL     OW 3502   0.621   2.111   2.287
  868SOL    HW1 3503   0.661   2.083   2.200
  868SOL    HW2 3504   0.660   2.198   2.316
  869SOL     OW 3505   0.080   3.930   3.830
  869SOL    HW1 3506   0.029   3.870   3.892
  869SOL    HW2 3507   0.016   3.986   3.778
  870SOL     OW 3508   3.370   5.073   1.845
  870SOL    HW1 3509   3.456   5.069   1.896
  870SOL    HW2 3510   3.323   4.985   1.853
  871SOL     OW 3511   4.698   1.606   4.402
  871SOL    HW1 3512   4.629   1.677   4.387
  871SOL    HW2 3513   4.778   1.647   4.446
  872SOL     OW 3514   6.851   2.145   4.748
  872SOL    HW1 3515   6.848   2.063   4.691
  872SOL    HW2 3516   6.799   2.218   4.705
  873SOL     OW 3517   4.689   6.718   6.070
  873SOL    HW1 3518   4.724   6.806   6.037
  873SOL    HW2 3519   4.765   6.654   6.081
  874SOL     OW 3520   6.112   4.368   6.576
  874SOL    HW1 3521   6.155   4.458   6.579
  874SOL    HW2 3522   6.150   4.316   6.499
  875SOL     OW 3523   5.413   5.207   1.130
  875SOL    HW1 3524   5.374   5.127   1.085
  875SOL    HW2 3525   5.484   5.247   1.072
  876SOL     OW 3526   0.553   5.446   1.956
  876SOL    HW1 3527   0.631   5.456   1.895
  876SOL    HW2 3528   0.484   5.515   1.933
  877SOL     OW 3529   3.076   4.752   0.119
  877SOL    HW1 3530   3.077   4.674   0.181
  877SOL    HW2 3531   2.995   4.749   0.062
  878SOL     OW 3532   4.381   6.678   4.434
  878SOL    HW1 3533   4.328   6.750   4.390
  878SOL    HW2 3534   4.429   6.716   4.514
  879SOL     OW 3535   3.893   0.430   1.461
  879SOL    HW1 3536   3.862   0.504   1.401
  879SOL    HW2 3537   3.990   0.442   1.481
  880SOL     OW 3538   3.457   4.045   3.705
  880SOL    HW1 3539   3.528   4.060   3.636
  880SOL    HW2 3540   3.499   4.041   3.795
  881SOL     OW 3541   4.428   2.311   5.136
  881SOL    HW1 3542   4.486   2.287   5.058
  881SOL    HW2 3543   4.335   2.331   5.103
  882SOL     OW 3544   0.930   3.530   4.869
  882SOL    HW1 3545   0.899   3.574   4.785
  882SOL    HW2 3546   1.029   3.517   4.866
  883SOL     OW 3547   2.760   0.434   2.745
  883SOL    HW1 3548   2.707   0.470   2.822
  883SOL    HW2 3549   2.856   0.427   2.770
  884SOL     OW 3550   4.945   2.665   5.574
  884SOL    HW1 3551   4.851   2.665   5.609
  884SOL    HW2 3552   4.943   2.665   5.474
  885SOL     OW 3553   3.033   1.099   5.871
  885SOL    HW1 3554   3.060   1.183   5.824
  885SOL    HW2 3555   2.976   1.043   5.810
  886SOL     OW 3556   3.451   0.760   0.319
  886SOL    HW1 3557   3.505   0.844   0.324
  886SOL    HW2 3558   3.384   0.767   0.246
  887SOL     OW 3559   3.878   6.884   4.210
  887SOL    HW1 3560   3.939   6.835   4.273
  887SOL    HW2 3561   3.784   6.873   4.240
  888SOL     OW 3562   0.743   6.503   2.907
  888SOL    HW1 3563   0.732   6.582   2.848
  888SOL    HW2 3564   0.825   6.452   2.879
  889SOL     OW 3565   0.641   3.723   0.520
  889SOL    HW1 3566   0.613   3.640   0.472
  889SOL    HW2 3567   0.734   3.748   0.493
  890SOL     OW 3568   1.688   5.022   3.906
  890SOL    HW1 3569   1.604   5.041   3.956
  890SOL    HW2 3570   1.736   5.107   3.887
  891SOL     OW 3571   5.467   5.652   0.491
  891SOL    HW1 3572   5.427   5.739   0.463
  891SOL    HW2 3573   5.540   5.669   0.558
  892SOL     OW 3574   2.855   4.010   5.594
  892SOL    HW1 3575   2.786   4.080   5.572
  892SOL    HW2 3576   2.819   3.920   5.572
  893SOL     OW 3577   2.876   6.767   2.883
  893SOL    HW1 3578   2.833   6.853   2.909
  893SOL    HW2 3579   2.973   6.770   2.909
  894SOL     OW 3580   0.883   3.182   1.443
  894SOL    HW1 3581   0.934   3.218   1.364
  894SOL    HW2 3582   0.817   3.250   1.474
  895SOL     OW 3583   0.467   4.307   2.950
  895SOL    HW1 3584   0.445   4.279   3.043
  895SOL    HW2 3585   0.496   4.228   2.897
  896SOL     OW 3586   6.004   5.123   0.469
  896SOL    HW1 3587   5.913   5.118   0.511
  896SOL    HW2 3588   5.997   5.169   0.380
  897SOL     OW 3589   4.606   1.457   0.107
  897SOL    HW1 3590   4.605   1.395   0.029
  897SOL    HW2 3591   4.563   1.413   0.186
  898SOL     OW 3592   3.544   6.192   2.719
  898SOL    HW1 3593   3.528   6.140   2.636
  898SOL    HW2 3594   3.473   6.262   2.729
  899SOL     OW 3595   0.041   6.079   6.596
  899SOL    HW1 3596   7.016   6.155   6.553
  899SOL    HW2 3597   0.136   6.106   6.613
  900SOL     OW 3598   6.028   6.744   0.185
  900SOL    HW1 3599   5.965   6.780   0.254
  900SOL    HW2 3600   6.072   6.661   0.220
  901SOL     OW 3601   2.259   0.766   2.841
  901SOL    HW1 3602   2.165   0.780   2.808
  901SOL    HW2 3603   2.323   0.805   2.775
  902SOL     OW 3604   0.073   3.080   0.591
  902SOL    HW1 3605   0.155   3.028   0.566
  902SOL    HW2 3606   0.096   3.146   0.662
  903SOL     OW 3607   6.750   2.324   6.694
  903SOL    HW1 3608   6.668   2.282   6.734
  903SOL    HW2 3609   6.730   2.350   6.599
  904SOL     OW 3610   2.671   2.068   3.514
  904SOL    HW1 3611   2.595   2.018   3.553
  904SOL    HW2 3612   2.637   2.136   3.448
  905SOL     OW 3613   4.835   2.115   6.969
  905SOL    HW1 3614   4.854   2.210   6.997
  905SOL    HW2 3615   4.793   2.066   0.022
  906SOL     OW 3616   0.348   2.097   5.655
  906SOL    HW1 3617   0.388   2.186   5.675
  906SOL    HW2 3618   0.253   2.109   5.628
  907SOL     OW 3619   5.271   3.409   0.214
  907SOL    HW1 3620   5.171   3.408   0.205
  907SOL    HW2 3621   5.307   3.318   0.191
  908SOL     OW 3622   2.557   4.918   2.534
  908SOL    HW1 3623   2.626   4.945   2.466
  908SOL    HW2 3624   2.466   4.923   2.493
  909SOL     OW 3625   4.392   5.615   0.712
  909SOL    HW1 3626   4.331   5.546   0.752
  909SOL    HW2 3627   4.469   5.569   0.668
  910SOL     OW 3628   3.114   2.817   1.253
  910SOL    HW1 3629   3.181   2.745   1.271
  910SOL    HW2 3630   3.100   2.871   1.336
  911SOL     OW 3631   1.372   5.961   6.513
  911SOL    HW1 3632   1.404   5.874   6.549
  911SOL    HW2 3633   1.417   5.980   6.426
  912SOL     OW 3634   5.562   2.503   2.915
  912SOL    HW1 3635   5.516   2.488   3.003
  912SOL    HW2 3636   5.499   2.551   2.854
  913SOL     OW 3637   4.675   5.907   3.230
  913SOL    HW1 3638   4.682   6.006   3.234
  913SOL    HW2 3639   4.690   5.877   3.136
  914SOL     OW 3640   1.839   0.567   6.325
  914SOL    HW1 3641   1.885   0.493   6.375
  914SOL    HW2 3642   1.877   0.572   6.233
  915SOL     OW 3643   6.197   4.719   6.582
  915SOL    HW1 3644   6.107   4.753   6.608
  915SOL    HW2 3645   6.233   4.661   6.656
  916SOL     OW 3646   1.564   2.757   1.902
  916SOL    HW1 3647   1.641   2.799   1.856
  916SOL    HW2 3648   1.528   2.820   1.971
  917SOL     OW 3649   0.033   6.434   0.690
  917SOL    HW1 3650   0.065   6.393   0.604
  917SOL    HW2 3651   6.957   6.437   0.691
  918SOL     OW 3652   2.613   6.991   0.683
  918SOL    HW1 3653   2.649   0.056   0.710
  918SOL    HW2 3654   2.677   6.947   0.619
  919SOL     OW 3655   5.261   1.191   3.107
  919SOL    HW1 3656   5.196   1.122   3.139
  919SOL    HW2 3657   5.344   1.146   3.074
  920SOL     OW 3658   2.132   4.517   1.630
  920SOL    HW1 3659   2.218   4.467   1.626
  920SOL    HW2 3660   2.068   4.481   1.562
  921SOL     OW 3661   4.873   5.505   4.495
  921SOL    HW1 3662   4.792   5.447   4.493
  921SOL    HW2 3663   4.930   5.481   4.574
  922SOL     OW 3664   3.664   3.815   4.499
  922SOL    HW1 3665   3.672   3.910   4.528
  922SOL    HW2 3666   3.632   3.810   4.405
  923SOL     OW 3667   2.182   2.806   6.038
  923SOL    HW1 3668   2.209   2.713   6.066
  923SOL    HW2 3669   2.239   2.835   5.962
  924SOL     OW 3670   6.439   3.745   2.189
  924SOL    HW1 3671   6.372   3.809   2.226
  924SOL    HW2 3672   6.432   3.658   2.238
  925SOL     OW 3673   6.618   2.264   0.011
  925SOL    HW1 3674   6.534   2.318   0.002
  925SOL    HW2 3675   6.695   2.314   6.996
  926SOL     OW 3676   6.955   1.725   1.123
  926SOL    HW1 3677   6.958   1.667   1.204
  926SOL    HW2 3678   6.867   1.714   1.077
  927SOL     OW 3679   5.812   4.016   3.893
  927SOL    HW1 3680   5.773   3.935   3.850
  927SOL    HW2 3681   5.828   3.997   3.990
  928SOL     OW 3682   2.662   6.313   0.556
  928SOL    HW1 3683   2.724   6.255   0.503
  928SOL    HW2 3684   2.571   6.272   0.557
  929SOL     OW 3685   6.679   1.004   0.205
  929SOL    HW1 3686   6.750   1.072   0.187
  929SOL    HW2 3687   6.627   0.987   0.122
  930SOL     OW 3688   4.233   5.674   6.229
  930SOL    HW1 3689   4.242   5.648   6.133
  930SOL    HW2 3690   4.238   5.592   6.286
  931SOL     OW 3691   6.507   2.063   3.726
  931SOL    HW1 3692   6.424   2.096   3.771
  931SOL    HW2 3693   6.487   1.979   3.675
  932SOL     OW 3694   3.523   1.371   3.824
  932SOL    HW1 3695   3.447   1.437   3.824
  932SOL    HW2 3696   3.498   1.292   3.879
  933SOL     OW 3697   1.276   4.652   2.770
  933SOL    HW1 3698   1.329   4.709   2.833
  933SOL    HW2 3699   1.332   4.626   2.692
  934SOL     OW 3700   2.295   6.085   6.081
  934SOL    HW1 3701   2.373   6.063   6.140
  934SOL    HW2 3702   2.272   6.182   6.092
  935SOL     OW 3703   5.317   3.946   3.399
  935SOL    HW1 3704   5.277   4.026   3.354
  935SOL    HW2 3705   5.281   3.939   3.492
  936SOL     OW 3706   1.404   0.170   6.022
  936SOL    HW1 3707   1.448   0.082   6.002
  936SOL    HW2 3708   1.467   0.228   6.074
  937SOL     OW 3709   4.358   1.250   5.635
  937SOL    HW1 3710   4.417   1.327   5.661
  937SOL    HW2 3711   4.264   1.281   5.625
  938SOL     OW 3712   6.955   5.869   4.032
  938SOL    HW1 3713   6.985   5.783   3.989
  938SOL    HW2 3714   6.915   5.849   4.121
  939SOL     OW 3715   6.745   6.770   4.593
  939SOL    HW1 3716   6.687   6.777   4.674
  939SOL    HW2 3717   6.829   6.720   4.616
  940SOL     OW 3718   0.991   4.860   1.094
  940SOL    HW1 3719   1.058   4.877   1.022
  940SOL    HW2 3720   0.947   4.772   1.079
  941SOL     OW 3721   4.470   0.276   6.670
  941SOL    HW1 3722   4.531   0.326   6.732
  941SOL    HW2 3723   4.495   0.297   6.575
  942SOL     OW 3724   6.740   6.259   1.312
  942SOL    HW1 3725   6.712   6.204   1.233
  942SOL    HW2 3726   6.831   6.232   1.341
  943SOL     OW 3727   2.946   5.173   2.727
  943SOL    HW1 3728   3.042   5.145   2.719
  943SOL    HW2 3729   2.926   5.243   2.658
  944SOL     OW 3730   0.294   6.064   4.602
  944SOL    HW1 3731   0.363   6.091   4.669
  944SOL    HW2 3732   0.287   6.133   4.530
  945SOL     OW 3733   0.623   5.398   5.229
  945SOL    HW1 3734   0.676   5.482   5.222
  945SOL    HW2 3735   0.650   5.335   5.156
  946SOL     OW 3736   4.886   4.499   4.367
  946SOL    HW1 3737   4.873   4.462   4.275
  946SOL    HW2 3738   4.980   4.532   4.376
  947SOL     OW 3739   4.119   3.336   3.611
  947SOL    HW1 3740   4.169   3.391   3.677
  947SOL    HW2 3741   4.068   3.264   3.658
  948SOL     OW 3742   4.925   1.126   2.799
  948SOL    HW1 3743   4.968   1.036   2.800
  948SOL    HW2 3744   4.890   1.146   2.708
  949SOL     OW 3745   2.911   6.728   0.502
  949SOL    HW1 3746   2.900   6.629   0.500
  949SOL    HW2 3747   2.926   6.758   0.596
  950SOL     OW 3748   6.454   5.804   1.549
  950SOL    HW1 3749   6.438   5.770   1.641
  950SOL    HW2 3750   6.458   5.903   1.549
  951SOL     OW 3751   1.598   0.249   3.532
  951SOL    HW1 3752   1.571   0.246   3.628
  951SOL    HW2 3753   1.694   0.277   3.525
  952SOL     OW 3754   4.293   1.995   2.633
  952SOL    HW1 3755   4.261   1.964   2.544
  952SOL    HW2 3756   4.215   1.998   2.696
  953SOL     OW 3757   6.661   6.151   5.000
  953SOL    HW1 3758   6.696   6.153   4.907
  953SOL    HW2 3759   6.611   6.236   5.018
  954SOL     OW 3760   4.584   5.569   2.299
  954SOL    HW1 3761   4.670   5.564   2.350
  954SOL    HW2 3762   4.595   5.520   2.212
  955SOL     OW 3763   1.625   4.389   0.006
  955SOL    HW1 3764   1.712   4.388   0.056
  955SOL    HW2 3765   1.552   4.421   0.066
  956SOL     OW 3766   0.402   0.763   1.174
  956SOL    HW1 3767   0.365   0.806   1.092
  956SOL    HW2 3768   0.493   0.727   1.154
  957SOL     OW 3769   6.294   1.321   2.262
  957SOL    HW1 3770   6.257   1.260   2.192
  957SOL    HW2 3771   6.260   1.292   2.352
  958SOL     OW 3772   5.070   6.652   2.192
  958SOL    HW1 3773   5.026   6.575   2.237
  958SOL    HW2 3774   5.144   6.688   2.250
  959SOL     OW 3775   3.397   6.617   4.585
  959SOL    HW1 3776   3.328   6.663   4.529
  959SOL    HW2 3777   3.418   6.673   4.665
  960SOL     OW 3778   0.670   0.615   0.879
  960SOL    HW1 3779   0.684   0.672   0.960
  960SOL    HW2 3780   0.590   0.648   0.829
  961SOL     OW 3781   3.123   6.636   3.358
  961SOL    HW1 3782   3.199   6.680   3.406
  961SOL    HW2 3783   3.075   6.704   3.302
  962SOL     OW 3784   6.388   6.787   4.659
  962SOL    HW1 3785   6.422   6.696   4.684
  962SOL    HW2 3786   6.456   6.856   4.684
  963SOL     OW 3787   4.646   1.832   1.344
  963SOL    HW1 3788   4.657   1.879   1.432
  963SOL    HW2 3789   4.552   1.844   1.311
  964SOL     OW 3790   5.162   4.645   5.060
  964SOL    HW1 3791   5.261   4.634   5.050
  964SOL    HW2 3792   5.117   4.616   4.975
  965SOL     OW 3793   5.541   2.375   2.260
  965SOL    HW1 3794   5.618   2.409   2.315
  965SOL    HW2 3795   5.554   2.404   2.165
  966SOL     OW 3796   5.167   1.918   3.793
  966SOL    HW1 3797   5.230   1.995   3.786
  966SOL    HW2 3798   5.089   1.933   3.732
  967SOL     OW 3799   4.184   4.449   6.280
  967SOL    HW1 3800   4.099   4.404   6.254
  967SOL    HW2 3801   4.253   4.433   6.210
  968SOL     OW 3802   3.500   0.233   1.954
  968SOL    HW1 3803   3.531   0.195   1.867
  968SOL    HW2 3804   3.458   0.323   1.937
  969SOL     OW 3805   3.589   5.131   6.060
  969SOL    HW1 3806   3.586   5.223   6.021
  969SOL    HW2 3807   3.508   5.116   6.116
  970SOL     OW 3808   6.355   0.669   5.254
  970SOL    HW1 3809   6.340   0.572   5.234
  970SOL    HW2 3810   6.267   0.713   5.271
  971SOL     OW 3811   6.786   4.371   2.821
  971SOL    HW1 3812   6.728   4.442   2.781
  971SOL    HW2 3813   6.868   4.413   2.860
  972SOL     OW 3814   6.789   2.748   0.963
  972SOL    HW1 3815   6.762   2.665   1.012
  972SOL    HW2 3816   6.750   2.747   0.871
  973SOL     OW 3817   0.394   4.465   5.783
  973SOL    HW1 3818   0.436   4.526   5.850
  973SOL    HW2 3819   0.464   4.404   5.746
  974SOL     OW 3820   0.465   4.790   3.906
  974SOL    HW1 3821   0.500   4.808   3.814
  974SOL    HW2 3822   0.393   4.721   3.901
  975SOL     OW 3823   2.005   6.696   1.617
  975SOL    HW1 3824   2.012   6.678   1.519
  975SOL    HW2 3825   2.030   6.792   1.635
  976SOL     OW 3826   6.562   4.381   1.997
  976SOL    HW1 3827   6.502   4.353   1.922
  976SOL    HW2 3828   6.603   4.300   2.039
  977SOL     OW 3829   0.996   1.248   2.496
  977SOL    HW1 3830   0.928   1.179   2.470
  977SOL    HW2 3831   0.979   1.332   2.445
  978SOL     OW 3832   5.746   1.851   1.827
  978SOL    HW1 3833   5.695   1.923   1.779
  978SOL    HW2 3834   5.821   1.891   1.879
  979SOL     OW 3835   6.998   3.272   6.327
  979SOL    HW1 3836   0.003   3.221   6.408
  979SOL    HW2 3837   6.974   3.366   6.354
  980SOL     OW 3838   3.953   1.394   4.777
  980SOL    HW1 3839   4.009   1.432   4.704
  980SOL    HW2 3840   4.013   1.358   4.850
  981SOL     OW 3841   6.954   0.006   4.770
  981SOL    HW1 3842   0.014   7.010   4.719
  981SOL    HW2 3843   6.885   6.961   4.749
  982SOL     OW 3844   0.654   1.691   5.445
  982SOL    HW1 3845   0.595   1.764   5.410
  982SOL    HW2 3846   0.621   1.662   5.535
  983SOL     OW 3847   0.039   3.657   3.413
  983SOL    HW1 3848   0.048   3.592   3.488
  983SOL    HW2 3849   0.089   3.623   3.333
  984SOL     OW 3850   1.826   2.199   2.970
  984SOL    HW1 3851   1.790   2.146   2.894
  984SOL    HW2 3852   1.777   2.286   2.976
  985SOL     OW 3853   6.018   3.567   3.818
  985SOL    HW1 3854   6.039   3.646   3.761
  985SOL    HW2 3855   5.925   3.576   3.855
  986SOL     OW 3856   4.754   4.254   1.472
  986SOL    HW1 3857   4.715   4.282   1.559
  986SOL    HW2 3858   4.700   4.180   1.433
  987SOL     OW 3859   5.690   5.534   3.707
  987SOL    HW1 3860   5.673   5.577   3.618
  987SOL    HW2 3861   5.608   5.484   3.736
  988SOL     OW 3862   3.549   3.800   1.729
  988SOL    HW1 3863   3.598   3.882   1.760
  988SOL    HW2 3864   3.490   3.767   1.803
  989SOL     OW 3865   0.095   2.593   0.500
  989SOL    HW1 3866   0.081   2.505   0.545
  989SOL    HW2 3867   0.034   2.661   0.541
  990SOL     OW 3868   3.505   0.795   2.953
  990SOL    HW1 3869   3.482   0.889   2.927
  990SOL    HW2 3870   3.604   0.785   2.959
  991SOL     OW 3871   6.377   3.952   3.928
  991SOL    HW1 3872   6.435   3.890   3.981
  991SOL    HW2 3873   6.396   3.940   3.830
  992SOL     OW 3874   1.112   2.808   1.217
  992SOL    HW1 3875   1.012   2.805   1.220
  992SOL    HW2 3876   1.142   2.904   1.219
  993SOL     OW 3877   1.244   4.183   1.281
  993SOL    HW1 3878   1.159   4.224   1.247
  993SOL    HW2 3879   1.313   4.185   1.209
  994SOL     OW 3880   3.867   6.468   1.346
  994SOL    HW1 3881   3.768   6.459   1.353
  994SOL    HW2 3882   3.910   6.436   1.431
  995SOL     OW 3883   5.016   3.543   5.889
  995SOL    HW1 3884   5.086   3.476   5.914
  995SOL    HW2 3885   4.941   3.496   5.843
  996SOL     OW 3886   4.446   6.209   5.568
  996SOL    HW1 3887   4.428   6.184   5.663
  996SOL    HW2 3888   4.410   6.139   5.507
  997SOL     OW 3889   1.628   6.810   3.454
  997SOL    HW1 3890   1.627   6.774   3.361
  997SOL    HW2 3891   1.716   6.789   3.497
  998SOL     OW 3892   6.481   0.051   6.355
  998SOL    HW1 3893   6.443   6.989   6.389
  998SOL    HW2 3894   6.470   0.122   6.424
  999SOL     OW 3895   4.844   3.292   1.331
  999SOL    HW1 3896   4.903   3.328   1.404
  999SOL    HW2 3897   4.832   3.363   1.261
 1000SOL     OW 3898   4.068   1.450   1.056
 1000SOL    HW1 3899   4.007   1.530   1.058
 1000SOL    HW2 3900   4.081   1.420   0.961
 1001SOL     OW 3901   2.597   6.540   1.937
 1001SOL    HW1 3902   2.578   6.506   1.845
 1001SOL    HW2 3903   2.627   6.464   1.995
 1002SOL     OW 3904   4.954   2.486   1.890
 1002SOL    HW1 3905   5.012   2.564   1.868
 1002SOL    HW2 3906   4.941   2.430   1.808
 1003SOL     OW 3907   1.449   6.039   2.788
 1003SOL    HW1 3908   1.477   6.016   2.695
 1003SOL    HW2 3909   1.354   6.068   2.788
 1004SOL     OW 3910   6.856   1.584   3.230
 1004SOL    HW1 3911   6.849   1.511   3.162
 1004SOL    HW2 3912   6.796   1.659   3.204
 1005SOL     OW 3913   1.686   4.578   4.242
 1005SOL    HW1 3914   1.766   4.518   4.245
 1005SOL    HW2 3915   1.615   4.535   4.185
 1006SOL     OW 3916   2.199   4.119   0.306
 1006SOL    HW1 3917   2.297   4.099   0.300
 1006SOL    HW2 3918   2.164   4.088   0.395
 1007SOL     OW 3919   4.473   1.677   6.765
 1007SOL    HW1 3920   4.444   1.589   6.803
 1007SOL    HW2 3921   4.572   1.687   6.777
 1008SOL     OW 3922   0.622   4.747   4.989
 1008SOL    HW1 3923   0.693   4.688   5.028
 1008SOL    HW2 3924   0.664   4.817   4.932
 1009SOL     OW 3925   6.142   4.760   5.318
 1009SOL    HW1 3926   6.053   4.754   5.364
 1009SOL    HW2 3927   6.129   4.788   5.223
 1010SOL     OW 3928   2.118   2.861   1.856
 1010SOL    HW1 3929   2.169   2.823   1.933
 1010SOL    HW2 3930   2.107   2.959   1.868
 1011SOL     OW 3931   0.985   5.173   2.675
 1011SOL    HW1 3932   0.919   5.110   2.715
 1011SOL    HW2 3933   0.999   5.251   2.737
 1012SOL     OW 3934   6.121   7.016   2.430
 1012SOL    HW1 3935   6.215   0.027   2.435
 1012SOL    HW2 3936   6.122   6.916   2.442
 1013SOL     OW 3937   6.800   1.061   6.202
 1013SOL    HW1 3938   6.847   1.114   6.131
 1013SOL    HW2 3939   6.839   1.083   6.291
 1014SOL     OW 3940   1.299   4.814   3.763
 1014SOL    HW1 3941   1.363   4.742   3.788
 1014SOL    HW2 3942   1.342   4.877   3.699
 1015SOL     OW 3943   2.913   0.107   6.417
 1015SOL    HW1 3944   3.007   0.142   6.423
 1015SOL    HW2 3945   2.897   0.043   6.492
 1016SOL     OW 3946   5.061   4.030   1.314
 1016SOL    HW1 3947   5.018   4.085   1.384
 1016SOL    HW2 3948   5.035   3.934   1.326
 1017SOL     OW 3949   2.276   1.477   1.716
 1017SOL    HW1 3950   2.321   1.566   1.707
 1017SOL    HW2 3951   2.305   1.416   1.643
 1018SOL     OW 3952   0.165   4.593   3.623
 1018SOL    HW1 3953   0.078   4.626   3.586
 1018SOL    HW2 3954   0.238   4.608   3.557
 1019SOL     OW 3955   6.612   5.186   0.824
 1019SOL    HW1 3956   6.694   5.196   0.880
 1019SOL    HW2 3957   6.612   5.095   0.782
 1020SOL     OW 3958   0.024   0.557   1.662
 1020SOL    HW1 3959   0.077   0.626   1.613
 1020SOL    HW2 3960   6.956   0.552   1.623
 1021SOL     OW 3961   6.392   5.793   2.129
 1021SOL    HW1 3962   6.471   5.834   2.175
 1021SOL    HW2 3963   6.365   5.710   2.176
 1022SOL     OW 3964   2.949   6.139   6.153
 1022SOL    HW1 3965   2.965   6.226   6.106
 1022SOL    HW2 3966   2.902   6.076   6.092
 1023SOL     OW 3967   6.855   1.009   2.914
 1023SOL    HW1 3968   6.943   1.029   2.872
 1023SOL    HW2 3969   6.791   0.977   2.844
 1024SOL     OW 3970   0.919   1.065   4.738
 1024SOL    HW1 3971   0.951   0.978   4.775
 1024SOL    HW2 3972   0.826   1.055   4.704
 1025SOL     OW 3973   5.074   3.486   6.612
 1025SOL    HW1 3974   5.128   3.565   6.582
 1025SOL    HW2 3975   4.988   3.518   6.652
 1026SOL     OW 3976   3.177   2.388   1.684
 1026SOL    HW1 3977   3.238   2.310   1.694
 1026SOL    HW2 3978   3.098   2.376   1.744
 1027SOL     OW 3979   1.416   6.045   1.800
 1027SOL    HW1 3980   1.503   6.044   1.751
 1027SOL    HW2 3981   1.350   6.100   1.750
 1028SOL     OW 3982   1.200   6.207   3.245
 1028SOL    HW1 3983   1.285   6.154   3.244
 1028SOL    HW2 3984   1.130   6.157   3.194
 1029SOL     OW 3985   1.198   2.233   5.704
 1029SOL    HW1 3986   1.158   2.275   5.785
 1029SOL    HW2 3987   1.131   2.234   5.629
 1030SOL     OW 3988   3.253   3.132   1.815
 1030SOL    HW1 3989   3.211   3.213   1.773
 1030SOL    HW2 3990   3.187   3.057   1.816
 1031SOL     OW 3991   3.566   3.265   1.703
 1031SOL    HW1 3992   3.542   3.181   1.753
 1031SOL    HW2 3993   3.489   3.329   1.708
 1032SOL     OW 3994   2.223   1.092   5.626
 1032SOL    HW1 3995   2.149   1.026   5.630
 1032SOL    HW2 3996   2.311   1.044   5.623
 1033SOL     OW 3997   1.350   5.886   2.143
 1033SOL    HW1 3998   1.257   5.877   2.108
 1033SOL    HW2 3999   1.380   5.981   2.132
 1034SOL     OW 4000   3.391   6.352   4.501
 1034SOL    HW1 4001   3.407   6.447   4.527
 1034SOL    HW2 4002   3.399   6.294   4.582
 1035SOL     OW 4003   0.617   2.259   5.761
 1035SOL    HW1 4004   0.676   2.304   5.828
 1035SOL    HW2 4005   0.621   2.159   5.774
 1036SOL     OW 4006   4.911   1.359   1.561
 1036SOL    HW1 4007   4.896   1.446   1.514
 1036SOL    HW2 4008   4.846   1.292   1.527
 1037SOL     OW 4009   2.170   2.334   2.607
 1037SOL    HW1 4010   2.219   2.396   2.545
 1037SOL    HW2 4011   2.116   2.269   2.552
 1038SOL     OW 4012   2.177   0.749   6.671
 1038SOL    HW1 4013   2.124   0.704   6.743
 1038SOL    HW2 4014   2.135   0.732   6.582
 1039SOL     OW 4015   3.297   2.989   3.663
 1039SOL    HW1 4016   3.289   2.972   3.761
 1039SOL    HW2 4017   3.206   2.995   3.622
 1040SOL     OW 4018   5.188   0.746   3.205
 1040SOL    HW1 4019   5.159   0.654   3.234
 1040SOL    HW2 4020   5.226   0.740   3.113
 1041SOL     OW 4021   6.710   6.417   4.750
 1041SOL    HW1 4022   6.736   6.423   4.654
 1041SOL    HW2 4023   6.733   6.326   4.785
 1042SOL     OW 4024   4.649   5.248   2.344
 1042SOL    HW1 4025   4.686   5.161   2.374
 1042SOL    HW2 4026   4.692   5.323   2.395
 1043SOL     OW 4027   3.359   1.314   3.300
 1043SOL    HW1 4028   3.418   1.362   3.235
 1043SOL    HW2 4029   3.277   1.282   3.254
 1044SOL     OW 4030   6.052   5.222   1.402
 1044SOL    HW1 4031   5.991   5.290   1.361
 1044SOL    HW2 4032   6.009   5.131   1.397
 1045SOL     OW 4033   2.266   0.111   3.630
 1045SOL    HW1 4034   2.272   0.150   3.538
 1045SOL    HW2 4035   2.359   0.100   3.667
 1046SOL     OW 4036   2.803   1.104   1.432
 1046SOL    HW1 4037   2.847   1.139   1.515
 1046SOL    HW2 4038   2.862   1.119   1.353
 1047SOL     OW 4039   3.443   6.587   3.802
 1047SOL    HW1 4040   3.351   6.608   3.834
 1047SOL    HW2 4041   3.462   6.490   3.819
 1048SOL     OW 4042   2.314   6.317   2.099
 1048SOL    HW1 4043   2.356   6.296   2.187
 1048SOL    HW2 4044   2.361   6.395   2.058
 1049SOL     OW 4045   4.334   0.089   4.385
 1049SOL    HW1 4046   4.271   0.156   4.345
 1049SOL    HW2 4047   4.379   0.129   4.464
 1050SOL     OW 4048   3.915   5.074   3.391
 1050SOL    HW1 4049   3.860   5.118   3.320
 1050SOL    HW2 4050   3.887   4.978   3.401
 1051SOL     OW 4051   6.947   6.594   0.366
 1051SOL    HW1 4052   6.889   6.571   0.444
 1051SOL    HW2 4053   6.909   6.673   0.318
 1052SOL     OW 4054   4.040   0.278   5.924
 1052SOL    HW1 4055   3.978   0.342   5.971
 1052SOL    HW2 4056   4.100   0.329   5.863
 1053SOL     OW 4057   5.475   3.725   2.010
 1053SOL    HW1 4058   5.516   3.696   1.923
 1053SOL    HW2 4059   5.437   3.817   2.000
 1054SOL     OW 4060   3.165   3.991   0.687
 1054SOL    HW1 4061   3.099   3.917   0.671
 1054SOL    HW2 4062   3.257   3.960   0.664
 1055SOL     OW 4063   5.124   5.620   6.838
 1055SOL    HW1 4064   5.168   5.593   6.923
 1055SOL    HW2 4065   5.051   5.556   6.815
 1056SOL     OW 4066   2.101   4.091   0.565
 1056SOL    HW1 4067   2.173   4.094   0.634
 1056SOL    HW2 4068   2.027   4.153   0.592
 1057SOL     OW 4069   3.298   1.491   1.776
 1057SOL    HW1 4070   3.362   1.415   1.792
 1057SOL    HW2 4071   3.332   1.573   1.821
 1058SOL     OW 4072   3.849   2.157   3.013
 1058SOL    HW1 4073   3.886   2.112   3.094
 1058SOL    HW2 4074   3.840   2.255   3.030
 1059SOL     OW 4075   2.076   6.331   1.784
 1059SOL    HW1 4076   2.003   6.329   1.852
 1059SOL    HW2 4077   2.098   6.426   1.762
 1060SOL     OW 4078   0.348   5.531   4.372
 1060SOL    HW1 4079   0.257   5.552   4.408
 1060SOL    HW2 4080   0.414   5.528   4.447
 1061SOL     OW 4081   6.519   4.144   6.806
 1061SOL    HW1 4082   6.580   4.109   6.877
 1061SOL    HW2 4083   6.442   4.191   6.850
 1062SOL     OW 4084   4.027   6.291   4.938
 1062SOL    HW1 4085   4.012   6.370   4.878
 1062SOL    HW2 4086   3.949   6.281   5.000
 1063SOL     OW 4087   0.924   6.800   5.894
 1063SOL    HW1 4088   1.008   6.813   5.948
 1063SOL    HW2 4089   0.941   6.827   5.800
 1064SOL     OW 4090   0.608   4.751   1.191
 1064SOL    HW1 4091   0.545   4.814   1.146
 1064SOL    HW2 4092   0.690   4.739   1.136
 1065SOL     OW 4093   3.882   0.930   3.984
 1065SOL    HW1 4094   3.953   0.884   4.037
 1065SOL    HW2 4095   3.820   0.862   3.945
 1066SOL     OW 4096   4.643   6.852   2.302
 1066SOL    HW1 4097   4.646   6.753   2.291
 1066SOL    HW2 4098   4.614   6.895   2.216
 1067SOL     OW 4099   2.384   1.137   0.248
 1067SOL    HW1 4100   2.312   1.204   0.265
 1067SOL    HW2 4101   2.361   1.050   0.293
 1068SOL     OW 4102   6.423   3.803   0.882
 1068SOL    HW1 4103   6.501   3.742   0.892
 1068SOL    HW2 4104   6.379   3.787   0.794
 1069SOL     OW 4105   5.669   4.721   0.611
 1069SOL    HW1 4106   5.739   4.730   0.540
 1069SOL    HW2 4107   5.579   4.731   0.570
 1070SOL     OW 4108   1.972   0.390   2.454
 1070SOL    HW1 4109   1.889   0.358   2.408
 1070SOL    HW2 4110   2.024   0.448   2.392
 1071SOL     OW 4111   6.974   1.854   4.880
 1071SOL    HW1 4112   6.939   1.875   4.789
 1071SOL    HW2 4113   0.020   1.921   4.905
 1072SOL     OW 4114   2.443   0.636   1.645
 1072SOL    HW1 4115   2.524   0.676   1.689
 1072SOL    HW2 4116   2.363   0.651   1.703
 1073SOL     OW 4117   5.593   1.688   3.157
 1073SOL    HW1 4118   5.566   1.783   3.142
 1073SOL    HW2 4119   5.600   1.640   3.070
 1074SOL     OW 4120   3.189   5.069   2.346
 1074SOL    HW1 4121   3.268   5.083   2.286
 1074SOL    HW2 4122   3.121   5.013   2.299
 1075SOL     OW 4123   5.712   1.731   5.017
 1075SOL    HW1 4124   5.707   1.686   4.928
 1075SOL    HW2 4125   5.691   1.828   5.007
 1076SOL     OW 4126   2.165   4.191   5.204
 1076SOL    HW1 4127   2.220   4.143   5.135
 1076SOL    HW2 4128   2.133   4.126   5.273
 1077SOL     OW 4129   0.051   0.682   0.217
 1077SOL    HW1 4130   6.999   0.724   0.268
 1077SOL    HW2 4131   0.016   0.642   0.132
 1078SOL     OW 4132   6.684   6.731   3.779
 1078SOL    HW1 4133   6.610   6.710   3.715
 1078SOL    HW2 4134   6.749   6.654   3.781
 1079SOL     OW 4135   1.252   5.599   2.979
 1079SOL    HW1 4136   1.302   5.521   2.941
 1079SOL    HW2 4137   1.235   5.666   2.906
 1080SOL     OW 4138   2.215   5.979   5.340
 1080SOL    HW1 4139   2.280   6.033   5.287
 1080SOL    HW2 4140   2.239   5.882   5.333
 1081SOL     OW 4141   6.766   6.145   4.771
 1081SOL    HW1 4142   6.843   6.088   4.744
 1081SOL    HW2 4143   6.709   6.165   4.692
 1082SOL     OW 4144   6.025   0.865   5.496
 1082SOL    HW1 4145   6.107   0.808   5.496
 1082SOL    HW2 4146   6.000   0.889   5.590
 1083SOL     OW 4147   5.157   4.245   0.261
 1083SOL    HW1 4148   5.129   4.150   0.275
 1083SOL    HW2 4149   5.197   4.255   0.170
 1084SOL     OW 4150   6.386   0.082   6.846
 1084SOL    HW1 4151   6.413   0.072   6.942
 1084SOL    HW2 4152   6.291   0.110   6.840
 1085SOL     OW 4153   1.646   3.368   4.296
 1085SOL    HW1 4154   1.585   3.404   4.226
 1085SOL    HW2 4155   1.643   3.428   4.376
 1086SOL     OW 4156   6.409   4.562   6.186
 1086SOL    HW1 4157   6.441   4.637   6.128
 1086SOL    HW2 4158   6.417   4.476   6.137
 1087SOL     OW 4159   1.073   1.051   5.298
 1087SOL    HW1 4160   0.976   1.038   5.317
 1087SOL    HW2 4161   1.084   1.102   5.213
 1088SOL     OW 4162   0.408   5.436   3.950
 1088SOL    HW1 4163   0.344   5.360   3.957
 1088SOL    HW2 4164   0.499   5.402   3.926
 1089SOL     OW 4165   7.014   5.285   5.110
 1089SOL    HW1 4166   0.078   5.308   5.151
 1089SOL    HW2 4167   7.021   5.287   5.010
 1090SOL     OW 4168   5.798   1.983   4.235
 1090SOL    HW1 4169   5.883   2.025   4.266
 1090SOL    HW2 4170   5.725   2.003   4.300
 1091SOL     OW 4171   2.111   3.426   3.807
 1091SOL    HW1 4172   2.108   3.377   3.894
 1091SOL    HW2 4173   2.151   3.517   3.820
 1092SOL     OW 4174   0.770   5.030   1.201
 1092SOL    HW1 4175   0.837   4.982   1.143
 1092SOL    HW2 4176   0.785   5.005   1.297
 1093SOL     OW 4177   2.250   6.762   1.311
 1093SOL    HW1 4178   2.260   6.705   1.229
 1093SOL    HW2 4179   2.323   6.831   1.313
 1094SOL     OW 4180   0.922   6.757   2.807
 1094SOL    HW1 4181   0.871   6.829   2.759
 1094SOL    HW2 4182   0.945   6.789   2.899
 1095SOL     OW 4183   0.271   2.503   6.311
 1095SOL    HW1 4184   0.334   2.550   6.249
 1095SOL    HW2 4185   0.220   2.569   6.364
 1096SOL     OW 4186   2.812   5.763   0.910
 1096SOL    HW1 4187   2.897   5.784   0.958
 1096SOL    HW2 4188   2.815   5.669   0.876
 1097SOL     OW 4189   2.083   5.572   3.761
 1097SOL    HW1 4190   2.063   5.501   3.828
 1097SOL    HW2 4191   2.164   5.547   3.708
 1098SOL     OW 4192   5.899   4.140   6.656
 1098SOL    HW1 4193   5.958   4.221   6.664
 1098SOL    HW2 4194   5.902   4.106   6.562
 1099SOL     OW 4195   4.392   1.612   5.985
 1099SOL    HW1 4196   4.385   1.554   6.066
 1099SOL    HW2 4197   4.385   1.708   6.012
 1100SOL     OW 4198   3.971   1.180   3.889
 1100SOL    HW1 4199   3.924   1.097   3.920
 1100SOL    HW2 4200   4.036   1.157   3.817
 1101SOL     OW 4201   5.715   3.263   5.315
 1101SOL    HW1 4202   5.647   3.223   5.253
 1101SOL    HW2 4203   5.799   3.210   5.310
 1102SOL     OW 4204   2.370   0.933   4.482
 1102SOL    HW1 4205   2.393   0.963   4.574
 1102SOL    HW2 4206   2.345   1.012   4.426
 1103SOL     OW 4207   2.628   1.717   6.825
 1103SOL    HW1 4208   2.672   1.694   6.739
 1103SOL    HW2 4209   2.659   1.807   6.856
 1104SOL     OW 4210   1.014   4.078   3.571
 1104SOL    HW1 4211   0.947   4.079   3.497
 1104SOL    HW2 4212   0.992   4.151   3.636
 1105SOL     OW 4213   5.300   2.051   5.297
 1105SOL    HW1 4214   5.363   1.984   5.337
 1105SOL    HW2 4215   5.212   2.045   5.344
 1106SOL     OW 4216   0.891   1.683   0.387
 1106SOL    HW1 4217   0.981   1.701   0.348
 1106SOL    HW2 4218   0.832   1.641   0.318
 1107SOL     OW 4219   1.220   0.232   6.473
 1107SOL    HW1 4220   1.244   0.140   6.440
 1107SOL    HW2 4221   1.216   0.295   6.396
 1108SOL     OW 4222   3.415   6.158   4.292
 1108SOL    HW1 4223   3.420   6.241   4.347
 1108SOL    HW2 4224   3.497   6.103   4.307
 1109SOL     OW 4225   5.869   1.569   3.622
 1109SOL    HW1 4226   5.886   1.624   3.540
 1109SOL    HW2 4227   5.946   1.506   3.637
 1110SOL     OW 4228   3.293   1.301   2.896
 1110SOL    HW1 4229   3.214   1.250   2.862
 1110SOL    HW2 4230   3.263   1.386   2.937
 1111SOL     OW 4231   4.653   4.436   6.294
 1111SOL    HW1 4232   4.619   4.501   6.362
 1111SOL    HW2 4233   4.715   4.371   6.338
 1112SOL     OW 4234   6.214   6.946   3.124
 1112SOL    HW1 4235   6.152   0.000   3.113
 1112SOL    HW2 4236   6.185   6.872   3.064
 1113SOL     OW 4237   6.404   3.767   2.465
 1113SOL    HW1 4238   6.440   3.692   2.521
 1113SOL    HW2 4239   6.305   3.774   2.478
 1114SOL     OW 4240   3.628   2.470   6.040
 1114SOL    HW1 4241   3.669   2.556   6.069
 1114SOL    HW2 4242   3.697   2.397   6.045
 1115SOL     OW 4243   3.549   4.274   5.695
 1115SOL    HW1 4244   3.638   4.270   5.650
 1115SOL    HW2 4245   3.493   4.197   5.666
 1116SOL     OW 4246   5.078   1.230   0.171
 1116SOL    HW1 4247   4.987   1.270   0.161
 1116SOL    HW2 4248   5.139   1.267   0.101
 1117SOL     OW 4249   1.270   2.440   1.466
 1117SOL    HW1 4250   1.221   2.416   1.382
 1117SOL    HW2 4251   1.231   2.523   1.505
 1118SOL     OW 4252   2.765   5.990   6.647
 1118SOL    HW1 4253   2.839   5.984   6.714
 1118SOL    HW2 4254   2.801   6.015   6.558
 1119SOL     OW 4255   4.351   4.797   2.871
 1119SOL    HW1 4256   4.354   4.769   2.968
 1119SOL    HW2 4257   4.411   4.738   2.818
 1120SOL     OW 4258   6.350   5.720   1.274
 1120SOL    HW1 4259   6.331   5.779   1.352
 1120SOL    HW2 4260   6.349   5.624   1.304
 1121SOL     OW 4261   0.831   5.496   4.320
 1121SOL    HW1 4262   0.742   5.453   4.337
 1121SOL    HW2 4263   0.900   5.425   4.304
 1122SOL     OW 4264   5.478   3.060   1.854
 1122SOL    HW1 4265   5.457   3.081   1.949
 1122SOL    HW2 4266   5.576   3.038   1.845
 1123SOL     OW 4267   4.472   1.971   2.862
 1123SOL    HW1 4268   4.503   2.003   2.952
 1123SOL    HW2 4269   4.372   1.969   2.860
 1124SOL     OW 4270   1.448   2.986   4.998
 1124SOL    HW1 4271   1.518   2.916   4.983
 1124SOL    HW2 4272   1.361   2.941   5.018
 1125SOL     OW 4273   1.833   3.820   4.830
 1125SOL    HW1 4274   1.846   3.884   4.906
 1125SOL    HW2 4275   1.766   3.857   4.766
 1126SOL     OW 4276   4.417   5.607   5.685
 1126SOL    HW1 4277   4.355   5.614   5.606
 1126SOL    HW2 4278   4.371   5.557   5.758
 1127SOL     OW 4279   5.344   6.176   3.696
 1127SOL    HW1 4280   5.438   6.180   3.730
 1127SOL    HW2 4281   5.295   6.102   3.741
 1128SOL     OW 4282   6.118   0.617   3.706
 1128SOL    HW1 4283   6.174   0.678   3.761
 1128SOL    HW2 4284   6.022   0.645   3.713
 1129SOL     OW 4285   1.716   6.773   0.895
 1129SOL    HW1 4286   1.815   6.765   0.879
 1129SOL    HW2 4287   1.670   6.696   0.851
 1130SOL     OW 4288   1.861   5.484   2.441
 1130SOL    HW1 4289   1.896   5.417   2.375
 1130SOL    HW2 4290   1.924   5.490   2.519
 1131SOL     OW 4291   1.411   6.886   3.739
 1131SOL    HW1 4292   1.452   6.796   3.752
 1131SOL    HW2 4293   1.448   6.927   3.656
 1132SOL     OW 4294   4.674   1.013   2.460
 1132SOL    HW1 4295   4.734   1.089   2.484
 1132SOL    HW2 4296   4.730   0.933   2.437
 1133SOL     OW 4297   1.532   0.320   5.139
 1133SOL    HW1 4298   1.500   0.233   5.102
 1133SOL    HW2 4299   1.523   0.319   5.238
 1134SOL     OW 4300   4.527   6.959   2.061
 1134SOL    HW1 4301   4.583   7.016   2.001
 1134SOL    HW2 4302   4.435   6.998   2.070
 1135SOL     OW 4303   2.632   6.631   3.900
 1135SOL    HW1 4304   2.688   6.612   3.980
 1135SOL    HW2 4305   2.690   6.663   3.825
 1136SOL     OW 4306   2.908   6.528   2.714
 1136SOL    HW1 4307   2.993   6.502   2.669
 1136SOL    HW2 4308   2.923   6.609   2.771
 1137SOL     OW 4309   0.519   6.476   6.779
 1137SOL    HW1 4310   0.563   6.399   6.827
 1137SOL    HW2 4311   0.420   6.469   6.788
 1138SOL     OW 4312   1.756   3.416   5.347
 1138SOL    HW1 4313   1.730   3.341   5.287
 1138SOL    HW2 4314   1.841   3.392   5.395
 1139SOL     OW 4315   2.404   4.735   4.080
 1139SOL    HW1 4316   2.397   4.821   4.131
 1139SOL    HW2 4317   2.352   4.743   3.994
 1140SOL     OW 4318   1.853   1.208   1.668
 1140SOL    HW1 4319   1.833   1.235   1.573
 1140SOL    HW2 4320   1.824   1.114   1.683
 1141SOL     OW 4321   6.053   5.343   6.058
 1141SOL    HW1 4322   5.996   5.264   6.078
 1141SOL    HW2 4323   6.071   5.393   6.143
 1142SOL     OW 4324   2.463   0.216   3.828
 1142SOL    HW1 4325   2.471   0.315   3.813
 1142SOL    HW2 4326   2.463   0.198   3.927
 1143SOL     OW 4327   1.187   3.593   1.836
 1143SOL    HW1 4328   1.205   3.689   1.857
 1143SOL    HW2 4329   1.107   3.585   1.777
 1144SOL     OW 4330   5.173   4.182   2.993
 1144SOL    HW1 4331   5.226   4.230   2.922
 1144SOL    HW2 4332   5.124   4.249   3.048
 1145SOL     OW 4333   1.419   2.492   0.783
 1145SOL    HW1 4334   1.331   2.450   0.759
 1145SOL    HW2 4335   1.421   2.514   0.880
 1146SOL     OW 4336   0.741   1.676   1.530
 1146SOL    HW1 4337   0.658   1.718   1.493
 1146SOL    HW2 4338   0.804   1.655   1.455
 1147SOL     OW 4339   3.129   5.701   1.293
 1147SOL    HW1 4340   3.172   5.612   1.310
 1147SOL    HW2 4341   3.072   5.725   1.371
 1148SOL     OW 4342   4.235   6.314   2.110
 1148SOL    HW1 4343   4.309   6.282   2.052
 1148SOL    HW2 4344   4.156   6.338   2.054
 1149SOL     OW 4345   6.292   2.728   2.050
 1149SOL    HW1 4346   6.275   2.825   2.032
 1149SOL    HW2 4347   6.369   2.719   2.114
 1150SOL     OW 4348   0.790   4.551   6.936
 1150SOL    HW1 4349   0.820   4.645   6.928
 1150SOL    HW2 4350   0.838   4.494   6.869
 1151SOL     OW 4351   6.558   5.386   4.059
 1151SOL    HW1 4352   6.583   5.298   4.100
 1151SOL    HW2 4353   6.460   5.387   4.041
 1152SOL     OW 4354   4.595   0.581   0.152
 1152SOL    HW1 4355   4.675   0.585   0.212
 1152SOL    HW2 4356   4.535   0.506   0.180
 1153SOL     OW 4357   0.123   7.016   1.261
 1153SOL    HW1 4358   0.104   6.961   1.179
 1153SOL    HW2 4359   0.220   7.011   1.283
 1154SOL     OW 4360   1.195   3.586   2.240
 1154SOL    HW1 4361   1.190   3.500   2.291
 1154SOL    HW2 4362   1.290   3.603   2.214
 1155SOL     OW 4363   2.268   6.320   4.949
 1155SOL    HW1 4364   2.265   6.248   4.880
 1155SOL    HW2 4365   2.253   6.409   4.904
 1156SOL     OW 4366   4.319   1.639   4.882
 1156SOL    HW1 4367   4.294   1.695   4.961
 1156SOL    HW2 4368   4.356   1.698   4.810
 1157SOL     OW 4369   4.130   0.463   5.199
 1157SOL    HW1 4370   4.219   0.451   5.243
 1157SOL    HW2 4371   4.143   0.469   5.100
 1158SOL     OW 4372   5.019   5.952   4.315
 1158SOL    HW1 4373   5.061   5.862   4.302
 1158SOL    HW2 4374   4.951   5.947   4.388
 1159SOL     OW 4375   6.189   6.336   2.995
 1159SOL    HW1 4376   6.215   6.326   2.899
 1159SOL    HW2 4377   6.167   6.246   3.033
 1160SOL     OW 4378   4.286   6.585   1.288
 1160SOL    HW1 4379   4.207   6.577   1.349
 1160SOL    HW2 4380   4.256   6.576   1.193
 1161SOL     OW 4381   6.812   5.120   5.989
 1161SOL    HW1 4382   6.734   5.147   6.046
 1161SOL    HW2 4383   6.850   5.034   6.023
 1162SOL     OW 4384   1.886   2.788   5.761
 1162SOL    HW1 4385   1.879   2.766   5.858
 1162SOL    HW2 4386   1.978   2.763   5.728
 1163SOL     OW 4387   5.996   4.137   1.897
 1163SOL    HW1 4388   5.944   4.065   1.943
 1163SOL    HW2 4389   5.947   4.167   1.815
 1164SOL     OW 4390   5.392   2.551   4.474
 1164SOL    HW1 4391   5.304   2.538   4.519
 1164SOL    HW2 4392   5.381   2.608   4.393
 1165SOL     OW 4393   4.811   6.204   3.554
 1165SOL    HW1 4394   4.825   6.121   3.607
 1165SOL    HW2 4395   4.768   6.181   3.467
 1166SOL     OW 4396   1.760   6.388   6.862
 1166SOL    HW1 4397   1.835   6.349   6.915
 1166SOL    HW2 4398   1.796   6.451   6.793
 1167SOL     OW 4399   4.804   3.909   1.782
 1167SOL    HW1 4400   4.781   3.956   1.868
 1167SOL    HW2 4401   4.747   3.944   1.708
 1168SOL     OW 4402   6.104   2.506   2.308
 1168SOL    HW1 4403   6.015   2.546   2.331
 1168SOL    HW2 4404   6.096   2.406   2.311
 1169SOL     OW 4405   6.034   1.495   5.610
 1169SOL    HW1 4406   5.988   1.482   5.697
 1169SOL    HW2 4407   6.122   1.448   5.610
 1170SOL     OW 4408   4.678   0.187   2.796
 1170SOL    HW1 4409   4.656   0.254   2.725
 1170SOL    HW2 4410   4.599   0.175   2.856
 1171SOL     OW 4411   2.230   0.167   0.567
 1171SOL    HW1 4412   2.243   0.238   0.636
 1171SOL    HW2 4413   2.226   0.077   0.610
 1172SOL     OW 4414   5.381   3.148   0.447
 1172SOL    HW1 4415   5.332   3.138   0.360
 1172SOL    HW2 4416   5.364   3.239   0.485
 1173SOL     OW 4417   2.314   0.697   1.239
 1173SOL    HW1 4418   2.250   0.738   1.174
 1173SOL    HW2 4419   2.403   0.742   1.232
 1174SOL     OW 4420   3.675   3.611   1.584
 1174SOL    HW1 4421   3.631   3.673   1.648
 1174SOL    HW2 4422   3.772   3.635   1.575
 1175SOL     OW 4423   4.305   3.022   5.690
 1175SOL    HW1 4424   4.223   3.042   5.637
 1175SOL    HW2 4425   4.303   2.927   5.721
 1176SOL     OW 4426   4.523   3.324   5.899
 1176SOL    HW1 4427   4.543   3.382   5.977
 1176SOL    HW2 4428   4.518   3.229   5.928
 1177SOL     OW 4429   6.377   2.906   5.452
 1177SOL    HW1 4430   6.329   2.819   5.460
 1177SOL    HW2 4431   6.456   2.906   5.513
 1178SOL     OW 4432   2.682   3.652   0.599
 1178SOL    HW1 4433   2.618   3.577   0.616
 1178SOL    HW2 4434   2.718   3.644   0.506
 1179SOL     OW 4435   1.943   6.052   0.294
 1179SOL    HW1 4436   1.951   6.057   0.394
 1179SOL    HW2 4437   1.951   6.144   0.256
 1180SOL     OW 4438   2.882   5.760   2.301
 1180SOL    HW1 4439   2.959   5.756   2.364
 1180SOL    HW2 4440   2.796   5.756   2.353
 1181SOL     OW 4441   0.405   5.839   6.475
 1181SOL    HW1 4442   0.393   5.804   6.383
 1181SOL    HW2 4443   0.332   5.806   6.534
 1182SOL     OW 4444   4.089   5.672   3.437
 1182SOL    HW1 4445   4.032   5.592   3.457
 1182SOL    HW2 4446   4.039   5.735   3.379
 1183SOL     OW 4447   2.037   4.556   0.515
 1183SOL    HW1 4448   2.009   4.631   0.575
 1183SOL    HW2 4449   2.004   4.469   0.553
 1184SOL     OW 4450   0.534   0.244   4.725
 1184SOL    HW1 4451   0.544   0.332   4.678
 1184SOL    HW2 4452   0.605   0.181   4.695
 1185SOL     OW 4453   0.440   0.795   6.771
 1185SOL    HW1 4454   0.416   0.771   6.865
 1185SOL    HW2 4455   0.525   0.750   6.745
 1186SOL     OW 4456   4.932   5.448   4.749
 1186SOL    HW1 4457   5.022   5.413   4.776
 1186SOL    HW2 4458   4.862   5.381   4.774
 1187SOL     OW 4459   6.569   6.568   0.120
 1187SOL    HW1 4460   6.544   6.664   0.106
 1187SOL    HW2 4461   6.567   6.546   0.217
 1188SOL     OW 4462   3.359   6.043   5.101
 1188SOL    HW1 4463   3.423   6.029   5.177
 1188SOL    HW2 4464   3.266   6.052   5.137
 1189SOL     OW 4465   6.834   3.111   2.898
 1189SOL    HW1 4466   6.785   3.198   2.897
 1189SOL    HW2 4467   6.780   3.041   2.854
 1190SOL     OW 4468   2.550   6.445   3.248
 1190SOL    HW1 4469   2.618   6.476   3.182
 1190SOL    HW2 4470   2.575   6.355   3.282
 1191SOL     OW 4471   4.503   4.849   3.589
 1191SOL    HW1 4472   4.496   4.921   3.520
 1191SOL    HW2 4473   4.522   4.890   3.678
 1192SOL     OW 4474   3.720   5.183   3.204
 1192SOL    HW1 4475   3.790   5.233   3.152
 1192SOL    HW2 4476   3.651   5.148   3.141
 1193SOL     OW 4477   6.239   3.860   4.487
 1193SOL    HW1 4478   6.327   3.814   4.475
 1193SOL    HW2 4479   6.253   3.959   4.483
 1194SOL     OW 4480   5.476   6.604   1.499
 1194SOL    HW1 4481   5.391   6.583   1.546
 1194SOL    HW2 4482   5.471   6.570   1.405
 1195SOL     OW 4483   6.012   4.375   1.609
 1195SOL    HW1 4484   6.112   4.376   1.619
 1195SOL    HW2 4485   5.989   4.379   1.512
 1196SOL     OW 4486   0.007   6.111   2.894
 1196SOL    HW1 4487   0.024   6.045   2.967
 1196SOL    HW2 4488   6.933   6.131   2.889
 1197SOL     OW 4489   3.649   0.806   6.507
 1197SOL    HW1 4490   3.596   0.877   6.462
 1197SOL    HW2 4491   3.701   0.846   6.583
 1198SOL     OW 4492   1.117   3.006   1.916
 1198SOL    HW1 4493   1.022   3.000   1.885
 1198SOL    HW2 4494   1.142   3.102   1.930
 1199SOL     OW 4495   4.422   4.714   1.791
 1199SOL    HW1 4496   4.444   4.651   1.866
 1199SOL    HW2 4497   4.335   4.686   1.749
 1200SOL     OW 4498   3.383   3.739   3.249
 1200SOL    HW1 4499   3.382   3.700   3.157
 1200SOL    HW2 4500   3.314   3.810   3.255
 1201SOL     OW 4501   1.274   1.085   4.231
 1201SOL    HW1 4502   1.365   1.066   4.193
 1201SOL    HW2 4503   1.282   1.143   4.311
 1202SOL     OW 4504   1.052   5.782   6.550
 1202SOL    HW1 4505   0.997   5.734   6.481
 1202SOL    HW2 4506   1.134   5.820   6.507
 1203SOL     OW 4507   5.765   6.139   6.572
 1203SOL    HW1 4508   5.790   6.235   6.564
 1203SOL    HW2 4509   5.665   6.131   6.580
 1204SOL     OW 4510   2.648   7.023   1.136
 1204SOL    HW1 4511   2.599   6.937   1.118
 1204SOL    HW2 4512   2.732   0.002   1.082
 1205SOL     OW 4513   5.619   3.899   1.365
 1205SOL    HW1 4514   5.528   3.871   1.397
 1205SOL    HW2 4515   5.635   3.994   1.391
 1206SOL     OW 4516   3.362   2.800   5.099
 1206SOL    HW1 4517   3.339   2.712   5.059
 1206SOL    HW2 4518   3.327   2.874   5.041
 1207SOL     OW 4519   1.644   7.004   1.002
 1207SOL    HW1 4520   1.666   6.925   0.944
 1207SOL    HW2 4521   1.729   0.024   1.032
 1208SOL     OW 4522   3.214   3.914   0.369
 1208SOL    HW1 4523   3.301   3.882   0.407
 1208SOL    HW2 4524   3.148   3.839   0.371
 1209SOL     OW 4525   3.776   0.600   5.338
 1209SOL    HW1 4526   3.864   0.647   5.349
 1209SOL    HW2 4527   3.737   0.624   5.249
 1210SOL     OW 4528   2.538   0.126   3.168
 1210SOL    HW1 4529   2.557   0.031   3.193
 1210SOL    HW2 4530   2.471   0.128   3.094
 1211SOL     OW 4531   1.592   3.639   1.362
 1211SOL    HW1 4532   1.587   3.581   1.282
 1211SOL    HW2 4533   1.580   3.735   1.335
 1212SOL     OW 4534   0.064   0.638   6.226
 1212SOL    HW1 4535   0.070   0.623   6.325
 1212SOL    HW2 4536   0.138   0.590   6.180
 1213SOL     OW 4537   6.519   2.461   0.484
 1213SOL    HW1 4538   6.527   2.494   0.390
 1213SOL    HW2 4539   6.444   2.395   0.490
 1214SOL     OW 4540   6.783   2.915   0.095
 1214SOL    HW1 4541   6.874   2.899   0.057
 1214SOL    HW2 4542   6.789   2.923   0.194
 1215SOL     OW 4543   1.655   3.738   4.080
 1215SOL    HW1 4544   1.725   3.766   4.146
 1215SOL    HW2 4545   1.671   3.786   3.993
 1216SOL     OW 4546   4.671   0.848   0.490
 1216SOL    HW1 4547   4.672   0.830   0.392
 1216SOL    HW2 4548   4.706   0.940   0.507
 1217SOL     OW 4549   1.348   5.267   0.853
 1217SOL    HW1 4550   1.408   5.313   0.919
 1217SOL    HW2 4551   1.285   5.207   0.902
 1218SOL     OW 4552   1.713   5.043   4.542
 1218SOL    HW1 4553   1.732   4.949   4.569
 1218SOL    HW2 4554   1.739   5.105   4.617
 1219SOL     OW 4555   5.370   5.517   2.331
 1219SOL    HW1 4556   5.416   5.429   2.319
 1219SOL    HW2 4557   5.437   5.585   2.363
 1220SOL     OW 4558   0.884   5.525   3.368
 1220SOL    HW1 4559   0.817   5.464   3.326
 1220SOL    HW2 4560   0.959   5.541   3.304
 1221SOL     OW 4561   4.946   2.949   5.600
 1221SOL    HW1 4562   5.009   2.974   5.527
 1221SOL    HW2 4563   4.966   2.856   5.631
 1222SOL     OW 4564   5.946   6.899   6.888
 1222SOL    HW1 4565   5.906   6.825   6.834
 1222SOL    HW2 4566   6.002   6.957   6.829
 1223SOL     OW 4567   3.897   0.440   0.756
 1223SOL    HW1 4568   3.904   0.466   0.852
 1223SOL    HW2 4569   3.809   0.470   0.720
 1224SOL     OW 4570   2.093   6.209   0.666
 1224SOL    HW1 4571   2.057   6.119   0.642
 1224SOL    HW2 4572   2.097   6.218   0.766
 1225SOL     OW 4573   3.412   4.288   6.242
 1225SOL    HW1 4574   3.501   4.296   6.198
 1225SOL    HW2 4575   3.374   4.380   6.258
 1226SOL     OW 4576   2.764   4.572   0.970
 1226SOL    HW1 4577   2.667   4.549   0.976
 1226SOL    HW2 4578   2.808   4.514   0.902
 1227SOL     OW 4579   6.962   3.558   6.325
 1227SOL    HW1 4580   6.876   3.597   6.359
 1227SOL    HW2 4581   6.972   3.580   6.228
 1228SOL     OW 4582   3.917   3.390   6.139
 1228SOL    HW1 4583   3.846   3.414   6.204
 1228SOL    HW2 4584   3.899   3.299   6.102
 1229SOL     OW 4585   3.860   5.009   6.106
 1229SOL    HW1 4586   3.766   5.041   6.116
 1229SOL    HW2 4587   3.875   4.931   6.165
 1230SOL     OW 4588   4.183   0.894   4.327
 1230SOL    HW1 4589   4.183   0.805   4.372
 1230SOL    HW2 4590   4.272   0.937   4.339
 1231SOL     OW 4591   1.148   3.916   5.261
 1231SOL    HW1 4592   1.127   3.925   5.359
 1231SOL    HW2 4593   1.149   4.007   5.219
 1232SOL     OW 4594   1.188   1.926   5.205
 1232SOL    HW1 4595   1.141   1.917   5.117
 1232SOL    HW2 4596   1.286   1.932   5.189
 1233SOL     OW 4597   1.938   3.199   4.875
 1233SOL    HW1 4598   1.838   3.204   4.868
 1233SOL    HW2 4599   1.972   3.281   4.922
 1234SOL     OW 4600   6.620   4.214   4.191
 1234SOL    HW1 4601   6.602   4.121   4.222
 1234SOL    HW2 4602   6.575   4.279   4.252
 1235SOL     OW 4603   6.817   5.951   2.191
 1235SOL    HW1 4604   6.916   5.960   2.206
 1235SOL    HW2 4605   6.787   6.019   2.125
 1236SOL     OW 4606   5.537   1.021   6.590
 1236SOL    HW1 4607   5.470   0.968   6.643
 1236SOL    HW2 4608   5.495   1.051   6.504
 1237SOL     OW 4609   2.327   5.333   6.522
 1237SOL    HW1 4610   2.369   5.272   6.589
 1237SOL    HW2 4611   2.337   5.428   6.553
 1238SOL     OW 4612   2.202   1.049   1.165
 1238SOL    HW1 4613   2.298   1.048   1.193
 1238SOL    HW2 4614   2.195   1.072   1.068
 1239SOL     OW 4615   6.621   6.350   6.511
 1239SOL    HW1 4616   6.620   6.309   6.602
 1239SOL    HW2 4617   6.642   6.281   6.442
 1240SOL     OW 4618   5.866   6.115   1.914
 1240SOL    HW1 4619   5.950   6.075   1.877
 1240SOL    HW2 4620   5.817   6.163   1.842
 1241SOL     OW 4621   6.240   3.328   4.067
 1241SOL    HW1 4622   6.225   3.281   4.154
 1241SOL    HW2 4623   6.155   3.374   4.040
 1242SOL     OW 4624   1.620   3.805   0.235
 1242SOL    HW1 4625   1.627   3.726   0.174
 1242SOL    HW2 4626   1.579   3.881   0.185
 1243SOL     OW 4627   1.666   6.179   5.576
 1243SOL    HW1 4628   1.586   6.220   5.620
 1243SOL    HW2 4629   1.749   6.218   5.615
 1244SOL     OW 4630   0.277   6.701   3.027
 1244SOL    HW1 4631   0.357   6.650   3.059
 1244SOL    HW2 4632   0.300   6.799   3.022
 1245SOL     OW 4633   3.929   3.984   6.137
 1245SOL    HW1 4634   3.887   4.074   6.148
 1245SOL    HW2 4635   3.909   3.950   6.045
 1246SOL     OW 4636   2.277   6.837   2.160
 1246SOL    HW1 4637   2.199   6.787   2.123
 1246SOL    HW2 4638   2.354   6.774   2.172
 1247SOL     OW 4639   2.737   0.205   6.681
 1247SOL    HW1 4640   2.698   0.231   6.593
 1247SOL    HW2 4641   2.780   0.115   6.673
 1248SOL     OW 4642   1.639   6.591   3.725
 1248SOL    HW1 4643   1.689   6.509   3.697
 1248SOL    HW2 4644   1.693   6.673   3.704
 1249SOL     OW 4645   5.566   3.149   2.253
 1249SOL    HW1 4646   5.518   3.164   2.167
 1249SOL    HW2 4647   5.550   3.055   2.284
 1250SOL     OW 4648   0.975   4.523   4.317
 1250SOL    HW1 4649   1.055   4.583   4.327
 1250SOL    HW2 4650   0.892   4.574   4.336
 1251SOL     OW 4651   4.300   0.310   4.586
 1251SOL    HW1 4652   4.319   0.344   4.678
 1251SOL    HW2 4653   4.226   0.242   4.590
 1252SOL     OW 4654   3.519   3.757   5.971
 1252SOL    HW1 4655   3.553   3.749   5.878
 1252SOL    HW2 4656   3.534   3.671   6.020
 1253SOL     OW 4657   3.836   5.717   1.969
 1253SOL    HW1 4658   3.865   5.780   2.040
 1253SOL    HW2 4659   3.902   5.642   1.962
 1254SOL     OW 4660   6.267   2.653   2.503
 1254SOL    HW1 4661   6.202   2.729   2.504
 1254SOL    HW2 4662   6.253   2.598   2.421
 1255SOL     OW 4663   6.492   0.797   5.036
 1255SOL    HW1 4664   6.449   0.736   5.103
 1255SOL    HW2 4665   6.453   0.889   5.045
 1256SOL     OW 4666   6.914   0.080   3.062
 1256SOL    HW1 4667   6.825   0.066   3.105
 1256SOL    HW2 4668   6.984   0.093   3.133
 1257SOL     OW 4669   0.190   0.369   3.275
 1257SOL    HW1 4670   0.286   0.394   3.290
 1257SOL    HW2 4671   0.138   0.451   3.251
 1258SOL     OW 4672   1.055   5.657   3.521
 1258SOL    HW1 4673   0.976   5.596   3.513
 1258SOL    HW2 4674   1.022   5.752   3.529
 1259SOL     OW 4675   3.807   1.579   4.949
 1259SOL    HW1 4676   3.836   1.493   4.989
 1259SOL    HW2 4677   3.858   1.595   4.864
 1260SOL     OW 4678   0.985   1.596   6.966
 1260SOL    HW1 4679   1.007   1.671   0.004
 1260SOL    HW2 4680   1.039   1.515   6.991
 1261SOL     OW 4681   0.166   5.378   0.293
 1261SOL    HW1 4682   0.110   5.298   0.314
 1261SOL    HW2 4683   0.113   5.443   0.239
 1262SOL     OW 4684   5.580   5.736   2.359
 1262SOL    HW1 4685   5.675   5.708   2.345
 1262SOL    HW2 4686   5.578   5.827   2.401
 1263SOL     OW 4687   0.650   1.656   2.344
 1263SOL    HW1 4688   0.627   1.742   2.389
 1263SOL    HW2 4689   0.671   1.673   2.248
 1264SOL     OW 4690   1.014   3.832   5.532
 1264SOL    HW1 4691   1.033   3.852   5.628
 1264SOL    HW2 4692   0.959   3.749   5.525
 1265SOL     OW 4693   6.262   5.554   4.530
 1265SOL    HW1 4694   6.277   5.515   4.621
 1265SOL    HW2 4695   6.349   5.579   4.489
 1266SOL     OW 4696   0.701   0.679   4.577
 1266SOL    HW1 4697   0.731   0.742   4.506
 1266SOL    HW2 4698   0.761   0.688   4.657
 1267SOL     OW 4699   5.052   0.621   1.922
 1267SOL    HW1 4700   5.104   0.556   1.866
 1267SOL    HW2 4701   5.076   0.609   2.018
 1268SOL     OW 4702   4.200   2.520   5.458
 1268SOL    HW1 4703   4.129   2.516   5.529
 1268SOL    HW2 4704   4.157   2.517   5.368
 1269SOL     OW 4705   5.093   2.512   4.235
 1269SOL    HW1 4706   5.001   2.550   4.244
 1269SOL    HW2 4707   5.160   2.582   4.260
 1270SOL     OW 4708   1.913   4.894   2.645
 1270SOL    HW1 4709   1.930   4.950   2.564
 1270SOL    HW2 4710   1.928   4.798   2.624
 1271SOL     OW 4711   1.878   0.902   1.052
 1271SOL    HW1 4712   1.944   0.961   1.006
 1271SOL    HW2 4713   1.919   0.864   1.135
 1272SOL     OW 4714   6.531   3.843   6.434
 1272SOL    HW1 4715   6.481   3.897   6.367
 1272SOL    HW2 4716   6.509   3.874   6.526
 1273SOL     OW 4717   1.250   4.325   4.587
 1273SOL    HW1 4718   1.166   4.297   4.540
 1273SOL    HW2 4719   1.266   4.264   4.665
 1274SOL     OW 4720   0.357   4.834   1.670
 1274SOL    HW1 4721   0.322   4.926   1.652
 1274SOL    HW2 4722   0.282   4.776   1.705
 1275SOL     OW 4723   3.341   0.753   4.067
 1275SOL    HW1 4724   3.371   0.666   4.027
 1275SOL    HW2 4725   3.362   0.828   4.004
 1276SOL     OW 4726   5.576   4.639   3.769
 1276SOL    HW1 4727   5.481   4.665   3.787
 1276SOL    HW2 4728   5.634   4.667   3.846
 1277SOL     OW 4729   0.808   5.762   0.079
 1277SOL    HW1 4730   0.902   5.732   0.098
 1277SOL    HW2 4731   0.748   5.682   0.072
 1278SOL     OW 4732   1.568   0.019   3.185
 1278SOL    HW1 4733   1.510   6.964   3.203
 1278SOL    HW2 4734   1.516   0.103   3.197
 1279SOL     OW 4735   2.671   3.870   6.366
 1279SOL    HW1 4736   2.622   3.856   6.280
 1279SOL    HW2 4737   2.604   3.885   6.440
 1280SOL     OW 4738   3.467   0.869   3.834
 1280SOL    HW1 4739   3.514   0.927   3.901
 1280SOL    HW2 4740   3.530   0.847   3.760
 1281SOL     OW 4741   3.549   6.160   3.639
 1281SOL    HW1 4742   3.573   6.064   3.652
 1281SOL    HW2 4743   3.603   6.199   3.565
 1282SOL     OW 4744   6.605   3.161   0.880
 1282SOL    HW1 4745   6.598   3.140   0.782
 1282SOL    HW2 4746   6.530   3.117   0.929
 1283SOL     OW 4747   6.441   3.930   5.168
 1283SOL    HW1 4748   6.408   4.021   5.192
 1283SOL    HW2 4749   6.366   3.865   5.173
 1284SOL     OW 4750   3.676   1.327   1.094
 1284SOL    HW1 4751   3.631   1.385   1.162
 1284SOL    HW2 4752   3.607   1.271   1.048
 1285SOL     OW 4753   3.369   1.714   5.001
 1285SOL    HW1 4754   3.442   1.777   4.974
 1285SOL    HW2 4755   3.290   1.728   4.942
 1286SOL     OW 4756   4.940   3.079   1.663
 1286SOL    HW1 4757   4.914   3.072   1.567
 1286SOL    HW2 4758   4.894   3.157   1.705
 1287SOL     OW 4759   5.763   4.962   4.965
 1287SOL    HW1 4760   5.769   5.037   4.900
 1287SOL    HW2 4761   5.818   4.885   4.933
 1288SOL     OW 4762   4.553   4.570   6.590
 1288SOL    HW1 4763   4.581   4.641   6.655
 1288SOL    HW2 4764   4.551   4.608   6.498
 1289SOL     OW 4765   6.375   0.811   1.383
 1289SOL    HW1 4766   6.309   0.833   1.311
 1289SOL    HW2 4767   6.362   0.873   1.460
 1290SOL     OW 4768   1.664   0.842   0.192
 1290SOL    HW1 4769   1.649   0.844   0.291
 1290SOL    HW2 4770   1.579   0.868   0.145
 1291SOL     OW 4771   6.623   5.000   3.838
 1291SOL    HW1 4772   6.711   4.981   3.881
 1291SOL    HW2 4773   6.628   5.085   3.787
 1292SOL     OW 4774   0.163   5.552   2.985
 1292SOL    HW1 4775   0.087   5.566   2.921
 1292SOL    HW2 4776   0.187   5.455   2.987
 1293SOL     OW 4777   2.177   1.805   6.632
 1293SOL    HW1 4778   2.198   1.884   6.575
 1293SOL    HW2 4779   2.258   1.746   6.639
 1294SOL     OW 4780   1.906   4.581   6.344
 1294SOL    HW1 4781   1.953   4.543   6.424
 1294SOL    HW2 4782   1.974   4.609   6.277
 1295SOL     OW 4783   0.478   3.438   0.803
 1295SOL    HW1 4784   0.555   3.405   0.748
 1295SOL    HW2 4785   0.470   3.537   0.793
 1296SOL     OW 4786   5.159   0.097   5.649
 1296SOL    HW1 4787   5.105   0.103   5.565
 1296SOL    HW2 4788   5.256   0.086   5.625
 1297SOL     OW 4789   0.995   0.073   2.781
 1297SOL    HW1 4790   1.017   0.099   2.875
 1297SOL    HW2 4791   1.004   0.154   2.722
 1298SOL     OW 4792   5.263   5.963   2.835
 1298SOL    HW1 4793   5.360   5.948   2.856
 1298SOL    HW2 4794   5.254   6.043   2.775
 1299SOL     OW 4795   2.181   3.175   4.321
 1299SOL    HW1 4796   2.202   3.126   4.406
 1299SOL    HW2 4797   2.147   3.110   4.253
 1300SOL     OW 4798   2.107   3.684   0.732
 1300SOL    HW1 4799   2.166   3.729   0.665
 1300SOL    HW2 4800   2.014   3.676   0.695
 1301SOL     OW 4801   0.725   0.574   1.604
 1301SOL    HW1 4802   0.788   0.497   1.617
 1301SOL    HW2 4803   0.755   0.652   1.659
 1302SOL     OW 4804   5.410   0.611   5.784
 1302SOL    HW1 4805   5.311   0.622   5.773
 1302SOL    HW2 4806   5.434   0.617   5.881
 1303SOL     OW 4807   3.835   6.568   1.890
 1303SOL    HW1 4808   3.908   6.634   1.906
 1303SOL    HW2 4809   3.776   6.600   1.816
 1304SOL     OW 4810   1.190   1.304   1.132
 1304SOL    HW1 4811   1.170   1.301   1.034
 1304SOL    HW2 4812   1.286   1.284   1.147
 1305SOL     OW 4813   5.179   4.386   6.156
 1305SOL    HW1 4814   5.127   4.397   6.241
 1305SOL    HW2 4815   5.272   4.356   6.178
 1306SOL     OW 4816   0.961   6.061   4.888
 1306SOL    HW1 4817   0.953   6.037   4.791
 1306SOL    HW2 4818   0.906   6.142   4.907
 1307SOL     OW 4819   1.455   2.933   3.996
 1307SOL    HW1 4820   1.433   3.028   4.019
 1307SOL    HW2 4821   1.503   2.891   4.073
 1308SOL     OW 4822   6.451   5.872   6.561
 1308SOL    HW1 4823   6.354   5.854   6.581
 1308SOL    HW2 4824   6.476   5.828   6.475
 1309SOL     OW 4825   5.181   4.730   5.833
 1309SOL    HW1 4826   5.279   4.710   5.833
 1309SOL    HW2 4827   5.136   4.673   5.902
 1310SOL     OW 4828   0.825   3.767   4.024
 1310SOL    HW1 4829   0.893   3.823   3.978
 1310SOL    HW2 4830   0.838   3.671   3.999
 1311SOL     OW 4831   6.121   5.822   6.850
 1311SOL    HW1 4832   6.152   5.866   6.935
 1311SOL    HW2 4833   6.128   5.723   6.860
 1312SOL     OW 4834   1.029   1.102   5.774
 1312SOL    HW1 4835   0.941   1.057   5.789
 1312SOL    HW2 4836   1.068   1.130   5.861
 1313SOL     OW 4837   6.013   4.951   3.340
 1313SOL    HW1 4838   5.930   4.975   3.290
 1313SOL    HW2 4839   6.001   4.975   3.437
 1314SOL     OW 4840   2.641   1.795   4.788
 1314SOL    HW1 4841   2.680   1.780   4.878
 1314SOL    HW2 4842   2.689   1.870   4.742
 1315SOL     OW 4843   6.861   0.741   3.870
 1315SOL    HW1 4844   6.802   0.814   3.835
 1315SOL    HW2 4845   6.806   0.675   3.921
 1316SOL     OW 4846   3.945   0.101   5.425
 1316SOL    HW1 4847   3.849   0.095   5.449
 1316SOL    HW2 4848   3.955   0.150   5.339
 1317SOL     OW 4849   2.034   4.144   5.887
 1317SOL    HW1 4850   2.095   4.157   5.809
 1317SOL    HW2 4851   1.946   4.189   5.869
 1318SOL     OW 4852   2.203   2.752   7.011
 1318SOL    HW1 4853   2.148   2.671   0.005
 1318SOL    HW2 4854   2.150   2.819   6.959
 1319SOL     OW 4855   0.073   5.969   0.365
 1319SOL    HW1 4856   7.005   5.999   0.388
 1319SOL    HW2 4857   0.070   5.914   0.281
 1320SOL     OW 4858   3.077   2.751   6.544
 1320SOL    HW1 4859   3.008   2.739   6.616
 1320SOL    HW2 4860   3.167   2.763   6.586
 1321SOL     OW 4861   4.963   1.935   6.806
 1321SOL    HW1 4862   5.010   1.963   6.722
 1321SOL    HW2 4863   4.955   2.015   6.867
 1322SOL     OW 4864   3.365   1.227   5.786
 1322SOL    HW1 4865   3.461   1.237   5.760
 1322SOL    HW2 4866   3.308   1.225   5.704
 1323SOL     OW 4867   3.293   0.051   0.454
 1323SOL    HW1 4868   3.310   0.007   0.543
 1323SOL    HW2 4869   3.359   0.018   0.387
 1324SOL     OW 4870   1.198   4.050   0.374
 1324SOL    HW1 4871   1.123   4.079   0.435
 1324SOL    HW2 4872   1.208   3.951   0.379
 1325SOL     OW 4873   2.982   6.004   5.648
 1325SOL    HW1 4874   3.076   5.980   5.626
 1325SOL    HW2 4875   2.923   5.980   5.571
 1326SOL     OW 4876   4.694   4.319   4.789
 1326SOL    HW1 4877   4.736   4.235   4.823
 1326SOL    HW2 4878   4.682   4.312   4.690
 1327SOL     OW 4879   0.528   7.012   1.122
 1327SOL    HW1 4880   0.598   0.002   1.192
 1327SOL    HW2 4881   0.447   6.970   1.164
 1328SOL     OW 4882   1.203   3.360   6.001
 1328SOL    HW1 4883   1.201   3.263   6.027
 1328SOL    HW2 4884   1.110   3.391   5.981
 1329SOL     OW 4885   0.589   1.693   2.688
 1329SOL    HW1 4886   0.577   1.763   2.617
 1329SOL    HW2 4887   0.499   1.662   2.719
 1330SOL     OW 4888   0.216   1.852   1.016
 1330SOL    HW1 4889   0.124   1.816   1.002
 1330SOL    HW2 4890   0.278   1.776   1.037
 1331SOL     OW 4891   4.920   1.973   2.477
 1331SOL    HW1 4892   4.820   1.974   2.484
 1331SOL    HW2 4893   4.961   1.955   2.566
 1332SOL     OW 4894   1.830   0.342   0.609
 1332SOL    HW1 4895   1.781   0.292   0.680
 1332SOL    HW2 4896   1.764   0.393   0.553
 1333SOL     OW 4897   3.701   4.113   3.053
 1333SOL    HW1 4898   3.604   4.118   3.030
 1333SOL    HW2 4899   3.737   4.023   3.029
 1334SOL     OW 4900   6.990   1.878   3.037
 1334SOL    HW1 4901   0.012   1.789   3.041
 1334SOL    HW2 4902   6.936   1.883   2.952
 1335SOL     OW 4903   1.760   3.289   1.430
 1335SOL    HW1 4904   1.778   3.338   1.515
 1335SOL    HW2 4905   1.841   3.238   1.402
 1336SOL     OW 4906   3.732   0.971   5.504
 1336SOL    HW1 4907   3.688   0.988   5.592
 1336SOL    HW2 4908   3.672   1.000   5.430
 1337SOL     OW 4909   6.568   1.185   2.984
 1337SOL    HW1 4910   6.663   1.213   2.971
 1337SOL    HW2 4911   6.519   1.188   2.897
 1338SOL     OW 4912   6.238   3.679   3.931
 1338SOL    HW1 4913   6.165   3.624   3.892
 1338SOL    HW2 4914   6.236   3.770   3.890
 1339SOL     OW 4915   0.385   0.444   7.013
 1339SOL    HW1 4916   0.420   0.352   0.006
 1339SOL    HW2 4917   0.357   0.452   6.918
 1340SOL     OW 4918   5.091   1.518   2.171
 1340SOL    HW1 4919   5.068   1.610   2.201
 1340SOL    HW2 4920   5.056   1.503   2.078
 1341SOL     OW 4921   4.614   6.877   0.243
 1341SOL    HW1 4922   4.583   6.972   0.236
 1341SOL    HW2 4923   4.595   6.842   0.335
 1342SOL     OW 4924   2.956   5.522   0.927
 1342SOL    HW1 4925   2.943   5.434   0.973
 1342SOL    HW2 4926   3.046   5.559   0.951
 1343SOL     OW 4927   5.676   5.125   2.785
 1343SOL    HW1 4928   5.597   5.084   2.740
 1343SOL    HW2 4929   5.759   5.079   2.754
 1344SOL     OW 4930   0.622   6.539   4.202
 1344SOL    HW1 4931   0.591   6.539   4.297
 1344SOL    HW2 4932   0.550   6.576   4.143
 1345SOL     OW 4933   0.452   5.010   1.975
 1345SOL    HW1 4934   0.403   4.950   1.911
 1345SOL    HW2 4935   0.545   5.024   1.943
 1346SOL     OW 4936   2.014   5.411   5.731
 1346SOL    HW1 4937   1.943   5.481   5.726
 1346SOL    HW2 4938   1.973   5.320   5.729
 1347SOL     OW 4939   1.592   0.394   5.823
 1347SOL    HW1 4940   1.650   0.453   5.879
 1347SOL    HW2 4941   1.496   0.412   5.844
 1348SOL     OW 4942   0.330   5.764   5.440
 1348SOL    HW1 4943   0.405   5.742   5.502
 1348SOL    HW2 4944   0.366   5.805   5.356
 1349SOL     OW 4945   5.497   2.879   3.809
 1349SOL    HW1 4946   5.448   2.825   3.741
 1349SOL    HW2 4947   5.522   2.968   3.770
 1350SOL     OW 4948   3.719   4.336   0.494
 1350SOL    HW1 4949   3.786   4.402   0.461
 1350SOL    HW2 4950   3.643   4.332   0.429
 1351SOL     OW 4951   6.049   1.869   3.840
 1351SOL    HW1 4952   6.053   1.783   3.892
 1351SOL    HW2 4953   5.973   1.865   3.775
 1352SOL     OW 4954   0.166   0.308   2.062
 1352SOL    HW1 4955   0.222   0.360   1.997
 1352SOL    HW2 4956   0.074   0.346   2.065
 1353SOL     OW 4957   0.559   1.930   0.904
 1353SOL    HW1 4958   0.564   2.007   0.968
 1353SOL    HW2 4959   0.525   1.850   0.952
 1354SOL     OW 4960   6.811   4.237   2.200
 1354SOL    HW1 4961   6.721   4.197   2.182
 1354SOL    HW2 4962   6.876   4.164   2.221
 1355SOL     OW 4963   5.943   3.398   4.053
 1355SOL    HW1 4964   5.943   3.317   3.993
 1355SOL    HW2 4965   5.887   3.470   4.011
 1356SOL     OW 4966   3.706   3.104   2.391
 1356SOL    HW1 4967   3.788   3.127   2.339
 1356SOL    HW2 4968   3.624   3.129   2.339
 1357SOL     OW 4969   6.727   3.491   6.093
 1357SOL    HW1 4970   6.649   3.549   6.073
 1357SOL    HW2 4971   6.787   3.537   6.159
 1358SOL     OW 4972   6.915   0.181   6.977
 1358SOL    HW1 4973   6.827   0.210   7.013
 1358SOL    HW2 4974   6.902   0.144   6.884
 1359SOL     OW 4975   6.218   4.515   1.425
 1359SOL    HW1 4976   6.295   4.483   1.479
 1359SOL    HW2 4977   6.198   4.610   1.449
 1360SOL     OW 4978   3.817   3.246   0.383
 1360SOL    HW1 4979   3.836   3.151   0.409
 1360SOL    HW2 4980   3.773   3.293   0.460
 1361SOL     OW 4981   0.086   4.857   4.946
 1361SOL    HW1 4982   0.138   4.869   4.861
 1361SOL    HW2 4983   0.096   4.763   4.978
 1362SOL     OW 4984   4.006   3.153   2.608
 1362SOL    HW1 4985   3.949   3.225   2.569
 1362SOL    HW2 4986   4.101   3.165   2.577
 1363SOL     OW 4987   6.926   5.529   5.189
 1363SOL    HW1 4988   6.841   5.519   5.240
 1363SOL    HW2 4989   6.947   5.443   5.143
 1364SOL     OW 4990   4.344   4.496   6.803
 1364SOL    HW1 4991   4.315   4.507   6.708
 1364SOL    HW2 4992   4.430   4.545   6.818
 1365SOL     OW 4993   0.705   4.062   6.425
 1365SOL    HW1 4994   0.672   4.027   6.337
 1365SOL    HW2 4995   0.633   4.051   6.494
 1366SOL     OW 4996   1.540   0.513   4.955
 1366SOL    HW1 4997   1.551   0.471   4.866
 1366SOL    HW2 4998   1.554   0.445   5.027
 1367SOL     OW 4999   1.403   1.721   2.710
 1367SOL    HW1 5000   1.336   1.745   2.640
 1367SOL    HW2 5001   1.356   1.686   2.791
 1368SOL     OW 5002   5.818   6.804   4.157
 1368SOL    HW1 5003   5.849   6.716   4.191
 1368SOL    HW2 5004   5.789   6.795   4.061
 1369SOL     OW 5005   0.713   6.490   3.180
 1369SOL    HW1 5006   0.715   6.495   3.080
 1369SOL    HW2 5007   0.786   6.548   3.217
 1370SOL     OW 5008   3.152   0.346   1.454
 1370SOL    HW1 5009   3.091   0.416   1.416
 1370SOL    HW2 5010   3.155   0.355   1.554
 1371SOL     OW 5011   4.039   0.627   5.874
 1371SOL    HW1 5012   4.029   0.627   5.974
 1371SOL    HW2 5013   3.952   0.599   5.832
 1372SOL     OW 5014   2.486   2.298   1.609
 1372SOL    HW1 5015   2.545   2.362   1.658
 1372SOL    HW2 5016   2.459   2.337   1.521
 1373SOL     OW 5017   0.357   5.254   1.061
 1373SOL    HW1 5018   0.406   5.291   1.140
 1373SOL    HW2 5019   0.309   5.328   1.014
 1374SOL     OW 5020   4.105   2.351   1.296
 1374SOL    HW1 5021   4.023   2.355   1.354
 1374SOL    HW2 5022   4.156   2.437   1.305
 1375SOL     OW 5023   0.057   5.005   6.128
 1375SOL    HW1 5024   0.073   5.092   6.080
 1375SOL    HW2 5025   0.143   4.971   6.165
 1376SOL     OW 5026   4.907   3.107   3.625
 1376SOL    HW1 5027   4.937   3.202   3.639
 1376SOL    HW2 5028   4.928   3.053   3.707
 1377SOL     OW 5029   0.205   4.949   5.337
 1377SOL    HW1 5030   0.205   4.863   5.388
 1377SOL    HW2 5031   0.256   4.937   5.252
 1378SOL     OW 5032   1.081   2.484   0.016
 1378SOL    HW1 5033   1.133   2.534   6.970
 1378SOL    HW2 5034   0.984   2.507   0.008
 1379SOL     OW 5035   3.585   6.444   2.945
 1379SOL    HW1 5036   3.487   6.428   2.934
 1379SOL    HW2 5037   3.622   6.485   2.861
 1380SOL     OW 5038   6.205   6.869   2.713
 1380SOL    HW1 5039   6.298   6.904   2.728
 1380SOL    HW2 5040   6.173   6.822   2.795
 1381SOL     OW 5041   6.187   2.434   0.125
 1381SOL    HW1 5042   6.257   2.407   0.059
 1381SOL    HW2 5043   6.169   2.357   0.187
 1382SOL     OW 5044   5.389   4.976   6.192
 1382SOL    HW1 5045   5.305   5.025   6.214
 1382SOL    HW2 5046   5.417   4.997   6.099
 1383SOL     OW 5047   1.363   0.556   0.294
 1383SOL    HW1 5048   1.435   0.544   0.363
 1383SOL    HW2 5049   1.352   0.653   0.274
 1384SOL     OW 5050   4.129   1.349   3.077
 1384SOL    HW1 5051   4.085   1.319   3.161
 1384SOL    HW2 5052   4.143   1.448   3.080
 1385SOL     OW 5053   6.595   2.750   2.889
 1385SOL    HW1 5054   6.611   2.800   2.804
 1385SOL    HW2 5055   6.502   2.711   2.887
 1386SOL     OW 5056   2.189   3.003   4.552
 1386SOL    HW1 5057   2.153   2.934   4.489
 1386SOL    HW2 5058   2.255   2.961   4.614
 1387SOL     OW 5059   3.435   0.495   4.783
 1387SOL    HW1 5060   3.480   0.579   4.815
 1387SOL    HW2 5061   3.368   0.518   4.713
 1388SOL     OW 5062   6.430   0.883   4.071
 1388SOL    HW1 5063   6.454   0.973   4.035
 1388SOL    HW2 5064   6.513   0.828   4.080
 1389SOL     OW 5065   6.002   0.128   4.695
 1389SOL    HW1 5066   5.985   0.077   4.611
 1389SOL    HW2 5067   6.092   0.105   4.732
 1390SOL     OW 5068   4.264   1.664   1.798
 1390SOL    HW1 5069   4.335   1.644   1.866
 1390SOL    HW2 5070   4.306   1.702   1.716
 1391SOL     OW 5071   5.741   0.829   4.503
 1391SOL    HW1 5072   5.806   0.890   4.457
 1391SOL    HW2 5073   5.660   0.880   4.531
 1392SOL     OW 5074   5.193   5.789   6.478
 1392SOL    HW1 5075   5.141   5.812   6.561
 1392SOL    HW2 5076   5.148   5.713   6.431
 1393SOL     OW 5077   6.991   1.249   6.049
 1393SOL    HW1 5078   6.963   1.332   6.000
 1393SOL    HW2 5079   0.014   1.274   6.133
 1394SOL     OW 5080   4.470   6.778   3.812
 1394SOL    HW1 5081   4.446   6.721   3.733
 1394SOL    HW2 5082   4.390   6.829   3.842
 1395SOL     OW 5083   1.688   4.911   2.846
 1395SOL    HW1 5084   1.771   4.860   2.823
 1395SOL    HW2 5085   1.712   5.005   2.871
 1396SOL     OW 5086   2.313   1.193   4.417
 1396SOL    HW1 5087   2.227   1.192   4.467
 1396SOL    HW2 5088   2.380   1.247   4.468
 1397SOL     OW 5089   0.733   5.173   4.147
 1397SOL    HW1 5090   0.669   5.246   4.172
 1397SOL    HW2 5091   0.695   5.119   4.072
 1398SOL     OW 5092   0.741   1.626   1.044
 1398SOL    HW1 5093   0.798   1.563   0.991
 1398SOL    HW2 5094   0.765   1.620   1.141
 1399SOL     OW 5095   3.939   0.421   0.477
 1399SOL    HW1 5096   3.885   0.338   0.494
 1399SOL    HW2 5097   3.966   0.461   0.565
 1400SOL     OW 5098   6.403   0.308   4.097
 1400SOL    HW1 5099   6.335   0.363   4.048
 1400SOL    HW2 5100   6.360   0.226   4.134
 1401SOL     OW 5101   5.732   0.212   3.079
 1401SOL    HW1 5102   5.703   0.295   3.125
 1401SOL    HW2 5103   5.735   0.137   3.145
 1402SOL     OW 5104   5.880   3.662   1.747
 1402SOL    HW1 5105   5.949   3.595   1.775
 1402SOL    HW2 5106   5.926   3.746   1.718
 1403SOL     OW 5107   3.336   2.780   0.215
 1403SOL    HW1 5108   3.338   2.733   0.126
 1403SOL    HW2 5109   3.243   2.778   0.251
 1404SOL     OW 5110   4.406   0.026   1.219
 1404SOL    HW1 5111   4.354   6.970   1.247
 1404SOL    HW2 5112   4.415   0.090   1.296
 1405SOL     OW 5113   2.176   2.920   1.194
 1405SOL    HW1 5114   2.199   2.888   1.102
 1405SOL    HW2 5115   2.236   2.997   1.218
 1406SOL     OW 5116   2.914   3.305   1.107
 1406SOL    HW1 5117   2.927   3.334   1.012
 1406SOL    HW2 5118   3.004   3.300   1.152
 1407SOL     OW 5119   0.683   2.893   0.903
 1407SOL    HW1 5120   0.600   2.868   0.953
 1407SOL    HW2 5121   0.659   2.915   0.808
 1408SOL     OW 5122   5.923   5.937   6.485
 1408SOL    HW1 5123   5.860   6.008   6.516
 1408SOL    HW2 5124   5.876   5.849   6.482
 1409SOL     OW 5125   6.697   1.631   5.534
 1409SOL    HW1 5126   6.690   1.595   5.441
 1409SOL    HW2 5127   6.651   1.569   5.597
 1410SOL     OW 5128   3.483   2.202   6.329
 1410SOL    HW1 5129   3.433   2.225   6.246
 1410SOL    HW2 5130   3.539   2.120   6.313
 1411SOL     OW 5131   3.959   5.672   0.700
 1411SOL    HW1 5132   3.916   5.752   0.659
 1411SOL    HW2 5133   4.004   5.618   0.629
 1412SOL     OW 5134   1.994   2.743   0.785
 1412SOL    HW1 5135   1.925   2.698   0.842
 1412SOL    HW2 5136   2.039   2.675   0.727
 1413SOL     OW 5137   1.629   1.704   5.034
 1413SOL    HW1 5138   1.708   1.658   5.073
 1413SOL    HW2 5139   1.659   1.778   4.973
 1414SOL     OW 5140   0.974   3.953   1.984
 1414SOL    HW1 5141   1.073   3.943   1.973
 1414SOL    HW2 5142   0.943   3.897   2.061
 1415SOL     OW 5143   2.019   2.040   4.126
 1415SOL    HW1 5144   1.927   2.050   4.087
 1415SOL    HW2 5145   2.039   2.118   4.184
 1416SOL     OW 5146   4.185   0.156   5.512
 1416SOL    HW1 5147   4.181   0.240   5.567
 1416SOL    HW2 5148   4.092   0.128   5.487
 1417SOL     OW 5149   4.031   2.976   5.609
 1417SOL    HW1 5150   3.936   3.004   5.626
 1417SOL    HW2 5151   4.035   2.877   5.595
 1418SOL     OW 5152   3.586   4.405   6.469
 1418SOL    HW1 5153   3.577   4.325   6.410
 1418SOL    HW2 5154   3.496   4.446   6.483
 1419SOL     OW 5155   1.842   4.753   3.192
 1419SOL    HW1 5156   1.861   4.720   3.285
 1419SOL    HW2 5157   1.773   4.695   3.150
 1420SOL     OW 5158   3.323   5.839   3.166
 1420SOL    HW1 5159   3.317   5.901   3.088
 1420SOL    HW2 5160   3.332   5.893   3.250
 1421SOL     OW 5161   1.747   5.321   5.569
 1421SOL    HW1 5162   1.716   5.281   5.655
 1421SOL    HW2 5163   1.671   5.369   5.526
 1422SOL     OW 5164   2.639   3.635   5.711
 1422SOL    HW1 5165   2.685   3.672   5.631
 1422SOL    HW2 5166   2.540   3.633   5.696
 1423SOL     OW 5167   4.213   0.977   5.197
 1423SOL    HW1 5168   4.230   0.941   5.289
 1423SOL    HW2 5169   4.273   0.931   5.132
 1424SOL     OW 5170   5.349   2.629   6.530
 1424SOL    HW1 5171   5.360   2.581   6.443
 1424SOL    HW2 5172   5.262   2.679   6.530
 1425SOL     OW 5173   4.563   6.345   3.589
 1425SOL    HW1 5174   4.505   6.265   3.608
 1425SOL    HW2 5175   4.646   6.340   3.644
 1426SOL     OW 5176   3.203   2.388   0.012
 1426SOL    HW1 5177   3.241   2.295   0.012
 1426SOL    HW2 5178   3.133   2.395   6.965
 1427SOL     OW 5179   1.691   1.413   3.817
 1427SOL    HW1 5180   1.626   1.465   3.873
 1427SOL    HW2 5181   1.728   1.338   3.871
 1428SOL     OW 5182   0.096   3.692   3.686
 1428SOL    HW1 5183   0.101   3.786   3.719
 1428SOL    HW2 5184   0.011   3.650   3.718
 1429SOL     OW 5185   5.796   0.687   0.648
 1429SOL    HW1 5186   5.773   0.645   0.560
 1429SOL    HW2 5187   5.722   0.748   0.676
 1430SOL     OW 5188   1.912   3.794   3.415
 1430SOL    HW1 5189   2.006   3.775   3.445
 1430SOL    HW2 5190   1.893   3.892   3.423
 1431SOL     OW 5191   1.768   1.630   5.833
 1431SOL    HW1 5192   1.817   1.647   5.918
 1431SOL    HW2 5193   1.832   1.593   5.765
 1432SOL     OW 5194   3.009   1.694   2.199
 1432SOL    HW1 5195   3.010   1.607   2.149
 1432SOL    HW2 5196   2.983   1.678   2.294
 1433SOL     OW 5197   2.918   0.106   4.365
 1433SOL    HW1 5198   2.952   0.199   4.379
 1433SOL    HW2 5199   2.994   0.046   4.342
 1434SOL     OW 5200   0.522   3.266   0.076
 1434SOL    HW1 5201   0.518   3.213   7.015
 1434SOL    HW2 5202   0.478   3.355   0.062
 1435SOL     OW 5203   0.985   6.999   4.876
 1435SOL    HW1 5204   1.018   6.929   4.812
 1435SOL    HW2 5205   1.021   6.980   4.967
 1436SOL     OW 5206   5.741   1.834   0.957
 1436SOL    HW1 5207   5.829   1.880   0.968
 1436SOL    HW2 5208   5.729   1.767   1.030
 1437SOL     OW 5209   4.382   0.156   6.127
 1437SOL    HW1 5210   4.445   0.196   6.061
 1437SOL    HW2 5211   4.368   0.059   6.106
 1438SOL     OW 5212   2.472   0.348   1.755
 1438SOL    HW1 5213   2.437   0.442   1.755
 1438SOL    HW2 5214   2.568   0.348   1.727
 1439SOL     OW 5215   0.132   4.954   0.170
 1439SOL    HW1 5216   0.196   4.992   0.103
 1439SOL    HW2 5217   0.139   4.855   0.171
 1440SOL     OW 5218   3.035   3.127   3.618
 1440SOL    HW1 5219   3.096   3.149   3.542
 1440SOL    HW2 5220   2.940   3.137   3.590
 1441SOL     OW 5221   6.842   2.829   3.787
 1441SOL    HW1 5222   6.821   2.905   3.726
 1441SOL    HW2 5223   6.872   2.864   3.876
 1442SOL     OW 5224   4.981   4.459   0.297
 1442SOL    HW1 5225   5.040   4.378   0.301
 1442SOL    HW2 5226   4.928   4.458   0.212
 1443SOL     OW 5227   0.906   2.475   3.392
 1443SOL    HW1 5228   0.930   2.523   3.476
 1443SOL    HW2 5229   0.806   2.468   3.385
 1444SOL     OW 5230   4.423   0.828   3.489
 1444SOL    HW1 5231   4.339   0.856   3.444
 1444SOL    HW2 5232   4.414   0.842   3.588
 1445SOL     OW 5233   6.740   2.548   1.618
 1445SOL    HW1 5234   6.712   2.590   1.531
 1445SOL    HW2 5235   6.787   2.462   1.600
 1446SOL     OW 5236   4.035   1.148   1.267
 1446SOL    HW1 5237   3.955   1.208   1.270
 1446SOL    HW2 5238   4.116   1.199   1.297
 1447SOL     OW 5239   6.505   0.976   4.670
 1447SOL    HW1 5240   6.478   1.058   4.720
 1447SOL    HW2 5241   6.426   0.916   4.660
 1448SOL     OW 5242   5.327   0.891   6.695
 1448SOL    HW1 5243   5.277   0.971   6.663
 1448SOL    HW2 5244   5.263   0.814   6.705
 1449SOL     OW 5245   5.112   5.887   0.973
 1449SOL    HW1 5246   5.034   5.947   0.988
 1449SOL    HW2 5247   5.080   5.794   0.953
 1450SOL     OW 5248   5.533   2.824   2.988
 1450SOL    HW1 5249   5.471   2.781   3.053
 1450SOL    HW2 5250   5.501   2.807   2.895
 1451SOL     OW 5251   1.649   6.512   2.964
 1451SOL    HW1 5252   1.586   6.583   2.934
 1451SOL    HW2 5253   1.602   6.424   2.967
 1452SOL     OW 5254   4.541   1.064   5.619
 1452SOL    HW1 5255   4.597   1.086   5.539
 1452SOL    HW2 5256   4.461   1.124   5.621
 1453SOL     OW 5257   5.430   4.585   5.031
 1453SOL    HW1 5258   5.425   4.523   5.109
 1453SOL    HW2 5259   5.460   4.675   5.063
 1454SOL     OW 5260   4.652   3.700   1.404
 1454SOL    HW1 5261   4.739   3.720   1.451
 1454SOL    HW2 5262   4.668   3.697   1.306
 1455SOL     OW 5263   1.693   2.080   1.810
 1455SOL    HW1 5264   1.600   2.113   1.826
 1455SOL    HW2 5265   1.689   1.987   1.774
 1456SOL     OW 5266   6.242   6.592   4.168
 1456SOL    HW1 5267   6.238   6.666   4.101
 1456SOL    HW2 5268   6.305   6.618   4.242
 1457SOL     OW 5269   1.721   0.577   3.212
 1457SOL    HW1 5270   1.784   0.501   3.230
 1457SOL    HW2 5271   1.642   0.570   3.273
 1458SOL     OW 5272   5.773   5.681   6.294
 1458SOL    HW1 5273   5.775   5.672   6.393
 1458SOL    HW2 5274   5.742   5.595   6.253
 1459SOL     OW 5275   2.164   6.259   6.548
 1459SOL    HW1 5276   2.100   6.228   6.618
 1459SOL    HW2 5277   2.180   6.357   6.559
 1460SOL     OW 5278   1.419   0.019   7.018
 1460SOL    HW1 5279   1.393   0.104   0.042
 1460SOL    HW2 5280   1.420   0.035   6.920
 1461SOL     OW 5281   5.392   4.605   1.960
 1461SOL    HW1 5282   5.483   4.576   1.990
 1461SOL    HW2 5283   5.328   4.596   2.036
 1462SOL     OW 5284   5.785   1.320   6.829
 1462SOL    HW1 5285   5.847   1.278   6.895
 1462SOL    HW2 5286   5.769   1.415   6.854
 1463SOL     OW 5287   0.783   0.933   5.008
 1463SOL    HW1 5288   0.795   1.024   5.048
 1463SOL    HW2 5289   0.866   0.879   5.023
 1464SOL     OW 5290   0.306   6.533   0.909
 1464SOL    HW1 5291   0.343   6.465   0.846
 1464SOL    HW2 5292   0.363   6.537   0.991
 1465SOL     OW 5293   0.196   6.720   4.790
 1465SOL    HW1 5294   0.248   6.760   4.865
 1465SOL    HW2 5295   0.248   6.645   4.749
 1466SOL     OW 5296   5.573   4.808   3.319
 1466SOL    HW1 5297   5.600   4.850   3.406
 1466SOL    HW2 5298   5.489   4.850   3.287
 1467SOL     OW 5299   0.786   1.918   2.991
 1467SOL    HW1 5300   0.720   1.992   3.003
 1467SOL    HW2 5301   0.806   1.906   2.894
 1468SOL     OW 5302   5.611   6.057   3.510
 1468SOL    HW1 5303   5.533   6.060   3.447
 1468SOL    HW2 5304   5.583   6.014   3.596
 1469SOL     OW 5305   0.943   1.471   2.343
 1469SOL    HW1 5306   0.967   1.441   2.251
 1469SOL    HW2 5307   0.854   1.516   2.342
 1470SOL     OW 5308   0.895   1.097   2.898
 1470SOL    HW1 5309   0.810   1.128   2.941
 1470SOL    HW2 5310   0.949   1.177   2.869
 1471SOL     OW 5311   0.671   0.266   0.046
 1471SOL    HW1 5312   0.727   0.199   0.096
 1471SOL    HW2 5313   0.576   0.235   0.044
 1472SOL     OW 5314   4.568   0.356   5.956
 1472SOL    HW1 5315   4.590   0.426   5.887
 1472SOL    HW2 5316   4.539   0.272   5.910
 1473SOL     OW 5317   6.230   3.892   3.366
 1473SOL    HW1 5318   6.185   3.854   3.285
 1473SOL    HW2 5319   6.326   3.862   3.367
 1474SOL     OW 5320   4.553   5.491   4.447
 1474SOL    HW1 5321   4.504   5.404   4.459
 1474SOL    HW2 5322   4.622   5.480   4.375
 1475SOL     OW 5323   0.068   1.210   3.153
 1475SOL    HW1 5324   0.041   1.120   3.185
 1475SOL    HW2 5325   0.117   1.258   3.225
 1476SOL     OW 5326   7.009   1.971   1.939
 1476SOL    HW1 5327   0.004   2.018   2.024
 1476SOL    HW2 5328   6.939   2.021   1.887
 1477SOL     OW 5329   2.939   5.917   4.752
 1477SOL    HW1 5330   3.025   5.873   4.780
 1477SOL    HW2 5331   2.940   5.933   4.653
 1478SOL     OW 5332   6.327   4.119   0.324
 1478SOL    HW1 5333   6.338   4.185   0.250
 1478SOL    HW2 5334   6.417   4.084   0.351
 1479SOL     OW 5335   1.593   4.946   0.226
 1479SOL    HW1 5336   1.521   4.935   0.158
 1479SOL    HW2 5337   1.616   5.043   0.234
 1480SOL     OW 5338   2.617   0.943   0.218
 1480SOL    HW1 5339   2.540   0.996   0.184
 1480SOL    HW2 5340   2.686   0.933   0.145
 1481SOL     OW 5341   5.670   2.383   6.278
 1481SOL    HW1 5342   5.761   2.369   6.239
 1481SOL    HW2 5343   5.679   2.432   6.365
 1482SOL     OW 5344   6.116   0.225   6.769
 1482SOL    HW1 5345   6.092   0.264   6.680
 1482SOL    HW2 5346   6.088   0.287   6.842
 1483SOL     OW 5347   6.027   1.708   0.215
 1483SOL    HW1 5348   6.069   1.679   0.301
 1483SOL    HW2 5349   6.099   1.727   0.148
 1484SOL     OW 5350   6.554   5.361   2.926
 1484SOL    HW1 5351   6.479   5.415   2.889
 1484SOL    HW2 5352   6.530   5.264   2.924
 1485SOL     OW 5353   5.173   2.462   3.739
 1485SOL    HW1 5354   5.211   2.509   3.818
 1485SOL    HW2 5355   5.232   2.477   3.659
 1486SOL     OW 5356   4.500   2.182   2.404
 1486SOL    HW1 5357   4.541   2.134   2.326
 1486SOL    HW2 5358   4.508   2.125   2.486
 1487SOL     OW 5359   6.391   1.178   5.376
 1487SOL    HW1 5360   6.330   1.157   5.452
 1487SOL    HW2 5361   6.377   1.272   5.346
 1488SOL     OW 5362   4.849   1.658   2.748
 1488SOL    HW1 5363   4.838   1.577   2.805
 1488SOL    HW2 5364   4.813   1.738   2.797
 1489SOL     OW 5365   3.580   5.706   5.119
 1489SOL    HW1 5366   3.548   5.725   5.212
 1489SOL    HW2 5367   3.539   5.620   5.088
 1490SOL     OW 5368   1.597   2.518   0.515
 1490SOL    HW1 5369   1.630   2.458   0.588
 1490SOL    HW2 5370   1.666   2.523   0.443
 1491SOL     OW 5371   6.922   2.954   4.020
 1491SOL    HW1 5372   6.855   2.906   4.077
 1491SOL    HW2 5373   6.982   3.009   4.078
 1492SOL     OW 5374   5.049   2.041   1.467
 1492SOL    HW1 5375   5.054   2.064   1.564
 1492SOL    HW2 5376   4.975   2.093   1.424
 1493SOL     OW 5377   5.039   0.025   5.362
 1493SOL    HW1 5378   5.069   0.106   5.311
 1493SOL    HW2 5379   4.948   7.022   5.330
 1494SOL     OW 5380   4.091   2.537   6.075
 1494SOL    HW1 5381   4.102   2.582   6.163
 1494SOL    HW2 5382   4.180   2.508   6.040
 1495SOL     OW 5383   1.618   3.091   2.608
 1495SOL    HW1 5384   1.641   3.186   2.590
 1495SOL    HW2 5385   1.594   3.079   2.704
 1496SOL     OW 5386   0.770   0.017   2.638
 1496SOL    HW1 5387   0.855   0.031   2.690
 1496SOL    HW2 5388   0.694   0.004   2.701
 1497SOL     OW 5389   6.396   5.018   4.599
 1497SOL    HW1 5390   6.399   5.072   4.684
 1497SOL    HW2 5391   6.320   5.050   4.542
 1498SOL     OW 5392   2.155   5.822   0.227
 1498SOL    HW1 5393   2.145   5.858   0.320
 1498SOL    HW2 5394   2.122   5.727   0.225
 1499SOL     OW 5395   1.426   3.716   5.352
 1499SOL    HW1 5396   1.433   3.815   5.363
 1499SOL    HW2 5397   1.376   3.695   5.269
 1500SOL     OW 5398   4.982   6.485   6.864
 1500SOL    HW1 5399   5.008   6.485   6.768
 1500SOL    HW2 5400   4.885   6.466   6.873
 1501SOL     OW 5401   4.019   6.867   6.081
 1501SOL    HW1 5402   4.042   6.825   6.169
 1501SOL    HW2 5403   4.068   6.954   6.071
 1502SOL     OW 5404   6.516   6.508   0.374
 1502SOL    HW1 5405   6.454   6.440   0.335
 1502SOL    HW2 5406   6.496   6.519   0.472
 1503SOL     OW 5407   3.415   2.790   6.291
 1503SOL    HW1 5408   3.337   2.845   6.262
 1503SOL    HW2 5409   3.487   2.850   6.328
 1504SOL     OW 5410   3.488   6.417   4.852
 1504SOL    HW1 5411   3.505   6.436   4.755
 1504SOL    HW2 5412   3.454   6.323   4.862
 1505SOL     OW 5413   5.830   5.682   6.565
 1505SOL    HW1 5414   5.910   5.626   6.583
 1505SOL    HW2 5415   5.757   5.659   6.630
 1506SOL     OW 5416   0.628   6.222   4.546
 1506SOL    HW1 5417   0.582   6.196   4.630
 1506SOL    HW2 5418   0.652   6.140   4.494
 1507SOL     OW 5419   1.830   1.472   5.459
 1507SOL    HW1 5420   1.824   1.425   5.371
 1507SOL    HW2 5421   1.810   1.569   5.447
 1508SOL     OW 5422   5.068   7.021   0.665
 1508SOL    HW1 5423   4.995   6.953   0.656
 1508SOL    HW2 5424   5.088   0.035   0.575
 1509SOL     OW 5425   4.651   2.915   0.625
 1509SOL    HW1 5426   4.724   2.846   0.632
 1509SOL    HW2 5427   4.643   2.964   0.711
 1510SOL     OW 5428   6.636   1.779   3.741
 1510SOL    HW1 5429   6.665   1.750   3.650
 1510SOL    HW2 5430   6.706   1.837   3.782
 1511SOL     OW 5431   2.726   3.159   0.526
 1511SOL    HW1 5432   2.822   3.131   0.513
 1511SOL    HW2 5433   2.695   3.208   0.444
 1512SOL     OW 5434   0.097   1.208   1.860
 1512SOL    HW1 5435   0.034   1.180   1.788
 1512SOL    HW2 5436   0.191   1.194   1.830
 1513SOL     OW 5437   3.441   0.745   3.442
 1513SOL    HW1 5438   3.526   0.787   3.474
 1513SOL    HW2 5439   3.414   0.787   3.355
 1514SOL     OW 5440   5.914   1.644   4.703
 1514SOL    HW1 5441   5.969   1.632   4.621
 1514SOL    HW2 5442   5.926   1.565   4.764
 1515SOL     OW 5443   0.214   4.900   4.717
 1515SOL    HW1 5444   0.175   4.985   4.679
 1515SOL    HW2 5445   0.261   4.850   4.644
 1516SOL     OW 5446   0.345   1.566   0.808
 1516SOL    HW1 5447   0.308   1.486   0.855
 1516SOL    HW2 5448   0.403   1.618   0.872
 1517SOL     OW 5449   4.637   5.743   3.675
 1517SOL    HW1 5450   4.660   5.749   3.578
 1517SOL    HW2 5451   4.566   5.673   3.688
 1518SOL     OW 5452   0.143   3.988   1.110
 1518SOL    HW1 5453   0.219   3.989   1.046
 1518SOL    HW2 5454   0.171   4.032   1.195
 1519SOL     OW 5455   5.979   4.282   0.184
 1519SOL    HW1 5456   6.055   4.290   0.248
 1519SOL    HW2 5457   6.002   4.215   0.113
 1520SOL     OW 5458   1.777   3.583   2.969
 1520SOL    HW1 5459   1.846   3.550   2.905
 1520SOL    HW2 5460   1.725   3.657   2.928
 1521SOL     OW 5461   2.585   3.841   6.648
 1521SOL    HW1 5462   2.674   3.851   6.694
 1521SOL    HW2 5463   2.514   3.884   6.704
 1522SOL     OW 5464   5.894   1.660   6.818
 1522SOL    HW1 5465   5.805   1.617   6.832
 1522SOL    HW2 5466   5.967   1.594   6.835
 1523SOL     OW 5467   6.921   2.348   1.268
 1523SOL    HW1 5468   6.964   2.438   1.277
 1523SOL    HW2 5469   6.981   2.278   1.307
 1524SOL     OW 5470   0.006   1.078   2.098
 1524SOL    HW1 5471   0.040   1.130   2.020
 1524SOL    HW2 5472   0.058   0.993   2.106
 1525SOL     OW 5473   4.661   1.911   6.552
 1525SOL    HW1 5474   4.605   1.946   6.477
 1525SOL    HW2 5475   4.634   1.957   6.637
 1526SOL     OW 5476   6.883   2.800   1.714
 1526SOL    HW1 5477   6.835   2.887   1.705
 1526SOL    HW2 5478   6.838   2.731   1.658
 1527SOL     OW 5479   3.301   1.909   5.706
 1527SOL    HW1 5480   3.291   1.816   5.742
 1527SOL    HW2 5481   3.223   1.964   5.734
 1528SOL     OW 5482   5.022   5.926   3.546
 1528SOL    HW1 5483   4.942   5.928   3.606
 1528SOL    HW2 5484   5.040   6.017   3.511
 1529SOL     OW 5485   3.535   0.425   5.721
 1529SOL    HW1 5486   3.437   0.410   5.706
 1529SOL    HW2 5487   3.548   0.490   5.796
 1530SOL     OW 5488   3.664   6.702   2.137
 1530SOL    HW1 5489   3.697   6.785   2.091
 1530SOL    HW2 5490   3.618   6.643   2.071
 1531SOL     OW 5491   6.262   0.040   4.766
 1531SOL    HW1 5492   6.272   7.013   4.852
 1531SOL    HW2 5493   6.352   0.075   4.737
 1532SOL     OW 5494   3.228   2.219   5.370
 1532SOL    HW1 5495   3.246   2.263   5.458
 1532SOL    HW2 5496   3.208   2.289   5.302
 1533SOL     OW 5497   6.100   2.938   6.608
 1533SOL    HW1 5498   6.001   2.940   6.624
 1533SOL    HW2 5499   6.120   2.990   6.524
 1534SOL     OW 5500   0.314   6.120   1.640
 1534SOL    HW1 5501   0.236   6.164   1.685
 1534SOL    HW2 5502   0.282   6.067   1.562
 1535SOL     OW 5503   4.545   4.892   4.164
 1535SOL    HW1 5504   4.549   4.960   4.237
 1535SOL    HW2 5505   4.609   4.818   4.184
 1536SOL     OW 5506   3.015   5.775   5.112
 1536SOL    HW1 5507   3.057   5.855   5.156
 1536SOL    HW2 5508   3.077   5.697   5.118
 1537SOL     OW 5509   1.893   5.469   4.681
 1537SOL    HW1 5510   1.854   5.411   4.753
 1537SOL    HW2 5511   1.902   5.415   4.597
 1538SOL     OW 5512   2.464   5.525   6.890
 1538SOL    HW1 5513   2.469   5.437   6.844
 1538SOL    HW2 5514   2.393   5.581   6.848
 1539SOL     OW 5515   3.586   4.522   1.652
 1539SOL    HW1 5516   3.656   4.455   1.676
 1539SOL    HW2 5517   3.566   4.579   1.732
 1540SOL     OW 5518   0.917   0.499   4.957
 1540SOL    HW1 5519   0.983   0.547   5.014
 1540SOL    HW2 5520   0.851   0.451   5.014
 1541SOL     OW 5521   5.029   2.349   0.923
 1541SOL    HW1 5522   4.949   2.323   0.977
 1541SOL    HW2 5523   5.000   2.399   0.841
 1542SOL     OW 5524   0.823   6.952   1.609
 1542SOL    HW1 5525   0.868   0.008   1.570
 1542SOL    HW2 5526   0.837   6.950   1.708
 1543SOL     OW 5527   3.569   3.919   3.999
 1543SOL    HW1 5528   3.506   3.847   3.971
 1543SOL    HW2 5529   3.518   3.996   4.037
 1544SOL     OW 5530   3.200   4.061   2.732
 1544SOL    HW1 5531   3.239   4.048   2.641
 1544SOL    HW2 5532   3.273   4.063   2.800
 1545SOL     OW 5533   5.543   0.239   4.962
 1545SOL    HW1 5534   5.510   0.330   4.937
 1545SOL    HW2 5535   5.642   0.242   4.977
 1546SOL     OW 5536   6.457   6.337   6.123
 1546SOL    HW1 5537   6.428   6.310   6.215
 1546SOL    HW2 5538   6.420   6.427   6.102
 1547SOL     OW 5539   3.020   5.894   1.487
 1547SOL    HW1 5540   2.946   5.867   1.549
 1547SOL    HW2 5541   3.043   5.990   1.504
 1548SOL     OW 5542   4.834   4.057   4.832
 1548SOL    HW1 5543   4.879   3.979   4.875
 1548SOL    HW2 5544   4.891   4.091   4.757
 1549SOL     OW 5545   6.723   2.155   1.206
 1549SOL    HW1 5546   6.777   2.232   1.239
 1549SOL    HW2 5547   6.745   2.138   1.109
 1550SOL     OW 5548   2.056   5.753   4.315
 1550SOL    HW1 5549   2.096   5.840   4.342
 1550SOL    HW2 5550   1.958   5.765   4.299
 1551SOL     OW 5551   2.148   2.555   0.635
 1551SOL    HW1 5552   2.242   2.522   0.642
 1551SOL    HW2 5553   2.134   2.598   0.546
 1552SOL     OW 5554   1.117   0.948   0.957
 1552SOL    HW1 5555   1.020   0.971   0.966
 1552SOL    HW2 5556   1.127   0.864   0.904
 1553SOL     OW 5557   5.809   1.762   6.275
 1553SOL    HW1 5558   5.895   1.779   6.324
 1553SOL    HW2 5559   5.748   1.709   6.335
 1554SOL     OW 5560   4.077   1.971   1.776
 1554SOL    HW1 5561   4.061   2.034   1.852
 1554SOL    HW2 5562   4.110   2.022   1.697
 1555SOL     OW 5563   3.562   1.518   5.767
 1555SOL    HW1 5564   3.464   1.530   5.780
 1555SOL    HW2 5565   3.589   1.554   5.678
 1556SOL     OW 5566   3.953   1.062   0.845
 1556SOL    HW1 5567   3.853   1.064   0.838
 1556SOL    HW2 5568   3.991   1.021   0.762
 1557SOL     OW 5569   1.670   1.854   1.203
 1557SOL    HW1 5570   1.765   1.878   1.185
 1557SOL    HW2 5571   1.623   1.931   1.245
 1558SOL     OW 5572   6.308   3.470   6.075
 1558SOL    HW1 5573   6.260   3.475   5.988
 1558SOL    HW2 5574   6.353   3.558   6.093
 1559SOL     OW 5575   1.608   4.612   3.110
 1559SOL    HW1 5576   1.594   4.544   3.182
 1559SOL    HW2 5577   1.581   4.573   3.022
 1560SOL     OW 5578   3.757   1.235   1.422
 1560SOL    HW1 5579   3.696   1.285   1.484
 1560SOL    HW2 5580   3.810   1.300   1.368
 1561SOL     OW 5581   5.968   5.856   1.683
 1561SOL    HW1 5582   5.870   5.874   1.690
 1561SOL    HW2 5583   5.991   5.835   1.588
 1562SOL     OW 5584   3.519   6.610   1.931
 1562SOL    HW1 5585   3.422   6.632   1.932
 1562SOL    HW2 5586   3.556   6.626   1.840
 1563SOL     OW 5587   3.890   2.142   4.228
 1563SOL    HW1 5588   3.920   2.131   4.134
 1563SOL    HW2 5589   3.969   2.155   4.288
 1564SOL     OW 5590   1.531   2.379   2.385
 1564SOL    HW1 5591   1.617   2.417   2.353
 1564SOL    HW2 5592   1.457   2.407   2.324
 1565SOL     OW 5593   3.655   0.677   4.048
 1565SOL    HW1 5594   3.704   0.596   4.080
 1565SOL    HW2 5595   3.595   0.651   3.972
 1566SOL     OW 5596   4.546   4.603   2.788
 1566SOL    HW1 5597   4.528   4.547   2.707
 1566SOL    HW2 5598   4.645   4.615   2.799
 1567SOL     OW 5599   4.991   6.303   5.126
 1567SOL    HW1 5600   4.994   6.359   5.209
 1567SOL    HW2 5601   5.049   6.222   5.139
 1568SOL     OW 5602   2.596   6.222   2.827
 1568SOL    HW1 5603   2.621   6.213   2.923
 1568SOL    HW2 5604   2.547   6.140   2.797
 1569SOL     OW 5605   2.655   0.010   3.742
 1569SOL    HW1 5606   2.748   0.013   3.778
 1569SOL    HW2 5607   2.612   0.100   3.753
 1570SOL     OW 5608   3.429   6.811   0.047
 1570SOL    HW1 5609   3.412   6.732   7.012
 1570SOL    HW2 5610   3.454   6.890   7.014
 1571SOL     OW 5611   1.000   2.559   4.029
 1571SOL    HW1 5612   1.028   2.533   3.937
 1571SOL    HW2 5613   1.065   2.522   4.095
 1572SOL     OW 5614   1.787   4.400   1.817
 1572SOL    HW1 5615   1.728   4.451   1.754
 1572SOL    HW2 5616   1.762   4.303   1.814
 1573SOL     OW 5617   5.004   5.023   0.677
 1573SOL    HW1 5618   5.101   4.997   0.672
 1573SOL    HW2 5619   4.992   5.113   0.636
 1574SOL     OW 5620   6.894   3.556   2.733
 1574SOL    HW1 5621   6.856   3.466   2.715
 1574SOL    HW2 5622   6.930   3.595   2.648
 1575SOL     OW 5623   0.456   0.833   0.539
 1575SOL    HW1 5624   0.366   0.866   0.509
 1575SOL    HW2 5625   0.526   0.864   0.475
 1576SOL     OW 5626   0.407   6.552   2.354
 1576SOL    HW1 5627   0.380   6.609   2.432
 1576SOL    HW2 5628   0.420   6.609   2.274
 1577SOL     OW 5629   4.516   0.094   5.869
 1577SOL    HW1 5630   4.553   0.003   5.884
 1577SOL    HW2 5631   4.480   0.101   5.776
 1578SOL     OW 5632   5.401   1.021   0.231
 1578SOL    HW1 5633   5.396   1.025   0.131
 1578SOL    HW2 5634   5.309   1.007   0.268
 1579SOL     OW 5635   1.754   2.768   1.515
 1579SOL    HW1 5636   1.830   2.748   1.453
 1579SOL    HW2 5637   1.675   2.712   1.490
 1580SOL     OW 5638   3.769   3.823   3.084
 1580SOL    HW1 5639   3.787   3.746   3.024
 1580SOL    HW2 5640   3.726   3.790   3.169
 1581SOL     OW 5641   0.124   4.369   6.053
 1581SOL    HW1 5642   0.117   4.394   5.956
 1581SOL    HW2 5643   0.132   4.269   6.060
 1582SOL     OW 5644   4.921   6.532   5.728
 1582SOL    HW1 5645   4.884   6.443   5.703
 1582SOL    HW2 5646   5.021   6.527   5.733
 1583SOL     OW 5647   1.264   5.824   5.456
 1583SOL    HW1 5648   1.327   5.870   5.394
 1583SOL    HW2 5649   1.299   5.733   5.478
 1584SOL     OW 5650   0.600   5.125   6.601
 1584SOL    HW1 5651   0.509   5.113   6.560
 1584SOL    HW2 5652   0.668   5.131   6.528
 1585SOL     OW 5653   4.099   0.058   3.067
 1585SOL    HW1 5654   4.041   0.042   3.147
 1585SOL    HW2 5655   4.077   7.015   2.996
 1586SOL     OW 5656   2.843   5.696   4.126
 1586SOL    HW1 5657   2.908   5.661   4.194
 1586SOL    HW2 5658   2.754   5.711   4.169
 1587SOL     OW 5659   2.370   6.304   5.852
 1587SOL    HW1 5660   2.333   6.322   5.943
 1587SOL    HW2 5661   2.414   6.214   5.851
 1588SOL     OW 5662   5.768   0.188   2.525
 1588SOL    HW1 5663   5.713   0.108   2.546
 1588SOL    HW2 5664   5.810   0.177   2.435
 1589SOL     OW 5665   6.788   4.497   3.389
 1589SOL    HW1 5666   6.867   4.454   3.346
 1589SOL    HW2 5667   6.762   4.445   3.471
 1590SOL     OW 5668   6.888   1.317   3.342
 1590SOL    HW1 5669   6.904   1.265   3.259
 1590SOL    HW2 5670   6.862   1.411   3.319
 1591SOL     OW 5671   0.735   6.066   2.100
 1591SOL    HW1 5672   0.731   5.967   2.112
 1591SOL    HW2 5673   0.754   6.110   2.188
 1592SOL     OW 5674   0.975   3.895   0.097
 1592SOL    HW1 5675   0.949   3.933   0.008
 1592SOL    HW2 5676   0.897   3.898   0.159
 1593SOL     OW 5677   1.366   0.607   6.916
 1593SOL    HW1 5678   1.456   0.626   6.954
 1593SOL    HW2 5679   1.304   0.683   6.937
 1594SOL     OW 5680   6.648   0.417   1.785
 1594SOL    HW1 5681   6.586   0.356   1.735
 1594SOL    HW2 5682   6.721   0.363   1.827
 1595SOL     OW 5683   0.755   4.255   7.009
 1595SOL    HW1 5684   0.674   4.245   6.951
 1595SOL    HW2 5685   0.780   4.352   7.014
 1596SOL     OW 5686   5.919   4.343   2.085
 1596SOL    HW1 5687   5.973   4.320   2.004
 1596SOL    HW2 5688   5.822   4.343   2.061
 1597SOL     OW 5689   3.321   6.454   0.224
 1597SOL    HW1 5690   3.283   6.544   0.246
 1597SOL    HW2 5691   3.252   6.398   0.179
 1598SOL     OW 5692   1.291   5.537   6.635
 1598SOL    HW1 5693   1.350   5.532   6.554
 1598SOL    HW2 5694   1.347   5.542   6.717
 1599SOL     OW 5695   4.386   4.626   3.731
 1599SOL    HW1 5696   4.418   4.627   3.825
 1599SOL    HW2 5697   4.395   4.717   3.691
 1600SOL     OW 5698   3.527   0.039   2.751
 1600SOL    HW1 5699   3.611   0.085   2.780
 1600SOL    HW2 5700   3.502   0.070   2.659
 1601SOL     OW 5701   5.608   6.423   4.126
 1601SOL    HW1 5702   5.645   6.489   4.061
 1601SOL    HW2 5703   5.636   6.450   4.219
 1602SOL     OW 5704   4.424   5.225   3.654
 1602SOL    HW1 5705   4.398   5.168   3.575
 1602SOL    HW2 5706   4.378   5.191   3.736
 1603SOL     OW 5707   3.060   5.627   3.627
 1603SOL    HW1 5708   3.066   5.656   3.723
 1603SOL    HW2 5709   2.965   5.631   3.597
 1604SOL     OW 5710   3.842   4.834   2.160
 1604SOL    HW1 5711   3.786   4.794   2.088
 1604SOL    HW2 5712   3.784   4.885   2.224
 1605SOL     OW 5713   4.777   4.941   1.335
 1605SOL    HW1 5714   4.770   4.859   1.392
 1605SOL    HW2 5715   4.858   4.933   1.276
 1606SOL     OW 5716   4.110   6.033   4.908
 1606SOL    HW1 5717   4.090   6.129   4.893
 1606SOL    HW2 5718   4.046   5.995   4.975
 1607SOL     OW 5719   4.903   5.636   3.070
 1607SOL    HW1 5720   4.911   5.717   3.013
 1607SOL    HW2 5721   4.911   5.662   3.166
 1608SOL     OW 5722   6.317   0.481   2.909
 1608SOL    HW1 5723   6.329   0.576   2.937
 1608SOL    HW2 5724   6.224   0.468   2.875
 1609SOL     OW 5725   3.099   6.487   0.984
 1609SOL    HW1 5726   3.189   6.443   0.992
 1609SOL    HW2 5727   3.051   6.480   1.071
 1610SOL     OW 5728   4.880   0.229   0.158
 1610SOL    HW1 5729   4.945   0.292   0.117
 1610SOL    HW2 5730   4.816   0.197   0.089
 1611SOL     OW 5731   0.923   3.777   0.969
 1611SOL    HW1 5732   0.948   3.717   1.045
 1611SOL    HW2 5733   0.988   3.766   0.894
 1612SOL     OW 5734   3.604   6.453   1.440
 1612SOL    HW1 5735   3.534   6.395   1.481
 1612SOL    HW2 5736   3.564   6.540   1.414
 1613SOL     OW 5737   7.023   5.686   2.604
 1613SOL    HW1 5738   7.007   5.615   2.672
 1613SOL    HW2 5739   6.947   5.689   2.540
 1614SOL     OW 5740   6.096   2.789   6.115
 1614SOL    HW1 5741   6.040   2.854   6.168
 1614SOL    HW2 5742   6.165   2.749   6.175
 1615SOL     OW 5743   0.864   5.101   6.434
 1615SOL    HW1 5744   0.879   5.134   6.527
 1615SOL    HW2 5745   0.830   5.176   6.377
 1616SOL     OW 5746   2.296   1.502   4.798
 1616SOL    HW1 5747   2.254   1.579   4.847
 1616SOL    HW2 5748   2.380   1.475   4.845
 1617SOL     OW 5749   5.296   6.252   3.428
 1617SOL    HW1 5750   5.317   6.241   3.525
 1617SOL    HW2 5751   5.199   6.274   3.417
 1618SOL     OW 5752   2.782   5.977   3.031
 1618SOL    HW1 5753   2.784   5.877   3.021
 1618SOL    HW2 5754   2.863   6.007   3.081
 1619SOL     OW 5755   0.982   4.986   0.051
 1619SOL    HW1 5756   1.026   5.048   0.115
 1619SOL    HW2 5757   0.905   4.941   0.095
 1620SOL     OW 5758   3.630   5.278   0.744
 1620SOL    HW1 5759   3.642   5.290   0.646
 1620SOL    HW2 5760   3.708   5.229   0.782
 1621SOL     OW 5761   5.934   6.759   0.984
 1621SOL    HW1 5762   5.926   6.859   0.976
 1621SOL    HW2 5763   5.925   6.734   1.081
 1622SOL     OW 5764   0.799   3.898   4.838
 1622SOL    HW1 5765   0.802   3.908   4.937
 1622SOL    HW2 5766   0.706   3.876   4.810
 1623SOL     OW 5767   0.369   2.081   4.765
 1623SOL    HW1 5768   0.290   2.042   4.719
 1623SOL    HW2 5769   0.432   2.118   4.697
 1624SOL     OW 5770   4.414   0.964   0.840
 1624SOL    HW1 5771   4.361   0.938   0.759
 1624SOL    HW2 5772   4.399   1.061   0.861
 1625SOL     OW 5773   2.004   4.978   0.880
 1625SOL    HW1 5774   2.099   5.007   0.880
 1625SOL    HW2 5775   1.945   5.058   0.870
 1626SOL     OW 5776   3.272   1.998   1.336
 1626SOL    HW1 5777   3.314   1.927   1.280
 1626SOL    HW2 5778   3.188   2.030   1.292
 1627SOL     OW 5779   4.314   2.307   4.018
 1627SOL    HW1 5780   4.373   2.383   3.991
 1627SOL    HW2 5781   4.233   2.306   3.960
 1628SOL     OW 5782   5.602   6.120   6.307
 1628SOL    HW1 5783   5.655   6.108   6.391
 1628SOL    HW2 5784   5.619   6.045   6.244
 1629SOL     OW 5785   2.710   1.527   2.774
 1629SOL    HW1 5786   2.696   1.468   2.853
 1629SOL    HW2 5787   2.690   1.476   2.690
 1630SOL     OW 5788   0.853   4.183   0.282
 1630SOL    HW1 5789   0.871   4.115   0.353
 1630SOL    HW2 5790   0.854   4.139   0.192
 1631SOL     OW 5791   0.815   3.625   0.198
 1631SOL    HW1 5792   0.865   3.680   0.132
 1631SOL    HW2 5793   0.877   3.591   0.268
 1632SOL     OW 5794   6.585   4.571   2.711
 1632SOL    HW1 5795   6.585   4.668   2.736
 1632SOL    HW2 5796   6.564   4.561   2.614
 1633SOL     OW 5797   4.880   3.561   3.820
 1633SOL    HW1 5798   4.783   3.569   3.844
 1633SOL    HW2 5799   4.933   3.623   3.876
 1634SOL     OW 5800   5.166   0.537   4.872
 1634SOL    HW1 5801   5.141   0.444   4.899
 1634SOL    HW2 5802   5.095   0.576   4.814
 1635SOL     OW 5803   3.244   5.272   5.123
 1635SOL    HW1 5804   3.227   5.216   5.042
 1635SOL    HW2 5805   3.267   5.213   5.201
 1636SOL     OW 5806   5.311   5.838   1.485
 1636SOL    HW1 5807   5.324   5.762   1.549
 1636SOL    HW2 5808   5.239   5.815   1.420
 1637SOL     OW 5809   0.301   6.990   2.400
 1637SOL    HW1 5810   0.232   6.924   2.369
 1637SOL    HW2 5811   0.263   0.059   2.393
 1638SOL     OW 5812   6.887   3.331   1.710
 1638SOL    HW1 5813   6.887   3.426   1.681
 1638SOL    HW2 5814   6.846   3.323   1.801
 1639SOL     OW 5815   5.426   3.800   2.345
 1639SOL    HW1 5816   5.365   3.875   2.369
 1639SOL    HW2 5817   5.375   3.713   2.349
 1640SOL     OW 5818   6.382   0.610   0.598
 1640SOL    HW1 5819   6.291   0.640   0.569
 1640SOL    HW2 5820   6.380   0.513   0.621
 1641SOL     OW 5821   6.941   2.132   2.823
 1641SOL    HW1 5822   0.008   2.173   2.829
 1641SOL    HW2 5823   6.899   2.159   2.736
 1642SOL     OW 5824   5.203   2.555   5.750
 1642SOL    HW1 5825   5.223   2.457   5.752
 1642SOL    HW2 5826   5.116   2.572   5.796
 1643SOL     OW 5827   3.401   5.420   4.155
 1643SOL    HW1 5828   3.377   5.327   4.127
 1643SOL    HW2 5829   3.322   5.463   4.198
 1644SOL     OW 5830   6.227   2.916   0.510
 1644SOL    HW1 5831   6.296   2.858   0.466
 1644SOL    HW2 5832   6.158   2.858   0.554
 1645SOL     OW 5833   2.495   1.050   5.610
 1645SOL    HW1 5834   2.514   1.113   5.535
 1645SOL    HW2 5835   2.580   1.006   5.639
 1646SOL     OW 5836   1.032   5.655   0.620
 1646SOL    HW1 5837   1.064   5.748   0.602
 1646SOL    HW2 5838   1.043   5.599   0.538
 1647SOL     OW 5839   6.158   2.663   4.359
 1647SOL    HW1 5840   6.108   2.718   4.426
 1647SOL    HW2 5841   6.124   2.684   4.267
 1648SOL     OW 5842   5.728   6.382   0.763
 1648SOL    HW1 5843   5.729   6.480   0.784
 1648SOL    HW2 5844   5.660   6.336   0.820
 1649SOL     OW 5845   3.176   0.361   3.609
 1649SOL    HW1 5846   3.181   0.446   3.556
 1649SOL    HW2 5847   3.124   0.293   3.559
 1650SOL     OW 5848   2.874   5.630   6.972
 1650SOL    HW1 5849   2.810   5.670   6.906
 1650SOL    HW2 5850   2.949   5.694   6.989
 1651SOL     OW 5851   0.952   2.825   4.016
 1651SOL    HW1 5852   0.968   2.727   4.028
 1651SOL    HW2 5853   0.865   2.850   4.057
 1652SOL     OW 5854   0.917   2.836   1.515
 1652SOL    HW1 5855   0.928   2.902   1.441
 1652SOL    HW2 5856   0.874   2.880   1.594
 1653SOL     OW 5857   0.334   5.182   2.979
 1653SOL    HW1 5858   0.280   5.221   3.054
 1653SOL    HW2 5859   0.320   5.236   2.896
 1654SOL     OW 5860   0.458   3.329   2.178
 1654SOL    HW1 5861   0.422   3.258   2.239
 1654SOL    HW2 5862   0.402   3.334   2.096
 1655SOL     OW 5863   6.469   0.705   4.774
 1655SOL    HW1 5864   6.472   0.727   4.872
 1655SOL    HW2 5865   6.562   0.706   4.737
 1656SOL     OW 5866   2.321   5.407   4.291
 1656SOL    HW1 5867   2.310   5.312   4.320
 1656SOL    HW2 5868   2.232   5.452   4.289
 1657SOL     OW 5869   0.284   0.061   5.788
 1657SOL    HW1 5870   0.221   0.120   5.738
 1657SOL    HW2 5871   0.238   6.999   5.810
 1658SOL     OW 5872   6.935   0.006   0.250
 1658SOL    HW1 5873   7.008   0.039   0.190
 1658SOL    HW2 5874   6.896   0.082   0.301
 1659SOL     OW 5875   4.303   6.570   6.633
 1659SOL    HW1 5876   4.340   6.486   6.594
 1659SOL    HW2 5877   4.316   6.645   6.569
 1660SOL     OW 5878   1.536   6.722   1.962
 1660SOL    HW1 5879   1.569   6.804   1.917
 1660SOL    HW2 5880   1.580   6.642   1.921
 1661SOL     OW 5881   3.857   5.171   2.838
 1661SOL    HW1 5882   3.839   5.073   2.849
 1661SOL    HW2 5883   3.770   5.221   2.836
 1662SOL     OW 5884   0.042   1.450   5.313
 1662SOL    HW1 5885   0.004   1.526   5.366
 1662SOL    HW2 5886   0.127   1.419   5.358
 1663SOL     OW 5887   4.534   4.368   0.982
 1663SOL    HW1 5888   4.589   4.446   0.952
 1663SOL    HW2 5889   4.472   4.341   0.908
 1664SOL     OW 5890   0.577   0.033   4.889
 1664SOL    HW1 5891   0.553   0.113   4.833
 1664SOL    HW2 5892   0.498   0.008   4.946
 1665SOL     OW 5893   2.052   3.628   1.054
 1665SOL    HW1 5894   2.100   3.541   1.073
 1665SOL    HW2 5895   2.120   3.700   1.041
 1666SOL     OW 5896   5.458   0.435   6.204
 1666SOL    HW1 5897   5.423   0.528   6.211
 1666SOL    HW2 5898   5.549   0.430   6.247
 1667SOL     OW 5899   0.679   6.580   1.210
 1667SOL    HW1 5900   0.726   6.506   1.259
 1667SOL    HW2 5901   0.747   6.637   1.163
 1668SOL     OW 5902   5.060   4.154   3.577
 1668SOL    HW1 5903   5.110   4.092   3.638
 1668SOL    HW2 5904   5.017   4.101   3.504
 1669SOL     OW 5905   0.153   3.621   5.375
 1669SOL    HW1 5906   0.132   3.543   5.316
 1669SOL    HW2 5907   0.179   3.699   5.318
 1670SOL     OW 5908   2.177   4.342   6.016
 1670SOL    HW1 5909   2.109   4.412   6.040
 1670SOL    HW2 5910   2.133   4.270   5.962
 1671SOL     OW 5911   4.781   1.681   1.848
 1671SOL    HW1 5912   4.734   1.630   1.776
 1671SOL    HW2 5913   4.736   1.769   1.861
 1672SOL     OW 5914   0.774   3.174   6.972
 1672SOL    HW1 5915   0.720   3.224   6.903
 1672SOL    HW2 5916   0.717   3.104   7.014
 1673SOL     OW 5917   2.159   1.687   4.449
 1673SOL    HW1 5918   2.249   1.655   4.419
 1673SOL    HW2 5919   2.108   1.721   4.370
 1674SOL     OW 5920   4.707   2.792   2.796
 1674SOL    HW1 5921   4.619   2.768   2.756
 1674SOL    HW2 5922   4.753   2.859   2.738
 1675SOL     OW 5923   5.419   0.555   1.143
 1675SOL    HW1 5924   5.320   0.556   1.159
 1675SOL    HW2 5925   5.454   0.649   1.147
 1676SOL     OW 5926   2.086   1.902   2.767
 1676SOL    HW1 5927   2.132   1.837   2.828
 1676SOL    HW2 5928   2.103   1.995   2.798
 1677SOL     OW 5929   3.965   3.543   3.522
 1677SOL    HW1 5930   4.013   3.460   3.554
 1677SOL    HW2 5931   3.941   3.532   3.426
 1678SOL     OW 5932   0.615   6.822   0.944
 1678SOL    HW1 5933   0.611   6.758   1.021
 1678SOL    HW2 5934   0.568   6.907   0.969
 1679SOL     OW 5935   1.887   1.706   5.242
 1679SOL    HW1 5936   1.893   1.663   5.152
 1679SOL    HW2 5937   1.942   1.790   5.243
 1680SOL     OW 5938   4.921   2.688   4.580
 1680SOL    HW1 5939   4.886   2.746   4.653
 1680SOL    HW2 5940   4.857   2.612   4.564
 1681SOL     OW 5941   2.196   5.848   3.559
 1681SOL    HW1 5942   2.175   5.925   3.499
 1681SOL    HW2 5943   2.230   5.883   3.647
 1682SOL     OW 5944   2.658   6.763   5.557
 1682SOL    HW1 5945   2.588   6.834   5.562
 1682SOL    HW2 5946   2.621   6.676   5.591
 1683SOL     OW 5947   6.013   4.661   2.404
 1683SOL    HW1 5948   6.012   4.758   2.378
 1683SOL    HW2 5949   6.096   4.618   2.369
 1684SOL     OW 5950   2.001   4.744   1.610
 1684SOL    HW1 5951   2.048   4.656   1.595
 1684SOL    HW2 5952   2.012   4.772   1.705
 1685SOL     OW 5953   0.537   1.242   5.343
 1685SOL    HW1 5954   0.565   1.320   5.288
 1685SOL    HW2 5955   0.502   1.170   5.283
 1686SOL     OW 5956   5.152   4.996   3.459
 1686SOL    HW1 5957   5.124   4.984   3.554
 1686SOL    HW2 5958   5.073   5.016   3.402
 1687SOL     OW 5959   6.559   3.599   2.648
 1687SOL    HW1 5960   6.475   3.586   2.700
 1687SOL    HW2 5961   6.628   3.534   2.681
 1688SOL     OW 5962   2.328   2.190   3.729
 1688SOL    HW1 5963   2.281   2.136   3.800
 1688SOL    HW2 5964   2.317   2.145   3.641
 1689SOL     OW 5965   5.861   1.001   2.460
 1689SOL    HW1 5966   5.807   0.925   2.424
 1689SOL    HW2 5967   5.911   1.044   2.386
 1690SOL     OW 5968   0.687   4.110   4.221
 1690SOL    HW1 5969   0.758   4.041   4.234
 1690SOL    HW2 5970   0.671   4.158   4.307
 1691SOL     OW 5971   5.391   2.936   5.154
 1691SOL    HW1 5972   5.375   2.936   5.055
 1691SOL    HW2 5973   5.454   2.862   5.177
 1692SOL     OW 5974   5.973   5.214   1.830
 1692SOL    HW1 5975   5.887   5.258   1.857
 1692SOL    HW2 5976   6.005   5.254   1.745
 1693SOL     OW 5977   6.671   0.825   5.643
 1693SOL    HW1 5978   6.606   0.890   5.682
 1693SOL    HW2 5979   6.648   0.808   5.547
 1694SOL     OW 5980   5.257   0.906   4.859
 1694SOL    HW1 5981   5.301   0.992   4.832
 1694SOL    HW2 5982   5.260   0.898   4.959
 1695SOL     OW 5983   3.866   0.383   6.850
 1695SOL    HW1 5984   3.848   0.478   6.876
 1695SOL    HW2 5985   3.826   0.322   6.918
 1696SOL     OW 5986   4.698   5.579   0.064
 1696SOL    HW1 5987   4.600   5.598   0.057
 1696SOL    HW2 5988   4.715   5.483   0.042
 1697SOL     OW 5989   5.931   2.160   1.186
 1697SOL    HW1 5990   5.895   2.085   1.242
 1697SOL    HW2 5991   5.936   2.243   1.242
 1698SOL     OW 5992   3.212   0.868   2.285
 1698SOL    HW1 5993   3.236   0.854   2.381
 1698SOL    HW2 5994   3.164   0.955   2.275
 1699SOL     OW 5995   2.400   0.967   7.018
 1699SOL    HW1 5996   2.451   1.005   6.942
 1699SOL    HW2 5997   2.386   1.037   0.064
 1700SOL     OW 5998   6.166   3.345   3.038
 1700SOL    HW1 5999   6.218   3.417   3.084
 1700SOL    HW2 6000   6.216   3.258   3.044
 1701SOL     OW 6001   6.678   4.577   4.970
 1701SOL    HW1 6002   6.627   4.492   4.983
 1701SOL    HW2 6003   6.720   4.578   4.879
 1702SOL     OW 6004   1.944   2.457   5.652
 1702SOL    HW1 6005   1.872   2.389   5.665
 1702SOL    HW2 6006   1.936   2.498   5.561
 1703SOL     OW 6007   2.961   1.737   6.945
 1703SOL    HW1 6008   2.929   1.680   6.870
 1703SOL    HW2 6009   2.930   1.831   6.932
 1704SOL     OW 6010   2.882   1.638   0.795
 1704SOL    HW1 6011   2.817   1.569   0.763
 1704SOL    HW2 6012   2.959   1.643   0.732
 1705SOL     OW 6013   3.594   1.387   1.571
 1705SOL    HW1 6014   3.563   1.339   1.653
 1705SOL    HW2 6015   3.636   1.474   1.597
 1706SOL     OW 6016   4.168   1.929   0.590
 1706SOL    HW1 6017   4.086   1.897   0.637
 1706SOL    HW2 6018   4.172   2.028   0.593
 1707SOL     OW 6019   4.600   1.415   2.450
 1707SOL    HW1 6020   4.537   1.465   2.509
 1707SOL    HW2 6021   4.551   1.346   2.397
 1708SOL     OW 6022   3.235   5.341   1.934
 1708SOL    HW1 6023   3.271   5.353   2.026
 1708SOL    HW2 6024   3.264   5.253   1.898
 1709SOL     OW 6025   5.167   5.866   0.708
 1709SOL    HW1 6026   5.146   5.862   0.805
 1709SOL    HW2 6027   5.188   5.775   0.674
 1710SOL     OW 6028   4.453   5.210   2.798
 1710SOL    HW1 6029   4.464   5.152   2.718
 1710SOL    HW2 6030   4.400   5.163   2.868
 1711SOL     OW 6031   2.890   5.648   6.346
 1711SOL    HW1 6032   2.833   5.719   6.305
 1711SOL    HW2 6033   2.984   5.658   6.314
 1712SOL     OW 6034   0.393   1.811   4.357
 1712SOL    HW1 6035   0.469   1.821   4.421
 1712SOL    HW2 6036   0.328   1.886   4.371
 1713SOL     OW 6037   4.279   0.752   2.939
 1713SOL    HW1 6038   4.361   0.783   2.890
 1713SOL    HW2 6039   4.247   0.667   2.898
 1714SOL     OW 6040   3.624   2.900   6.664
 1714SOL    HW1 6041   3.715   2.867   6.688
 1714SOL    HW2 6042   3.558   2.826   6.674
 1715SOL     OW 6043   1.359   6.450   2.277
 1715SOL    HW1 6044   1.341   6.406   2.189
 1715SOL    HW2 6045   1.363   6.549   2.265
 1716SOL     OW 6046   4.316   0.621   4.086
 1716SOL    HW1 6047   4.280   0.713   4.104
 1716SOL    HW2 6048   4.288   0.592   3.994
 1717SOL     OW 6049   3.763   5.971   5.788
 1717SOL    HW1 6050   3.696   6.023   5.841
 1717SOL    HW2 6051   3.791   5.890   5.839
 1718SOL     OW 6052   1.906   2.660   1.868
 1718SOL    HW1 6053   1.837   2.649   1.797
 1718SOL    HW2 6054   1.959   2.743   1.851
 1719SOL     OW 6055   0.656   5.069   1.765
 1719SOL    HW1 6056   0.711   5.145   1.801
 1719SOL    HW2 6057   0.716   4.994   1.740
 1720SOL     OW 6058   6.603   3.012   5.625
 1720SOL    HW1 6059   6.590   2.974   5.717
 1720SOL    HW2 6060   6.586   3.111   5.627
 1721SOL     OW 6061   1.399   1.473   2.015
 1721SOL    HW1 6062   1.437   1.381   2.022
 1721SOL    HW2 6063   1.470   1.540   2.036
 1722SOL     OW 6064   2.809   1.986   3.035
 1722SOL    HW1 6065   2.756   1.910   2.997
 1722SOL    HW2 6066   2.815   2.059   2.967
 1723SOL     OW 6067   5.132   2.662   0.073
 1723SOL    HW1 6068   5.160   2.592   0.139
 1723SOL    HW2 6069   5.200   2.735   0.070
 1724SOL     OW 6070   6.722   2.470   1.042
 1724SOL    HW1 6071   6.623   2.471   1.033
 1724SOL    HW2 6072   6.747   2.429   1.130
 1725SOL     OW 6073   2.227   5.718   6.668
 1725SOL    HW1 6074   2.220   5.812   6.702
 1725SOL    HW2 6075   2.136   5.676   6.666
 1726SOL     OW 6076   5.638   3.783   4.117
 1726SOL    HW1 6077   5.719   3.813   4.167
 1726SOL    HW2 6078   5.561   3.841   4.141
 1727SOL     OW 6079   3.235   3.666   3.479
 1727SOL    HW1 6080   3.308   3.652   3.412
 1727SOL    HW2 6081   3.167   3.729   3.442
 1728SOL     OW 6082   4.898   2.439   5.247
 1728SOL    HW1 6083   4.943   2.528   5.238
 1728SOL    HW2 6084   4.798   2.451   5.245
 1729SOL     OW 6085   2.113   3.835   1.900
 1729SOL    HW1 6086   2.044   3.900   1.868
 1729SOL    HW2 6087   2.134   3.855   1.996
 1730SOL     OW 6088   2.517   5.154   6.034
 1730SOL    HW1 6089   2.470   5.209   6.102
 1730SOL    HW2 6090   2.495   5.058   6.048
 1731SOL     OW 6091   5.853   4.012   4.147
 1731SOL    HW1 6092   5.926   3.972   4.203
 1731SOL    HW2 6093   5.823   4.098   4.188
 1732SOL     OW 6094   1.766   4.808   6.471
 1732SOL    HW1 6095   1.841   4.769   6.418
 1732SOL    HW2 6096   1.732   4.890   6.426
 1733SOL     OW 6097   2.957   3.680   0.329
 1733SOL    HW1 6098   3.049   3.654   0.298
 1733SOL    HW2 6099   2.891   3.613   0.295
 1734SOL     OW 6100   7.016   3.014   1.348
 1734SOL    HW1 6101   0.065   2.953   1.315
 1734SOL    HW2 6102   7.020   3.101   1.299
 1735SOL     OW 6103   3.993   5.650   6.417
 1735SOL    HW1 6104   4.073   5.673   6.361
 1735SOL    HW2 6105   3.910   5.682   6.371
 1736SOL     OW 6106   5.072   3.493   0.813
 1736SOL    HW1 6107   5.025   3.405   0.821
 1736SOL    HW2 6108   5.084   3.515   0.717
 1737SOL     OW 6109   4.681   1.207   4.778
 1737SOL    HW1 6110   4.697   1.290   4.724
 1737SOL    HW2 6111   4.768   1.173   4.815
 1738SOL     OW 6112   1.179   3.680   4.287
 1738SOL    HW1 6113   1.100   3.681   4.348
 1738SOL    HW2 6114   1.195   3.771   4.251
 1739SOL     OW 6115   5.096   0.235   4.154
 1739SOL    HW1 6116   5.077   0.302   4.225
 1739SOL    HW2 6117   5.045   0.258   4.071
 1740SOL     OW 6118   6.664   2.318   4.651
 1740SOL    HW1 6119   6.583   2.259   4.649
 1740SOL    HW2 6120   6.638   2.411   4.624
 1741SOL     OW 6121   0.965   2.038   4.658
 1741SOL    HW1 6122   1.056   2.079   4.669
 1741SOL    HW2 6123   0.905   2.102   4.611
 1742SOL     OW 6124   6.192   5.663   6.160
 1742SOL    HW1 6125   6.272   5.713   6.126
 1742SOL    HW2 6126   6.135   5.725   6.214
 1743SOL     OW 6127   1.948   1.135   2.811
 1743SOL    HW1 6128   1.951   1.035   2.809
 1743SOL    HW2 6129   1.864   1.164   2.858
 1744SOL     OW 6130   4.628   2.269   3.911
 1744SOL    HW1 6131   4.626   2.252   4.009
 1744SOL    HW2 6132   4.672   2.192   3.864
 1745SOL     OW 6133   6.926   6.650   1.497
 1745SOL    HW1 6134   6.837   6.667   1.455
 1745SOL    HW2 6135   6.982   6.594   1.436
 1746SOL     OW 6136   1.873   4.080   3.449
 1746SOL    HW1 6137   1.868   4.170   3.492
 1746SOL    HW2 6138   1.794   4.066   3.390
 1747SOL     OW 6139   3.431   1.162   2.550
 1747SOL    HW1 6140   3.446   1.257   2.576
 1747SOL    HW2 6141   3.345   1.129   2.589
 1748SOL     OW 6142   7.000   1.655   4.524
 1748SOL    HW1 6143   0.074   1.633   4.534
 1748SOL    HW2 6144   6.961   1.599   4.452
 1749SOL     OW 6145   2.367   4.982   1.235
 1749SOL    HW1 6146   2.344   4.890   1.267
 1749SOL    HW2 6147   2.286   5.040   1.239
 1750SOL     OW 6148   4.661   0.564   5.435
 1750SOL    HW1 6149   4.696   0.558   5.528
 1750SOL    HW2 6150   4.676   0.477   5.387
 1751SOL     OW 6151   5.981   2.635   5.012
 1751SOL    HW1 6152   5.991   2.617   5.110
 1751SOL    HW2 6153   6.071   2.632   4.969
 1752SOL     OW 6154   6.670   0.829   1.247
 1752SOL    HW1 6155   6.758   0.858   1.207
 1752SOL    HW2 6156   6.620   0.910   1.278
 1753SOL     OW 6157   6.269   1.130   1.801
 1753SOL    HW1 6158   6.296   1.034   1.808
 1753SOL    HW2 6159   6.180   1.136   1.755
 1754SOL     OW 6160   2.754   5.581   5.834
 1754SOL    HW1 6161   2.668   5.633   5.830
 1754SOL    HW2 6162   2.742   5.494   5.786
 1755SOL     OW 6163   6.095   0.246   5.012
 1755SOL    HW1 6164   6.125   0.159   5.051
 1755SOL    HW2 6165   6.136   0.259   4.922
 1756SOL     OW 6166   5.643   0.631   5.966
 1756SOL    HW1 6167   5.680   0.629   5.872
 1756SOL    HW2 6168   5.664   0.544   6.011
 1757SOL     OW 6169   2.552   5.212   5.357
 1757SOL    HW1 6170   2.517   5.264   5.279
 1757SOL    HW2 6171   2.646   5.183   5.339
 1758SOL     OW 6172   2.033   6.301   4.635
 1758SOL    HW1 6173   1.984   6.385   4.613
 1758SOL    HW2 6174   1.983   6.223   4.598
 1759SOL     OW 6175   1.472   6.411   0.250
 1759SOL    HW1 6176   1.454   6.494   0.301
 1759SOL    HW2 6177   1.429   6.416   0.160
 1760SOL     OW 6178   6.358   1.021   5.139
 1760SOL    HW1 6179   6.266   0.981   5.149
 1760SOL    HW2 6180   6.388   1.056   5.227
 1761SOL     OW 6181   6.422   1.897   1.806
 1761SOL    HW1 6182   6.325   1.899   1.779
 1761SOL    HW2 6183   6.472   1.835   1.746
 1762SOL     OW 6184   0.361   1.601   5.200
 1762SOL    HW1 6185   0.414   1.634   5.122
 1762SOL    HW2 6186   0.273   1.648   5.203
 1763SOL     OW 6187   0.465   3.950   4.297
 1763SOL    HW1 6188   0.531   4.011   4.254
 1763SOL    HW2 6189   0.444   3.982   4.389
 1764SOL     OW 6190   1.475   5.101   2.483
 1764SOL    HW1 6191   1.461   5.055   2.395
 1764SOL    HW2 6192   1.386   5.126   2.521
 1765SOL     OW 6193   5.675   3.334   1.815
 1765SOL    HW1 6194   5.620   3.326   1.732
 1765SOL    HW2 6195   5.615   3.355   1.892
 1766SOL     OW 6196   3.991   4.894   4.611
 1766SOL    HW1 6197   3.959   4.814   4.662
 1766SOL    HW2 6198   4.037   4.957   4.673
 1767SOL     OW 6199   0.637   4.948   2.426
 1767SOL    HW1 6200   0.719   4.938   2.370
 1767SOL    HW2 6201   0.654   5.015   2.498
 1768SOL     OW 6202   4.962   6.427   2.292
 1768SOL    HW1 6203   4.917   6.341   2.265
 1768SOL    HW2 6204   5.018   6.412   2.373
 1769SOL     OW 6205   5.269   0.193   6.498
 1769SOL    HW1 6206   5.259   0.290   6.473
 1769SOL    HW2 6207   5.366   0.172   6.509
 1770SOL     OW 6208   1.991   5.095   6.360
 1770SOL    HW1 6209   1.974   5.152   6.441
 1770SOL    HW2 6210   2.052   5.020   6.384
 1771SOL     OW 6211   0.779   3.924   6.094
 1771SOL    HW1 6212   0.828   3.967   6.018
 1771SOL    HW2 6213   0.690   3.967   6.105
 1772SOL     OW 6214   2.294   4.655   3.820
 1772SOL    HW1 6215   2.221   4.645   3.887
 1772SOL    HW2 6216   2.317   4.566   3.781
 1773SOL     OW 6217   0.494   6.772   5.346
 1773SOL    HW1 6218   0.554   6.766   5.266
 1773SOL    HW2 6219   0.543   6.815   5.422
 1774SOL     OW 6220   5.895   5.400   1.246
 1774SOL    HW1 6221   5.976   5.455   1.223
 1774SOL    HW2 6222   5.813   5.457   1.237
 1775SOL     OW 6223   2.165   5.700   6.079
 1775SOL    HW1 6224   2.180   5.629   6.010
 1775SOL    HW2 6225   2.114   5.776   6.039
 1776SOL     OW 6226   4.174   1.091   6.083
 1776SOL    HW1 6227   4.164   1.064   5.987
 1776SOL    HW2 6228   4.084   1.091   6.127
 1777SOL     OW 6229   4.673   6.673   6.606
 1777SOL    HW1 6230   4.666   6.613   6.686
 1777SOL    HW2 6231   4.581   6.693   6.572
 1778SOL     OW 6232   6.171   0.149   4.116
 1778SOL    HW1 6233   6.133   0.193   4.198
 1778SOL    HW2 6234   6.124   0.186   4.035
 1779SOL     OW 6235   5.596   5.979   3.774
 1779SOL    HW1 6236   5.542   5.906   3.817
 1779SOL    HW2 6237   5.596   6.060   3.833
 1780SOL     OW 6238   2.004   5.438   5.153
 1780SOL    HW1 6239   2.066   5.390   5.091
 1780SOL    HW2 6240   1.983   5.378   5.231
 1781SOL     OW 6241   4.228   0.517   3.840
 1781SOL    HW1 6242   4.231   0.428   3.794
 1781SOL    HW2 6243   4.134   0.552   3.839
 1782SOL     OW 6244   1.638   1.816   2.621
 1782SOL    HW1 6245   1.549   1.789   2.659
 1782SOL    HW2 6246   1.626   1.895   2.561
 1783SOL     OW 6247   1.706   4.307   6.502
 1783SOL    HW1 6248   1.767   4.375   6.542
 1783SOL    HW2 6249   1.754   4.220   6.494
 1784SOL     OW 6250   2.511   0.541   0.903
 1784SOL    HW1 6251   2.570   0.511   0.829
 1784SOL    HW2 6252   2.452   0.465   0.932
 1785SOL     OW 6253   1.345   6.619   4.002
 1785SOL    HW1 6254   1.328   6.718   3.998
 1785SOL    HW2 6255   1.365   6.592   4.096
 1786SOL     OW 6256   1.261   5.895   0.735
 1786SOL    HW1 6257   1.165   5.902   0.707
 1786SOL    HW2 6258   1.286   5.975   0.789
 1787SOL     OW 6259   2.023   3.748   5.678
 1787SOL    HW1 6260   1.990   3.693   5.755
 1787SOL    HW2 6261   2.107   3.796   5.705
 1788SOL     OW 6262   4.661   3.753   0.748
 1788SOL    HW1 6263   4.577   3.784   0.704
 1788SOL    HW2 6264   4.704   3.830   0.795
 1789SOL     OW 6265   6.771   3.898   1.958
 1789SOL    HW1 6266   6.798   3.923   1.865
 1789SOL    HW2 6267   6.674   3.919   1.971
 1790SOL     OW 6268   2.608   2.428   4.417
 1790SOL    HW1 6269   2.524   2.431   4.363
 1790SOL    HW2 6270   2.597   2.482   4.500
 1791SOL     OW 6271   5.224   6.715   3.429
 1791SOL    HW1 6272   5.311   6.668   3.415
 1791SOL    HW2 6273   5.237   6.792   3.491
 1792SOL     OW 6274   0.088   1.739   5.173
 1792SOL    HW1 6275   0.137   1.824   5.154
 1792SOL    HW2 6276   0.040   1.746   5.260
 1793SOL     OW 6277   0.205   1.408   5.882
 1793SOL    HW1 6278   0.258   1.351   5.819
 1793SOL    HW2 6279   0.115   1.368   5.895
 1794SOL     OW 6280   0.741   7.019   6.131
 1794SOL    HW1 6281   0.752   6.929   6.172
 1794SOL    HW2 6282   0.676   0.049   6.185
 1795SOL     OW 6283   6.193   4.853   0.057
 1795SOL    HW1 6284   6.223   4.928   0.116
 1795SOL    HW2 6285   6.272   4.810   0.015
 1796SOL     OW 6286   0.709   6.480   6.163
 1796SOL    HW1 6287   0.628   6.491   6.105
 1796SOL    HW2 6288   0.764   6.563   6.160
 1797SOL     OW 6289   2.752   5.796   4.926
 1797SOL    HW1 6290   2.778   5.836   4.838
 1797SOL    HW2 6291   2.831   5.798   4.988
 1798SOL     OW 6292   2.992   3.918   4.350
 1798SOL    HW1 6293   2.933   3.882   4.278
 1798SOL    HW2 6294   3.053   3.846   4.382
 1799SOL     OW 6295   3.104   1.212   0.241
 1799SOL    HW1 6296   3.152   1.254   0.318
 1799SOL    HW2 6297   3.163   1.144   0.198
 1800SOL     OW 6298   5.272   3.168   4.949
 1800SOL    HW1 6299   5.345   3.227   4.984
 1800SOL    HW2 6300   5.307   3.075   4.936
 1801SOL     OW 6301   1.049   1.712   2.348
 1801SOL    HW1 6302   1.121   1.703   2.278
 1801SOL    HW2 6303   1.005   1.623   2.361
 1802SOL     OW 6304   0.236   5.084   4.003
 1802SOL    HW1 6305   0.215   4.987   3.991
 1802SOL    HW2 6306   0.296   5.115   3.928
 1803SOL     OW 6307   1.195   0.061   3.295
 1803SOL    HW1 6308   1.251   7.002   3.287
 1803SOL    HW2 6309   1.177   0.080   3.391
 1804SOL     OW 6310   2.363   3.586   5.664
 1804SOL    HW1 6311   2.386   3.581   5.567
 1804SOL    HW2 6312   2.290   3.521   5.684
 1805SOL     OW 6313   0.345   6.118   6.653
 1805SOL    HW1 6314   0.335   6.095   6.556
 1805SOL    HW2 6315   0.432   6.081   6.686
 1806SOL     OW 6316   6.804   1.870   2.548
 1806SOL    HW1 6317   6.721   1.855   2.495
 1806SOL    HW2 6318   6.859   1.941   2.505
 1807SOL     OW 6319   6.622   3.432   2.077
 1807SOL    HW1 6320   6.625   3.445   2.176
 1807SOL    HW2 6321   6.527   3.435   2.045
 1808SOL     OW 6322   4.955   1.850   5.822
 1808SOL    HW1 6323   4.945   1.789   5.743
 1808SOL    HW2 6324   4.871   1.848   5.876
 1809SOL     OW 6325   3.951   1.429   5.990
 1809SOL    HW1 6326   3.943   1.529   5.999
 1809SOL    HW2 6327   4.037   1.399   6.031
 1810SOL     OW 6328   0.533   0.237   4.235
 1810SOL    HW1 6329   0.594   0.206   4.163
 1810SOL    HW2 6330   0.582   0.297   4.298
 1811SOL     OW 6331   4.582   5.909   2.452
 1811SOL    HW1 6332   4.557   5.837   2.516
 1811SOL    HW2 6333   4.499   5.959   2.425
 1812SOL     OW 6334   4.609   6.985   4.931
 1812SOL    HW1 6335   4.706   6.960   4.933
 1812SOL    HW2 6336   4.573   6.974   4.838
 1813SOL     OW 6337   4.523   4.502   2.545
 1813SOL    HW1 6338   4.581   4.575   2.510
 1813SOL    HW2 6339   4.567   4.414   2.528
 1814SOL     OW 6340   0.135   6.274   0.497
 1814SOL    HW1 6341   0.111   6.271   0.400
 1814SOL    HW2 6342   0.235   6.273   0.506
 1815SOL     OW 6343   6.111   6.430   1.808
 1815SOL    HW1 6344   6.070   6.495   1.744
 1815SOL    HW2 6345   6.195   6.470   1.845
 1816SOL     OW 6346   4.187   5.432   6.366
 1816SOL    HW1 6347   4.182   5.370   6.288
 1816SOL    HW2 6348   4.135   5.394   6.442
 1817SOL     OW 6349   1.176   1.908   3.466
 1817SOL    HW1 6350   1.162   1.887   3.369
 1817SOL    HW2 6351   1.176   1.824   3.519
 1818SOL     OW 6352   1.908   6.722   0.624
 1818SOL    HW1 6353   1.975   6.763   0.561
 1818SOL    HW2 6354   1.954   6.698   0.710
 1819SOL     OW 6355   2.337   5.107   3.294
 1819SOL    HW1 6356   2.384   5.162   3.224
 1819SOL    HW2 6357   2.241   5.095   3.268
 1820SOL     OW 6358   3.783   0.479   4.172
 1820SOL    HW1 6359   3.840   0.408   4.130
 1820SOL    HW2 6360   3.834   0.522   4.246
 1821SOL     OW 6361   3.700   2.058   2.572
 1821SOL    HW1 6362   3.762   2.124   2.529
 1821SOL    HW2 6363   3.675   1.988   2.505
 1822SOL     OW 6364   0.092   2.796   2.125
 1822SOL    HW1 6365   0.086   2.858   2.047
 1822SOL    HW2 6366   0.022   2.820   2.192
 1823SOL     OW 6367   3.884   6.790   2.561
 1823SOL    HW1 6368   3.856   6.884   2.581
 1823SOL    HW2 6369   3.857   6.730   2.636
 1824SOL     OW 6370   3.527   2.718   1.130
 1824SOL    HW1 6371   3.591   2.788   1.163
 1824SOL    HW2 6372   3.571   2.661   1.061
 1825SOL     OW 6373   2.134   1.309   4.975
 1825SOL    HW1 6374   2.164   1.380   5.039
 1825SOL    HW2 6375   2.212   1.277   4.921
 1826SOL     OW 6376   3.615   2.285   1.590
 1826SOL    HW1 6377   3.606   2.318   1.684
 1826SOL    HW2 6378   3.525   2.283   1.547
 1827SOL     OW 6379   5.240   3.969   0.809
 1827SOL    HW1 6380   5.303   3.897   0.778
 1827SOL    HW2 6381   5.283   4.020   0.883
 1828SOL     OW 6382   1.483   3.451   4.900
 1828SOL    HW1 6383   1.563   3.502   4.930
 1828SOL    HW2 6384   1.401   3.491   4.941
 1829SOL     OW 6385   3.701   0.806   3.595
 1829SOL    HW1 6386   3.772   0.845   3.536
 1829SOL    HW2 6387   3.732   0.719   3.633
 1830SOL     OW 6388   5.249   6.516   5.436
 1830SOL    HW1 6389   5.276   6.454   5.363
 1830SOL    HW2 6390   5.267   6.611   5.407
 1831SOL     OW 6391   4.720   5.313   1.692
 1831SOL    HW1 6392   4.750   5.369   1.614
 1831SOL    HW2 6393   4.676   5.372   1.760
 1832SOL     OW 6394   3.038   3.150   0.421
 1832SOL    HW1 6395   3.102   3.195   0.359
 1832SOL    HW2 6396   3.029   3.054   0.396
 1833SOL     OW 6397   5.195   0.397   0.832
 1833SOL    HW1 6398   5.276   0.337   0.837
 1833SOL    HW2 6399   5.112   0.341   0.842
 1834SOL     OW 6400   2.260   2.317   6.430
 1834SOL    HW1 6401   2.328   2.356   6.492
 1834SOL    HW2 6402   2.182   2.380   6.422
 1835SOL     OW 6403   6.983   5.896   0.848
 1835SOL    HW1 6404   7.010   5.865   0.757
 1835SOL    HW2 6405   6.984   5.996   0.851
 1836SOL     OW 6406   5.353   2.093   1.691
 1836SOL    HW1 6407   5.338   2.037   1.772
 1836SOL    HW2 6408   5.305   2.180   1.701
 1837SOL     OW 6409   2.874   1.820   6.353
 1837SOL    HW1 6410   2.884   1.919   6.361
 1837SOL    HW2 6411   2.964   1.777   6.358
 1838SOL     OW 6412   6.682   1.095   0.466
 1838SOL    HW1 6413   6.621   1.025   0.504
 1838SOL    HW2 6414   6.683   1.087   0.367
 1839SOL     OW 6415   7.001   1.309   6.897
 1839SOL    HW1 6416   6.910   1.351   6.889
 1839SOL    HW2 6417   6.995   1.229   6.955
 1840SOL     OW 6418   4.680   6.856   3.530
 1840SOL    HW1 6419   4.752   6.803   3.576
 1840SOL    HW2 6420   4.595   6.803   3.531
 1841SOL     OW 6421   2.156   1.132   2.162
 1841SOL    HW1 6422   2.247   1.127   2.121
 1841SOL    HW2 6423   2.156   1.202   2.234
 1842SOL     OW 6424   1.364   5.097   0.083
 1842SOL    HW1 6425   1.345   5.000   0.070
 1842SOL    HW2 6426   1.328   5.149   0.006
 1843SOL     OW 6427   3.554   1.113   4.640
 1843SOL    HW1 6428   3.590   1.038   4.585
 1843SOL    HW2 6429   3.503   1.176   4.581
 1844SOL     OW 6430   5.432   1.811   6.953
 1844SOL    HW1 6431   5.511   1.812   7.014
 1844SOL    HW2 6432   5.366   1.880   6.982
 1845SOL     OW 6433   1.448   1.346   2.809
 1845SOL    HW1 6434   1.386   1.269   2.794
 1845SOL    HW2 6435   1.483   1.378   2.720
 1846SOL     OW 6436   4.335   1.410   2.060
 1846SOL    HW1 6437   4.273   1.378   1.989
 1846SOL    HW2 6438   4.383   1.331   2.100
 1847SOL     OW 6439   2.202   0.268   5.417
 1847SOL    HW1 6440   2.156   0.226   5.495
 1847SOL    HW2 6441   2.292   0.302   5.445
 1848SOL     OW 6442   2.599   5.717   4.262
 1848SOL    HW1 6443   2.500   5.701   4.266
 1848SOL    HW2 6444   2.622   5.798   4.316
 1849SOL     OW 6445   4.637   2.747   1.866
 1849SOL    HW1 6446   4.653   2.712   1.958
 1849SOL    HW2 6447   4.612   2.844   1.871
 1850SOL     OW 6448   5.280   1.793   1.744
 1850SOL    HW1 6449   5.195   1.820   1.788
 1850SOL    HW2 6450   5.269   1.795   1.645
 1851SOL     OW 6451   0.023   3.985   5.091
 1851SOL    HW1 6452   6.982   4.041   5.144
 1851SOL    HW2 6453   0.031   4.023   4.999
 1852SOL     OW 6454   1.472   5.764   2.358
 1852SOL    HW1 6455   1.445   5.810   2.274
 1852SOL    HW2 6456   1.549   5.702   2.339
 1853SOL     OW 6457   6.827   2.524   4.601
 1853SOL    HW1 6458   6.808   2.426   4.611
 1853SOL    HW2 6459   6.890   2.554   4.672
 1854SOL     OW 6460   0.162   6.861   3.778
 1854SOL    HW1 6461   0.142   6.793   3.708
 1854SOL    HW2 6462   0.261   6.869   3.790
 1855SOL     OW 6463   5.030   3.447   5.024
 1855SOL    HW1 6464   5.050   3.400   4.938
 1855SOL    HW2 6465   4.944   3.497   5.016
 1856SOL     OW 6466   3.857   2.579   6.849
 1856SOL    HW1 6467   3.861   2.521   6.931
 1856SOL    HW2 6468   3.805   2.533   6.777
 1857SOL     OW 6469   4.749   1.240   0.773
 1857SOL    HW1 6470   4.678   1.238   0.843
 1857SOL    HW2 6471   4.833   1.279   0.811
 1858SOL     OW 6472   4.106   2.197   4.393
 1858SOL    HW1 6473   4.109   2.242   4.482
 1858SOL    HW2 6474   4.198   2.173   4.364
 1859SOL     OW 6475   5.909   2.316   3.882
 1859SOL    HW1 6476   5.828   2.322   3.940
 1859SOL    HW2 6477   5.983   2.370   3.923
 1860SOL     OW 6478   1.010   1.219   4.512
 1860SOL    HW1 6479   0.970   1.159   4.582
 1860SOL    HW2 6480   0.947   1.227   4.435
 1861SOL     OW 6481   6.564   0.112   3.449
 1861SOL    HW1 6482   6.631   0.069   3.509
 1861SOL    HW2 6483   6.506   0.041   3.407
 1862SOL     OW 6484   2.514   6.066   6.524
 1862SOL    HW1 6485   2.538   6.146   6.580
 1862SOL    HW2 6486   2.593   6.004   6.520
 1863SOL     OW 6487   0.849   2.933   1.207
 1863SOL    HW1 6488   0.801   2.998   1.266
 1863SOL    HW2 6489   0.784   2.863   1.175
 1864SOL     OW 6490   3.690   5.773   2.759
 1864SOL    HW1 6491   3.723   5.860   2.795
 1864SOL    HW2 6492   3.734   5.698   2.807
 1865SOL     OW 6493   5.493   1.088   6.266
 1865SOL    HW1 6494   5.471   1.185   6.274
 1865SOL    HW2 6495   5.409   1.034   6.274
 1866SOL     OW 6496   0.327   4.764   3.142
 1866SOL    HW1 6497   0.272   4.811   3.211
 1866SOL    HW2 6498   0.420   4.801   3.143
 1867SOL     OW 6499   2.392   2.309   1.292
 1867SOL    HW1 6500   2.393   2.214   1.323
 1867SOL    HW2 6501   2.480   2.331   1.251
 1868SOL     OW 6502   5.807   4.191   5.646
 1868SOL    HW1 6503   5.819   4.209   5.548
 1868SOL    HW2 6504   5.815   4.276   5.697
 1869SOL     OW 6505   4.871   1.455   4.256
 1869SOL    HW1 6506   4.795   1.508   4.296
 1869SOL    HW2 6507   4.834   1.383   4.198
 1870SOL     OW 6508   0.053   5.481   4.418
 1870SOL    HW1 6509   0.090   5.389   4.404
 1870SOL    HW2 6510   6.978   5.475   4.435
 1871SOL     OW 6511   0.773   6.446   0.564
 1871SOL    HW1 6512   0.871   6.462   0.579
 1871SOL    HW2 6513   0.720   6.508   0.623
 1872SOL     OW 6514   2.623   2.696   1.132
 1872SOL    HW1 6515   2.676   2.722   1.212
 1872SOL    HW2 6516   2.672   2.721   1.049
 1873SOL     OW 6517   6.818   1.657   0.129
 1873SOL    HW1 6518   6.890   1.588   0.140
 1873SOL    HW2 6519   6.849   1.744   0.166
 1874SOL     OW 6520   0.453   6.383   0.058
 1874SOL    HW1 6521   0.357   6.374   0.029
 1874SOL    HW2 6522   0.456   6.407   0.155
 1875SOL     OW 6523   6.538   4.874   0.231
 1875SOL    HW1 6524   6.511   4.860   0.327
 1875SOL    HW2 6525   6.458   4.902   0.178
 1876SOL     OW 6526   0.008   6.097   0.052
 1876SOL    HW1 6527   6.964   6.071   7.007
 1876SOL    HW2 6528   6.996   6.172   0.108
 1877SOL     OW 6529   0.077   0.687   2.389
 1877SOL    HW1 6530   0.169   0.664   2.420
 1877SOL    HW2 6531   0.022   0.603   2.383
 1878SOL     OW 6532   6.531   4.619   3.628
 1878SOL    HW1 6533   6.548   4.648   3.722
 1878SOL    HW2 6534   6.573   4.529   3.612
 1879SOL     OW 6535   4.401   5.504   4.762
 1879SOL    HW1 6536   4.427   5.554   4.679
 1879SOL    HW2 6537   4.308   5.531   4.789
 1880SOL     OW 6538   0.820   1.262   4.094
 1880SOL    HW1 6539   0.735   1.268   4.043
 1880SOL    HW2 6540   0.876   1.187   4.059
 1881SOL     OW 6541   1.165   1.353   4.164
 1881SOL    HW1 6542   1.137   1.264   4.200
 1881SOL    HW2 6543   1.085   1.406   4.138
 1882SOL     OW 6544   1.385   5.596   6.887
 1882SOL    HW1 6545   1.330   5.677   6.870
 1882SOL    HW2 6546   1.467   5.621   6.939
 1883SOL     OW 6547   1.543   3.066   2.865
 1883SOL    HW1 6548   1.595   3.131   2.920
 1883SOL    HW2 6549   1.454   3.050   2.908
 1884SOL     OW 6550   3.008   0.791   0.216
 1884SOL    HW1 6551   2.979   0.696   0.230
 1884SOL    HW2 6552   2.938   0.840   0.164
 1885SOL     OW 6553   0.098   2.129   1.427
 1885SOL    HW1 6554   0.068   2.048   1.377
 1885SOL    HW2 6555   0.129   2.102   1.518
 1886SOL     OW 6556   3.174   2.936   6.247
 1886SOL    HW1 6557   3.123   3.018   6.272
 1886SOL    HW2 6558   3.110   2.864   6.220
 1887SOL     OW 6559   0.523   6.510   5.721
 1887SOL    HW1 6560   0.444   6.545   5.671
 1887SOL    HW2 6561   0.594   6.484   5.656
 1888SOL     OW 6562   2.177   2.378   5.524
 1888SOL    HW1 6563   2.099   2.390   5.584
 1888SOL    HW2 6564   2.243   2.451   5.539
 1889SOL     OW 6565   4.220   3.078   0.360
 1889SOL    HW1 6566   4.197   3.078   0.457
 1889SOL    HW2 6567   4.293   3.012   0.343
 1890SOL     OW 6568   6.716   5.354   6.452
 1890SOL    HW1 6569   6.649   5.408   6.401
 1890SOL    HW2 6570   6.695   5.357   6.549
 1891SOL     OW 6571   6.259   3.679   5.704
 1891SOL    HW1 6572   6.212   3.704   5.620
 1891SOL    HW2 6573   6.348   3.724   5.707
 1892SOL     OW 6574   4.301   5.743   1.765
 1892SOL    HW1 6575   4.294   5.695   1.852
 1892SOL    HW2 6576   4.347   5.831   1.779
 1893SOL     OW 6577   4.051   1.590   4.122
 1893SOL    HW1 6578   4.027   1.493   4.116
 1893SOL    HW2 6579   3.973   1.645   4.092
 1894SOL     OW 6580   3.981   3.840   0.897
 1894SOL    HW1 6581   4.048   3.857   0.969
 1894SOL    HW2 6582   3.967   3.741   0.887
 1895SOL     OW 6583   5.500   0.172   3.314
 1895SOL    HW1 6584   5.580   0.224   3.345
 1895SOL    HW2 6585   5.435   0.233   3.270
 1896SOL     OW 6586   0.005   1.566   5.661
 1896SOL    HW1 6587   0.092   1.534   5.624
 1896SOL    HW2 6588   6.963   1.491   5.662
 1897SOL     OW 6589   5.937   4.675   3.297
 1897SOL    HW1 6590   5.949   4.765   3.338
 1897SOL    HW2 6591   6.011   4.615   3.326
 1898SOL     OW 6592   6.127   4.688   0.425
 1898SOL    HW1 6593   6.143   4.642   0.337
 1898SOL    HW2 6594   6.206   4.675   0.485
 1899SOL     OW 6595   1.092   3.254   2.571
 1899SOL    HW1 6596   1.149   3.214   2.642
 1899SOL    HW2 6597   1.091   3.353   2.581
 1900SOL     OW 6598   1.882   5.533   6.052
 1900SOL    HW1 6599   1.919   5.585   5.975
 1900SOL    HW2 6600   1.916   5.572   6.138
 1901SOL     OW 6601   1.467   1.202   6.702
 1901SOL    HW1 6602   1.370   1.221   6.714
 1901SOL    HW2 6603   1.488   1.199   6.604
 1902SOL     OW 6604   0.552   3.026   4.731
 1902SOL    HW1 6605   0.463   2.984   4.711
 1902SOL    HW2 6606   0.624   2.972   4.688
 1903SOL     OW 6607   6.434   2.961   3.884
 1903SOL    HW1 6608   6.416   2.943   3.788
 1903SOL    HW2 6609   6.429   3.059   3.902
 1904SOL     OW 6610   6.359   6.561   3.568
 1904SOL    HW1 6611   6.361   6.661   3.577
 1904SOL    HW2 6612   6.329   6.537   3.475
 1905SOL     OW 6613   6.655   2.589   3.857
 1905SOL    HW1 6614   6.733   2.538   3.893
 1905SOL    HW2 6615   6.686   2.679   3.825
 1906SOL     OW 6616   2.507   0.463   6.933
 1906SOL    HW1 6617   2.503   0.551   6.886
 1906SOL    HW2 6618   2.440   0.462   7.007
 1907SOL     OW 6619   3.981   5.904   3.700
 1907SOL    HW1 6620   4.061   5.898   3.759
 1907SOL    HW2 6621   4.003   5.955   3.617
 1908SOL     OW 6622   4.390   1.218   6.424
 1908SOL    HW1 6623   4.309   1.188   6.474
 1908SOL    HW2 6624   4.426   1.301   6.466
 1909SOL     OW 6625   2.688   5.226   4.389
 1909SOL    HW1 6626   2.656   5.186   4.303
 1909SOL    HW2 6627   2.661   5.322   4.394
 1910SOL     OW 6628   4.912   1.497   5.849
 1910SOL    HW1 6629   5.009   1.517   5.864
 1910SOL    HW2 6630   4.903   1.410   5.801
 1911SOL     OW 6631   6.213   2.924   5.097
 1911SOL    HW1 6632   6.222   3.022   5.113
 1911SOL    HW2 6633   6.293   2.891   5.047
 1912SOL     OW 6634   3.673   0.107   3.159
 1912SOL    HW1 6635   3.591   0.053   3.175
 1912SOL    HW2 6636   3.651   0.204   3.163
 1913SOL     OW 6637   1.833   4.834   5.600
 1913SOL    HW1 6638   1.757   4.785   5.558
 1913SOL    HW2 6639   1.888   4.878   5.529
 1914SOL     OW 6640   3.435   1.862   6.012
 1914SOL    HW1 6641   3.511   1.810   5.972
 1914SOL    HW2 6642   3.410   1.936   5.950
 1915SOL     OW 6643   3.430   0.054   5.619
 1915SOL    HW1 6644   3.517   0.098   5.599
 1915SOL    HW2 6645   3.446   6.983   5.646
 1916SOL     OW 6646   3.407   6.281   1.536
 1916SOL    HW1 6647   3.440   6.325   1.620
 1916SOL    HW2 6648   3.376   6.189   1.556
 1917SOL     OW 6649   2.944   3.572   4.108
 1917SOL    HW1 6650   2.948   3.612   4.016
 1917SOL    HW2 6651   3.034   3.581   4.152
 1918SOL     OW 6652   5.239   6.139   4.294
 1918SOL    HW1 6653   5.155   6.090   4.315
 1918SOL    HW2 6654   5.317   6.089   4.332
 1919SOL     OW 6655   6.640   7.009   1.643
 1919SOL    HW1 6656   6.657   6.955   1.561
 1919SOL    HW2 6657   6.654   6.953   1.724
 1920SOL     OW 6658   6.731   5.896   4.433
 1920SOL    HW1 6659   6.734   5.830   4.358
 1920SOL    HW2 6660   6.642   5.892   4.477
 1921SOL     OW 6661   0.938   6.743   6.621
 1921SOL    HW1 6662   1.006   6.754   6.694
 1921SOL    HW2 6663   0.897   6.652   6.627
 1922SOL     OW 6664   3.862   4.107   0.861
 1922SOL    HW1 6665   3.833   4.084   0.768
 1922SOL    HW2 6666   3.893   4.024   0.908
 1923SOL     OW 6667   1.934   1.548   0.887
 1923SOL    HW1 6668   1.879   1.465   0.875
 1923SOL    HW2 6669   1.878   1.620   0.926
 1924SOL     OW 6670   0.590   4.683   1.704
 1924SOL    HW1 6671   0.581   4.593   1.746
 1924SOL    HW2 6672   0.500   4.725   1.696
 1925SOL     OW 6673   3.052   4.316   1.492
 1925SOL    HW1 6674   3.017   4.408   1.474
 1925SOL    HW2 6675   3.076   4.272   1.405
 1926SOL     OW 6676   1.390   6.563   3.635
 1926SOL    HW1 6677   1.328   6.610   3.698
 1926SOL    HW2 6678   1.483   6.563   3.673
 1927SOL     OW 6679   3.526   3.789   6.865
 1927SOL    HW1 6680   3.601   3.811   6.802
 1927SOL    HW2 6681   3.439   3.819   6.825
 1928SOL     OW 6682   6.414   4.210   5.744
 1928SOL    HW1 6683   6.456   4.297   5.716
 1928SOL    HW2 6684   6.436   4.139   5.677
 1929SOL     OW 6685   1.049   6.775   1.567
 1929SOL    HW1 6686   0.956   6.810   1.568
 1929SOL    HW2 6687   1.113   6.851   1.556
 1930SOL     OW 6688   5.795   4.175   6.037
 1930SOL    HW1 6689   5.788   4.078   6.013
 1930SOL    HW2 6690   5.760   4.188   6.130
 1931SOL     OW 6691   0.541   2.759   4.244
 1931SOL    HW1 6692   0.622   2.791   4.194
 1931SOL    HW2 6693   0.560   2.669   4.284
 1932SOL     OW 6694   5.854   3.892   1.219
 1932SOL    HW1 6695   5.849   3.976   1.166
 1932SOL    HW2 6696   5.768   3.879   1.269
 1933SOL     OW 6697   3.326   4.120   1.003
 1933SOL    HW1 6698   3.227   4.110   1.007
 1933SOL    HW2 6699   3.352   4.208   1.043
 1934SOL     OW 6700   1.008   6.243   5.835
 1934SOL    HW1 6701   0.946   6.199   5.900
 1934SOL    HW2 6702   1.001   6.342   5.845
 1935SOL     OW 6703   2.503   0.470   3.757
 1935SOL    HW1 6704   2.458   0.525   3.826
 1935SOL    HW2 6705   2.595   0.505   3.741
 1936SOL     OW 6706   6.133   5.766   5.331
 1936SOL    HW1 6707   6.122   5.792   5.235
 1936SOL    HW2 6708   6.207   5.699   5.339
 1937SOL     OW 6709   4.049   6.367   1.900
 1937SOL    HW1 6710   3.953   6.383   1.923
 1937SOL    HW2 6711   4.056   6.328   1.809
 1938SOL     OW 6712   4.407   0.899   3.759
 1938SOL    HW1 6713   4.471   0.842   3.811
 1938SOL    HW2 6714   4.404   0.990   3.801
 1939SOL     OW 6715   1.694   1.117   3.660
 1939SOL    HW1 6716   1.763   1.075   3.601
 1939SOL    HW2 6717   1.629   1.168   3.604
 1940SOL     OW 6718   6.423   5.567   0.221
 1940SOL    HW1 6719   6.433   5.598   0.316
 1940SOL    HW2 6720   6.366   5.484   0.219
 1941SOL     OW 6721   5.380   4.072   1.976
 1941SOL    HW1 6722   5.407   4.035   1.887
 1941SOL    HW2 6723   5.321   4.152   1.963
 1942SOL     OW 6724   6.628   5.060   2.518
 1942SOL    HW1 6725   6.579   5.008   2.588
 1942SOL    HW2 6726   6.722   5.025   2.511
 1943SOL     OW 6727   2.630   4.615   3.400
 1943SOL    HW1 6728   2.557   4.667   3.444
 1943SOL    HW2 6729   2.717   4.635   3.444
 1944SOL     OW 6730   6.492   0.866   0.555
 1944SOL    HW1 6731   6.466   0.772   0.576
 1944SOL    HW2 6732   6.428   0.905   0.489
 1945SOL     OW 6733   3.674   5.071   3.831
 1945SOL    HW1 6734   3.671   5.155   3.885
 1945SOL    HW2 6735   3.584   5.053   3.792
 1946SOL     OW 6736   1.333   0.267   0.109
 1946SOL    HW1 6737   1.236   0.247   0.099
 1946SOL    HW2 6738   1.346   0.336   0.180
 1947SOL     OW 6739   5.660   5.698   3.460
 1947SOL    HW1 6740   5.586   5.765   3.454
 1947SOL    HW2 6741   5.640   5.620   3.402
 1948SOL     OW 6742   6.683   5.758   4.696
 1948SOL    HW1 6743   6.678   5.703   4.779
 1948SOL    HW2 6744   6.610   5.826   4.696
 1949SOL     OW 6745   4.053   4.057   6.524
 1949SOL    HW1 6746   4.121   4.025   6.458
 1949SOL    HW2 6747   3.983   3.987   6.536
 1950SOL     OW 6748   3.227   4.021   6.527
 1950SOL    HW1 6749   3.135   3.998   6.495
 1950SOL    HW2 6750   3.288   4.031   6.448
 1951SOL     OW 6751   5.996   1.280   6.334
 1951SOL    HW1 6752   6.051   1.212   6.382
 1951SOL    HW2 6753   5.939   1.329   6.399
 1952SOL     OW 6754   3.792   1.940   0.387
 1952SOL    HW1 6755   3.890   1.918   0.378
 1952SOL    HW2 6756   3.782   2.033   0.423
 1953SOL     OW 6757   6.994   2.400   6.153
 1953SOL    HW1 6758   0.062   2.388   6.189
 1953SOL    HW2 6759   6.977   2.331   6.082
 1954SOL     OW 6760   3.623   2.049   4.154
 1954SOL    HW1 6761   3.708   2.095   4.182
 1954SOL    HW2 6762   3.547   2.087   4.206
 1955SOL     OW 6763   0.029   6.352   2.380
 1955SOL    HW1 6764   0.054   6.372   2.285
 1955SOL    HW2 6765   0.101   6.297   2.422
 1956SOL     OW 6766   5.674   5.787   2.932
 1956SOL    HW1 6767   5.685   5.701   2.881
 1956SOL    HW2 6768   5.667   5.767   3.030
 1957SOL     OW 6769   0.565   6.520   5.120
 1957SOL    HW1 6770   0.480   6.487   5.163
 1957SOL    HW2 6771   0.565   6.495   5.023
 1958SOL     OW 6772   5.168   3.310   5.879
 1958SOL    HW1 6773   5.261   3.272   5.879
 1958SOL    HW2 6774   5.128   3.299   5.789
 1959SOL     OW 6775   1.575   2.181   6.350
 1959SOL    HW1 6776   1.561   2.141   6.259
 1959SOL    HW2 6777   1.527   2.126   6.418
 1960SOL     OW 6778   6.058   5.408   0.719
 1960SOL    HW1 6779   6.109   5.382   0.801
 1960SOL    HW2 6780   5.976   5.352   0.712
 1961SOL     OW 6781   5.926   4.269   3.794
 1961SOL    HW1 6782   5.877   4.190   3.832
 1961SOL    HW2 6783   5.860   4.330   3.750
 1962SOL     OW 6784   1.469   6.102   3.249
 1962SOL    HW1 6785   1.480   6.165   3.326
 1962SOL    HW2 6786   1.523   6.133   3.172
 1963SOL     OW 6787   1.067   0.359   2.710
 1963SOL    HW1 6788   0.981   0.408   2.691
 1963SOL    HW2 6789   1.116   0.404   2.784
 1964SOL     OW 6790   4.588   2.565   2.447
 1964SOL    HW1 6791   4.528   2.530   2.375
 1964SOL    HW2 6792   4.557   2.531   2.535
 1965SOL     OW 6793   1.203   3.754   3.326
 1965SOL    HW1 6794   1.120   3.729   3.276
 1965SOL    HW2 6795   1.178   3.791   3.415
 1966SOL     OW 6796   6.519   5.237   5.490
 1966SOL    HW1 6797   6.455   5.307   5.521
 1966SOL    HW2 6798   6.598   5.281   5.447
 1967SOL     OW 6799   4.633   2.778   5.177
 1967SOL    HW1 6800   4.580   2.714   5.233
 1967SOL    HW2 6801   4.614   2.872   5.207
 1968SOL     OW 6802   2.492   6.372   0.276
 1968SOL    HW1 6803   2.563   6.302   0.266
 1968SOL    HW2 6804   2.441   6.356   0.360
 1969SOL     OW 6805   6.599   2.260   1.529
 1969SOL    HW1 6806   6.555   2.171   1.517
 1969SOL    HW2 6807   6.557   2.327   1.468
 1970SOL     OW 6808   1.713   0.002   4.338
 1970SOL    HW1 6809   1.798   0.043   4.369
 1970SOL    HW2 6810   1.649   7.017   4.415
 1971SOL     OW 6811   0.395   6.828   0.002
 1971SOL    HW1 6812   0.317   6.768   7.010
 1971SOL    HW2 6813   0.479   6.782   7.000
 1972SOL     OW 6814   0.739   4.286   3.646
 1972SOL    HW1 6815   0.731   4.252   3.740
 1972SOL    HW2 6816   0.687   4.371   3.637
 1973SOL     OW 6817   3.664   2.577   1.446
 1973SOL    HW1 6818   3.612   2.591   1.530
 1973SOL    HW2 6819   3.682   2.479   1.434
 1974SOL     OW 6820   5.465   0.468   4.112
 1974SOL    HW1 6821   5.558   0.473   4.147
 1974SOL    HW2 6822   5.403   0.518   4.174
 1975SOL     OW 6823   3.463   0.535   3.944
 1975SOL    HW1 6824   3.495   0.518   3.850
 1975SOL    HW2 6825   3.422   0.451   3.981
 1976SOL     OW 6826   0.555   6.077   0.702
 1976SOL    HW1 6827   0.545   6.045   0.607
 1976SOL    HW2 6828   0.506   6.016   0.763
 1977SOL     OW 6829   0.932   2.319   4.862
 1977SOL    HW1 6830   0.952   2.362   4.774
 1977SOL    HW2 6831   1.016   2.286   4.903
 1978SOL     OW 6832   0.066   1.463   4.854
 1978SOL    HW1 6833   7.018   1.522   4.893
 1978SOL    HW2 6834   0.138   1.521   4.815
 1979SOL     OW 6835   6.780   4.667   4.136
 1979SOL    HW1 6836   6.869   4.634   4.103
 1979SOL    HW2 6837   6.710   4.649   4.066
 1980SOL     OW 6838   3.787   0.306   1.234
 1980SOL    HW1 6839   3.812   0.329   1.328
 1980SOL    HW2 6840   3.821   0.377   1.172
 1981SOL     OW 6841   4.950   2.911   1.889
 1981SOL    HW1 6842   4.966   2.964   1.807
 1981SOL    HW2 6843   4.855   2.923   1.919
 1982SOL     OW 6844   5.754   5.127   4.777
 1982SOL    HW1 6845   5.799   5.062   4.716
 1982SOL    HW2 6846   5.823   5.183   4.822
 1983SOL     OW 6847   1.233   2.959   3.219
 1983SOL    HW1 6848   1.281   3.042   3.249
 1983SOL    HW2 6849   1.231   2.955   3.120
 1984SOL     OW 6850   3.980   1.959   6.085
 1984SOL    HW1 6851   4.042   2.029   6.049
 1984SOL    HW2 6852   3.935   1.912   6.008
 1985SOL     OW 6853   1.302   0.833   1.477
 1985SOL    HW1 6854   1.208   0.822   1.508
 1985SOL    HW2 6855   1.340   0.918   1.514
 1986SOL     OW 6856   1.468   2.291   6.901
 1986SOL    HW1 6857   1.530   2.307   6.824
 1986SOL    HW2 6858   1.393   2.357   6.898
 1987SOL     OW 6859   2.493   3.448   1.340
 1987SOL    HW1 6860   2.486   3.447   1.440
 1987SOL    HW2 6861   2.558   3.377   1.311
 1988SOL     OW 6862   4.803   3.526   6.743
 1988SOL    HW1 6863   4.758   3.445   6.706
 1988SOL    HW2 6864   4.812   3.518   6.842
 1989SOL     OW 6865   1.967   0.123   4.365
 1989SOL    HW1 6866   1.963   0.211   4.412
 1989SOL    HW2 6867   2.021   0.132   4.282
 1990SOL     OW 6868   3.181   0.629   1.117
 1990SOL    HW1 6869   3.200   0.537   1.084
 1990SOL    HW2 6870   3.130   0.624   1.202
 1991SOL     OW 6871   3.460   5.641   4.550
 1991SOL    HW1 6872   3.393   5.647   4.476
 1991SOL    HW2 6873   3.423   5.584   4.623
 1992SOL     OW 6874   2.138   6.870   4.926
 1992SOL    HW1 6875   2.182   6.960   4.931
 1992SOL    HW2 6876   2.055   6.870   4.982
 1993SOL     OW 6877   3.529   3.707   5.471
 1993SOL    HW1 6878   3.583   3.654   5.406
 1993SOL    HW2 6879   3.522   3.801   5.439
 1994SOL     OW 6880   6.550   1.966   2.051
 1994SOL    HW1 6881   6.521   1.942   1.958
 1994SOL    HW2 6882   6.518   1.895   2.114
 1995SOL     OW 6883   6.252   1.616   1.526
 1995SOL    HW1 6884   6.170   1.672   1.528
 1995SOL    HW2 6885   6.262   1.569   1.614
 1996SOL     OW 6886   3.245   4.184   0.454
 1996SOL    HW1 6887   3.206   4.094   0.435
 1996SOL    HW2 6888   3.189   4.231   0.522
 1997SOL     OW 6889   5.152   0.043   4.492
 1997SOL    HW1 6890   5.243   0.080   4.475
 1997SOL    HW2 6891   5.134   6.993   4.426
 1998SOL     OW 6892   2.721   4.149   6.718
 1998SOL    HW1 6893   2.749   4.060   6.680
 1998SOL    HW2 6894   2.636   4.179   6.674
 1999SOL     OW 6895   2.567   6.901   1.993
 1999SOL    HW1 6896   2.631   6.831   2.024
 1999SOL    HW2 6897   2.529   6.949   2.073
 2000SOL     OW 6898   3.849   1.026   5.010
 2000SOL    HW1 6899   3.752   1.048   5.021
 2000SOL    HW2 6900   3.886   1.076   4.931
 2001SOL     OW 6901   2.761   1.479   1.122
 2001SOL    HW1 6902   2.798   1.481   1.215
 2001SOL    HW2 6903   2.826   1.431   1.063
 2002SOL     OW 6904   2.031   6.017   5.792
 2002SOL    HW1 6905   2.045   6.010   5.891
 2002SOL    HW2 6906   2.115   5.990   5.745
 2003SOL     OW 6907   5.918   6.392   3.443
 2003SOL    HW1 6908   5.909   6.299   3.477
 2003SOL    HW2 6909   5.830   6.422   3.405
 2004SOL     OW 6910   3.227   0.874   5.930
 2004SOL    HW1 6911   3.228   0.828   5.841
 2004SOL    HW2 6912   3.166   0.954   5.925
 2005SOL     OW 6913   2.191   6.397   6.079
 2005SOL    HW1 6914   2.212   6.474   6.139
 2005SOL    HW2 6915   2.100   6.362   6.102
 2006SOL     OW 6916   4.453   4.847   4.449
 2006SOL    HW1 6917   4.543   4.867   4.488
 2006SOL    HW2 6918   4.394   4.927   4.460
 2007SOL     OW 6919   5.170   5.192   0.263
 2007SOL    HW1 6920   5.158   5.101   0.224
 2007SOL    HW2 6921   5.260   5.228   0.237
 2008SOL     OW 6922   6.682   6.471   3.344
 2008SOL    HW1 6923   6.612   6.400   3.334
 2008SOL    HW2 6924   6.742   6.448   3.420
 2009SOL     OW 6925   0.328   0.422   1.871
 2009SOL    HW1 6926   0.358   0.512   1.838
 2009SOL    HW2 6927   0.366   0.351   1.812
 2010SOL     OW 6928   0.684   0.760   1.097
 2010SOL    HW1 6929   0.706   0.856   1.085
 2010SOL    HW2 6930   0.718   0.728   1.185
 2011SOL     OW 6931   6.550   2.201   4.959
 2011SOL    HW1 6932   6.584   2.113   4.992
 2011SOL    HW2 6933   6.521   2.193   4.864
 2012SOL     OW 6934   1.283   4.247   1.571
 2012SOL    HW1 6935   1.331   4.200   1.497
 2012SOL    HW2 6936   1.334   4.236   1.656
 2013SOL     OW 6937   5.968   2.144   2.651
 2013SOL    HW1 6938   5.883   2.135   2.599
 2013SOL    HW2 6939   5.948   2.135   2.749
 2014SOL     OW 6940   1.923   6.064   3.720
 2014SOL    HW1 6941   2.020   6.039   3.730
 2014SOL    HW2 6942   1.872   6.031   3.799
 2015SOL     OW 6943   3.565   0.328   7.002
 2015SOL    HW1 6944   3.558   0.425   7.022
 2015SOL    HW2 6945   3.545   0.311   6.905
 2016SOL     OW 6946   0.846   5.704   4.129
 2016SOL    HW1 6947   0.874   5.657   4.046
 2016SOL    HW2 6948   0.812   5.638   4.196
 2017SOL     OW 6949   2.215   5.964   3.011
 2017SOL    HW1 6950   2.286   6.027   3.044
 2017SOL    HW2 6951   2.146   5.951   3.082
 2018SOL     OW 6952   0.399   5.655   5.993
 2018SOL    HW1 6953   0.428   5.595   5.918
 2018SOL    HW2 6954   0.309   5.694   5.971
 2019SOL     OW 6955   6.162   2.213   1.023
 2019SOL    HW1 6956   6.103   2.202   1.103
 2019SOL    HW2 6957   6.184   2.310   1.011
 2020SOL     OW 6958   2.217   5.119   3.913
 2020SOL    HW1 6959   2.125   5.090   3.889
 2020SOL    HW2 6960   2.283   5.055   3.875
 2021SOL     OW 6961   1.600   0.877   2.631
 2021SOL    HW1 6962   1.623   0.956   2.575
 2021SOL    HW2 6963   1.593   0.905   2.727
 2022SOL     OW 6964   2.557   3.752   1.686
 2022SOL    HW1 6965   2.459   3.767   1.695
 2022SOL    HW2 6966   2.576   3.654   1.679
 2023SOL     OW 6967   0.032   1.302   6.543
 2023SOL    HW1 6968   0.047   1.340   6.635
 2023SOL    HW2 6969   6.997   1.222   6.549
 2024SOL     OW 6970   6.510   0.736   3.618
 2024SOL    HW1 6971   6.520   0.660   3.682
 2024SOL    HW2 6972   6.574   0.809   3.643
 2025SOL     OW 6973   0.475   2.059   1.613
 2025SOL    HW1 6974   0.530   2.029   1.691
 2025SOL    HW2 6975   0.380   2.068   1.640
 2026SOL     OW 6976   2.504   2.107   5.512
 2026SOL    HW1 6977   2.443   2.110   5.591
 2026SOL    HW2 6978   2.589   2.061   5.538
 2027SOL     OW 6979   1.222   1.051   2.348
 2027SOL    HW1 6980   1.184   0.959   2.361
 2027SOL    HW2 6981   1.167   1.117   2.399
 2028SOL     OW 6982   3.582   1.766   0.427
 2028SOL    HW1 6983   3.653   1.832   0.402
 2028SOL    HW2 6984   3.499   1.815   0.453
 2029SOL     OW 6985   1.232   1.331   6.608
 2029SOL    HW1 6986   1.212   1.383   6.525
 2029SOL    HW2 6987   1.197   1.238   6.599
 2030SOL     OW 6988   1.884   2.374   3.652
 2030SOL    HW1 6989   1.951   2.312   3.694
 2030SOL    HW2 6990   1.910   2.392   3.557
 2031SOL     OW 6991   5.683   5.896   1.914
 2031SOL    HW1 6992   5.746   5.971   1.935
 2031SOL    HW2 6993   5.589   5.925   1.936
 2032SOL     OW 6994   5.031   6.113   0.146
 2032SOL    HW1 6995   4.972   6.089   0.069
 2032SOL    HW2 6996   4.987   6.088   0.232
 2033SOL     OW 6997   5.071   4.723   6.449
 2033SOL    HW1 6998   5.162   4.756   6.426
 2033SOL    HW2 6999   5.021   4.702   6.365
 2034SOL     OW 7000   2.686   6.608   3.046
 2034SOL    HW1 7001   2.607   6.668   3.036
 2034SOL    HW2 7002   2.767   6.653   3.009
 2035SOL     OW 7003   0.373   1.597   2.802
 2035SOL    HW1 7004   0.288   1.585   2.751
 2035SOL    HW2 7005   0.364   1.673   2.866
 2036SOL     OW 7006   0.548   5.170   0.771
 2036SOL    HW1 7007   0.644   5.155   0.746
 2036SOL    HW2 7008   0.522   5.107   0.844
 2037SOL     OW 7009   6.618   2.441   5.491
 2037SOL    HW1 7010   6.619   2.494   5.406
 2037SOL    HW2 7011   6.658   2.351   5.474
 2038SOL     OW 7012   0.582   1.437   4.869
 2038SOL    HW1 7013   0.513   1.365   4.856
 2038SOL    HW2 7014   0.567   1.481   4.958
 2039SOL     OW 7015   6.186   5.605   3.840
 2039SOL    HW1 7016   6.097   5.586   3.798
 2039SOL    HW2 7017   6.241   5.660   3.776
 2040SOL     OW 7018   4.067   3.252   4.498
 2040SOL    HW1 7019   4.045   3.163   4.538
 2040SOL    HW2 7020   4.066   3.246   4.399
 2041SOL     OW 7021   5.937   4.952   5.818
 2041SOL    HW1 7022   5.865   4.989   5.759
 2041SOL    HW2 7023   5.900   4.876   5.871
 2042SOL     OW 7024   4.848   4.751   0.712
 2042SOL    HW1 7025   4.919   4.819   0.694
 2042SOL    HW2 7026   4.855   4.720   0.807
 2043SOL     OW 7027   5.886   5.034   2.591
 2043SOL    HW1 7028   5.836   5.068   2.512
 2043SOL    HW2 7029   5.958   5.099   2.615
 2044SOL     OW 7030   5.907   0.233   2.046
 2044SOL    HW1 7031   5.949   0.143   2.033
 2044SOL    HW2 7032   5.915   0.286   1.961
 2045SOL     OW 7033   2.358   4.708   6.300
 2045SOL    HW1 7034   2.292   4.780   6.317
 2045SOL    HW2 7035   2.344   4.634   6.366
 2046SOL     OW 7036   6.329   0.754   4.293
 2046SOL    HW1 7037   6.336   0.798   4.204
 2046SOL    HW2 7038   6.389   0.674   4.296
 2047SOL     OW 7039   4.979   2.430   1.255
 2047SOL    HW1 7040   4.882   2.448   1.238
 2047SOL    HW2 7041   5.031   2.514   1.243
 2048SOL     OW 7042   3.804   0.232   0.058
 2048SOL    HW1 7043   3.710   0.262   0.043
 2048SOL    HW2 7044   3.822   0.150   0.003
 2049SOL     OW 7045   4.592   1.291   6.905
 2049SOL    HW1 7046   4.574   1.202   6.947
 2049SOL    HW2 7047   4.508   1.327   6.865
 2050SOL     OW 7048   5.924   2.754   3.902
 2050SOL    HW1 7049   5.992   2.815   3.945
 2050SOL    HW2 7050   5.972   2.681   3.854
 2051SOL     OW 7051   1.112   5.762   0.036
 2051SOL    HW1 7052   1.184   5.762   0.104
 2051SOL    HW2 7053   1.149   5.788   6.971
 2052SOL     OW 7054   0.911   2.915   6.615
 2052SOL    HW1 7055   0.988   2.974   6.588
 2052SOL    HW2 7056   0.855   2.896   6.534
 2053SOL     OW 7057   6.142   0.783   0.244
 2053SOL    HW1 7058   6.135   0.684   0.258
 2053SOL    HW2 7059   6.089   0.831   0.314
 2054SOL     OW 7060   6.181   3.014   0.790
 2054SOL    HW1 7061   6.203   2.963   0.707
 2054SOL    HW2 7062   6.119   2.961   0.847
 2055SOL     OW 7063   5.577   2.551   3.223
 2055SOL    HW1 7064   5.498   2.612   3.208
 2055SOL    HW2 7065   5.575   2.518   3.317
 2056SOL     OW 7066   2.277   1.321   3.178
 2056SOL    HW1 7067   2.216   1.351   3.104
 2056SOL    HW2 7068   2.369   1.357   3.162
 2057SOL     OW 7069   6.079   2.449   4.079
 2057SOL    HW1 7070   6.095   2.508   4.000
 2057SOL    HW2 7071   6.140   2.476   4.154
 2058SOL     OW 7072   0.335   1.981   3.243
 2058SOL    HW1 7073   0.414   2.010   3.297
 2058SOL    HW2 7074   0.320   2.047   3.169
 2059SOL     OW 7075   2.126   0.990   6.424
 2059SOL    HW1 7076   2.172   1.073   6.456
 2059SOL    HW2 7077   2.190   0.936   6.369
 2060SOL     OW 7078   0.035   4.763   1.762
 2060SOL    HW1 7079   0.012   4.678   1.715
 2060SOL    HW2 7080   6.983   4.790   1.821
 2061SOL     OW 7081   0.080   1.012   2.552
 2061SOL    HW1 7082   0.137   1.039   2.475
 2061SOL    HW2 7083   0.121   0.933   2.598
 2062SOL     OW 7084   4.264   0.032   2.049
 2062SOL    HW1 7085   4.201   0.062   1.977
 2062SOL    HW2 7086   4.214   0.021   2.134
 2063SOL     OW 7087   1.914   2.755   6.293
 2063SOL    HW1 7088   1.937   2.851   6.276
 2063SOL    HW2 7089   1.834   2.749   6.351
 2064SOL     OW 7090   0.937   2.338   5.608
 2064SOL    HW1 7091   0.906   2.393   5.530
 2064SOL    HW2 7092   0.963   2.399   5.683
 2065SOL     OW 7093   5.996   3.437   2.221
 2065SOL    HW1 7094   6.021   3.347   2.184
 2065SOL    HW2 7095   6.059   3.506   2.186
 2066SOL     OW 7096   0.458   6.158   4.799
 2066SOL    HW1 7097   0.384   6.196   4.854
 2066SOL    HW2 7098   0.502   6.083   4.848
 2067SOL     OW 7099   6.823   6.775   0.841
 2067SOL    HW1 7100   6.820   6.868   0.877
 2067SOL    HW2 7101   6.918   6.744   0.837
 2068SOL     OW 7102   2.157   1.368   5.475
 2068SOL    HW1 7103   2.152   1.309   5.555
 2068SOL    HW2 7104   2.122   1.318   5.395
 2069SOL     OW 7105   0.633   3.128   2.491
 2069SOL    HW1 7106   0.676   3.038   2.504
 2069SOL    HW2 7107   0.702   3.200   2.503
 2070SOL     OW 7108   1.323   0.549   2.474
 2070SOL    HW1 7109   1.420   0.572   2.471
 2070SOL    HW2 7110   1.295   0.508   2.387
 2071SOL     OW 7111   0.603   6.599   3.564
 2071SOL    HW1 7112   0.541   6.608   3.486
 2071SOL    HW2 7113   0.631   6.691   3.594
 2072SOL     OW 7114   4.830   5.875   2.044
 2072SOL    HW1 7115   4.836   5.883   2.144
 2072SOL    HW2 7116   4.734   5.870   2.016
 2073SOL     OW 7117   3.973   6.876   5.011
 2073SOL    HW1 7118   3.930   6.844   5.096
 2073SOL    HW2 7119   4.019   6.801   4.966
 2074SOL     OW 7120   6.932   2.128   0.457
 2074SOL    HW1 7121   6.929   2.162   0.363
 2074SOL    HW2 7122   6.839   2.118   0.492
 2075SOL     OW 7123   4.299   3.045   0.958
 2075SOL    HW1 7124   4.262   2.961   0.916
 2075SOL    HW2 7125   4.238   3.122   0.936
 2076SOL     OW 7126   5.364   6.019   6.840
 2076SOL    HW1 7127   5.446   5.996   6.893
 2076SOL    HW2 7128   5.323   6.103   6.876
 2077SOL     OW 7129   5.647   1.589   2.329
 2077SOL    HW1 7130   5.742   1.618   2.339
 2077SOL    HW2 7131   5.641   1.490   2.330
 2078SOL     OW 7132   2.646   5.759   6.495
 2078SOL    HW1 7133   2.735   5.796   6.521
 2078SOL    HW2 7134   2.643   5.746   6.396
 2079SOL     OW 7135   5.845   0.660   3.668
 2079SOL    HW1 7136   5.837   0.561   3.681
 2079SOL    HW2 7137   5.772   0.691   3.607
 2080SOL     OW 7138   2.609   2.166   4.800
 2080SOL    HW1 7139   2.655   2.157   4.712
 2080SOL    HW2 7140   2.616   2.261   4.832
 2081SOL     OW 7141   0.925   6.813   5.274
 2081SOL    HW1 7142   0.835   6.823   5.230
 2081SOL    HW2 7143   0.942   6.892   5.333
 2082SOL     OW 7144   5.778   0.564   1.359
 2082SOL    HW1 7145   5.815   0.496   1.296
 2082SOL    HW2 7146   5.712   0.622   1.312
 2083SOL     OW 7147   3.509   5.660   0.157
 2083SOL    HW1 7148   3.532   5.727   0.228
 2083SOL    HW2 7149   3.415   5.628   0.171
 2084SOL     OW 7150   6.959   2.386   3.197
 2084SOL    HW1 7151   6.949   2.485   3.190
 2084SOL    HW2 7152   6.892   2.342   3.138
 2085SOL     OW 7153   4.440   1.052   6.684
 2085SOL    HW1 7154   4.517   1.059   6.747
 2085SOL    HW2 7155   4.473   1.050   6.590
 2086SOL     OW 7156   3.394   4.122   6.948
 2086SOL    HW1 7157   3.478   4.171   6.925
 2086SOL    HW2 7158   3.396   4.095   0.020
 2087SOL     OW 7159   5.117   6.341   2.964
 2087SOL    HW1 7160   5.097   6.397   3.045
 2087SOL    HW2 7161   5.066   6.377   2.886
 2088SOL     OW 7162   3.438   6.566   1.023
 2088SOL    HW1 7163   3.413   6.647   1.075
 2088SOL    HW2 7164   3.412   6.484   1.074
 2089SOL     OW 7165   4.650   1.731   0.078
 2089SOL    HW1 7166   4.697   1.758   7.018
 2089SOL    HW2 7167   4.632   1.632   0.075
 2090SOL     OW 7168   3.745   4.089   4.559
 2090SOL    HW1 7169   3.727   4.165   4.496
 2090SOL    HW2 7170   3.713   4.113   4.650
 2091SOL     OW 7171   0.330   5.805   0.839
 2091SOL    HW1 7172   0.239   5.777   0.809
 2091SOL    HW2 7173   0.321   5.869   0.915
 2092SOL     OW 7174   5.660   5.979   0.754
 2092SOL    HW1 7175   5.635   6.063   0.802
 2092SOL    HW2 7176   5.660   5.996   0.655
 2093SOL     OW 7177   1.249   2.773   2.342
 2093SOL    HW1 7178   1.328   2.716   2.364
 2093SOL    HW2 7179   1.229   2.833   2.420
 2094SOL     OW 7180   5.929   0.537   2.097
 2094SOL    HW1 7181   5.908   0.441   2.079
 2094SOL    HW2 7182   5.898   0.593   2.019
 2095SOL     OW 7183   5.378   5.752   3.838
 2095SOL    HW1 7184   5.330   5.806   3.908
 2095SOL    HW2 7185   5.348   5.781   3.747
 2096SOL     OW 7186   4.991   3.991   2.411
 2096SOL    HW1 7187   4.939   4.058   2.464
 2096SOL    HW2 7188   4.957   3.899   2.430
 2097SOL     OW 7189   0.646   2.913   6.811
 2097SOL    HW1 7190   0.668   2.913   6.909
 2097SOL    HW2 7191   0.721   2.870   6.760
 2098SOL     OW 7192   4.612   6.191   4.113
 2098SOL    HW1 7193   4.607   6.138   4.028
 2098SOL    HW2 7194   4.535   6.167   4.172
 2099SOL     OW 7195   2.924   1.047   4.960
 2099SOL    HW1 7196   3.013   1.038   4.916
 2099SOL    HW2 7197   2.912   1.140   4.994
 2100SOL     OW 7198   3.850   3.988   6.727
 2100SOL    HW1 7199   3.831   3.894   6.699
 2100SOL    HW2 7200   3.945   4.011   6.704
 2101SOL     OW 7201   0.687   0.155   2.896
 2101SOL    HW1 7202   0.755   0.224   2.921
 2101SOL    HW2 7203   0.701   0.073   2.952
 2102SOL     OW 7204   0.392   5.975   2.664
 2102SOL    HW1 7205   0.294   5.960   2.682
 2102SOL    HW2 7206   0.421   5.916   2.588
 2103SOL     OW 7207   3.232   3.476   6.796
 2103SOL    HW1 7208   3.135   3.500   6.798
 2103SOL    HW2 7209   3.280   3.522   6.871
 2104SOL     OW 7210   1.594   3.318   6.125
 2104SOL    HW1 7211   1.540   3.398   6.153
 2104SOL    HW2 7212   1.542   3.265   6.057
 2105SOL     OW 7213   5.700   5.561   2.802
 2105SOL    HW1 7214   5.791   5.537   2.768
 2105SOL    HW2 7215   5.634   5.493   2.771
 2106SOL     OW 7216   4.356   4.849   6.726
 2106SOL    HW1 7217   4.393   4.797   6.804
 2106SOL    HW2 7218   4.280   4.905   6.757
 2107SOL     OW 7219   3.879   3.690   5.768
 2107SOL    HW1 7220   3.908   3.612   5.825
 2107SOL    HW2 7221   3.949   3.708   5.699
 2108SOL     OW 7222   6.283   5.056   5.170
 2108SOL    HW1 7223   6.194   5.079   5.210
 2108SOL    HW2 7224   6.346   5.029   5.243
 2109SOL     OW 7225   5.396   6.056   3.290
 2109SOL    HW1 7226   5.353   6.053   3.200
 2109SOL    HW2 7227   5.362   6.135   3.341
 2110SOL     OW 7228   2.874   5.020   6.800
 2110SOL    HW1 7229   2.830   5.020   6.710
 2110SOL    HW2 7230   2.914   4.929   6.817
 2111SOL     OW 7231   0.607   2.450   6.194
 2111SOL    HW1 7232   0.531   2.441   6.130
 2111SOL    HW2 7233   0.654   2.362   6.204
 2112SOL     OW 7234   4.181   2.737   1.724
 2112SOL    HW1 7235   4.138   2.819   1.762
 2112SOL    HW2 7236   4.238   2.762   1.647
 2113SOL     OW 7237   1.757   0.073   2.595
 2113SOL    HW1 7238   1.686   0.128   2.640
 2113SOL    HW2 7239   1.845   0.118   2.604
 2114SOL     OW 7240   1.364   4.020   0.695
 2114SOL    HW1 7241   1.282   4.018   0.638
 2114SOL    HW2 7242   1.337   4.016   0.792
 2115SOL     OW 7243   2.280   4.260   3.145
 2115SOL    HW1 7244   2.247   4.312   3.067
 2115SOL    HW2 7245   2.340   4.317   3.201
 2116SOL     OW 7246   6.774   4.070   3.317
 2116SOL    HW1 7247   6.841   4.094   3.246
 2116SOL    HW2 7248   6.807   3.991   3.368
 2117SOL     OW 7249   6.922   4.594   1.598
 2117SOL    HW1 7250   6.895   4.690   1.593
 2117SOL    HW2 7251   6.921   4.554   1.507
 2118SOL     OW 7252   0.028   3.629   2.172
 2118SOL    HW1 7253   6.972   3.608   2.115
 2118SOL    HW2 7254   0.109   3.585   2.134
 2119SOL     OW 7255   2.021   5.448   0.808
 2119SOL    HW1 7256   2.102   5.454   0.749
 2119SOL    HW2 7257   1.998   5.352   0.824
 2120SOL     OW 7258   6.282   4.176   2.547
 2120SOL    HW1 7259   6.288   4.188   2.646
 2120SOL    HW2 7260   6.367   4.137   2.513
 2121SOL     OW 7261   0.748   5.651   5.215
 2121SOL    HW1 7262   0.765   5.722   5.284
 2121SOL    HW2 7263   0.693   5.689   5.141
 2122SOL     OW 7264   5.541   4.232   5.574
 2122SOL    HW1 7265   5.463   4.224   5.635
 2122SOL    HW2 7266   5.619   4.184   5.613
 2123SOL     OW 7267   6.874   4.152   2.687
 2123SOL    HW1 7268   6.840   4.232   2.737
 2123SOL    HW2 7269   6.973   4.159   2.677
 2124SOL     OW 7270   1.530   1.241   1.499
 2124SOL    HW1 7271   1.497   1.162   1.552
 2124SOL    HW2 7272   1.487   1.241   1.409
 2125SOL     OW 7273   2.091   1.096   6.882
 2125SOL    HW1 7274   2.041   1.129   6.962
 2125SOL    HW2 7275   2.184   1.132   6.884
 2126SOL     OW 7276   2.397   1.197   6.732
 2126SOL    HW1 7277   2.354   1.216   6.644
 2126SOL    HW2 7278   2.400   1.280   6.787
 2127SOL     OW 7279   5.806   2.424   4.419
 2127SOL    HW1 7280   5.786   2.521   4.402
 2127SOL    HW2 7281   5.905   2.413   4.429
 2128SOL     OW 7282   0.707   4.655   4.618
 2128SOL    HW1 7283   0.791   4.606   4.643
 2128SOL    HW2 7284   0.685   4.722   4.690
 2129SOL     OW 7285   4.682   2.701   5.622
 2129SOL    HW1 7286   4.671   2.798   5.598
 2129SOL    HW2 7287   4.592   2.661   5.640
 2130SOL     OW 7288   5.097   6.456   2.547
 2130SOL    HW1 7289   5.023   6.421   2.604
 2130SOL    HW2 7290   5.141   6.534   2.593
 2131SOL     OW 7291   0.086   1.435   0.470
 2131SOL    HW1 7292   0.053   1.353   0.518
 2131SOL    HW2 7293   0.185   1.444   0.484
 2132SOL     OW 7294   3.148   2.948   0.988
 2132SOL    HW1 7295   3.154   2.888   1.068
 2132SOL    HW2 7296   3.167   2.896   0.905
 2133SOL     OW 7297   2.674   2.453   6.086
 2133SOL    HW1 7298   2.625   2.486   6.005
 2133SOL    HW2 7299   2.611   2.447   6.163
 2134SOL     OW 7300   6.487   1.979   1.214
 2134SOL    HW1 7301   6.501   1.889   1.256
 2134SOL    HW2 7302   6.567   2.036   1.231
 2135SOL     OW 7303   1.059   4.080   4.245
 2135SOL    HW1 7304   0.990   4.011   4.262
 2135SOL    HW2 7305   1.149   4.037   4.242
 2136SOL     OW 7306   2.670   5.705   1.578
 2136SOL    HW1 7307   2.664   5.741   1.485
 2136SOL    HW2 7308   2.744   5.751   1.626
 2137SOL     OW 7309   3.194   5.493   4.683
 2137SOL    HW1 7310   3.195   5.546   4.768
 2137SOL    HW2 7311   3.251   5.412   4.692
 2138SOL     OW 7312   6.260   0.957   3.187
 2138SOL    HW1 7313   6.239   1.024   3.259
 2138SOL    HW2 7314   6.194   0.968   3.113
 2139SOL     OW 7315   3.025   0.990   5.444
 2139SOL    HW1 7316   3.099   1.026   5.387
 2139SOL    HW2 7317   2.943   0.978   5.389
 2140SOL     OW 7318   2.764   0.637   5.227
 2140SOL    HW1 7319   2.836   0.668   5.290
 2140SOL    HW2 7320   2.805   0.608   5.141
 2141SOL     OW 7321   6.285   4.213   2.262
 2141SOL    HW1 7322   6.274   4.222   2.361
 2141SOL    HW2 7323   6.372   4.167   2.243
 2142SOL     OW 7324   1.595   2.810   4.212
 2142SOL    HW1 7325   1.652   2.832   4.291
 2142SOL    HW2 7326   1.617   2.719   4.179
 2143SOL     OW 7327   2.558   5.410   1.193
 2143SOL    HW1 7328   2.602   5.483   1.139
 2143SOL    HW2 7329   2.628   5.345   1.222
 2144SOL     OW 7330   7.018   5.346   4.841
 2144SOL    HW1 7331   0.038   5.433   4.819
 2144SOL    HW2 7332   6.918   5.359   4.840
 2145SOL     OW 7333   3.976   6.537   4.508
 2145SOL    HW1 7334   4.060   6.545   4.561
 2145SOL    HW2 7335   3.985   6.463   4.442
 2146SOL     OW 7336   2.359   2.652   1.086
 2146SOL    HW1 7337   2.300   2.712   1.032
 2146SOL    HW2 7338   2.447   2.697   1.101
 2147SOL     OW 7339   6.587   1.880   5.546
 2147SOL    HW1 7340   6.652   1.807   5.565
 2147SOL    HW2 7341   6.530   1.895   5.627
 2148SOL     OW 7342   0.121   2.737   6.434
 2148SOL    HW1 7343   0.075   2.794   6.366
 2148SOL    HW2 7344   0.060   2.662   6.461
 2149SOL     OW 7345   0.965   0.686   0.789
 2149SOL    HW1 7346   0.932   0.752   0.720
 2149SOL    HW2 7347   0.887   0.642   0.832
 2150SOL     OW 7348   2.487   2.756   1.772
 2150SOL    HW1 7349   2.425   2.697   1.822
 2150SOL    HW2 7350   2.448   2.847   1.764
 2151SOL     OW 7351   0.918   6.555   0.154
 2151SOL    HW1 7352   0.925   6.477   0.217
 2151SOL    HW2 7353   0.870   6.526   0.072
 2152SOL     OW 7354   4.156   5.529   2.287
 2152SOL    HW1 7355   4.102   5.613   2.291
 2152SOL    HW2 7356   4.124   5.473   2.210
 2153SOL     OW 7357   4.498   1.069   2.652
 2153SOL    HW1 7358   4.481   0.987   2.707
 2153SOL    HW2 7359   4.550   1.044   2.570
 2154SOL     OW 7360   3.105   6.528   3.593
 2154SOL    HW1 7361   3.130   6.561   3.502
 2154SOL    HW2 7362   3.015   6.484   3.588
 2155SOL     OW 7363   4.157   0.191   1.436
 2155SOL    HW1 7364   4.247   0.195   1.480
 2155SOL    HW2 7365   4.100   0.123   1.483
 2156SOL     OW 7366   6.522   1.523   3.486
 2156SOL    HW1 7367   6.577   1.497   3.565
 2156SOL    HW2 7368   6.545   1.466   3.408
 2157SOL     OW 7369   4.296   5.846   3.800
 2157SOL    HW1 7370   4.259   5.753   3.790
 2157SOL    HW2 7371   4.318   5.883   3.710
 2158SOL     OW 7372   4.215   0.374   0.650
 2158SOL    HW1 7373   4.167   0.295   0.611
 2158SOL    HW2 7374   4.149   0.448   0.665
 2159SOL     OW 7375   1.299   0.556   5.419
 2159SOL    HW1 7376   1.344   0.579   5.505
 2159SOL    HW2 7377   1.217   0.612   5.407
 2160SOL     OW 7378   5.108   5.534   0.089
 2160SOL    HW1 7379   5.166   5.565   0.165
 2160SOL    HW2 7380   5.057   5.452   0.117
 2161SOL     OW 7381   1.200   3.759   2.460
 2161SOL    HW1 7382   1.209   3.856   2.439
 2161SOL    HW2 7383   1.219   3.705   2.378
 2162SOL     OW 7384   2.845   0.012   3.327
 2162SOL    HW1 7385   2.815   0.066   3.406
 2162SOL    HW2 7386   2.831   6.939   3.346
 2163SOL     OW 7387   1.729   3.243   0.329
 2163SOL    HW1 7388   1.671   3.286   0.259
 2163SOL    HW2 7389   1.825   3.264   0.311
 2164SOL     OW 7390   2.401   2.394   0.962
 2164SOL    HW1 7391   2.368   2.462   1.028
 2164SOL    HW2 7392   2.323   2.353   0.914
 2165SOL     OW 7393   0.355   1.536   3.775
 2165SOL    HW1 7394   0.279   1.476   3.798
 2165SOL    HW2 7395   0.322   1.630   3.767
 2166SOL     OW 7396   0.815   4.151   3.875
 2166SOL    HW1 7397   0.748   4.079   3.860
 2166SOL    HW2 7398   0.795   4.197   3.962
 2167SOL     OW 7399   1.228   2.777   4.001
 2167SOL    HW1 7400   1.156   2.843   4.023
 2167SOL    HW2 7401   1.313   2.826   3.982
 2168SOL     OW 7402   1.118   1.961   2.875
 2168SOL    HW1 7403   1.064   2.033   2.920
 2168SOL    HW2 7404   1.160   1.998   2.792
 2169SOL     OW 7405   0.559   0.901   1.408
 2169SOL    HW1 7406   0.614   0.817   1.405
 2169SOL    HW2 7407   0.465   0.880   1.380
 2170SOL     OW 7408   0.925   4.519   4.749
 2170SOL    HW1 7409   1.005   4.533   4.807
 2170SOL    HW2 7410   0.918   4.423   4.724
 2171SOL     OW 7411   0.399   5.608   1.541
 2171SOL    HW1 7412   0.359   5.586   1.453
 2171SOL    HW2 7413   0.434   5.702   1.539
 2172SOL     OW 7414   0.167   2.010   4.981
 2172SOL    HW1 7415   0.260   2.030   4.951
 2172SOL    HW2 7416   0.163   2.011   5.081
 2173SOL     OW 7417   5.695   0.608   5.692
 2173SOL    HW1 7418   5.652   0.523   5.662
 2173SOL    HW2 7419   5.660   0.684   5.637
 2174SOL     OW 7420   0.429   5.919   5.247
 2174SOL    HW1 7421   0.443   5.979   5.326
 2174SOL    HW2 7422   0.504   5.932   5.182
 2175SOL     OW 7423   2.503   2.983   5.671
 2175SOL    HW1 7424   2.595   2.947   5.657
 2175SOL    HW2 7425   2.453   2.983   5.584
 2176SOL     OW 7426   5.082   2.693   1.296
 2176SOL    HW1 7427   5.129   2.653   1.375
 2176SOL    HW2 7428   5.142   2.757   1.250
 2177SOL     OW 7429   0.090   0.612   3.195
 2177SOL    HW1 7430   0.071   0.598   3.292
 2177SOL    HW2 7431   0.025   0.679   3.158
 2178SOL     OW 7432   1.197   1.369   1.872
 2178SOL    HW1 7433   1.269   1.424   1.914
 2178SOL    HW2 7434   1.127   1.429   1.834
 2179SOL     OW 7435   2.005   4.526   6.615
 2179SOL    HW1 7436   1.946   4.484   6.684
 2179SOL    HW2 7437   2.064   4.457   6.574
 2180SOL     OW 7438   1.411   4.316   2.243
 2180SOL    HW1 7439   1.370   4.309   2.152
 2180SOL    HW2 7440   1.511   4.311   2.235
 2181SOL     OW 7441   4.832   4.614   4.614
 2181SOL    HW1 7442   4.782   4.552   4.675
 2181SOL    HW2 7443   4.848   4.569   4.526
 2182SOL     OW 7444   0.944   4.330   3.219
 2182SOL    HW1 7445   0.918   4.274   3.299
 2182SOL    HW2 7446   1.043   4.324   3.205
 2183SOL     OW 7447   3.207   3.594   0.301
 2183SOL    HW1 7448   3.246   3.576   0.391
 2183SOL    HW2 7449   3.207   3.510   0.247
 2184SOL     OW 7450   6.100   0.513   0.292
 2184SOL    HW1 7451   6.015   0.479   0.252
 2184SOL    HW2 7452   6.173   0.446   0.279
 2185SOL     OW 7453   0.600   1.246   6.685
 2185SOL    HW1 7454   0.526   1.217   6.746
 2185SOL    HW2 7455   0.591   1.199   6.597
 2186SOL     OW 7456   6.403   4.701   5.305
 2186SOL    HW1 7457   6.336   4.772   5.322
 2186SOL    HW2 7458   6.357   4.612   5.302
 2187SOL     OW 7459   0.690   5.318   2.841
 2187SOL    HW1 7460   0.769   5.378   2.858
 2187SOL    HW2 7461   0.607   5.363   2.872
 2188SOL     OW 7462   2.098   5.934   6.968
 2188SOL    HW1 7463   2.092   5.884   0.030
 2188SOL    HW2 7464   2.194   5.943   6.941
 2189SOL     OW 7465   2.428   1.420   2.038
 2189SOL    HW1 7466   2.455   1.387   1.947
 2189SOL    HW2 7467   2.411   1.518   2.034
 2190SOL     OW 7468   6.616   3.525   2.374
 2190SOL    HW1 7469   6.622   3.526   2.474
 2190SOL    HW2 7470   6.691   3.579   2.336
 2191SOL     OW 7471   2.063   1.225   5.240
 2191SOL    HW1 7472   2.155   1.206   5.206
 2191SOL    HW2 7473   1.996   1.174   5.185
 2192SOL     OW 7474   5.372   0.599   1.993
 2192SOL    HW1 7475   5.339   0.541   1.918
 2192SOL    HW2 7476   5.321   0.579   2.076
 2193SOL     OW 7477   6.172   6.891   6.717
 2193SOL    HW1 7478   6.203   6.809   6.668
 2193SOL    HW2 7479   6.251   6.949   6.737
 2194SOL     OW 7480   0.528   4.249   5.443
 2194SOL    HW1 7481   0.570   4.249   5.352
 2194SOL    HW2 7482   0.498   4.157   5.466
 2195SOL     OW 7483   0.303   5.707   6.256
 2195SOL    HW1 7484   0.227   5.648   6.284
 2195SOL    HW2 7485   0.338   5.677   6.167
 2196SOL     OW 7486   2.830   6.386   5.348
 2196SOL    HW1 7487   2.752   6.409   5.290
 2196SOL    HW2 7488   2.913   6.428   5.309
 2197SOL     OW 7489   2.721   3.208   6.003
 2197SOL    HW1 7490   2.762   3.130   5.957
 2197SOL    HW2 7491   2.729   3.289   5.945
 2198SOL     OW 7492   0.110   0.110   0.085
 2198SOL    HW1 7493   0.048   0.127   0.009
 2198SOL    HW2 7494   0.141   0.197   0.124
 2199SOL     OW 7495   5.131   6.814   4.630
 2199SOL    HW1 7496   5.163   6.908   4.620
 2199SOL    HW2 7497   5.038   6.807   4.595
 2200SOL     OW 7498   3.420   1.179   3.973
 2200SOL    HW1 7499   3.342   1.128   3.937
 2200SOL    HW2 7500   3.489   1.114   4.005
 2201SOL     OW 7501   6.365   2.847   3.097
 2201SOL    HW1 7502   6.346   2.783   3.022
 2201SOL    HW2 7503   6.456   2.829   3.134
 2202SOL     OW 7504   3.226   5.181   2.822
 2202SOL    HW1 7505   3.314   5.150   2.787
 2202SOL    HW2 7506   3.186   5.111   2.881
 2203SOL     OW 7507   2.473   4.113   1.136
 2203SOL    HW1 7508   2.383   4.081   1.166
 2203SOL    HW2 7509   2.501   4.192   1.190
 2204SOL     OW 7510   3.890   2.696   0.964
 2204SOL    HW1 7511   3.801   2.650   0.964
 2204SOL    HW2 7512   3.889   2.772   1.028
 2205SOL     OW 7513   1.460   6.646   0.497
 2205SOL    HW1 7514   1.556   6.629   0.474
 2205SOL    HW2 7515   1.411   6.676   0.415
 2206SOL     OW 7516   2.366   4.123   6.400
 2206SOL    HW1 7517   2.272   4.117   6.367
 2206SOL    HW2 7518   2.429   4.128   6.322
 2207SOL     OW 7519   3.567   5.940   0.750
 2207SOL    HW1 7520   3.507   5.871   0.790
 2207SOL    HW2 7521   3.651   5.897   0.717
 2208SOL     OW 7522   1.068   5.938   3.481
 2208SOL    HW1 7523   1.032   5.976   3.396
 2208SOL    HW2 7524   1.168   5.943   3.480
 2209SOL     OW 7525   2.536   5.828   4.596
 2209SOL    HW1 7526   2.499   5.886   4.524
 2209SOL    HW2 7527   2.479   5.746   4.606
 2210SOL     OW 7528   6.058   5.739   2.283
 2210SOL    HW1 7529   6.131   5.686   2.240
 2210SOL    HW2 7530   6.008   5.790   2.214
 2211SOL     OW 7531   6.070   0.879   0.792
 2211SOL    HW1 7532   6.022   0.804   0.836
 2211SOL    HW2 7533   6.122   0.930   0.861
 2212SOL     OW 7534   1.942   5.841   6.748
 2212SOL    HW1 7535   1.873   5.906   6.714
 2212SOL    HW2 7536   2.002   5.888   6.812
 2213SOL     OW 7537   4.850   2.843   4.831
 2213SOL    HW1 7538   4.931   2.900   4.847
 2213SOL    HW2 7539   4.775   2.900   4.797
 2214SOL     OW 7540   3.624   2.819   5.426
 2214SOL    HW1 7541   3.547   2.880   5.411
 2214SOL    HW2 7542   3.708   2.872   5.435
 2215SOL     OW 7543   5.431   1.764   6.026
 2215SOL    HW1 7544   5.427   1.864   6.025
 2215SOL    HW2 7545   5.424   1.731   6.121
 2216SOL     OW 7546   0.258   6.709   5.898
 2216SOL    HW1 7547   0.355   6.729   5.883
 2216SOL    HW2 7548   0.242   6.694   5.996
 2217SOL     OW 7549   4.519   0.601   3.834
 2217SOL    HW1 7550   4.427   0.563   3.823
 2217SOL    HW2 7551   4.586   0.534   3.802
 2218SOL     OW 7552   0.205   5.110   6.950
 2218SOL    HW1 7553   0.195   5.188   6.889
 2218SOL    HW2 7554   0.130   5.046   6.935
 2219SOL     OW 7555   6.294   1.708   0.813
 2219SOL    HW1 7556   6.213   1.743   0.766
 2219SOL    HW2 7557   6.376   1.740   0.766
 2220SOL     OW 7558   2.235   6.491   5.400
 2220SOL    HW1 7559   2.209   6.399   5.428
 2220SOL    HW2 7560   2.235   6.497   5.300
 2221SOL     OW 7561   6.698   1.723   4.660
 2221SOL    HW1 7562   6.637   1.656   4.618
 2221SOL    HW2 7563   6.793   1.698   4.640
 2222SOL     OW 7564   6.496   0.002   0.679
 2222SOL    HW1 7565   6.525   0.063   0.752
 2222SOL    HW2 7566   6.418   6.971   0.710
 2223SOL     OW 7567   6.699   1.177   5.803
 2223SOL    HW1 7568   6.713   1.083   5.835
 2223SOL    HW2 7569   6.660   1.174   5.711
 2224SOL     OW 7570   6.138   3.657   2.081
 2224SOL    HW1 7571   6.053   3.701   2.052
 2224SOL    HW2 7572   6.181   3.710   2.154
 2225SOL     OW 7573   0.016   6.631   3.068
 2225SOL    HW1 7574   6.977   6.646   2.992
 2225SOL    HW2 7575   0.109   6.654   3.039
 2226SOL     OW 7576   3.687   5.695   0.917
 2226SOL    HW1 7577   3.731   5.712   1.005
 2226SOL    HW2 7578   3.756   5.675   0.848
 2227SOL     OW 7579   4.629   2.648   1.387
 2227SOL    HW1 7580   4.599   2.563   1.430
 2227SOL    HW2 7581   4.671   2.707   1.456
 2228SOL     OW 7582   4.653   5.056   0.368
 2228SOL    HW1 7583   4.585   5.015   0.307
 2228SOL    HW2 7584   4.638   5.025   0.461
 2229SOL     OW 7585   3.659   3.560   4.965
 2229SOL    HW1 7586   3.565   3.594   4.963
 2229SOL    HW2 7587   3.721   3.632   4.934
 2230SOL     OW 7588   5.221   6.065   1.639
 2230SOL    HW1 7589   5.124   6.041   1.636
 2230SOL    HW2 7590   5.276   5.982   1.627
 2231SOL     OW 7591   0.895   1.081   6.283
 2231SOL    HW1 7592   0.808   1.044   6.314
 2231SOL    HW2 7593   0.970   1.026   6.320
 2232SOL     OW 7594   0.320   0.603   5.329
 2232SOL    HW1 7595   0.319   0.569   5.235
 2232SOL    HW2 7596   0.403   0.657   5.344
 2233SOL     OW 7597   3.263   3.435   0.869
 2233SOL    HW1 7598   3.255   3.354   0.926
 2233SOL    HW2 7599   3.179   3.488   0.875
 2234SOL     OW 7600   3.746   1.623   0.582
 2234SOL    HW1 7601   3.703   1.570   0.655
 2234SOL    HW2 7602   3.676   1.671   0.529
 2235SOL     OW 7603   2.588   0.397   2.515
 2235SOL    HW1 7604   2.510   0.351   2.556
 2235SOL    HW2 7605   2.658   0.413   2.584
 2236SOL     OW 7606   2.302   3.847   5.705
 2236SOL    HW1 7607   2.321   3.750   5.688
 2236SOL    HW2 7608   2.290   3.894   5.618
 2237SOL     OW 7609   6.244   4.791   4.416
 2237SOL    HW1 7610   6.299   4.731   4.357
 2237SOL    HW2 7611   6.166   4.739   4.452
 2238SOL     OW 7612   4.938   4.880   2.280
 2238SOL    HW1 7613   5.028   4.922   2.282
 2238SOL    HW2 7614   4.881   4.918   2.352
 2239SOL     OW 7615   4.106   5.368   4.174
 2239SOL    HW1 7616   4.156   5.454   4.168
 2239SOL    HW2 7617   4.133   5.320   4.258
 2240SOL     OW 7618   3.563   5.709   2.230
 2240SOL    HW1 7619   3.604   5.640   2.169
 2240SOL    HW2 7620   3.616   5.713   2.314
 2241SOL     OW 7621   6.626   6.869   1.902
 2241SOL    HW1 7622   6.691   6.931   1.946
 2241SOL    HW2 7623   6.584   6.810   1.970
 2242SOL     OW 7624   5.285   3.558   2.309
 2242SOL    HW1 7625   5.354   3.485   2.318
 2242SOL    HW2 7626   5.209   3.539   2.372
 2243SOL     OW 7627   2.084   6.701   7.012
 2243SOL    HW1 7628   2.021   6.717   0.064
 2243SOL    HW2 7629   2.177   6.726   0.016
 2244SOL     OW 7630   2.959   0.154   1.506
 2244SOL    HW1 7631   2.875   0.136   1.455
 2244SOL    HW2 7632   3.008   0.231   1.464
 2245SOL     OW 7633   0.013   1.708   0.437
 2245SOL    HW1 7634   0.094   1.767   0.438
 2245SOL    HW2 7635   0.040   1.615   0.461
 2246SOL     OW 7636   1.772   0.659   3.996
 2246SOL    HW1 7637   1.709   0.641   3.921
 2246SOL    HW2 7638   1.861   0.619   3.975
 2247SOL     OW 7639   3.199   3.604   2.660
 2247SOL    HW1 7640   3.266   3.603   2.586
 2247SOL    HW2 7641   3.226   3.671   2.729
 2248SOL     OW 7642   6.676   4.255   3.931
 2248SOL    HW1 7643   6.585   4.287   3.904
 2248SOL    HW2 7644   6.674   4.227   4.027
 2249SOL     OW 7645   3.979   6.549   4.211
 2249SOL    HW1 7646   3.985   6.604   4.128
 2249SOL    HW2 7647   3.887   6.511   4.219
 2250SOL     OW 7648   3.120   3.781   5.617
 2250SOL    HW1 7649   3.181   3.704   5.597
 2250SOL    HW2 7650   3.108   3.836   5.535
 2251SOL     OW 7651   5.412   0.269   6.000
 2251SOL    HW1 7652   5.432   0.189   6.057
 2251SOL    HW2 7653   5.421   0.352   6.055
 2252SOL     OW 7654   5.191   1.766   3.110
 2252SOL    HW1 7655   5.147   1.678   3.090
 2252SOL    HW2 7656   5.242   1.759   3.196
 2253SOL     OW 7657   0.361   3.319   6.760
 2253SOL    HW1 7658   0.329   3.374   6.683
 2253SOL    HW2 7659   0.348   3.369   6.846
 2254SOL     OW 7660   3.583   3.399   3.430
 2254SOL    HW1 7661   3.592   3.489   3.471
 2254SOL    HW2 7662   3.500   3.355   3.464
 2255SOL     OW 7663   2.935   3.417   5.536
 2255SOL    HW1 7664   3.007   3.348   5.548
 2255SOL    HW2 7665   2.967   3.486   5.472
 2256SOL     OW 7666   4.420   6.703   2.105
 2256SOL    HW1 7667   4.340   6.681   2.048
 2256SOL    HW2 7668   4.448   6.798   2.089
 2257SOL     OW 7669   0.774   1.109   4.315
 2257SOL    HW1 7670   0.805   1.162   4.235
 2257SOL    HW2 7671   0.688   1.148   4.348
 2258SOL     OW 7672   2.253   5.768   4.082
 2258SOL    HW1 7673   2.205   5.705   4.143
 2258SOL    HW2 7674   2.296   5.717   4.008
 2259SOL     OW 7675   5.332   2.583   4.924
 2259SOL    HW1 7676   5.411   2.643   4.912
 2259SOL    HW2 7677   5.333   2.513   4.852
 2260SOL     OW 7678   0.725   3.626   1.413
 2260SOL    HW1 7679   0.729   3.714   1.367
 2260SOL    HW2 7680   0.670   3.562   1.359
 2261SOL     OW 7681   6.786   4.384   0.798
 2261SOL    HW1 7682   6.759   4.289   0.784
 2261SOL    HW2 7683   6.829   4.419   0.715
 2262SOL     OW 7684   6.422   0.306   3.081
 2262SOL    HW1 7685   6.392   0.371   3.010
 2262SOL    HW2 7686   6.371   0.323   3.165
 2263SOL     OW 7687   1.974   5.973   0.593
 2263SOL    HW1 7688   1.875   5.971   0.607
 2263SOL    HW2 7689   2.001   5.898   0.534
 2264SOL     OW 7690   2.688   6.908   6.868
 2264SOL    HW1 7691   2.749   6.907   6.788
 2264SOL    HW2 7692   2.723   6.845   6.937
 2265SOL     OW 7693   2.049   0.595   4.133
 2265SOL    HW1 7694   2.126   0.658   4.127
 2265SOL    HW2 7695   2.060   0.537   4.214
 2266SOL     OW 7696   4.767   1.401   6.454
 2266SOL    HW1 7697   4.785   1.496   6.479
 2266SOL    HW2 7698   4.760   1.394   6.355
 2267SOL     OW 7699   4.748   2.617   4.935
 2267SOL    HW1 7700   4.689   2.643   5.011
 2267SOL    HW2 7701   4.787   2.699   4.894
 2268SOL     OW 7702   6.175   3.442   6.407
 2268SOL    HW1 7703   6.162   3.537   6.378
 2268SOL    HW2 7704   6.144   3.380   6.335
 2269SOL     OW 7705   1.192   3.568   4.912
 2269SOL    HW1 7706   1.240   3.624   4.980
 2269SOL    HW2 7707   1.217   3.599   4.821
 2270SOL     OW 7708   3.837   3.180   6.389
 2270SOL    HW1 7709   3.825   3.246   6.463
 2270SOL    HW2 7710   3.934   3.157   6.379
 2271SOL     OW 7711   5.676   4.743   6.932
 2271SOL    HW1 7712   5.657   4.651   6.965
 2271SOL    HW2 7713   5.605   4.770   6.867
 2272SOL     OW 7714   6.751   1.557   6.623
 2272SOL    HW1 7715   6.793   1.525   6.538
 2272SOL    HW2 7716   6.763   1.656   6.630
 2273SOL     OW 7717   1.811   2.433   2.384
 2273SOL    HW1 7718   1.910   2.433   2.369
 2273SOL    HW2 7719   1.780   2.525   2.408
 2274SOL     OW 7720   0.512   1.390   6.222
 2274SOL    HW1 7721   0.515   1.469   6.161
 2274SOL    HW2 7722   0.563   1.410   6.305
 2275SOL     OW 7723   5.562   5.999   2.760
 2275SOL    HW1 7724   5.611   6.083   2.737
 2275SOL    HW2 7725   5.618   5.943   2.821
 2276SOL     OW 7726   1.409   5.734   1.508
 2276SOL    HW1 7727   1.329   5.753   1.565
 2276SOL    HW2 7728   1.440   5.819   1.465
 2277SOL     OW 7729   3.248   3.557   4.681
 2277SOL    HW1 7730   3.166   3.589   4.633
 2277SOL    HW2 7731   3.308   3.510   4.617
 2278SOL     OW 7732   6.156   2.602   3.839
 2278SOL    HW1 7733   6.158   2.585   3.741
 2278SOL    HW2 7734   6.246   2.631   3.870
 2279SOL     OW 7735   6.240   6.712   5.816
 2279SOL    HW1 7736   6.181   6.681   5.741
 2279SOL    HW2 7737   6.277   6.802   5.793
 2280SOL     OW 7738   6.165   0.792   4.517
 2280SOL    HW1 7739   6.109   0.710   4.507
 2280SOL    HW2 7740   6.216   0.808   4.433
 2281SOL     OW 7741   3.387   0.476   1.937
 2281SOL    HW1 7742   3.339   0.505   2.020
 2281SOL    HW2 7743   3.396   0.554   1.875
 2282SOL     OW 7744   5.179   6.098   5.644
 2282SOL    HW1 7745   5.146   6.113   5.551
 2282SOL    HW2 7746   5.269   6.140   5.656
 2283SOL     OW 7747   1.476   0.731   1.873
 2283SOL    HW1 7748   1.528   0.799   1.925
 2283SOL    HW2 7749   1.394   0.774   1.834
 2284SOL     OW 7750   0.999   3.668   6.001
 2284SOL    HW1 7751   0.908   3.699   6.029
 2284SOL    HW2 7752   0.993   3.573   5.968
 2285SOL     OW 7753   1.399   3.312   0.370
 2285SOL    HW1 7754   1.446   3.314   0.459
 2285SOL    HW2 7755   1.458   3.353   0.301
 2286SOL     OW 7756   5.404   0.118   3.568
 2286SOL    HW1 7757   5.468   0.123   3.645
 2286SOL    HW2 7758   5.447   0.158   3.486
 2287SOL     OW 7759   2.752   0.873   3.653
 2287SOL    HW1 7760   2.653   0.877   3.667
 2287SOL    HW2 7761   2.776   0.929   3.573
 2288SOL     OW 7762   0.115   5.451   4.152
 2288SOL    HW1 7763   0.094   5.480   4.245
 2288SOL    HW2 7764   0.187   5.382   4.154
 2289SOL     OW 7765   6.817   5.035   1.051
 2289SOL    HW1 7766   6.753   4.965   1.083
 2289SOL    HW2 7767   6.895   5.040   1.113
 2290SOL     OW 7768   0.615   4.158   1.257
 2290SOL    HW1 7769   0.642   4.234   1.317
 2290SOL    HW2 7770   0.630   4.071   1.304
 2291SOL     OW 7771   2.370   2.584   5.575
 2291SOL    HW1 7772   2.456   2.581   5.627
 2291SOL    HW2 7773   2.390   2.580   5.477
 2292SOL     OW 7774   1.625   1.397   4.542
 2292SOL    HW1 7775   1.563   1.419   4.466
 2292SOL    HW2 7776   1.669   1.481   4.574
 2293SOL     OW 7777   5.449   6.007   1.987
 2293SOL    HW1 7778   5.375   6.036   1.925
 2293SOL    HW2 7779   5.410   5.951   2.060
 2294SOL     OW 7780   3.292   0.200   0.149
 2294SOL    HW1 7781   3.298   0.285   0.201
 2294SOL    HW2 7782   3.198   0.166   0.152
 2295SOL     OW 7783   0.385   1.465   2.437
 2295SOL    HW1 7784   0.376   1.367   2.457
 2295SOL    HW2 7785   0.466   1.501   2.483
 2296SOL     OW 7786   3.154   6.826   0.658
 2296SOL    HW1 7787   3.176   6.889   0.732
 2296SOL    HW2 7788   3.133   6.736   0.695
 2297SOL     OW 7789   3.564   4.232   5.058
 2297SOL    HW1 7790   3.494   4.243   5.128
 2297SOL    HW2 7791   3.554   4.142   5.014
 2298SOL     OW 7792   3.571   2.604   1.716
 2298SOL    HW1 7793   3.482   2.639   1.745
 2298SOL    HW2 7794   3.592   2.520   1.765
 2299SOL     OW 7795   6.028   0.609   6.720
 2299SOL    HW1 7796   6.040   0.698   6.676
 2299SOL    HW2 7797   5.998   0.542   6.653
 2300SOL     OW 7798   2.081   5.127   1.752
 2300SOL    HW1 7799   2.092   5.224   1.773
 2300SOL    HW2 7800   2.163   5.093   1.706
 2301SOL     OW 7801   2.970   3.654   2.855
 2301SOL    HW1 7802   2.923   3.580   2.808
 2301SOL    HW2 7803   2.966   3.737   2.799
 2302SOL     OW 7804   3.512   0.142   2.495
 2302SOL    HW1 7805   3.523   0.096   2.407
 2302SOL    HW2 7806   3.572   0.222   2.498
 2303SOL     OW 7807   1.618   3.610   5.528
 2303SOL    HW1 7808   1.546   3.650   5.471
 2303SOL    HW2 7809   1.649   3.524   5.487
 2304SOL     OW 7810   2.628   0.318   3.349
 2304SOL    HW1 7811   2.558   0.389   3.334
 2304SOL    HW2 7812   2.601   0.235   3.300
 2305SOL     OW 7813   3.651   5.762   3.218
 2305SOL    HW1 7814   3.560   5.792   3.187
 2305SOL    HW2 7815   3.662   5.665   3.200
 2306SOL     OW 7816   2.163   5.726   1.381
 2306SOL    HW1 7817   2.136   5.765   1.469
 2306SOL    HW2 7818   2.085   5.678   1.340
 2307SOL     OW 7819   2.455   4.518   2.657
 2307SOL    HW1 7820   2.534   4.541   2.600
 2307SOL    HW2 7821   2.371   4.530   2.603
 2308SOL     OW 7822   1.047   7.005   6.872
 2308SOL    HW1 7823   0.965   0.037   6.860
 2308SOL    HW2 7824   1.093   0.007   6.957
 2309SOL     OW 7825   2.750   6.786   0.274
 2309SOL    HW1 7826   2.721   6.873   0.235
 2309SOL    HW2 7827   2.816   6.804   0.348
 2310SOL     OW 7828   6.266   6.661   1.241
 2310SOL    HW1 7829   6.293   6.586   1.303
 2310SOL    HW2 7830   6.323   6.658   1.159
 2311SOL     OW 7831   2.778   6.777   2.186
 2311SOL    HW1 7832   2.837   6.856   2.201
 2311SOL    HW2 7833   2.763   6.729   2.272
 2312SOL     OW 7834   3.214   6.980   3.504
 2312SOL    HW1 7835   3.225   6.947   3.411
 2312SOL    HW2 7836   3.155   0.037   3.505
 2313SOL     OW 7837   4.721   5.039   1.760
 2313SOL    HW1 7838   4.735   5.138   1.766
 2313SOL    HW2 7839   4.675   5.007   1.843
 2314SOL     OW 7840   5.863   0.845   3.333
 2314SOL    HW1 7841   5.932   0.775   3.350
 2314SOL    HW2 7842   5.908   0.930   3.305
 2315SOL     OW 7843   5.245   3.393   5.250
 2315SOL    HW1 7844   5.181   3.409   5.326
 2315SOL    HW2 7845   5.195   3.394   5.164
 2316SOL     OW 7846   2.620   1.630   5.376
 2316SOL    HW1 7847   2.628   1.606   5.473
 2316SOL    HW2 7848   2.562   1.711   5.366
 2317SOL     OW 7849   6.457   6.419   3.787
 2317SOL    HW1 7850   6.430   6.489   3.720
 2317SOL    HW2 7851   6.390   6.416   3.861
 2318SOL     OW 7852   2.118   3.437   4.402
 2318SOL    HW1 7853   2.130   3.338   4.390
 2318SOL    HW2 7854   2.060   3.454   4.482
 2319SOL     OW 7855   3.342   5.350   5.412
 2319SOL    HW1 7856   3.258   5.386   5.452
 2319SOL    HW2 7857   3.331   5.252   5.396
 2320SOL     OW 7858   0.592   1.888   4.779
 2320SOL    HW1 7859   0.515   1.944   4.749
 2320SOL    HW2 7860   0.667   1.947   4.808
 2321SOL     OW 7861   2.271   6.013   6.665
 2321SOL    HW1 7862   2.330   6.024   6.584
 2321SOL    HW2 7863   2.328   6.013   6.747
 2322SOL     OW 7864   1.862   4.208   2.084
 2322SOL    HW1 7865   1.928   4.277   2.055
 2322SOL    HW2 7866   1.867   4.129   2.022
 2323SOL     OW 7867   3.292   4.798   1.844
 2323SOL    HW1 7868   3.376   4.744   1.850
 2323SOL    HW2 7869   3.226   4.751   1.786
 2324SOL     OW 7870   6.766   5.797   0.995
 2324SOL    HW1 7871   6.739   5.716   0.944
 2324SOL    HW2 7872   6.852   5.833   0.957
 2325SOL     OW 7873   0.125   4.608   1.191
 2325SOL    HW1 7874   0.206   4.652   1.231
 2325SOL    HW2 7875   0.047   4.671   1.196
 2326SOL     OW 7876   1.497   6.274   6.549
 2326SOL    HW1 7877   1.565   6.336   6.509
 2326SOL    HW2 7878   1.513   6.181   6.516
 2327SOL     OW 7879   0.654   1.120   3.020
 2327SOL    HW1 7880   0.703   1.065   3.088
 2327SOL    HW2 7881   0.578   1.167   3.065
 2328SOL     OW 7882   1.753   2.061   2.753
 2328SOL    HW1 7883   1.727   1.966   2.768
 2328SOL    HW2 7884   1.775   2.074   2.656
 2329SOL     OW 7885   0.705   4.900   4.771
 2329SOL    HW1 7886   0.770   4.906   4.696
 2329SOL    HW2 7887   0.641   4.977   4.766
 2330SOL     OW 7888   6.996   2.758   0.721
 2330SOL    HW1 7889   6.984   2.838   0.779
 2330SOL    HW2 7890   0.025   2.688   0.769
 2331SOL     OW 7891   3.688   5.284   0.487
 2331SOL    HW1 7892   3.697   5.369   0.434
 2331SOL    HW2 7893   3.778   5.242   0.498
 2332SOL     OW 7894   0.037   6.910   5.808
 2332SOL    HW1 7895   6.973   6.874   5.777
 2332SOL    HW2 7896   0.028   6.942   5.903
 2333SOL     OW 7897   6.799   4.697   2.920
 2333SOL    HW1 7898   6.839   4.621   2.971
 2333SOL    HW2 7899   6.844   4.704   2.831
 2334SOL     OW 7900   1.685   0.937   6.578
 2334SOL    HW1 7901   1.760   0.966   6.637
 2334SOL    HW2 7902   1.638   0.859   6.620
 2335SOL     OW 7903   5.801   7.005   3.704
 2335SOL    HW1 7904   5.752   6.964   3.627
 2335SOL    HW2 7905   5.869   0.046   3.670
 2336SOL     OW 7906   3.695   1.289   4.841
 2336SOL    HW1 7907   3.787   1.316   4.811
 2336SOL    HW2 7908   3.641   1.259   4.762
 2337SOL     OW 7909   4.146   0.595   1.458
 2337SOL    HW1 7910   4.196   0.559   1.379
 2337SOL    HW2 7911   4.074   0.657   1.427
 2338SOL     OW 7912   0.407   3.130   4.325
 2338SOL    HW1 7913   0.475   3.087   4.265
 2338SOL    HW2 7914   0.450   3.153   4.412
 2339SOL     OW 7915   3.755   4.034   3.348
 2339SOL    HW1 7916   3.841   3.997   3.383
 2339SOL    HW2 7917   3.726   3.980   3.268
 2340SOL     OW 7918   6.962   4.438   6.524
 2340SOL    HW1 7919   0.009   4.390   6.575
 2340SOL    HW2 7920   6.925   4.378   6.453
 2341SOL     OW 7921   2.999   4.907   2.247
 2341SOL    HW1 7922   2.993   4.840   2.320
 2341SOL    HW2 7923   3.014   4.860   2.160
 2342SOL     OW 7924   1.533   0.037   5.098
 2342SOL    HW1 7925   1.556   6.970   5.133
 2342SOL    HW2 7926   1.553   0.041   5.000
 2343SOL     OW 7927   1.578   5.503   2.363
 2343SOL    HW1 7928   1.660   5.482   2.415
 2343SOL    HW2 7929   1.500   5.453   2.401
 2344SOL     OW 7930   0.369   6.045   0.070
 2344SOL    HW1 7931   0.369   6.005   0.161
 2344SOL    HW2 7932   0.343   6.142   0.076
 2345SOL     OW 7933   2.523   5.311   5.107
 2345SOL    HW1 7934   2.485   5.268   5.025
 2345SOL    HW2 7935   2.502   5.409   5.106
 2346SOL     OW 7936   3.577   3.129   5.708
 2346SOL    HW1 7937   3.626   3.216   5.709
 2346SOL    HW2 7938   3.479   3.146   5.696
 2347SOL     OW 7939   2.663   2.502   1.466
 2347SOL    HW1 7940   2.581   2.553   1.491
 2347SOL    HW2 7941   2.726   2.499   1.543
 2348SOL     OW 7942   1.740   6.050   3.503
 2348SOL    HW1 7943   1.810   6.031   3.572
 2348SOL    HW2 7944   1.755   6.140   3.463
 2349SOL     OW 7945   0.866   4.929   5.734
 2349SOL    HW1 7946   0.954   4.975   5.748
 2349SOL    HW2 7947   0.849   4.917   5.636
 2350SOL     OW 7948   6.492   5.457   6.046
 2350SOL    HW1 7949   6.421   5.525   6.025
 2350SOL    HW2 7950   6.471   5.371   5.999
 2351SOL     OW 7951   3.240   4.958   4.346
 2351SOL    HW1 7952   3.156   4.940   4.398
 2351SOL    HW2 7953   3.319   4.937   4.402
 2352SOL     OW 7954   0.210   3.563   2.412
 2352SOL    HW1 7955   0.222   3.480   2.466
 2352SOL    HW2 7956   0.114   3.574   2.388
 2353SOL     OW 7957   3.413   4.907   4.538
 2353SOL    HW1 7958   3.487   4.967   4.569
 2353SOL    HW2 7959   3.341   4.905   4.607
 2354SOL     OW 7960   2.179   1.859   4.908
 2354SOL    HW1 7961   2.197   1.906   4.822
 2354SOL    HW2 7962   2.095   1.894   4.949
 2355SOL     OW 7963   2.017   6.872   5.808
 2355SOL    HW1 7964   2.109   6.840   5.831
 2355SOL    HW2 7965   1.985   6.937   5.877
 2356SOL     OW 7966   1.070   3.162   6.145
 2356SOL    HW1 7967   1.022   3.083   6.184
 2356SOL    HW2 7968   1.128   3.203   6.215
 2357SOL     OW 7969   4.226   0.592   2.489
 2357SOL    HW1 7970   4.185   0.531   2.422
 2357SOL    HW2 7971   4.170   0.594   2.571
 2358SOL     OW 7972   3.149   5.422   5.651
 2358SOL    HW1 7973   3.202   5.505   5.636
 2358SOL    HW2 7974   3.175   5.380   5.738
 2359SOL     OW 7975   6.917   1.085   5.459
 2359SOL    HW1 7976   6.963   1.065   5.545
 2359SOL    HW2 7977   6.978   1.063   5.383
 2360SOL     OW 7978   5.630   2.880   6.497
 2360SOL    HW1 7979   5.585   2.819   6.561
 2360SOL    HW2 7980   5.674   2.826   6.425
 2361SOL     OW 7981   2.084   0.740   6.093
 2361SOL    HW1 7982   2.139   0.732   6.176
 2361SOL    HW2 7983   2.124   0.684   6.021
 2362SOL     OW 7984   2.465   5.699   3.667
 2362SOL    HW1 7985   2.396   5.736   3.605
 2362SOL    HW2 7986   2.498   5.612   3.631
 2363SOL     OW 7987   4.630   1.899   4.985
 2363SOL    HW1 7988   4.640   1.835   4.909
 2363SOL    HW2 7989   4.533   1.910   5.008
 2364SOL     OW 7990   1.036   2.938   2.689
 2364SOL    HW1 7991   1.111   2.986   2.643
 2364SOL    HW2 7992   0.967   2.912   2.622
 2365SOL     OW 7993   6.768   2.450   6.928
 2365SOL    HW1 7994   6.774   2.416   6.834
 2365SOL    HW2 7995   6.697   2.521   6.933
 2366SOL     OW 7996   2.452   5.584   6.587
 2366SOL    HW1 7997   2.370   5.639   6.604
 2366SOL    HW2 7998   2.524   5.642   6.548
 2367SOL     OW 7999   2.520   3.670   0.967
 2367SOL    HW1 8000   2.504   3.693   1.063
 2367SOL    HW2 8001   2.488   3.578   0.949
 2368SOL     OW 8002   4.637   6.752   4.603
 2368SOL    HW1 8003   4.628   6.670   4.661
 2368SOL    HW2 8004   4.721   6.745   4.549
 2369SOL     OW 8005   2.334   0.968   4.778
 2369SOL    HW1 8006   2.338   0.892   4.842
 2369SOL    HW2 8007   2.242   0.974   4.738
 2370SOL     OW 8008   5.074   2.969   0.095
 2370SOL    HW1 8009   5.127   2.890   0.127
 2370SOL    HW2 8010   5.028   2.945   0.009
 2371SOL     OW 8011   1.239   7.003   1.416
 2371SOL    HW1 8012   1.294   0.062   1.421
 2371SOL    HW2 8013   1.147   0.002   1.385
 2372SOL     OW 8014   0.055   2.973   1.921
 2372SOL    HW1 8015   6.982   2.950   1.921
 2372SOL    HW2 8016   0.069   3.057   1.869
 2373SOL     OW 8017   1.046   2.629   6.052
 2373SOL    HW1 8018   1.032   2.585   5.963
 2373SOL    HW2 8019   1.108   2.707   6.041
 2374SOL     OW 8020   5.985   1.624   3.932
 2374SOL    HW1 8021   6.025   1.586   4.016
 2374SOL    HW2 8022   6.018   1.572   3.854
 2375SOL     OW 8023   3.123   6.139   4.776
 2375SOL    HW1 8024   3.045   6.076   4.777
 2375SOL    HW2 8025   3.115   6.201   4.855
 2376SOL     OW 8026   6.547   2.713   4.711
 2376SOL    HW1 8027   6.487   2.663   4.648
 2376SOL    HW2 8028   6.601   2.779   4.659
 2377SOL     OW 8029   3.893   3.575   3.815
 2377SOL    HW1 8030   3.873   3.665   3.853
 2377SOL    HW2 8031   3.892   3.580   3.715
 2378SOL     OW 8032   4.884   1.563   0.906
 2378SOL    HW1 8033   4.833   1.636   0.950
 2378SOL    HW2 8034   4.957   1.532   0.967
 2379SOL     OW 8035   6.965   1.904   0.219
 2379SOL    HW1 8036   6.950   2.003   0.226
 2379SOL    HW2 8037   6.977   1.866   0.310
 2380SOL     OW 8038   0.451   1.783   6.449
 2380SOL    HW1 8039   0.476   1.862   6.393
 2380SOL    HW2 8040   0.513   1.707   6.429
 2381SOL     OW 8041   1.990   4.934   4.748
 2381SOL    HW1 8042   1.956   5.002   4.814
 2381SOL    HW2 8043   2.082   4.905   4.775
 2382SOL     OW 8044   2.117   3.865   4.503
 2382SOL    HW1 8045   2.098   3.947   4.449
 2382SOL    HW2 8046   2.169   3.890   4.585
 2383SOL     OW 8047   4.870   6.215   0.681
 2383SOL    HW1 8048   4.873   6.315   0.692
 2383SOL    HW2 8049   4.829   6.193   0.593
 2384SOL     OW 8050   6.087   1.024   2.979
 2384SOL    HW1 8051   6.052   1.114   3.004
 2384SOL    HW2 8052   6.012   0.958   2.978
 2385SOL     OW 8053   1.041   6.785   0.621
 2385SOL    HW1 8054   0.972   6.775   0.549
 2385SOL    HW2 8055   1.006   6.847   0.692
 2386SOL     OW 8056   6.158   5.902   4.247
 2386SOL    HW1 8057   6.098   5.877   4.323
 2386SOL    HW2 8058   6.233   5.835   4.241
 2387SOL     OW 8059   1.284   2.197   4.183
 2387SOL    HW1 8060   1.290   2.215   4.085
 2387SOL    HW2 8061   1.187   2.192   4.210
 2388SOL     OW 8062   0.320   1.994   4.117
 2388SOL    HW1 8063   0.418   2.012   4.126
 2388SOL    HW2 8064   0.270   2.080   4.111
 2389SOL     OW 8065   4.897   4.156   2.631
 2389SOL    HW1 8066   4.913   4.231   2.695
 2389SOL    HW2 8067   4.904   4.069   2.679
 2390SOL     OW 8068   3.815   2.942   3.468
 2390SOL    HW1 8069   3.895   2.971   3.416
 2390SOL    HW2 8070   3.823   2.975   3.562
 2391SOL     OW 8071   5.223   3.887   5.742
 2391SOL    HW1 8072   5.131   3.858   5.767
 2391SOL    HW2 8073   5.218   3.957   5.670
 2392SOL     OW 8074   3.869   6.331   5.301
 2392SOL    HW1 8075   3.879   6.407   5.366
 2392SOL    HW2 8076   3.796   6.352   5.236
 2393SOL     OW 8077   4.977   3.951   6.092
 2393SOL    HW1 8078   5.017   4.043   6.086
 2393SOL    HW2 8079   4.936   3.927   6.004
 2394SOL     OW 8080   1.320   3.987   4.498
 2394SOL    HW1 8081   1.413   3.970   4.530
 2394SOL    HW2 8082   1.320   3.995   4.398
 2395SOL     OW 8083   5.104   1.393   5.619
 2395SOL    HW1 8084   5.190   1.442   5.608
 2395SOL    HW2 8085   5.096   1.358   5.712
 2396SOL     OW 8086   3.615   5.148   1.357
 2396SOL    HW1 8087   3.616   5.248   1.356
 2396SOL    HW2 8088   3.640   5.115   1.448
 2397SOL     OW 8089   6.933   3.773   5.462
 2397SOL    HW1 8090   6.853   3.820   5.425
 2397SOL    HW2 8091   6.937   3.680   5.425
 2398SOL     OW 8092   3.693   4.174   6.855
 2398SOL    HW1 8093   3.751   4.098   6.825
 2398SOL    HW2 8094   3.717   4.199   6.949
 2399SOL     OW 8095   4.485   1.015   1.427
 2399SOL    HW1 8096   4.416   1.019   1.499
 2399SOL    HW2 8097   4.445   1.048   1.341
 2400SOL     OW 8098   2.768   4.158   1.007
 2400SOL    HW1 8099   2.672   4.149   1.035
 2400SOL    HW2 8100   2.821   4.200   1.081
 2401SOL     OW 8101   5.117   6.191   6.662
 2401SOL    HW1 8102   5.100   6.278   6.616
 2401SOL    HW2 8103   5.184   6.138   6.609
 2402SOL     OW 8104   0.435   0.605   3.310
 2402SOL    HW1 8105   0.432   0.663   3.229
 2402SOL    HW2 8106   0.373   0.640   3.380
 2403SOL     OW 8107   2.092   2.490   6.651
 2403SOL    HW1 8108   2.022   2.432   6.608
 2403SOL    HW2 8109   2.151   2.528   6.580
 2404SOL     OW 8110   2.804   0.773   1.104
 2404SOL    HW1 8111   2.838   0.866   1.089
 2404SOL    HW2 8112   2.857   0.709   1.049
 2405SOL     OW 8113   3.602   3.722   2.560
 2405SOL    HW1 8114   3.694   3.709   2.524
 2405SOL    HW2 8115   3.566   3.635   2.594
 2406SOL     OW 8116   2.501   0.537   2.015
 2406SOL    HW1 8117   2.422   0.476   2.011
 2406SOL    HW2 8118   2.531   0.548   2.110
 2407SOL     OW 8119   5.599   1.526   2.931
 2407SOL    HW1 8120   5.564   1.435   2.953
 2407SOL    HW2 8121   5.559   1.558   2.845
 2408SOL     OW 8122   4.875   4.796   3.342
 2408SOL    HW1 8123   4.852   4.703   3.314
 2408SOL    HW2 8124   4.857   4.807   3.440
 2409SOL     OW 8125   2.095   4.688   1.875
 2409SOL    HW1 8126   2.161   4.726   1.939
 2409SOL    HW2 8127   2.138   4.618   1.818
 2410SOL     OW 8128   4.012   3.407   5.132
 2410SOL    HW1 8129   4.068   3.397   5.050
 2410SOL    HW2 8130   4.051   3.478   5.191
 2411SOL     OW 8131   4.976   5.770   4.699
 2411SOL    HW1 8132   5.048   5.726   4.646
 2411SOL    HW2 8133   5.008   5.858   4.734
 2412SOL     OW 8134   5.357   4.322   1.075
 2412SOL    HW1 8135   5.350   4.233   1.121
 2412SOL    HW2 8136   5.396   4.388   1.138
 2413SOL     OW 8137   6.282   1.254   0.645
 2413SOL    HW1 8138   6.214   1.181   0.643
 2413SOL    HW2 8139   6.373   1.214   0.655
 2414SOL     OW 8140   4.691   4.294   2.527
 2414SOL    HW1 8141   4.688   4.286   2.427
 2414SOL    HW2 8142   4.770   4.244   2.562
 2415SOL     OW 8143   6.512   0.950   3.140
 2415SOL    HW1 8144   6.415   0.961   3.161
 2415SOL    HW2 8145   6.550   1.036   3.108
 2416SOL     OW 8146   4.969   2.472   4.900
 2416SOL    HW1 8147   4.879   2.514   4.891
 2416SOL    HW2 8148   5.031   2.534   4.949
 2417SOL     OW 8149   3.839   3.658   4.635
 2417SOL    HW1 8150   3.785   3.708   4.567
 2417SOL    HW2 8151   3.824   3.698   4.725
 2418SOL     OW 8152   3.781   2.887   4.777
 2418SOL    HW1 8153   3.821   2.814   4.833
 2418SOL    HW2 8154   3.686   2.901   4.803
 2419SOL     OW 8155   0.166   6.891   4.226
 2419SOL    HW1 8156   0.256   6.931   4.208
 2419SOL    HW2 8157   0.123   6.939   4.303
 2420SOL     OW 8158   3.276   0.672   2.849
 2420SOL    HW1 8159   3.208   0.734   2.887
 2420SOL    HW2 8160   3.366   0.693   2.887
 2421SOL     OW 8161   1.939   2.627   5.179
 2421SOL    HW1 8162   1.879   2.691   5.130
 2421SOL    HW2 8163   2.031   2.666   5.185
 2422SOL     OW 8164   5.478   1.327   1.042
 2422SOL    HW1 8165   5.428   1.381   1.110
 2422SOL    HW2 8166   5.451   1.355   0.950
 2423SOL     OW 8167   1.852   5.960   2.534
 2423SOL    HW1 8168   1.753   5.974   2.533
 2423SOL    HW2 8169   1.888   5.984   2.624
 2424SOL     OW 8170   6.355   6.826   6.356
 2424SOL    HW1 8171   6.344   6.776   6.442
 2424SOL    HW2 8172   6.273   6.814   6.300
 2425SOL     OW 8173   5.709   0.469   4.222
 2425SOL    HW1 8174   5.809   0.460   4.228
 2425SOL    HW2 8175   5.671   0.476   4.315
 2426SOL     OW 8176   1.415   5.965   5.253
 2426SOL    HW1 8177   1.499   5.967   5.307
 2426SOL    HW2 8178   1.419   5.890   5.187
 2427SOL     OW 8179   5.341   6.089   5.256
 2427SOL    HW1 8180   5.395   6.008   5.233
 2427SOL    HW2 8181   5.244   6.067   5.253
 2428SOL     OW 8182   0.165   0.205   2.330
 2428SOL    HW1 8183   0.246   0.263   2.324
 2428SOL    HW2 8184   0.125   0.194   2.239
 2429SOL     OW 8185   5.938   5.435   2.812
 2429SOL    HW1 8186   5.993   5.519   2.809
 2429SOL    HW2 8187   5.940   5.397   2.904
 2430SOL     OW 8188   6.262   0.864   1.850
 2430SOL    HW1 8189   6.236   0.829   1.939
 2430SOL    HW2 8190   6.323   0.800   1.805
 2431SOL     OW 8191   3.752   0.425   1.934
 2431SOL    HW1 8192   3.779   0.366   1.858
 2431SOL    HW2 8193   3.665   0.470   1.913
 2432SOL     OW 8194   3.973   6.171   2.865
 2432SOL    HW1 8195   4.044   6.241   2.878
 2432SOL    HW2 8196   3.913   6.169   2.945
 2433SOL     OW 8197   3.975   1.542   0.070
 2433SOL    HW1 8198   3.887   1.587   0.086
 2433SOL    HW2 8199   4.050   1.604   0.095
 2434SOL     OW 8200   4.103   1.416   5.691
 2434SOL    HW1 8201   4.033   1.366   5.641
 2434SOL    HW2 8202   4.068   1.444   5.780
 2435SOL     OW 8203   4.807   5.247   5.424
 2435SOL    HW1 8204   4.717   5.249   5.467
 2435SOL    HW2 8205   4.835   5.340   5.400
 2436SOL     OW 8206   1.631   4.960   6.824
 2436SOL    HW1 8207   1.701   5.005   6.769
 2436SOL    HW2 8208   1.641   4.861   6.816
 2437SOL     OW 8209   5.744   6.915   6.531
 2437SOL    HW1 8210   5.680   6.852   6.488
 2437SOL    HW2 8211   5.772   6.878   6.620
 2438SOL     OW 8212   3.109   1.714   0.156
 2438SOL    HW1 8213   3.071   1.797   0.196
 2438SOL    HW2 8214   3.034   1.654   0.126
 2439SOL     OW 8215   0.823   4.299   6.426
 2439SOL    HW1 8216   0.783   4.209   6.408
 2439SOL    HW2 8217   0.773   4.344   6.500
 2440SOL     OW 8218   4.582   5.819   6.045
 2440SOL    HW1 8219   4.618   5.898   6.094
 2440SOL    HW2 8220   4.604   5.826   5.948
 2441SOL     OW 8221   0.007   2.471   6.499
 2441SOL    HW1 8222   6.957   2.477   6.566
 2441SOL    HW2 8223   0.066   2.394   6.522
 2442SOL     OW 8224   1.150   4.183   5.503
 2442SOL    HW1 8225   1.050   4.176   5.507
 2442SOL    HW2 8226   1.191   4.095   5.526
 2443SOL     OW 8227   3.438   5.043   6.583
 2443SOL    HW1 8228   3.425   5.011   6.677
 2443SOL    HW2 8229   3.533   5.029   6.556
 2444SOL     OW 8230   2.783   5.113   6.533
 2444SOL    HW1 8231   2.702   5.170   6.544
 2444SOL    HW2 8232   2.807   5.106   6.436
 2445SOL     OW 8233   0.302   1.114   1.330
 2445SOL    HW1 8234   0.400   1.102   1.339
 2445SOL    HW2 8235   0.272   1.188   1.390
 2446SOL     OW 8236   6.065   3.873   4.261
 2446SOL    HW1 8237   6.117   3.900   4.343
 2446SOL    HW2 8238   6.075   3.775   4.246
 2447SOL     OW 8239   2.239   2.463   6.896
 2447SOL    HW1 8240   2.202   2.372   6.915
 2447SOL    HW2 8241   2.186   2.507   6.824
 2448SOL     OW 8242   0.616   0.375   4.463
 2448SOL    HW1 8243   0.560   0.457   4.474
 2448SOL    HW2 8244   0.709   0.393   4.497
 2449SOL     OW 8245   0.150   3.819   0.340
 2449SOL    HW1 8246   0.101   3.900   0.308
 2449SOL    HW2 8247   0.122   3.798   0.434
 2450SOL     OW 8248   2.474   4.445   3.236
 2450SOL    HW1 8249   2.478   4.508   3.158
 2450SOL    HW2 8250   2.524   4.484   3.313
 2451SOL     OW 8251   2.187   6.427   3.930
 2451SOL    HW1 8252   2.270   6.477   3.905
 2451SOL    HW2 8253   2.167   6.443   4.027
 2452SOL     OW 8254   1.567   3.486   3.147
 2452SOL    HW1 8255   1.645   3.516   3.092
 2452SOL    HW2 8256   1.573   3.388   3.164
 2453SOL     OW 8257   6.602   4.536   1.472
 2453SOL    HW1 8258   6.625   4.534   1.569
 2453SOL    HW2 8259   6.669   4.481   1.421
 2454SOL     OW 8260   3.081   0.446   2.778
 2454SOL    HW1 8261   3.058   0.370   2.839
 2454SOL    HW2 8262   3.165   0.489   2.809
 2455SOL     OW 8263   5.380   5.309   0.805
 2455SOL    HW1 8264   5.367   5.399   0.847
 2455SOL    HW2 8265   5.442   5.254   0.862
 2456SOL     OW 8266   5.097   6.203   2.041
 2456SOL    HW1 8267   5.149   6.279   2.004
 2456SOL    HW2 8268   5.004   6.233   2.062
 2457SOL     OW 8269   6.182   0.190   0.696
 2457SOL    HW1 8270   6.108   0.254   0.675
 2457SOL    HW2 8271   6.168   0.105   0.644
 2458SOL     OW 8272   2.403   6.137   3.124
 2458SOL    HW1 8273   2.356   6.224   3.106
 2458SOL    HW2 8274   2.501   6.153   3.132
 2459SOL     OW 8275   1.973   0.166   0.464
 2459SOL    HW1 8276   2.070   0.170   0.489
 2459SOL    HW2 8277   1.923   0.236   0.514
 2460SOL     OW 8278   2.594   5.976   2.376
 2460SOL    HW1 8279   2.496   5.965   2.364
 2460SOL    HW2 8280   2.628   5.908   2.441
 2461SOL     OW 8281   5.618   0.212   1.942
 2461SOL    HW1 8282   5.659   0.140   1.886
 2461SOL    HW2 8283   5.676   0.230   2.021
 2462SOL     OW 8284   2.270   5.173   6.941
 2462SOL    HW1 8285   2.360   5.184   6.900
 2462SOL    HW2 8286   2.206   5.241   6.903
 2463SOL     OW 8287   6.440   1.698   3.260
 2463SOL    HW1 8288   6.465   1.639   3.337
 2463SOL    HW2 8289   6.482   1.664   3.176
 2464SOL     OW 8290   0.998   3.641   1.191
 2464SOL    HW1 8291   0.986   3.551   1.149
 2464SOL    HW2 8292   1.003   3.630   1.291
 2465SOL     OW 8293   0.465   5.792   2.489
 2465SOL    HW1 8294   0.431   5.746   2.407
 2465SOL    HW2 8295   0.551   5.751   2.518
 2466SOL     OW 8296   4.089   2.002   2.855
 2466SOL    HW1 8297   4.040   1.926   2.811
 2466SOL    HW2 8298   4.024   2.057   2.908
 2467SOL     OW 8299   0.237   0.953   5.786
 2467SOL    HW1 8300   0.242   0.861   5.746
 2467SOL    HW2 8301   0.164   0.955   5.854
 2468SOL     OW 8302   0.114   6.297   1.747
 2468SOL    HW1 8303   0.158   6.278   1.835
 2468SOL    HW2 8304   0.017   6.275   1.753
 2469SOL     OW 8305   2.883   3.800   5.083
 2469SOL    HW1 8306   2.942   3.879   5.088
 2469SOL    HW2 8307   2.936   3.719   5.057
 2470SOL     OW 8308   3.754   3.732   6.662
 2470SOL    HW1 8309   3.670   3.743   6.610
 2470SOL    HW2 8310   3.756   3.640   6.703
 2471SOL     OW 8311   0.517   6.609   2.721
 2471SOL    HW1 8312   0.455   6.674   2.677
 2471SOL    HW2 8313   0.482   6.516   2.709
 2472SOL     OW 8314   5.434   2.769   4.066
 2472SOL    HW1 8315   5.511   2.707   4.075
 2472SOL    HW2 8316   5.445   2.825   3.984
 2473SOL     OW 8317   0.510   5.821   4.382
 2473SOL    HW1 8318   0.432   5.877   4.355
 2473SOL    HW2 8319   0.526   5.751   4.312
 2474SOL     OW 8320   6.844   5.075   5.405
 2474SOL    HW1 8321   6.823   5.145   5.337
 2474SOL    HW2 8322   6.911   5.011   5.368
 2475SOL     OW 8323   4.391   2.578   0.521
 2475SOL    HW1 8324   4.373   2.481   0.506
 2475SOL    HW2 8325   4.439   2.616   0.442
 2476SOL     OW 8326   0.923   1.757   3.406
 2476SOL    HW1 8327   0.913   1.721   3.313
 2476SOL    HW2 8328   0.996   1.824   3.409
 2477SOL     OW 8329   5.560   5.447   1.511
 2477SOL    HW1 8330   5.512   5.473   1.427
 2477SOL    HW2 8331   5.539   5.352   1.534
 2478SOL     OW 8332   5.903   6.679   2.555
 2478SOL    HW1 8333   5.990   6.710   2.516
 2478SOL    HW2 8334   5.831   6.742   2.527
 2479SOL     OW 8335   0.438   2.291   0.820
 2479SOL    HW1 8336   0.377   2.285   0.741
 2479SOL    HW2 8337   0.431   2.207   0.873
 2480SOL     OW 8338   6.821   3.598   1.216
 2480SOL    HW1 8339   6.873   3.638   1.290
 2480SOL    HW2 8340   6.726   3.583   1.246
 2481SOL     OW 8341   4.072   5.330   2.115
 2481SOL    HW1 8342   4.136   5.269   2.068
 2481SOL    HW2 8343   4.019   5.277   2.182
 2482SOL     OW 8344   5.477   3.184   5.214
 2482SOL    HW1 8345   5.471   3.086   5.232
 2482SOL    HW2 8346   5.402   3.231   5.259
 2483SOL     OW 8347   1.143   1.399   0.110
 2483SOL    HW1 8348   1.155   1.305   0.076
 2483SOL    HW2 8349   1.232   1.436   0.137
 2484SOL     OW 8350   3.283   1.336   0.444
 2484SOL    HW1 8351   3.379   1.310   0.433
 2484SOL    HW2 8352   3.272   1.433   0.423
 2485SOL     OW 8353   0.298   5.602   2.663
 2485SOL    HW1 8354   0.385   5.649   2.651
 2485SOL    HW2 8355   0.223   5.665   2.641
 2486SOL     OW 8356   1.722   5.534   2.916
 2486SOL    HW1 8357   1.746   5.624   2.952
 2486SOL    HW2 8358   1.797   5.501   2.858
 2487SOL     OW 8359   4.137   0.297   1.175
 2487SOL    HW1 8360   4.188   0.226   1.127
 2487SOL    HW2 8361   4.141   0.279   1.274
 2488SOL     OW 8362   2.593   5.187   1.686
 2488SOL    HW1 8363   2.634   5.115   1.630
 2488SOL    HW2 8364   2.649   5.203   1.767
 2489SOL     OW 8365   1.634   5.581   4.813
 2489SOL    HW1 8366   1.616   5.495   4.766
 2489SOL    HW2 8367   1.603   5.657   4.756
 2490SOL     OW 8368   6.226   3.882   0.706
 2490SOL    HW1 8369   6.176   3.899   0.791
 2490SOL    HW2 8370   6.225   3.784   0.686
 2491SOL     OW 8371   2.782   5.181   3.212
 2491SOL    HW1 8372   2.844   5.218   3.281
 2491SOL    HW2 8373   2.768   5.249   3.140
 2492SOL     OW 8374   4.771   3.064   6.390
 2492SOL    HW1 8375   4.868   3.071   6.411
 2492SOL    HW2 8376   4.719   3.123   6.452
 2493SOL     OW 8377   5.885   1.565   2.996
 2493SOL    HW1 8378   5.885   1.517   3.084
 2493SOL    HW2 8379   5.793   1.568   2.960
 2494SOL     OW 8380   4.692   2.827   2.456
 2494SOL    HW1 8381   4.636   2.747   2.476
 2494SOL    HW2 8382   4.732   2.818   2.365
 2495SOL     OW 8383   5.381   1.008   5.122
 2495SOL    HW1 8384   5.442   1.060   5.062
 2495SOL    HW2 8385   5.434   0.962   5.193
 2496SOL     OW 8386   1.080   6.037   6.814
 2496SOL    HW1 8387   1.144   6.088   6.871
 2496SOL    HW2 8388   0.994   6.026   6.864
 2497SOL     OW 8389   6.585   1.404   6.773
 2497SOL    HW1 8390   6.634   1.473   6.718
 2497SOL    HW2 8391   6.638   1.385   6.855
 2498SOL     OW 8392   1.906   2.782   4.683
 2498SOL    HW1 8393   1.940   2.834   4.762
 2498SOL    HW2 8394   1.947   2.691   4.683
 2499SOL     OW 8395   5.304   0.715   4.669
 2499SOL    HW1 8396   5.317   0.778   4.593
 2499SOL    HW2 8397   5.306   0.766   4.755
 2500SOL     OW 8398   4.596   2.877   6.396
 2500SOL    HW1 8399   4.671   2.944   6.401
 2500SOL    HW2 8400   4.519   2.909   6.452
 2501SOL     OW 8401   6.848   4.430   6.813
 2501SOL    HW1 8402   6.834   4.421   6.714
 2501SOL    HW2 8403   6.819   4.520   6.843
 2502SOL     OW 8404   2.526   0.019   2.816
 2502SOL    HW1 8405   2.534   7.021   2.718
 2502SOL    HW2 8406   2.511   0.117   2.827
 2503SOL     OW 8407   4.004   4.960   5.506
 2503SOL    HW1 8408   4.101   4.942   5.492
 2503SOL    HW2 8409   3.984   4.961   5.604
 2504SOL     OW 8410   1.647   4.864   4.265
 2504SOL    HW1 8411   1.665   4.770   4.236
 2504SOL    HW2 8412   1.596   4.863   4.350
 2505SOL     OW 8413   4.303   5.082   4.520
 2505SOL    HW1 8414   4.220   5.125   4.488
 2505SOL    HW2 8415   4.339   5.132   4.599
 2506SOL     OW 8416   6.792   2.577   6.342
 2506SOL    HW1 8417   6.747   2.607   6.258
 2506SOL    HW2 8418   6.872   2.521   6.319
 2507SOL     OW 8419   6.332   5.911   0.558
 2507SOL    HW1 8420   6.296   5.844   0.623
 2507SOL    HW2 8421   6.388   5.978   0.606
 2508SOL     OW 8422   2.615   2.349   2.246
 2508SOL    HW1 8423   2.599   2.255   2.276
 2508SOL    HW2 8424   2.704   2.380   2.278
 2509SOL     OW 8425   5.087   2.929   3.794
 2509SOL    HW1 8426   5.175   2.890   3.765
 2509SOL    HW2 8427   5.052   2.876   3.871
 2510SOL     OW 8428   3.931   5.403   0.820
 2510SOL    HW1 8429   3.879   5.482   0.786
 2510SOL    HW2 8430   3.874   5.351   0.883
 2511SOL     OW 8431   0.609   0.746   5.074
 2511SOL    HW1 8432   0.514   0.765   5.048
 2511SOL    HW2 8433   0.666   0.826   5.052
 2512SOL     OW 8434   5.127   3.658   4.735
 2512SOL    HW1 8435   5.030   3.658   4.756
 2512SOL    HW2 8436   5.146   3.727   4.665
 2513SOL     OW 8437   0.918   2.870   0.232
 2513SOL    HW1 8438   0.909   2.888   0.330
 2513SOL    HW2 8439   0.961   2.781   0.218
 2514SOL     OW 8440   1.524   1.050   4.114
 2514SOL    HW1 8441   1.621   1.069   4.103
 2514SOL    HW2 8442   1.472   1.098   4.043
 2515SOL     OW 8443   0.834   5.777   0.849
 2515SOL    HW1 8444   0.880   5.742   0.767
 2515SOL    HW2 8445   0.891   5.760   0.929
 2516SOL     OW 8446   5.873   6.138   3.497
 2516SOL    HW1 8447   5.891   6.056   3.552
 2516SOL    HW2 8448   5.776   6.161   3.502
 2517SOL     OW 8449   2.127   4.768   0.127
 2517SOL    HW1 8450   2.140   4.677   0.089
 2517SOL    HW2 8451   2.069   4.762   0.209
 2518SOL     OW 8452   2.419   2.740   6.685
 2518SOL    HW1 8453   2.384   2.756   6.593
 2518SOL    HW2 8454   2.438   2.828   6.729
 2519SOL     OW 8455   4.729   4.913   4.827
 2519SOL    HW1 8456   4.698   4.842   4.890
 2519SOL    HW2 8457   4.705   4.888   4.734
 2520SOL     OW 8458   2.405   4.064   1.795
 2520SOL    HW1 8459   2.479   4.029   1.737
 2520SOL    HW2 8460   2.385   4.159   1.769
 2521SOL     OW 8461   5.865   0.204   5.288
 2521SOL    HW1 8462   5.771   0.190   5.256
 2521SOL    HW2 8463   5.871   0.292   5.334
 2522SOL     OW 8464   0.530   3.219   4.552
 2522SOL    HW1 8465   0.505   3.165   4.633
 2522SOL    HW2 8466   0.628   3.240   4.555
 2523SOL     OW 8467   0.751   3.725   6.928
 2523SOL    HW1 8468   0.761   3.625   6.929
 2523SOL    HW2 8469   0.830   3.766   6.882
 2524SOL     OW 8470   1.687   6.343   3.912
 2524SOL    HW1 8471   1.743   6.350   3.829
 2524SOL    HW2 8472   1.688   6.431   3.961
 2525SOL     OW 8473   1.279   3.554   3.947
 2525SOL    HW1 8474   1.193   3.507   3.928
 2525SOL    HW2 8475   1.336   3.496   4.005
 2526SOL     OW 8476   0.039   1.468   4.062
 2526SOL    HW1 8477   0.037   1.563   4.032
 2526SOL    HW2 8478   7.010   1.459   4.147
 2527SOL     OW 8479   5.727   6.675   3.909
 2527SOL    HW1 8480   5.780   6.644   3.830
 2527SOL    HW2 8481   5.631   6.653   3.896
 2528SOL     OW 8482   6.223   6.004   0.042
 2528SOL    HW1 8483   6.264   6.094   0.023
 2528SOL    HW2 8484   6.281   5.954   0.106
 2529SOL     OW 8485   5.090   4.316   4.122
 2529SOL    HW1 8486   5.001   4.343   4.087
 2529SOL    HW2 8487   5.157   4.387   4.102
 2530SOL     OW 8488   1.092   0.755   3.738
 2530SOL    HW1 8489   1.018   0.765   3.671
 2530SOL    HW2 8490   1.169   0.708   3.695
 2531SOL     OW 8491   3.918   1.313   6.445
 2531SOL    HW1 8492   3.865   1.353   6.370
 2531SOL    HW2 8493   4.014   1.339   6.436
 2532SOL     OW 8494   1.073   4.665   6.773
 2532SOL    HW1 8495   1.012   4.591   6.743
 2532SOL    HW2 8496   1.148   4.675   6.709
 2533SOL     OW 8497   5.792   6.784   6.142
 2533SOL    HW1 8498   5.879   6.744   6.113
 2533SOL    HW2 8499   5.778   6.872   6.096
 2534SOL     OW 8500   1.216   1.311   3.062
 2534SOL    HW1 8501   1.167   1.266   3.137
 2534SOL    HW2 8502   1.303   1.347   3.096
 2535SOL     OW 8503   2.417   1.312   3.864
 2535SOL    HW1 8504   2.426   1.384   3.796
 2535SOL    HW2 8505   2.322   1.308   3.896
 2536SOL     OW 8506   5.943   0.857   3.814
 2536SOL    HW1 8507   5.894   0.783   3.769
 2536SOL    HW2 8508   5.895   0.944   3.799
 2537SOL     OW 8509   5.116   5.519   1.461
 2537SOL    HW1 8510   5.167   5.435   1.480
 2537SOL    HW2 8511   5.166   5.575   1.396
 2538SOL     OW 8512   2.128   4.761   4.499
 2538SOL    HW1 8513   2.221   4.748   4.464
 2538SOL    HW2 8514   2.074   4.810   4.431
 2539SOL     OW 8515   3.836   6.761   5.667
 2539SOL    HW1 8516   3.836   6.731   5.762
 2539SOL    HW2 8517   3.769   6.708   5.615
 2540SOL     OW 8518   5.620   1.451   2.010
 2540SOL    HW1 8519   5.527   1.480   2.030
 2540SOL    HW2 8520   5.659   1.508   1.938
 2541SOL     OW 8521   1.252   6.323   6.693
 2541SOL    HW1 8522   1.323   6.347   6.626
 2541SOL    HW2 8523   1.198   6.247   6.658
 2542SOL     OW 8524   3.239   2.161   4.642
 2542SOL    HW1 8525   3.285   2.250   4.646
 2542SOL    HW2 8526   3.273   2.103   4.716
 2543SOL     OW 8527   0.807   1.489   3.318
 2543SOL    HW1 8528   0.800   1.563   3.251
 2543SOL    HW2 8529   0.772   1.521   3.406
 2544SOL     OW 8530   6.440   5.175   1.509
 2544SOL    HW1 8531   6.354   5.198   1.555
 2544SOL    HW2 8532   6.492   5.111   1.565
 2545SOL     OW 8533   0.545   1.896   1.385
 2545SOL    HW1 8534   0.526   1.971   1.448
 2545SOL    HW2 8535   0.627   1.916   1.332
 2546SOL     OW 8536   7.012   3.897   1.777
 2546SOL    HW1 8537   6.971   3.983   1.810
 2546SOL    HW2 8538   0.076   3.883   1.823
 2547SOL     OW 8539   5.457   3.602   0.238
 2547SOL    HW1 8540   5.393   3.526   0.247
 2547SOL    HW2 8541   5.471   3.646   0.327
 2548SOL     OW 8542   6.822   6.947   5.265
 2548SOL    HW1 8543   6.907   6.909   5.227
 2548SOL    HW2 8544   6.835   6.968   5.361
 2549SOL     OW 8545   2.670   2.455   0.888
 2549SOL    HW1 8546   2.688   2.541   0.840
 2549SOL    HW2 8547   2.571   2.441   0.895
 2550SOL     OW 8548   4.431   6.783   6.497
 2550SOL    HW1 8549   4.495   6.810   6.425
 2550SOL    HW2 8550   4.400   6.864   6.545
 2551SOL     OW 8551   3.027   5.694   0.332
 2551SOL    HW1 8552   3.070   5.777   0.295
 2551SOL    HW2 8553   2.932   5.690   0.301
 2552SOL     OW 8554   2.105   5.916   0.858
 2552SOL    HW1 8555   2.059   5.922   0.770
 2552SOL    HW2 8556   2.120   5.820   0.882
 2553SOL     OW 8557   4.364   1.424   6.811
 2553SOL    HW1 8558   4.282   1.447   6.759
 2553SOL    HW2 8559   4.341   1.409   6.907
 2554SOL     OW 8560   1.618   5.565   1.391
 2554SOL    HW1 8561   1.536   5.598   1.438
 2554SOL    HW2 8562   1.689   5.545   1.459
 2555SOL     OW 8563   5.809   6.095   5.219
 2555SOL    HW1 8564   5.729   6.153   5.236
 2555SOL    HW2 8565   5.891   6.152   5.218
 2556SOL     OW 8566   4.105   6.617   1.514
 2556SOL    HW1 8567   4.159   6.666   1.582
 2556SOL    HW2 8568   4.037   6.679   1.475
 2557SOL     OW 8569   4.088   6.994   0.064
 2557SOL    HW1 8570   4.008   7.009   0.005
 2557SOL    HW2 8571   4.087   6.900   0.098
 2558SOL     OW 8572   5.902   4.059   6.403
 2558SOL    HW1 8573   5.846   4.137   6.375
 2558SOL    HW2 8574   5.992   4.065   6.360
 2559SOL     OW 8575   1.201   4.510   4.016
 2559SOL    HW1 8576   1.138   4.459   4.074
 2559SOL    HW2 8577   1.276   4.450   3.987
 2560SOL     OW 8578   4.963   1.884   3.609
 2560SOL    HW1 8579   4.866   1.863   3.627
 2560SOL    HW2 8580   4.969   1.958   3.543
 2561SOL     OW 8581   3.188   0.388   4.652
 2561SOL    HW1 8582   3.149   0.385   4.560
 2561SOL    HW2 8583   3.279   0.346   4.651
 2562SOL     OW 8584   3.314   0.196   3.772
 2562SOL    HW1 8585   3.295   0.258   3.696
 2562SOL    HW2 8586   3.307   0.246   3.858
 2563SOL     OW 8587   3.585   1.278   0.387
 2563SOL    HW1 8588   3.657   1.313   0.447
 2563SOL    HW2 8589   3.610   1.186   0.356
 2564SOL     OW 8590   1.576   1.536   0.539
 2564SOL    HW1 8591   1.638   1.510   0.613
 2564SOL    HW2 8592   1.627   1.542   0.453
 2565SOL     OW 8593   1.528   2.313   6.636
 2565SOL    HW1 8594   1.502   2.218   6.621
 2565SOL    HW2 8595   1.481   2.371   6.569
 2566SOL     OW 8596   2.552   0.726   1.092
 2566SOL    HW1 8597   2.649   0.746   1.105
 2566SOL    HW2 8598   2.540   0.671   1.009
 2567SOL     OW 8599   1.395   0.286   0.431
 2567SOL    HW1 8600   1.478   0.241   0.399
 2567SOL    HW2 8601   1.417   0.376   0.468
 2568SOL     OW 8602   2.913   6.417   1.487
 2568SOL    HW1 8603   2.885   6.410   1.583
 2568SOL    HW2 8604   2.833   6.437   1.431
 2569SOL     OW 8605   0.569   1.142   1.599
 2569SOL    HW1 8606   0.596   1.205   1.526
 2569SOL    HW2 8607   0.644   1.134   1.665
 2570SOL     OW 8608   5.494   6.379   6.550
 2570SOL    HW1 8609   5.467   6.296   6.502
 2570SOL    HW2 8610   5.495   6.362   6.649
 2571SOL     OW 8611   3.597   3.169   4.676
 2571SOL    HW1 8612   3.695   3.151   4.675
 2571SOL    HW2 8613   3.578   3.250   4.731
 2572SOL     OW 8614   1.951   6.244   1.558
 2572SOL    HW1 8615   1.893   6.317   1.521
 2572SOL    HW2 8616   2.000   6.277   1.638
 2573SOL     OW 8617   6.706   2.171   3.848
 2573SOL    HW1 8618   6.760   2.230   3.788
 2573SOL    HW2 8619   6.634   2.127   3.795
 2574SOL     OW 8620   0.368   3.967   1.511
 2574SOL    HW1 8621   0.354   3.931   1.418
 2574SOL    HW2 8622   0.362   4.066   1.509
 2575SOL     OW 8623   5.801   3.918   0.323
 2575SOL    HW1 8624   5.851   3.994   0.366
 2575SOL    HW2 8625   5.862   3.839   0.316
 2576SOL     OW 8626   2.509   6.857   3.221
 2576SOL    HW1 8627   2.443   6.865   3.146
 2576SOL    HW2 8628   2.485   6.779   3.278
 2577SOL     OW 8629   2.641   6.724   2.735
 2577SOL    HW1 8630   2.604   6.815   2.751
 2577SOL    HW2 8631   2.741   6.728   2.736
 2578SOL     OW 8632   5.317   2.917   4.879
 2578SOL    HW1 8633   5.251   2.901   4.805
 2578SOL    HW2 8634   5.402   2.868   4.857
 2579SOL     OW 8635   0.321   2.548   6.757
 2579SOL    HW1 8636   0.384   2.570   6.682
 2579SOL    HW2 8637   0.281   2.458   6.741
 2580SOL     OW 8638   1.689   2.938   6.830
 2580SOL    HW1 8639   1.720   2.965   6.921
 2580SOL    HW2 8640   1.605   2.987   6.808
 2581SOL     OW 8641   5.924   5.884   2.863
 2581SOL    HW1 8642   5.955   5.872   2.957
 2581SOL    HW2 8643   5.833   5.843   2.853
 2582SOL     OW 8644   0.854   5.373   2.361
 2582SOL    HW1 8645   0.861   5.273   2.364
 2582SOL    HW2 8646   0.934   5.413   2.405
 2583SOL     OW 8647   1.213   0.144   0.558
 2583SOL    HW1 8648   1.225   0.045   0.560
 2583SOL    HW2 8649   1.279   0.185   0.495
 2584SOL     OW 8650   3.833   6.043   1.169
 2584SOL    HW1 8651   3.919   6.036   1.219
 2584SOL    HW2 8652   3.757   6.049   1.233
 2585SOL     OW 8653   3.535   0.416   1.322
 2585SOL    HW1 8654   3.520   0.513   1.305
 2585SOL    HW2 8655   3.627   0.391   1.294
 2586SOL     OW 8656   6.241   2.097   3.837
 2586SOL    HW1 8657   6.163   2.044   3.803
 2586SOL    HW2 8658   6.229   2.193   3.812
 2587SOL     OW 8659   5.937   6.246   4.132
 2587SOL    HW1 8660   6.030   6.219   4.107
 2587SOL    HW2 8661   5.873   6.173   4.108
 2588SOL     OW 8662   5.446   0.262   1.723
 2588SOL    HW1 8663   5.491   0.255   1.813
 2588SOL    HW2 8664   5.450   0.173   1.677
 2589SOL     OW 8665   6.543   6.515   5.655
 2589SOL    HW1 8666   6.605   6.484   5.728
 2589SOL    HW2 8667   6.448   6.496   5.682
 2590SOL     OW 8668   4.758   6.606   3.242
 2590SOL    HW1 8669   4.698   6.531   3.270
 2590SOL    HW2 8670   4.831   6.617   3.310
 2591SOL     OW 8671   5.097   5.888   2.006
 2591SOL    HW1 8672   5.115   5.985   1.991
 2591SOL    HW2 8673   5.003   5.876   2.038
 2592SOL     OW 8674   3.382   5.561   1.819
 2592SOL    HW1 8675   3.318   5.638   1.822
 2592SOL    HW2 8676   3.341   5.483   1.867
 2593SOL     OW 8677   3.489   6.541   2.484
 2593SOL    HW1 8678   3.550   6.612   2.448
 2593SOL    HW2 8679   3.471   6.474   2.412
 2594SOL     OW 8680   0.160   6.707   6.522
 2594SOL    HW1 8681   0.092   6.640   6.491
 2594SOL    HW2 8682   0.136   6.738   6.614
 2595SOL     OW 8683   6.137   3.269   4.809
 2595SOL    HW1 8684   6.050   3.283   4.761
 2595SOL    HW2 8685   6.171   3.177   4.788
 2596SOL     OW 8686   4.031   2.188   1.974
 2596SOL    HW1 8687   4.088   2.222   2.048
 2596SOL    HW2 8688   3.940   2.228   1.980
 2597SOL     OW 8689   2.321   3.812   0.622
 2597SOL    HW1 8690   2.382   3.767   0.686
 2597SOL    HW2 8691   2.349   3.908   0.610
 2598SOL     OW 8692   6.725   2.970   3.576
 2598SOL    HW1 8693   6.751   2.912   3.499
 2598SOL    HW2 8694   6.699   3.061   3.542
 2599SOL     OW 8695   3.789   5.561   0.416
 2599SOL    HW1 8696   3.860   5.522   0.474
 2599SOL    HW2 8697   3.826   5.579   0.325
 2600SOL     OW 8698   5.956   3.443   3.166
 2600SOL    HW1 8699   6.013   3.398   3.097
 2600SOL    HW2 8700   6.011   3.462   3.247
 2601SOL     OW 8701   3.688   3.811   6.172
 2601SOL    HW1 8702   3.763   3.852   6.119
 2601SOL    HW2 8703   3.615   3.783   6.110
 2602SOL     OW 8704   6.674   5.157   4.169
 2602SOL    HW1 8705   6.768   5.189   4.171
 2602SOL    HW2 8706   6.672   5.057   4.180
 2603SOL     OW 8707   3.018   2.086   1.262
 2603SOL    HW1 8708   2.953   2.050   1.328
 2603SOL    HW2 8709   3.012   2.186   1.260
 2604SOL     OW 8710   5.457   0.942   1.367
 2604SOL    HW1 8711   5.392   0.867   1.379
 2604SOL    HW2 8712   5.526   0.939   1.439
 2605SOL     OW 8713   4.258   4.782   4.758
 2605SOL    HW1 8714   4.326   4.854   4.743
 2605SOL    HW2 8715   4.196   4.810   4.832
 2606SOL     OW 8716   6.444   4.449   0.423
 2606SOL    HW1 8717   6.391   4.395   0.358
 2606SOL    HW2 8718   6.540   4.448   0.397
 2607SOL     OW 8719   1.017   0.580   3.118
 2607SOL    HW1 8720   0.949   0.629   3.064
 2607SOL    HW2 8721   1.086   0.644   3.151
 2608SOL     OW 8722   5.330   0.721   1.471
 2608SOL    HW1 8723   5.367   0.628   1.472
 2608SOL    HW2 8724   5.328   0.757   1.565
 2609SOL     OW 8725   0.790   2.139   2.678
 2609SOL    HW1 8726   0.870   2.172   2.627
 2609SOL    HW2 8727   0.802   2.043   2.700
 2610SOL     OW 8728   6.251   5.551   5.050
 2610SOL    HW1 8729   6.325   5.586   5.108
 2610SOL    HW2 8730   6.215   5.467   5.089
 2611SOL     OW 8731   5.381   6.410   1.340
 2611SOL    HW1 8732   5.433   6.348   1.281
 2611SOL    HW2 8733   5.291   6.370   1.358
 2612SOL     OW 8734   5.619   6.678   3.544
 2612SOL    HW1 8735   5.579   6.629   3.466
 2612SOL    HW2 8736   5.716   6.694   3.527
 2613SOL     OW 8737   3.815   0.466   2.215
 2613SOL    HW1 8738   3.851   0.373   2.214
 2613SOL    HW2 8739   3.794   0.495   2.122
 2614SOL     OW 8740   6.372   6.564   6.005
 2614SOL    HW1 8741   6.471   6.573   5.992
 2614SOL    HW2 8742   6.325   6.638   5.957
 2615SOL     OW 8743   5.070   4.619   2.494
 2615SOL    HW1 8744   5.068   4.690   2.423
 2615SOL    HW2 8745   5.095   4.532   2.453
 2616SOL     OW 8746   3.952   3.023   3.053
 2616SOL    HW1 8747   4.017   3.039   3.128
 2616SOL    HW2 8748   3.891   2.947   3.079
 2617SOL     OW 8749   3.583   6.261   1.111
 2617SOL    HW1 8750   3.486   6.263   1.083
 2617SOL    HW2 8751   3.592   6.210   1.196
 2618SOL     OW 8752   0.181   0.503   0.951
 2618SOL    HW1 8753   0.176   0.589   1.002
 2618SOL    HW2 8754   0.244   0.441   0.996
 2619SOL     OW 8755   4.318   1.980   2.182
 2619SOL    HW1 8756   4.409   2.010   2.155
 2619SOL    HW2 8757   4.293   1.898   2.130
 2620SOL     OW 8758   1.077   5.076   3.620
 2620SOL    HW1 8759   1.109   5.042   3.708
 2620SOL    HW2 8760   0.979   5.096   3.626
 2621SOL     OW 8761   0.809   6.093   3.968
 2621SOL    HW1 8762   0.904   6.122   3.955
 2621SOL    HW2 8763   0.782   6.110   4.063
 2622SOL     OW 8764   2.549   2.978   6.749
 2622SOL    HW1 8765   2.486   3.042   6.706
 2622SOL    HW2 8766   2.643   3.009   6.736
 2623SOL     OW 8767   3.635   1.154   5.750
 2623SOL    HW1 8768   3.698   1.182   5.823
 2623SOL    HW2 8769   3.655   1.206   5.667
 2624SOL     OW 8770   5.841   2.602   3.205
 2624SOL    HW1 8771   5.863   2.552   3.121
 2624SOL    HW2 8772   5.743   2.597   3.222
 2625SOL     OW 8773   2.746   2.893   5.620
 2625SOL    HW1 8774   2.818   2.961   5.636
 2625SOL    HW2 8775   2.767   2.840   5.538
 2626SOL     OW 8776   2.123   6.682   3.228
 2626SOL    HW1 8777   2.178   6.685   3.145
 2626SOL    HW2 8778   2.121   6.774   3.269
 2627SOL     OW 8779   0.258   0.190   4.709
 2627SOL    HW1 8780   0.358   0.193   4.722
 2627SOL    HW2 8781   0.220   0.280   4.726
 2628SOL     OW 8782   3.816   6.618   0.127
 2628SOL    HW1 8783   3.736   6.561   0.113
 2628SOL    HW2 8784   3.899   6.562   0.120
 2629SOL     OW 8785   3.897   4.105   1.450
 2629SOL    HW1 8786   3.840   4.031   1.411
 2629SOL    HW2 8787   3.922   4.169   1.377
 2630SOL     OW 8788   3.685   1.530   1.989
 2630SOL    HW1 8789   3.713   1.549   2.083
 2630SOL    HW2 8790   3.591   1.497   1.989
 2631SOL     OW 8791   4.709   6.618   4.218
 2631SOL    HW1 8792   4.805   6.635   4.239
 2631SOL    HW2 8793   4.680   6.532   4.259
 2632SOL     OW 8794   3.274   1.528   7.009
 2632SOL    HW1 8795   3.360   1.578   7.016
 2632SOL    HW2 8796   3.198   1.590   0.002
 2633SOL     OW 8797   5.996   2.594   6.588
 2633SOL    HW1 8798   5.943   2.662   6.639
 2633SOL    HW2 8799   6.089   2.628   6.573
 2634SOL     OW 8800   1.542   4.087   1.486
 2634SOL    HW1 8801   1.536   4.084   1.585
 2634SOL    HW2 8802   1.545   4.183   1.456
 2635SOL     OW 8803   5.475   5.201   4.261
 2635SOL    HW1 8804   5.400   5.171   4.202
 2635SOL    HW2 8805   5.554   5.142   4.245
 2636SOL     OW 8806   5.014   0.345   6.021
 2636SOL    HW1 8807   5.070   0.324   5.941
 2636SOL    HW2 8808   5.051   0.297   6.101
 2637SOL     OW 8809   5.399   6.513   3.409
 2637SOL    HW1 8810   5.363   6.423   3.432
 2637SOL    HW2 8811   5.414   6.520   3.310
 2638SOL     OW 8812   5.519   6.180   0.861
 2638SOL    HW1 8813   5.476   6.119   0.928
 2638SOL    HW2 8814   5.456   6.195   0.785
 2639SOL     OW 8815   5.856   6.781   1.267
 2639SOL    HW1 8816   5.841   6.701   1.325
 2639SOL    HW2 8817   5.952   6.811   1.275
 2640SOL     OW 8818   7.001   6.304   5.172
 2640SOL    HW1 8819   6.973   6.208   5.169
 2640SOL    HW2 8820   0.069   6.312   5.211
 2641SOL     OW 8821   5.204   4.010   6.304
 2641SOL    HW1 8822   5.197   4.080   6.374
 2641SOL    HW2 8823   5.130   4.022   6.237
 2642SOL     OW 8824   4.691   0.346   3.995
 2642SOL    HW1 8825   4.716   0.252   4.016
 2642SOL    HW2 8826   4.601   0.365   4.034
 2643SOL     OW 8827   0.094   6.723   3.321
 2643SOL    HW1 8828   0.092   6.721   3.221
 2643SOL    HW2 8829   0.010   6.767   3.355
 2644SOL     OW 8830   0.727   5.116   5.556
 2644SOL    HW1 8831   0.727   5.106   5.655
 2644SOL    HW2 8832   0.636   5.092   5.520
 2645SOL     OW 8833   5.448   6.410   5.991
 2645SOL    HW1 8834   5.438   6.335   6.056
 2645SOL    HW2 8835   5.432   6.497   6.038
 2646SOL     OW 8836   0.195   0.168   6.437
 2646SOL    HW1 8837   0.212   0.258   6.396
 2646SOL    HW2 8838   0.208   0.174   6.536
 2647SOL     OW 8839   4.285   1.901   1.048
 2647SOL    HW1 8840   4.187   1.902   1.026
 2647SOL    HW2 8841   4.338   1.899   0.964
 2648SOL     OW 8842   5.949   0.186   2.326
 2648SOL    HW1 8843   6.001   0.104   2.350
 2648SOL    HW2 8844   5.938   0.191   2.227
 2649SOL     OW 8845   3.335   1.459   6.212
 2649SOL    HW1 8846   3.265   1.391   6.235
 2649SOL    HW2 8847   3.311   1.505   6.126
 2650SOL     OW 8848   0.307   5.108   3.532
 2650SOL    HW1 8849   0.235   5.086   3.466
 2650SOL    HW2 8850   0.278   5.184   3.590
 2651SOL     OW 8851   0.139   1.420   2.038
 2651SOL    HW1 8852   0.136   1.326   2.005
 2651SOL    HW2 8853   0.116   1.422   2.135
 2652SOL     OW 8854   2.891   3.326   2.991
 2652SOL    HW1 8855   2.826   3.356   2.921
 2652SOL    HW2 8856   2.958   3.399   3.007
 2653SOL     OW 8857   5.814   7.009   5.990
 2653SOL    HW1 8858   5.764   0.065   6.024
 2653SOL    HW2 8859   5.880   0.014   5.920
 2654SOL     OW 8860   5.126   1.803   6.130
 2654SOL    HW1 8861   5.140   1.859   6.212
 2654SOL    HW2 8862   5.145   1.858   6.049
 2655SOL     OW 8863   4.195   6.066   4.549
 2655SOL    HW1 8864   4.273   6.126   4.568
 2655SOL    HW2 8865   4.132   6.068   4.627
 2656SOL     OW 8866   5.517   3.749   3.524
 2656SOL    HW1 8867   5.506   3.848   3.531
 2656SOL    HW2 8868   5.614   3.726   3.534
 2657SOL     OW 8869   1.808   4.403   6.785
 2657SOL    HW1 8870   1.722   4.417   6.834
 2657SOL    HW2 8871   1.835   4.307   6.791
 2658SOL     OW 8872   6.060   4.030   5.685
 2658SOL    HW1 8873   5.992   4.104   5.677
 2658SOL    HW2 8874   6.035   3.971   5.762
 2659SOL     OW 8875   6.732   2.630   4.899
 2659SOL    HW1 8876   6.700   2.549   4.948
 2659SOL    HW2 8877   6.663   2.658   4.832
 2660SOL     OW 8878   6.366   2.255   2.418
 2660SOL    HW1 8879   6.420   2.173   2.405
 2660SOL    HW2 8880   6.280   2.247   2.368
 2661SOL     OW 8881   3.498   5.653   1.257
 2661SOL    HW1 8882   3.535   5.733   1.211
 2661SOL    HW2 8883   3.411   5.676   1.300
 2662SOL     OW 8884   4.318   6.399   5.043
 2662SOL    HW1 8885   4.393   6.376   5.106
 2662SOL    HW2 8886   4.231   6.380   5.088
 2663SOL     OW 8887   2.147   4.938   2.228
 2663SOL    HW1 8888   2.245   4.925   2.215
 2663SOL    HW2 8889   2.104   4.956   2.140
 2664SOL     OW 8890   3.988   3.820   2.756
 2664SOL    HW1 8891   3.990   3.769   2.842
 2664SOL    HW2 8892   3.952   3.912   2.772
 2665SOL     OW 8893   3.636   1.268   5.497
 2665SOL    HW1 8894   3.551   1.216   5.494
 2665SOL    HW2 8895   3.650   1.313   5.408
 2666SOL     OW 8896   4.907   4.107   1.051
 2666SOL    HW1 8897   4.970   4.079   1.123
 2666SOL    HW2 8898   4.954   4.170   0.989
 2667SOL     OW 8899   1.703   6.003   4.951
 2667SOL    HW1 8900   1.665   6.065   5.020
 2667SOL    HW2 8901   1.798   6.027   4.934
 2668SOL     OW 8902   6.884   3.390   5.184
 2668SOL    HW1 8903   6.833   3.367   5.267
 2668SOL    HW2 8904   6.836   3.462   5.134
 2669SOL     OW 8905   4.499   5.361   5.495
 2669SOL    HW1 8906   4.422   5.358   5.432
 2669SOL    HW2 8907   4.519   5.456   5.520
 2670SOL     OW 8908   0.840   1.046   0.280
 2670SOL    HW1 8909   0.805   1.083   0.194
 2670SOL    HW2 8910   0.913   1.106   0.314
 2671SOL     OW 8911   2.453   4.196   6.638
 2671SOL    HW1 8912   2.419   4.282   6.675
 2671SOL    HW2 8913   2.403   4.173   6.554
 2672SOL     OW 8914   1.874   5.167   0.293
 2672SOL    HW1 8915   1.859   5.205   0.201
 2672SOL    HW2 8916   1.961   5.200   0.329
 2673SOL     OW 8917   3.975   2.030   3.221
 2673SOL    HW1 8918   3.997   1.938   3.189
 2673SOL    HW2 8919   3.938   2.025   3.313
 2674SOL     OW 8920   0.192   5.259   4.449
 2674SOL    HW1 8921   0.130   5.188   4.484
 2674SOL    HW2 8922   0.260   5.280   4.519
 2675SOL     OW 8923   0.357   4.479   5.463
 2675SOL    HW1 8924   0.272   4.436   5.433
 2675SOL    HW2 8925   0.430   4.411   5.465
 2676SOL     OW 8926   4.489   1.642   1.967
 2676SOL    HW1 8927   4.543   1.626   1.883
 2676SOL    HW2 8928   4.482   1.557   2.019
 2677SOL     OW 8929   1.611   4.503   1.630
 2677SOL    HW1 8930   1.649   4.573   1.570
 2677SOL    HW2 8931   1.592   4.421   1.577
 2678SOL     OW 8932   1.084   5.104   6.211
 2678SOL    HW1 8933   1.036   5.037   6.267
 2678SOL    HW2 8934   1.128   5.172   6.270
 2679SOL     OW 8935   3.479   5.103   0.875
 2679SOL    HW1 8936   3.450   5.125   0.968
 2679SOL    HW2 8937   3.507   5.187   0.828
 2680SOL     OW 8938   2.175   1.545   0.721
 2680SOL    HW1 8939   2.090   1.594   0.736
 2680SOL    HW2 8940   2.243   1.607   0.681
 2681SOL     OW 8941   0.794   3.277   4.462
 2681SOL    HW1 8942   0.888   3.257   4.490
 2681SOL    HW2 8943   0.784   3.375   4.445
 2682SOL     OW 8944   5.248   2.958   2.132
 2682SOL    HW1 8945   5.226   2.922   2.041
 2682SOL    HW2 8946   5.182   2.925   2.199
 2683SOL     OW 8947   0.688   5.280   1.177
 2683SOL    HW1 8948   0.756   5.206   1.172
 2683SOL    HW2 8949   0.651   5.284   1.270
 2684SOL     OW 8950   3.619   6.735   3.015
 2684SOL    HW1 8951   3.624   6.636   3.009
 2684SOL    HW2 8952   3.611   6.763   3.111
 2685SOL     OW 8953   5.392   6.084   4.784
 2685SOL    HW1 8954   5.475   6.027   4.788
 2685SOL    HW2 8955   5.384   6.124   4.692
 2686SOL     OW 8956   2.358   2.767   4.211
 2686SOL    HW1 8957   2.427   2.820   4.260
 2686SOL    HW2 8958   2.373   2.670   4.227
 2687SOL     OW 8959   3.864   5.151   2.254
 2687SOL    HW1 8960   3.917   5.192   2.328
 2687SOL    HW2 8961   3.798   5.086   2.293
 2688SOL     OW 8962   4.776   4.731   6.476
 2688SOL    HW1 8963   4.875   4.728   6.489
 2688SOL    HW2 8964   4.735   4.787   6.549
 2689SOL     OW 8965   1.103   2.515   3.195
 2689SOL    HW1 8966   1.038   2.495   3.268
 2689SOL    HW2 8967   1.054   2.531   3.109
 2690SOL     OW 8968   3.779   2.931   3.799
 2690SOL    HW1 8969   3.747   2.949   3.892
 2690SOL    HW2 8970   3.700   2.919   3.739
 2691SOL     OW 8971   1.856   5.260   2.304
 2691SOL    HW1 8972   1.880   5.172   2.345
 2691SOL    HW2 8973   1.828   5.246   2.209
 2692SOL     OW 8974   0.060   5.638   3.971
 2692SOL    HW1 8975   0.140   5.661   3.916
 2692SOL    HW2 8976   0.088   5.582   4.049
 2693SOL     OW 8977   1.820   3.609   3.772
 2693SOL    HW1 8978   1.761   3.687   3.792
 2693SOL    HW2 8979   1.772   3.524   3.793
 2694SOL     OW 8980   3.090   0.201   3.426
 2694SOL    HW1 8981   2.998   0.173   3.398
 2694SOL    HW2 8982   3.125   0.268   3.361
 2695SOL     OW 8983   5.051   1.914   2.704
 2695SOL    HW1 8984   5.014   1.884   2.792
 2695SOL    HW2 8985   5.127   1.977   2.720
 2696SOL     OW 8986   3.622   3.754   5.723
 2696SOL    HW1 8987   3.718   3.725   5.720
 2696SOL    HW2 8988   3.572   3.708   5.649
 2697SOL     OW 8989   4.054   2.260   3.855
 2697SOL    HW1 8990   4.003   2.317   3.791
 2697SOL    HW2 8991   3.991   2.199   3.903
 2698SOL     OW 8992   0.801   4.052   0.529
 2698SOL    HW1 8993   0.798   4.016   0.622
 2698SOL    HW2 8994   0.714   4.033   0.484
 2699SOL     OW 8995   3.651   5.444   1.355
 2699SOL    HW1 8996   3.643   5.448   1.455
 2699SOL    HW2 8997   3.622   5.531   1.316
 2700SOL     OW 8998   1.948   3.694   2.634
 2700SOL    HW1 8999   1.851   3.718   2.636
 2700SOL    HW2 9000   2.002   3.765   2.680
 2701SOL     OW 9001   3.183   0.143   6.427
 2701SOL    HW1 9002   3.240   0.208   6.477
 2701SOL    HW2 9003   3.214   0.050   6.446
 2702SOL     OW 9004   0.102   1.386   2.972
 2702SOL    HW1 9005   0.120   1.346   2.882
 2702SOL    HW2 9006   0.106   1.315   3.041
 2703SOL     OW 9007   2.885   1.960   2.584
 2703SOL    HW1 9008   2.916   1.905   2.506
 2703SOL    HW2 9009   2.872   2.055   2.555
 2704SOL     OW 9010   2.756   5.237   1.964
 2704SOL    HW1 9011   2.831   5.175   1.940
 2704SOL    HW2 9012   2.793   5.322   2.001
 2705SOL     OW 9013   6.270   5.830   3.699
 2705SOL    HW1 9014   6.188   5.870   3.740
 2705SOL    HW2 9015   6.311   5.896   3.636
 2706SOL     OW 9016   6.843   1.429   2.073
 2706SOL    HW1 9017   6.856   1.354   2.138
 2706SOL    HW2 9018   6.847   1.516   2.121
 2707SOL     OW 9019   1.907   2.042   6.699
 2707SOL    HW1 9020   1.904   1.992   6.612
 2707SOL    HW2 9021   1.964   1.992   6.764
 2708SOL     OW 9022   2.060   2.567   2.085
 2708SOL    HW1 9023   2.004   2.598   2.008
 2708SOL    HW2 9024   2.101   2.478   2.063
 2709SOL     OW 9025   5.383   6.022   1.020
 2709SOL    HW1 9026   5.374   6.043   1.117
 2709SOL    HW2 9027   5.340   5.934   1.000
 2710SOL     OW 9028   6.957   3.693   2.427
 2710SOL    HW1 9029   6.990   3.641   2.348
 2710SOL    HW2 9030   6.869   3.735   2.405
 2711SOL     OW 9031   1.225   0.437   1.758
 2711SOL    HW1 9032   1.294   0.495   1.802
 2711SOL    HW2 9033   1.268   0.352   1.727
 2712SOL     OW 9034   2.261   4.397   0.559
 2712SOL    HW1 9035   2.266   4.471   0.626
 2712SOL    HW2 9036   2.203   4.424   0.483
 2713SOL     OW 9037   2.221   3.233   5.263
 2713SOL    HW1 9038   2.266   3.152   5.227
 2713SOL    HW2 9039   2.199   3.296   5.188
 2714SOL     OW 9040   4.977   0.966   5.731
 2714SOL    HW1 9041   4.898   0.959   5.792
 2714SOL    HW2 9042   4.962   1.039   5.665
 2715SOL     OW 9043   5.257   1.955   0.080
 2715SOL    HW1 9044   5.213   2.045   0.072
 2715SOL    HW2 9045   5.199   1.895   0.134
 2716SOL     OW 9046   6.633   5.426   2.421
 2716SOL    HW1 9047   6.566   5.363   2.382
 2716SOL    HW2 9048   6.628   5.514   2.373
 2717SOL     OW 9049   0.992   6.549   2.621
 2717SOL    HW1 9050   0.973   6.611   2.697
 2717SOL    HW2 9051   0.909   6.540   2.565
 2718SOL     OW 9052   1.878   3.853   4.241
 2718SOL    HW1 9053   1.945   3.925   4.258
 2718SOL    HW2 9054   1.887   3.781   4.309
 2719SOL     OW 9055   4.380   5.022   2.579
 2719SOL    HW1 9056   4.444   5.029   2.503
 2719SOL    HW2 9057   4.287   5.015   2.543
 2720SOL     OW 9058   2.060   6.181   4.008
 2720SOL    HW1 9059   2.139   6.120   4.007
 2720SOL    HW2 9060   2.065   6.244   3.931
 2721SOL     OW 9061   2.637   0.286   4.625
 2721SOL    HW1 9062   2.735   0.305   4.631
 2721SOL    HW2 9063   2.623   0.188   4.611
 2722SOL     OW 9064   0.368   5.589   3.349
 2722SOL    HW1 9065   0.375   5.662   3.280
 2722SOL    HW2 9066   0.448   5.591   3.408
 2723SOL     OW 9067   1.888   1.204   5.689
 2723SOL    HW1 9068   1.894   1.175   5.593
 2723SOL    HW2 9069   1.800   1.249   5.705
 2724SOL     OW 9070   3.536   5.714   6.910
 2724SOL    HW1 9071   3.447   5.693   6.870
 2724SOL    HW2 9072   3.531   5.707   7.009
 2725SOL     OW 9073   4.614   4.855   2.660
 2725SOL    HW1 9074   4.520   4.846   2.626
 2725SOL    HW2 9075   4.630   4.948   2.692
 2726SOL     OW 9076   4.578   4.565   1.610
 2726SOL    HW1 9077   4.540   4.616   1.687
 2726SOL    HW2 9078   4.631   4.488   1.645
 2727SOL     OW 9079   0.778   4.785   2.759
 2727SOL    HW1 9080   0.704   4.767   2.694
 2727SOL    HW2 9081   0.783   4.883   2.777
 2728SOL     OW 9082   2.822   6.704   5.340
 2728SOL    HW1 9083   2.797   6.692   5.435
 2728SOL    HW2 9084   2.747   6.748   5.291
 2729SOL     OW 9085   6.523   4.802   3.242
 2729SOL    HW1 9086   6.443   4.792   3.301
 2729SOL    HW2 9087   6.581   4.721   3.251
 2730SOL     OW 9088   2.412   0.015   0.430
 2730SOL    HW1 9089   2.371   0.091   0.480
 2730SOL    HW2 9090   2.456   6.976   0.495
 2731SOL     OW 9091   2.954   3.801   1.839
 2731SOL    HW1 9092   2.986   3.888   1.878
 2731SOL    HW2 9093   3.014   3.727   1.870
 2732SOL     OW 9094   5.728   2.739   2.160
 2732SOL    HW1 9095   5.664   2.796   2.211
 2732SOL    HW2 9096   5.792   2.798   2.110
 2733SOL     OW 9097   1.020   7.011   5.437
 2733SOL    HW1 9098   1.118   6.999   5.452
 2733SOL    HW2 9099   1.005   0.065   5.376
 2734SOL     OW 9100   2.125   6.311   3.634
 2734SOL    HW1 9101   2.143   6.230   3.690
 2734SOL    HW2 9102   2.208   6.367   3.629
 2735SOL     OW 9103   1.411   4.612   2.550
 2735SOL    HW1 9104   1.381   4.641   2.460
 2735SOL    HW2 9105   1.504   4.644   2.567
 2736SOL     OW 9106   3.902   0.296   5.170
 2736SOL    HW1 9107   3.960   0.372   5.197
 2736SOL    HW2 9108   3.907   0.283   5.070
 2737SOL     OW 9109   4.022   3.504   5.899
 2737SOL    HW1 9110   4.102   3.543   5.946
 2737SOL    HW2 9111   3.988   3.425   5.950
 2738SOL     OW 9112   5.433   5.195   4.691
 2738SOL    HW1 9113   5.496   5.250   4.745
 2738SOL    HW2 9114   5.362   5.157   4.751
 2739SOL     OW 9115   5.430   3.789   0.750
 2739SOL    HW1 9116   5.463   3.738   0.670
 2739SOL    HW2 9117   5.505   3.842   0.789
 2740SOL     OW 9118   6.148   2.410   2.679
 2740SOL    HW1 9119   6.070   2.349   2.662
 2740SOL    HW2 9120   6.147   2.484   2.613
 2741SOL     OW 9121   0.059   2.111   5.644
 2741SOL    HW1 9122   0.062   2.015   5.671
 2741SOL    HW2 9123   0.064   2.169   5.725
 2742SOL     OW 9124   1.463   5.565   6.422
 2742SOL    HW1 9125   1.530   5.518   6.364
 2742SOL    HW2 9126   1.411   5.630   6.366
 2743SOL     OW 9127   5.507   4.930   1.476
 2743SOL    HW1 9128   5.478   4.842   1.514
 2743SOL    HW2 9129   5.582   4.916   1.412
 2744SOL     OW 9130   4.015   2.426   6.406
 2744SOL    HW1 9131   3.928   2.470   6.382
 2744SOL    HW2 9132   4.091   2.487   6.384
 2745SOL     OW 9133   2.093   6.200   0.941
 2745SOL    HW1 9134   2.109   6.101   0.938
 2745SOL    HW2 9135   2.120   6.234   1.031
 2746SOL     OW 9136   1.932   1.974   5.267
 2746SOL    HW1 9137   1.840   1.961   5.305
 2746SOL    HW2 9138   1.970   2.060   5.302
 2747SOL     OW 9139   5.569   5.914   4.121
 2747SOL    HW1 9140   5.549   5.816   4.117
 2747SOL    HW2 9141   5.496   5.965   4.077
 2748SOL     OW 9142   4.435   1.391   3.357
 2748SOL    HW1 9143   4.525   1.349   3.364
 2748SOL    HW2 9144   4.419   1.450   3.436
 2749SOL     OW 9145   4.552   4.497   4.222
 2749SOL    HW1 9146   4.490   4.517   4.297
 2749SOL    HW2 9147   4.531   4.556   4.144
 2750SOL     OW 9148   0.738   5.686   2.512
 2750SOL    HW1 9149   0.774   5.758   2.454
 2750SOL    HW2 9150   0.744   5.598   2.464
 2751SOL     OW 9151   1.973   6.937   6.526
 2751SOL    HW1 9152   1.954   7.023   6.573
 2751SOL    HW2 9153   1.994   6.866   6.593
 2752SOL     OW 9154   6.029   6.256   5.209
 2752SOL    HW1 9155   6.121   6.234   5.176
 2752SOL    HW2 9156   6.035   6.324   5.281
 2753SOL     OW 9157   3.973   6.164   6.369
 2753SOL    HW1 9158   3.957   6.149   6.467
 2753SOL    HW2 9159   4.053   6.111   6.340
 2754SOL     OW 9160   0.906   0.042   4.357
 2754SOL    HW1 9161   0.857   0.113   4.407
 2754SOL    HW2 9162   0.936   0.078   4.269
 2755SOL     OW 9163   3.035   6.220   2.210
 2755SOL    HW1 9164   3.127   6.235   2.248
 2755SOL    HW2 9165   3.031   6.128   2.170
 2756SOL     OW 9166   6.236   3.351   5.513
 2756SOL    HW1 9167   6.315   3.365   5.573
 2756SOL    HW2 9168   6.158   3.322   5.569
 2757SOL     OW 9169   4.489   2.350   0.264
 2757SOL    HW1 9170   4.505   2.449   0.262
 2757SOL    HW2 9171   4.564   2.306   0.313
 2758SOL     OW 9172   5.175   4.604   2.752
 2758SOL    HW1 9173   5.121   4.643   2.677
 2758SOL    HW2 9174   5.176   4.668   2.829
 2759SOL     OW 9175   3.331   4.553   6.265
 2759SOL    HW1 9176   3.389   4.628   6.233
 2759SOL    HW2 9177   3.235   4.574   6.246
 2760SOL     OW 9178   5.204   5.312   3.589
 2760SOL    HW1 9179   5.199   5.216   3.559
 2760SOL    HW2 9180   5.159   5.370   3.521
 2761SOL     OW 9181   2.123   3.834   2.801
 2761SOL    HW1 9182   2.152   3.755   2.854
 2761SOL    HW2 9183   2.128   3.916   2.857
 2762SOL     OW 9184   1.802   2.162   0.246
 2762SOL    HW1 9185   1.859   2.095   0.293
 2762SOL    HW2 9186   1.737   2.115   0.187
 2763SOL     OW 9187   4.601   1.476   5.702
 2763SOL    HW1 9188   4.557   1.509   5.618
 2763SOL    HW2 9189   4.582   1.540   5.777
 2764SOL     OW 9190   0.639   3.925   1.911
 2764SOL    HW1 9191   0.657   3.917   1.813
 2764SOL    HW2 9192   0.702   3.866   1.962
 2765SOL     OW 9193   6.193   6.810   6.995
 2765SOL    HW1 9194   6.125   6.863   6.945
 2765SOL    HW2 9195   6.160   6.793   0.064
 2766SOL     OW 9196   5.693   0.819   6.900
 2766SOL    HW1 9197   5.717   0.849   6.807
 2766SOL    HW2 9198   5.767   0.761   6.936
 2767SOL     OW 9199   6.713   4.917   6.180
 2767SOL    HW1 9200   6.640   4.976   6.147
 2767SOL    HW2 9201   6.742   4.948   6.270
 2768SOL     OW 9202   4.959   0.333   1.161
 2768SOL    HW1 9203   4.945   0.250   1.216
 2768SOL    HW2 9204   4.874   0.359   1.116
 2769SOL     OW 9205   1.870   4.468   5.632
 2769SOL    HW1 9206   1.929   4.433   5.560
 2769SOL    HW2 9207   1.778   4.487   5.595
 2770SOL     OW 9208   2.362   6.776   0.002
 2770SOL    HW1 9209   2.415   6.861   7.020
 2770SOL    HW2 9210   2.400   6.718   0.075
 2771SOL     OW 9211   4.555   0.445   4.676
 2771SOL    HW1 9212   4.469   0.450   4.627
 2771SOL    HW2 9213   4.627   0.491   4.624
 2772SOL     OW 9214   4.112   0.958   2.914
 2772SOL    HW1 9215   4.172   0.881   2.936
 2772SOL    HW2 9216   4.119   0.979   2.816
 2773SOL     OW 9217   6.177   3.113   3.806
 2773SOL    HW1 9218   6.245   3.041   3.787
 2773SOL    HW2 9219   6.223   3.201   3.810
 2774SOL     OW 9220   4.938   1.771   3.276
 2774SOL    HW1 9221   4.956   1.763   3.374
 2774SOL    HW2 9222   5.014   1.820   3.233
 2775SOL     OW 9223   0.524   4.465   4.704
 2775SOL    HW1 9224   0.610   4.510   4.679
 2775SOL    HW2 9225   0.462   4.533   4.744
 2776SOL     OW 9226   5.050   4.533   5.987
 2776SOL    HW1 9227   4.957   4.499   5.980
 2776SOL    HW2 9228   5.101   4.477   6.053
 2777SOL     OW 9229   3.082   2.239   5.987
 2777SOL    HW1 9230   2.984   2.221   5.982
 2777SOL    HW2 9231   3.101   2.332   5.954
 2778SOL     OW 9232   2.556   6.339   6.748
 2778SOL    HW1 9233   2.530   6.427   6.789
 2778SOL    HW2 9234   2.618   6.290   6.809
 2779SOL     OW 9235   5.994   6.270   2.125
 2779SOL    HW1 9236   6.043   6.195   2.170
 2779SOL    HW2 9237   5.950   6.237   2.042
 2780SOL     OW 9238   0.226   1.652   6.026
 2780SOL    HW1 9239   0.299   1.708   5.987
 2780SOL    HW2 9240   0.219   1.566   5.974
 2781SOL     OW 9241   6.459   0.486   2.664
 2781SOL    HW1 9242   6.399   0.463   2.587
 2781SOL    HW2 9243   6.404   0.499   2.747
 2782SOL     OW 9244   4.164   1.188   6.593
 2782SOL    HW1 9245   4.107   1.111   6.564
 2782SOL    HW2 9246   4.242   1.153   6.645
 2783SOL     OW 9247   5.501   3.271   1.628
 2783SOL    HW1 9248   5.502   3.173   1.607
 2783SOL    HW2 9249   5.479   3.322   1.545
 2784SOL     OW 9250   1.457   1.802   0.638
 2784SOL    HW1 9251   1.499   1.735   0.576
 2784SOL    HW2 9252   1.529   1.854   0.683
 2785SOL     OW 9253   5.220   3.056   1.393
 2785SOL    HW1 9254   5.249   2.987   1.326
 2785SOL    HW2 9255   5.218   3.015   1.484
 2786SOL     OW 9256   6.844   6.051   0.408
 2786SOL    HW1 9257   6.777   6.035   0.335
 2786SOL    HW2 9258   6.854   6.150   0.423
 2787SOL     OW 9259   6.322   4.950   6.199
 2787SOL    HW1 9260   6.309   5.049   6.191
 2787SOL    HW2 9261   6.233   4.904   6.190
 2788SOL     OW 9262   3.485   5.966   5.663
 2788SOL    HW1 9263   3.482   5.903   5.740
 2788SOL    HW2 9264   3.580   5.986   5.640
 2789SOL     OW 9265   0.728   2.473   5.009
 2789SOL    HW1 9266   0.674   2.390   4.996
 2789SOL    HW2 9267   0.816   2.462   4.962
 2790SOL     OW 9268   2.157   5.658   0.925
 2790SOL    HW1 9269   2.133   5.564   0.901
 2790SOL    HW2 9270   2.203   5.659   1.014
 2791SOL     OW 9271   6.865   3.834   3.441
 2791SOL    HW1 9272   6.782   3.779   3.456
 2791SOL    HW2 9273   6.945   3.774   3.442
 2792SOL     OW 9274   3.242   1.619   5.276
 2792SOL    HW1 9275   3.317   1.685   5.283
 2792SOL    HW2 9276   3.159   1.667   5.246
 2793SOL     OW 9277   3.617   4.269   1.379
 2793SOL    HW1 9278   3.553   4.250   1.453
 2793SOL    HW2 9279   3.688   4.332   1.410
 2794SOL     OW 9280   0.404   2.071   5.995
 2794SOL    HW1 9281   0.327   2.119   5.955
 2794SOL    HW2 9282   0.418   2.102   6.089
 2795SOL     OW 9283   1.041   4.725   1.591
 2795SOL    HW1 9284   1.061   4.770   1.504
 2795SOL    HW2 9285   1.070   4.630   1.587
 2796SOL     OW 9286   1.052   6.112   5.359
 2796SOL    HW1 9287   1.087   6.110   5.452
 2796SOL    HW2 9288   1.026   6.020   5.330
 2797SOL     OW 9289   5.452   6.947   3.866
 2797SOL    HW1 9290   5.353   6.956   3.854
 2797SOL    HW2 9291   5.486   6.871   3.809
 2798SOL     OW 9292   5.785   6.772   1.832
 2798SOL    HW1 9293   5.751   6.760   1.739
 2798SOL    HW2 9294   5.882   6.747   1.835
 2799SOL     OW 9295   3.924   5.992   5.083
 2799SOL    HW1 9296   3.943   6.006   5.180
 2799SOL    HW2 9297   3.868   5.911   5.071
 2800SOL     OW 9298   6.622   0.978   6.963
 2800SOL    HW1 9299   6.695   1.006   6.901
 2800SOL    HW2 9300   6.564   0.910   6.918
 2801SOL     OW 9301   0.894   5.195   5.354
 2801SOL    HW1 9302   0.835   5.185   5.435
 2801SOL    HW2 9303   0.839   5.225   5.276
 2802SOL     OW 9304   6.681   5.552   5.351
 2802SOL    HW1 9305   6.697   5.651   5.351
 2802SOL    HW2 9306   6.707   5.515   5.440
 2803SOL     OW 9307   3.851   3.446   6.561
 2803SOL    HW1 9308   3.950   3.462   6.562
 2803SOL    HW2 9309   3.817   3.442   6.655
 2804SOL     OW 9310   0.063   2.647   3.461
 2804SOL    HW1 9311   0.026   2.663   3.369
 2804SOL    HW2 9312   0.130   2.573   3.458
 2805SOL     OW 9313   4.052   3.246   1.258
 2805SOL    HW1 9314   4.047   3.166   1.318
 2805SOL    HW2 9315   4.143   3.287   1.265
 2806SOL     OW 9316   0.688   4.946   6.139
 2806SOL    HW1 9317   0.760   5.011   6.116
 2806SOL    HW2 9318   0.671   4.886   6.061
 2807SOL     OW 9319   3.021   0.489   3.818
 2807SOL    HW1 9320   3.031   0.474   3.719
 2807SOL    HW2 9321   3.099   0.540   3.852
 2808SOL     OW 9322   6.557   5.157   6.980
 2808SOL    HW1 9323   6.503   5.124   6.903
 2808SOL    HW2 9324   6.551   5.257   6.984
 2809SOL     OW 9325   6.656   4.840   2.302
 2809SOL    HW1 9326   6.713   4.834   2.384
 2809SOL    HW2 9327   6.560   4.830   2.328
 2810SOL     OW 9328   2.419   5.461   3.335
 2810SOL    HW1 9329   2.322   5.449   3.356
 2810SOL    HW2 9330   2.446   5.396   3.264
 2811SOL     OW 9331   1.065   0.594   2.051
 2811SOL    HW1 9332   1.094   0.688   2.034
 2811SOL    HW2 9333   0.965   0.590   2.052
 2812SOL     OW 9334   0.461   3.177   0.887
 2812SOL    HW1 9335   0.457   3.273   0.861
 2812SOL    HW2 9336   0.553   3.141   0.870
 2813SOL     OW 9337   0.832   2.237   1.785
 2813SOL    HW1 9338   0.814   2.329   1.750
 2813SOL    HW2 9339   0.914   2.200   1.741
 2814SOL     OW 9340   1.840   4.331   0.179
 2814SOL    HW1 9341   1.845   4.256   0.245
 2814SOL    HW2 9342   1.893   4.307   0.098
 2815SOL     OW 9343   0.569   5.784   5.625
 2815SOL    HW1 9344   0.615   5.768   5.712
 2815SOL    HW2 9345   0.637   5.809   5.556
 2816SOL     OW 9346   0.127   6.263   5.879
 2816SOL    HW1 9347   0.105   6.360   5.887
 2816SOL    HW2 9348   0.223   6.253   5.854
 2817SOL     OW 9349   4.342   0.667   2.012
 2817SOL    HW1 9350   4.404   0.699   1.941
 2817SOL    HW2 9351   4.395   0.636   2.091
 2818SOL     OW 9352   1.122   0.570   1.266
 2818SOL    HW1 9353   1.188   0.612   1.205
 2818SOL    HW2 9354   1.030   0.583   1.230
 2819SOL     OW 9355   0.742   0.428   0.694
 2819SOL    HW1 9356   0.733   0.502   0.762
 2819SOL    HW2 9357   0.836   0.394   0.695
 2820SOL     OW 9358   1.415   2.874   1.428
 2820SOL    HW1 9359   1.437   2.860   1.524
 2820SOL    HW2 9360   1.471   2.948   1.391
 2821SOL     OW 9361   3.116   4.310   6.602
 2821SOL    HW1 9362   3.176   4.384   6.570
 2821SOL    HW2 9363   3.169   4.226   6.612
 2822SOL     OW 9364   4.464   2.487   0.788
 2822SOL    HW1 9365   4.424   2.511   0.699
 2822SOL    HW2 9366   4.401   2.426   0.837
 2823SOL     OW 9367   5.585   2.175   1.057
 2823SOL    HW1 9368   5.584   2.186   0.958
 2823SOL    HW2 9369   5.633   2.252   1.099
 2824SOL     OW 9370   1.141   3.577   5.580
 2824SOL    HW1 9371   1.152   3.667   5.538
 2824SOL    HW2 9372   1.048   3.568   5.617
 2825SOL     OW 9373   5.658   1.657   6.482
 2825SOL    HW1 9374   5.566   1.647   6.444
 2825SOL    HW2 9375   5.657   1.727   6.553
 2826SOL     OW 9376   2.074   3.937   6.486
 2826SOL    HW1 9377   2.106   3.894   6.402
 2826SOL    HW2 9378   2.087   3.874   6.563
 2827SOL     OW 9379   0.213   1.010   6.409
 2827SOL    HW1 9380   0.283   1.078   6.389
 2827SOL    HW2 9381   0.160   0.993   6.326
 2828SOL     OW 9382   1.738   4.053   0.989
 2828SOL    HW1 9383   1.672   4.022   0.920
 2828SOL    HW2 9384   1.794   3.975   1.019
 2829SOL     OW 9385   4.005   3.744   3.200
 2829SOL    HW1 9386   3.921   3.789   3.171
 2829SOL    HW2 9387   4.025   3.768   3.295
 2830SOL     OW 9388   3.658   5.217   5.736
 2830SOL    HW1 9389   3.613   5.305   5.748
 2830SOL    HW2 9390   3.599   5.144   5.772
 2831SOL     OW 9391   6.229   1.971   2.151
 2831SOL    HW1 9392   6.315   1.924   2.131
 2831SOL    HW2 9393   6.155   1.904   2.150
 2832SOL     OW 9394   0.554   3.226   1.146
 2832SOL    HW1 9395   0.494   3.181   1.079
 2832SOL    HW2 9396   0.643   3.180   1.146
 2833SOL     OW 9397   1.505   2.058   1.306
 2833SOL    HW1 9398   1.557   2.130   1.351
 2833SOL    HW2 9399   1.422   2.038   1.359
 2834SOL     OW 9400   4.000   6.093   5.358
 2834SOL    HW1 9401   3.945   6.171   5.329
 2834SOL    HW2 9402   4.096   6.120   5.364
 2835SOL     OW 9403   0.643   6.619   0.736
 2835SOL    HW1 9404   0.572   6.635   0.669
 2835SOL    HW2 9405   0.640   6.692   0.805
 2836SOL     OW 9406   3.546   6.293   3.210
 2836SOL    HW1 9407   3.550   6.355   3.132
 2836SOL    HW2 9408   3.497   6.337   3.285
 2837SOL     OW 9409   5.246   4.299   1.985
 2837SOL    HW1 9410   5.262   4.305   2.084
 2837SOL    HW2 9411   5.164   4.351   1.962
 2838SOL     OW 9412   5.420   4.267   6.196
 2838SOL    HW1 9413   5.429   4.245   6.293
 2838SOL    HW2 9414   5.422   4.183   6.142
 2839SOL     OW 9415   5.759   2.814   5.048
 2839SOL    HW1 9416   5.805   2.896   5.083
 2839SOL    HW2 9417   5.826   2.741   5.037
 2840SOL     OW 9418   0.057   6.381   3.149
 2840SOL    HW1 9419   0.043   6.475   3.116
 2840SOL    HW2 9420   0.149   6.351   3.125
 2841SOL     OW 9421   5.704   2.911   1.829
 2841SOL    HW1 9422   5.664   2.835   1.778
 2841SOL    HW2 9423   5.792   2.883   1.866
 2842SOL     OW 9424   1.677   6.611   3.237
 2842SOL    HW1 9425   1.751   6.553   3.272
 2842SOL    HW2 9426   1.687   6.620   3.138
 2843SOL     OW 9427   2.307   2.886   3.344
 2843SOL    HW1 9428   2.347   2.938   3.420
 2843SOL    HW2 9429   2.362   2.805   3.326
 2844SOL     OW 9430   4.925   4.552   1.525
 2844SOL    HW1 9431   4.868   4.500   1.462
 2844SOL    HW2 9432   4.879   4.639   1.547
 2845SOL     OW 9433   3.403   2.102   2.882
 2845SOL    HW1 9434   3.500   2.077   2.874
 2845SOL    HW2 9435   3.382   2.122   2.977
 2846SOL     OW 9436   5.204   0.704   0.430
 2846SOL    HW1 9437   5.233   0.650   0.509
 2846SOL    HW2 9438   5.146   0.780   0.461
 2847SOL     OW 9439   5.073   4.380   2.347
 2847SOL    HW1 9440   5.113   4.435   2.274
 2847SOL    HW2 9441   5.106   4.286   2.341
 2848SOL     OW 9442   0.914   4.207   4.991
 2848SOL    HW1 9443   1.004   4.229   5.029
 2848SOL    HW2 9444   0.922   4.196   4.892
 2849SOL     OW 9445   4.499   0.599   2.568
 2849SOL    HW1 9446   4.558   0.519   2.577
 2849SOL    HW2 9447   4.408   0.571   2.536
 2850SOL     OW 9448   2.808   6.996   2.988
 2850SOL    HW1 9449   2.857   0.050   3.027
 2850SOL    HW2 9450   2.715   7.024   2.963
 2851SOL     OW 9451   3.893   3.164   0.789
 2851SOL    HW1 9452   3.943   3.128   0.869
 2851SOL    HW2 9453   3.801   3.191   0.817
 2852SOL     OW 9454   6.154   3.893   5.475
 2852SOL    HW1 9455   6.097   3.903   5.393
 2852SOL    HW2 9456   6.130   3.964   5.540
 2853SOL     OW 9457   0.572   3.957   6.913
 2853SOL    HW1 9458   0.523   3.888   6.860
 2853SOL    HW2 9459   0.667   3.930   6.925
 2854SOL     OW 9460   3.617   1.598   6.181
 2854SOL    HW1 9461   3.640   1.652   6.262
 2854SOL    HW2 9462   3.546   1.531   6.204
 2855SOL     OW 9463   1.800   1.631   4.489
 2855SOL    HW1 9464   1.855   1.588   4.417
 2855SOL    HW2 9465   1.849   1.625   4.576
 2856SOL     OW 9466   0.679   4.483   3.178
 2856SOL    HW1 9467   0.655   4.538   3.098
 2856SOL    HW2 9468   0.756   4.424   3.156
 2857SOL     OW 9469   6.891   3.335   0.618
 2857SOL    HW1 9470   6.864   3.407   0.554
 2857SOL    HW2 9471   6.929   3.258   0.567
 2858SOL     OW 9472   4.802   4.624   2.661
 2858SOL    HW1 9473   4.839   4.624   2.568
 2858SOL    HW2 9474   4.752   4.709   2.677
 2859SOL     OW 9475   5.408   4.693   1.590
 2859SOL    HW1 9476   5.413   4.614   1.530
 2859SOL    HW2 9477   5.316   4.701   1.627
 2860SOL     OW 9478   1.223   6.208   1.666
 2860SOL    HW1 9479   1.269   6.295   1.646
 2860SOL    HW2 9480   1.157   6.187   1.594
 2861SOL     OW 9481   4.419   5.048   6.996
 2861SOL    HW1 9482   4.325   5.081   7.006
 2861SOL    HW2 9483   4.435   4.972   0.036
 2862SOL     OW 9484   4.177   3.087   0.633
 2862SOL    HW1 9485   4.127   3.005   0.662
 2862SOL    HW2 9486   4.180   3.153   0.708
 2863SOL     OW 9487   5.946   0.441   5.437
 2863SOL    HW1 9488   5.938   0.392   5.523
 2863SOL    HW2 9489   5.912   0.534   5.448
 2864SOL     OW 9490   4.313   4.082   0.537
 2864SOL    HW1 9491   4.321   4.138   0.619
 2864SOL    HW2 9492   4.235   4.113   0.483
 2865SOL     OW 9493   5.200   5.668   4.566
 2865SOL    HW1 9494   5.209   5.618   4.480
 2865SOL    HW2 9495   5.215   5.606   4.643
 2866SOL     OW 9496   3.920   4.362   0.072
 2866SOL    HW1 9497   3.961   4.443   0.028
 2866SOL    HW2 9498   3.950   4.280   0.025
 2867SOL     OW 9499   5.669   6.176   1.690
 2867SOL    HW1 9500   5.719   6.261   1.706
 2867SOL    HW2 9501   5.576   6.185   1.725
 2868SOL     OW 9502   1.382   1.418   6.099
 2868SOL    HW1 9503   1.305   1.478   6.077
 2868SOL    HW2 9504   1.438   1.405   6.017
 2869SOL     OW 9505   5.000   5.422   4.197
 2869SOL    HW1 9506   4.933   5.389   4.263
 2869SOL    HW2 9507   5.072   5.472   4.245
 2870SOL     OW 9508   6.813   2.045   1.515
 2870SOL    HW1 9509   6.873   2.015   1.440
 2870SOL    HW2 9510   6.743   2.107   1.478
 2871SOL     OW 9511   5.378   1.585   1.478
 2871SOL    HW1 9512   5.307   1.655   1.479
 2871SOL    HW2 9513   5.454   1.613   1.537
 2872SOL     OW 9514   2.611   2.058   2.349
 2872SOL    HW1 9515   2.641   1.985   2.288
 2872SOL    HW2 9516   2.515   2.043   2.373
 2873SOL     OW 9517   0.893   6.384   1.344
 2873SOL    HW1 9518   0.944   6.348   1.266
 2873SOL    HW2 9519   0.957   6.429   1.407
 2874SOL     OW 9520   2.304   1.037   2.923
 2874SOL    HW1 9521   2.299   0.938   2.910
 2874SOL    HW2 9522   2.220   1.080   2.891
 2875SOL     OW 9523   3.029   6.847   3.205
 2875SOL    HW1 9524   3.107   6.909   3.200
 2875SOL    HW2 9525   2.950   6.889   3.159
 2876SOL     OW 9526   1.412   6.138   2.067
 2876SOL    HW1 9527   1.494   6.194   2.075
 2876SOL    HW2 9528   1.414   6.086   1.982
 2877SOL     OW 9529   1.587   0.950   5.871
 2877SOL    HW1 9530   1.623   1.043   5.872
 2877SOL    HW2 9531   1.526   0.938   5.792
 2878SOL     OW 9532   4.107   3.563   4.402
 2878SOL    HW1 9533   4.088   3.496   4.474
 2878SOL    HW2 9534   4.060   3.535   4.318
 2879SOL     OW 9535   4.526   4.433   0.086
 2879SOL    HW1 9536   4.459   4.392   0.148
 2879SOL    HW2 9537   4.487   4.438   7.018
 2880SOL     OW 9538   1.320   1.098   4.869
 2880SOL    HW1 9539   1.358   1.127   4.781
 2880SOL    HW2 9540   1.393   1.061   4.926
 2881SOL     OW 9541   3.928   6.140   6.640
 2881SOL    HW1 9542   3.904   6.053   6.682
 2881SOL    HW2 9543   3.882   6.215   6.689
 2882SOL     OW 9544   4.593   6.538   0.631
 2882SOL    HW1 9545   4.558   6.471   0.697
 2882SOL    HW2 9546   4.688   6.516   0.609
 2883SOL     OW 9547   6.528   6.200   3.645
 2883SOL    HW1 9548   6.501   6.284   3.692
 2883SOL    HW2 9549   6.566   6.223   3.555
 2884SOL     OW 9550   6.976   5.194   3.034
 2884SOL    HW1 9551   6.974   5.102   3.072
 2884SOL    HW2 9552   6.969   5.191   2.935
 2885SOL     OW 9553   0.797   3.081   2.785
 2885SOL    HW1 9554   0.742   3.162   2.801
 2885SOL    HW2 9555   0.857   3.096   2.706
 2886SOL     OW 9556   2.534   4.527   6.175
 2886SOL    HW1 9557   2.502   4.617   6.206
 2886SOL    HW2 9558   2.464   4.485   6.118
 2887SOL     OW 9559   1.396   5.712   3.670
 2887SOL    HW1 9560   1.473   5.775   3.683
 2887SOL    HW2 9561   1.312   5.756   3.701
 2888SOL     OW 9562   6.461   6.669   0.588
 2888SOL    HW1 9563   6.512   6.686   0.672
 2888SOL    HW2 9564   6.468   6.749   0.528
 2889SOL     OW 9565   3.422   6.402   3.427
 2889SOL    HW1 9566   3.399   6.339   3.502
 2889SOL    HW2 9567   3.405   6.496   3.456
 2890SOL     OW 9568   2.359   0.441   1.150
 2890SOL    HW1 9569   2.350   0.538   1.174
 2890SOL    HW2 9570   2.270   0.406   1.120
 2891SOL     OW 9571   0.404   2.783   3.637
 2891SOL    HW1 9572   0.503   2.781   3.649
 2891SOL    HW2 9573   0.361   2.813   3.722
 2892SOL     OW 9574   6.876   3.653   1.772
 2892SOL    HW1 9575   6.877   3.620   1.866
 2892SOL    HW2 9576   6.933   3.735   1.765
 2893SOL     OW 9577   0.021   5.138   4.630
 2893SOL    HW1 9578   7.018   5.190   4.710
 2893SOL    HW2 9579   6.964   5.117   4.574
 2894SOL     OW 9580   1.410   5.466   2.696
 2894SOL    HW1 9581   1.472   5.544   2.706
 2894SOL    HW2 9582   1.381   5.459   2.600
 2895SOL     OW 9583   4.251   6.748   6.254
 2895SOL    HW1 9584   4.161   6.735   6.295
 2895SOL    HW2 9585   4.316   6.774   6.325
 2896SOL     OW 9586   6.097   6.050   4.917
 2896SOL    HW1 9587   6.009   6.096   4.933
 2896SOL    HW2 9588   6.171   6.108   4.950
 2897SOL     OW 9589   3.917   4.829   2.834
 2897SOL    HW1 9590   3.991   4.811   2.769
 2897SOL    HW2 9591   3.954   4.861   2.921
 2898SOL     OW 9592   5.822   4.044   2.110
 2898SOL    HW1 9593   5.730   4.042   2.149
 2898SOL    HW2 9594   5.885   4.086   2.175
 2899SOL     OW 9595   0.156   3.234   0.787
 2899SOL    HW1 9596   0.092   3.277   0.851
 2899SOL    HW2 9597   0.233   3.295   0.772
 2900SOL     OW 9598   2.715   4.084   6.972
 2900SOL    HW1 9599   2.787   4.115   0.010
 2900SOL    HW2 9600   2.727   4.126   6.882
 2901SOL     OW 9601   1.660   4.068   3.305
 2901SOL    HW1 9602   1.584   4.127   3.276
 2901SOL    HW2 9603   1.659   3.985   3.250
 2902SOL     OW 9604   1.131   5.734   4.192
 2902SOL    HW1 9605   1.066   5.669   4.151
 2902SOL    HW2 9606   1.082   5.813   4.228
 2903SOL     OW 9607   4.553   5.712   0.956
 2903SOL    HW1 9608   4.598   5.800   0.972
 2903SOL    HW2 9609   4.492   5.720   0.878
 2904SOL     OW 9610   2.497   4.413   5.195
 2904SOL    HW1 9611   2.576   4.455   5.241
 2904SOL    HW2 9612   2.488   4.451   5.103
 2905SOL     OW 9613   0.858   5.005   1.471
 2905SOL    HW1 9614   0.774   4.956   1.496
 2905SOL    HW2 9615   0.870   5.083   1.533
 2906SOL     OW 9616   6.122   5.395   3.359
 2906SOL    HW1 9617   6.146   5.321   3.421
 2906SOL    HW2 9618   6.026   5.386   3.332
 2907SOL     OW 9619   0.855   0.467   3.607
 2907SOL    HW1 9620   0.928   0.414   3.565
 2907SOL    HW2 9621   0.836   0.549   3.552
 2908SOL     OW 9622   4.551   6.913   3.108
 2908SOL    HW1 9623   4.471   6.973   3.113
 2908SOL    HW2 9624   4.624   6.949   3.165
 2909SOL     OW 9625   1.223   5.730   2.496
 2909SOL    HW1 9626   1.309   5.739   2.444
 2909SOL    HW2 9627   1.242   5.742   2.593
 2910SOL     OW 9628   0.075   0.545   3.457
 2910SOL    HW1 9629   0.059   0.562   3.554
 2910SOL    HW2 9630   0.100   0.449   3.444
 2911SOL     OW 9631   6.769   3.767   4.553
 2911SOL    HW1 9632   6.812   3.848   4.512
 2911SOL    HW2 9633   6.789   3.687   4.498
 2912SOL     OW 9634   0.063   6.891   1.039
 2912SOL    HW1 9635   0.061   6.977   0.988
 2912SOL    HW2 9636   0.060   6.814   0.975
 2913SOL     OW 9637   2.606   5.653   1.073
 2913SOL    HW1 9638   2.653   5.697   0.997
 2913SOL    HW2 9639   2.507   5.663   1.062
 2914SOL     OW 9640   4.863   4.856   0.199
 2914SOL    HW1 9641   4.803   4.931   0.226
 2914SOL    HW2 9642   4.880   4.797   0.278
 2915SOL     OW 9643   3.034   1.278   3.192
 2915SOL    HW1 9644   2.937   1.259   3.204
 2915SOL    HW2 9645   3.052   1.375   3.209
 2916SOL     OW 9646   1.272   5.760   0.249
 2916SOL    HW1 9647   1.245   5.778   0.344
 2916SOL    HW2 9648   1.329   5.835   0.215
 2917SOL     OW 9649   2.805   6.657   4.107
 2917SOL    HW1 9650   2.865   6.723   4.062
 2917SOL    HW2 9651   2.855   6.610   4.179
 2918SOL     OW 9652   6.157   3.592   1.258
 2918SOL    HW1 9653   6.137   3.587   1.160
 2918SOL    HW2 9654   6.094   3.533   1.308
 2919SOL     OW 9655   1.566   5.851   4.068
 2919SOL    HW1 9656   1.530   5.758   4.065
 2919SOL    HW2 9657   1.558   5.886   4.162
 2920SOL     OW 9658   1.482   2.325   2.066
 2920SOL    HW1 9659   1.455   2.286   1.978
 2920SOL    HW2 9660   1.578   2.352   2.063
 2921SOL     OW 9661   0.428   0.223   5.601
 2921SOL    HW1 9662   0.404   0.157   5.529
 2921SOL    HW2 9663   0.456   0.174   5.683
 2922SOL     OW 9664   3.842   0.525   3.267
 2922SOL    HW1 9665   3.862   0.433   3.300
 2922SOL    HW2 9666   3.923   0.583   3.276
 2923SOL     OW 9667   6.012   5.043   4.661
 2923SOL    HW1 9668   6.065   5.041   4.576
 2923SOL    HW2 9669   6.029   4.960   4.714
 2924SOL     OW 9670   6.152   2.576   5.482
 2924SOL    HW1 9671   6.213   2.522   5.539
 2924SOL    HW2 9672   6.061   2.579   5.523
 2925SOL     OW 9673   5.266   0.459   6.444
 2925SOL    HW1 9674   5.327   0.465   6.366
 2925SOL    HW2 9675   5.199   0.533   6.439
 2926SOL     OW 9676   0.056   2.327   4.436
 2926SOL    HW1 9677   0.018   2.235   4.429
 2926SOL    HW2 9678   7.012   2.394   4.405
 2927SOL     OW 9679   1.258   2.831   1.760
 2927SOL    HW1 9680   1.336   2.811   1.819
 2927SOL    HW2 9681   1.193   2.889   1.810
 2928SOL     OW 9682   6.954   2.747   0.313
 2928SOL    HW1 9683   6.974   2.810   0.239
 2928SOL    HW2 9684   0.016   2.712   0.352
 2929SOL     OW 9685   1.526   2.520   4.758
 2929SOL    HW1 9686   1.535   2.495   4.855
 2929SOL    HW2 9687   1.605   2.486   4.708
 2930SOL     OW 9688   0.093   5.200   5.434
 2930SOL    HW1 9689   0.135   5.119   5.394
 2930SOL    HW2 9690   7.017   5.193   5.426
 2931SOL     OW 9691   4.782   4.206   5.893
 2931SOL    HW1 9692   4.792   4.114   5.931
 2931SOL    HW2 9693   4.860   4.226   5.833
 2932SOL     OW 9694   6.503   5.694   0.449
 2932SOL    HW1 9695   6.598   5.712   0.474
 2932SOL    HW2 9696   6.446   5.772   0.476
 2933SOL     OW 9697   1.528   0.527   0.504
 2933SOL    HW1 9698   1.497   0.621   0.518
 2933SOL    HW2 9699   1.555   0.488   0.591
 2934SOL     OW 9700   4.168   4.539   0.429
 2934SOL    HW1 9701   4.127   4.557   0.518
 2934SOL    HW2 9702   4.184   4.625   0.382
 2935SOL     OW 9703   7.011   2.247   5.881
 2935SOL    HW1 9704   0.026   2.165   5.922
 2935SOL    HW2 9705   0.058   2.297   5.832
 2936SOL     OW 9706   5.074   6.981   1.175
 2936SOL    HW1 9707   4.984   6.938   1.164
 2936SOL    HW2 9708   5.141   6.912   1.204
 2937SOL     OW 9709   4.669   5.454   2.054
 2937SOL    HW1 9710   4.674   5.490   1.961
 2937SOL    HW2 9711   4.717   5.366   2.058
 2938SOL     OW 9712   6.161   5.554   6.864
 2938SOL    HW1 9713   6.142   5.470   6.914
 2938SOL    HW2 9714   6.247   5.543   6.813
 2939SOL     OW 9715   0.245   5.956   1.434
 2939SOL    HW1 9716   0.337   5.928   1.406
 2939SOL    HW2 9717   0.177   5.907   1.379
 2940SOL     OW 9718   4.534   5.972   3.948
 2940SOL    HW1 9719   4.460   5.915   3.912
 2940SOL    HW2 9720   4.609   5.913   3.977
 2941SOL     OW 9721   1.845   3.383   4.084
 2941SOL    HW1 9722   1.801   3.329   4.012
 2941SOL    HW2 9723   1.785   3.388   4.163
 2942SOL     OW 9724   3.633   1.762   1.005
 2942SOL    HW1 9725   3.659   1.668   0.982
 2942SOL    HW2 9726   3.713   1.814   1.033
 2943SOL     OW 9727   5.950   4.093   3.511
 2943SOL    HW1 9728   6.037   4.057   3.478
 2943SOL    HW2 9729   5.964   4.142   3.597
 2944SOL     OW 9730   2.224   5.653   3.171
 2944SOL    HW1 9731   2.217   5.578   3.238
 2944SOL    HW2 9732   2.185   5.736   3.210
 2945SOL     OW 9733   4.944   4.385   1.235
 2945SOL    HW1 9734   5.014   4.320   1.207
 2945SOL    HW2 9735   4.859   4.335   1.254
 2946SOL     OW 9736   2.972   4.161   5.944
 2946SOL    HW1 9737   2.951   4.065   5.924
 2946SOL    HW2 9738   3.051   4.166   6.005
 2947SOL     OW 9739   5.977   6.633   0.541
 2947SOL    HW1 9740   6.034   6.604   0.464
 2947SOL    HW2 9741   6.035   6.648   0.621
 2948SOL     OW 9742   6.194   3.904   2.211
 2948SOL    HW1 9743   6.139   3.938   2.287
 2948SOL    HW2 9744   6.149   3.927   2.125
 2949SOL     OW 9745   1.289   6.891   0.597
 2949SOL    HW1 9746   1.341   6.809   0.576
 2949SOL    HW2 9747   1.193   6.868   0.611
 2950SOL     OW 9748   5.112   5.080   2.528
 2950SOL    HW1 9749   5.075   4.998   2.572
 2950SOL    HW2 9750   5.048   5.156   2.539
 2951SOL     OW 9751   6.101   1.447   1.994
 2951SOL    HW1 9752   6.049   1.461   1.910
 2951SOL    HW2 9753   6.049   1.482   2.072
 2952SOL     OW 9754   5.917   1.315   4.190
 2952SOL    HW1 9755   5.879   1.235   4.235
 2952SOL    HW2 9756   5.880   1.398   4.233
 2953SOL     OW 9757   0.855   5.618   3.871
 2953SOL    HW1 9758   0.857   5.710   3.832
 2953SOL    HW2 9759   0.918   5.559   3.820
 2954SOL     OW 9760   0.381   4.902   5.892
 2954SOL    HW1 9761   0.476   4.890   5.918
 2954SOL    HW2 9762   0.373   4.898   5.792
 2955SOL     OW 9763   2.052   4.540   6.971
 2955SOL    HW1 9764   2.053   4.441   6.983
 2955SOL    HW2 9765   2.072   4.562   6.875
 2956SOL     OW 9766   6.110   4.406   3.320
 2956SOL    HW1 9767   6.135   4.311   3.297
 2956SOL    HW2 9768   6.183   4.467   3.289
 2957SOL     OW 9769   2.466   5.428   1.690
 2957SOL    HW1 9770   2.509   5.338   1.681
 2957SOL    HW2 9771   2.400   5.427   1.765
 2958SOL     OW 9772   2.468   5.279   3.111
 2958SOL    HW1 9773   2.383   5.309   3.067
 2958SOL    HW2 9774   2.545   5.298   3.050
 2959SOL     OW 9775   6.905   2.639   2.910
 2959SOL    HW1 9776   6.913   2.603   3.003
 2959SOL    HW2 9777   6.820   2.692   2.902
 2960SOL     OW 9778   4.386   0.813   0.539
 2960SOL    HW1 9779   4.484   0.811   0.517
 2960SOL    HW2 9780   4.360   0.729   0.586
 2961SOL     OW 9781   5.640   4.104   2.484
 2961SOL    HW1 9782   5.584   4.111   2.402
 2961SOL    HW2 9783   5.698   4.186   2.492
 2962SOL     OW 9784   0.209   6.828   2.160
 2962SOL    HW1 9785   0.233   6.919   2.127
 2962SOL    HW2 9786   0.113   6.809   2.139
 2963SOL     OW 9787   1.639   1.203   4.976
 2963SOL    HW1 9788   1.739   1.194   4.979
 2963SOL    HW2 9789   1.613   1.294   5.008
 2964SOL     OW 9790   0.720   2.597   6.770
 2964SOL    HW1 9791   0.664   2.572   6.849
 2964SOL    HW2 9792   0.797   2.653   6.800
 2965SOL     OW 9793   0.848   0.096   4.654
 2965SOL    HW1 9794   0.766   0.046   4.625
 2965SOL    HW2 9795   0.895   0.043   4.725
 2966SOL     OW 9796   4.357   5.725   3.329
 2966SOL    HW1 9797   4.375   5.823   3.335
 2966SOL    HW2 9798   4.281   5.701   3.390
 2967SOL     OW 9799   6.511   0.266   5.296
 2967SOL    HW1 9800   6.517   0.311   5.385
 2967SOL    HW2 9801   6.602   0.252   5.258
 2968SOL     OW 9802   1.978   2.371   1.384
 2968SOL    HW1 9803   2.050   2.437   1.361
 2968SOL    HW2 9804   1.991   2.341   1.478
 2969SOL     OW 9805   5.310   3.381   4.534
 2969SOL    HW1 9806   5.349   3.290   4.547
 2969SOL    HW2 9807   5.374   3.449   4.570
 2970SOL     OW 9808   2.389   2.478   4.227
 2970SOL    HW1 9809   2.305   2.449   4.181
 2970SOL    HW2 9810   2.466   2.471   4.163
 2971SOL     OW 9811   5.482   2.776   6.149
 2971SOL    HW1 9812   5.415   2.837   6.192
 2971SOL    HW2 9813   5.435   2.715   6.085
 2972SOL     OW 9814   5.934   4.589   6.867
 2972SOL    HW1 9815   5.859   4.607   6.931
 2972SOL    HW2 9816   5.957   4.673   6.818
 2973SOL     OW 9817   4.750   0.102   2.350
 2973SOL    HW1 9818   4.686   0.026   2.344
 2973SOL    HW2 9819   4.778   0.130   2.259
 2974SOL     OW 9820   4.661   5.363   3.489
 2974SOL    HW1 9821   4.644   5.425   3.565
 2974SOL    HW2 9822   4.583   5.366   3.425
 2975SOL     OW 9823   4.843   4.436   4.076
 2975SOL    HW1 9824   4.782   4.357   4.069
 2975SOL    HW2 9825   4.805   4.511   4.022
 2976SOL     OW 9826   4.190   2.225   2.200
 2976SOL    HW1 9827   4.216   2.133   2.229
 2976SOL    HW2 9828   4.230   2.292   2.263
 2977SOL     OW 9829   1.060   0.789   1.612
 2977SOL    HW1 9830   0.973   0.827   1.644
 2977SOL    HW2 9831   1.045   0.697   1.576
 2978SOL     OW 9832   4.667   4.843   6.710
 2978SOL    HW1 9833   4.718   4.832   6.796
 2978SOL    HW2 9834   4.589   4.904   6.726
 2979SOL     OW 9835   3.203   0.994   3.957
 2979SOL    HW1 9836   3.151   0.974   3.875
 2979SOL    HW2 9837   3.156   1.065   4.010
 2980SOL     OW 9838   3.949   4.025   5.537
 2980SOL    HW1 9839   3.952   3.966   5.617
 2980SOL    HW2 9840   4.029   4.085   5.536
 2981SOL     OW 9841   1.292   1.112   0.801
 2981SOL    HW1 9842   1.227   1.106   0.725
 2981SOL    HW2 9843   1.253   1.069   0.882
 2982SOL     OW 9844   0.824   1.173   1.732
 2982SOL    HW1 9845   0.905   1.160   1.675
 2982SOL    HW2 9846   0.837   1.127   1.820
 2983SOL     OW 9847   5.917   2.963   6.252
 2983SOL    HW1 9848   5.954   2.990   6.341
 2983SOL    HW2 9849   5.831   2.914   6.265
 2984SOL     OW 9850   7.015   4.670   0.185
 2984SOL    HW1 9851   6.979   4.584   0.222
 2984SOL    HW2 9852   6.941   4.735   0.172
 2985SOL     OW 9853   0.332   6.523   4.628
 2985SOL    HW1 9854   0.261   6.464   4.667
 2985SOL    HW2 9855   0.290   6.594   4.572
 2986SOL     OW 9856   3.603   4.154   2.582
 2986SOL    HW1 9857   3.528   4.092   2.559
 2986SOL    HW2 9858   3.640   4.194   2.498
 2987SOL     OW 9859   1.862   0.656   4.473
 2987SOL    HW1 9860   1.951   0.702   4.470
 2987SOL    HW2 9861   1.814   0.673   4.387
 2988SOL     OW 9862   0.824   1.966   0.373
 2988SOL    HW1 9863   0.794   2.001   0.462
 2988SOL    HW2 9864   0.841   1.868   0.380
 2989SOL     OW 9865   5.209   3.592   4.344
 2989SOL    HW1 9866   5.219   3.533   4.424
 2989SOL    HW2 9867   5.229   3.686   4.369
 2990SOL     OW 9868   5.009   1.971   4.800
 2990SOL    HW1 9869   5.089   1.951   4.856
 2990SOL    HW2 9870   4.955   2.042   4.844
 2991SOL     OW 9871   5.825   3.868   0.617
 2991SOL    HW1 9872   5.858   3.962   0.617
 2991SOL    HW2 9873   5.875   3.815   0.549
 2992SOL     OW 9874   0.670   3.171   5.392
 2992SOL    HW1 9875   0.764   3.191   5.365
 2992SOL    HW2 9876   0.611   3.249   5.368
 2993SOL     OW 9877   1.179   4.459   0.543
 2993SOL    HW1 9878   1.107   4.477   0.476
 2993SOL    HW2 9879   1.181   4.361   0.563
 2994SOL     OW 9880   4.633   6.771   6.978
 2994SOL    HW1 9881   4.700   6.805   6.912
 2994SOL    HW2 9882   4.617   6.841   0.024
 2995SOL     OW 9883   5.244   0.178   1.106
 2995SOL    HW1 9884   5.207   0.088   1.130
 2995SOL    HW2 9885   5.174   0.248   1.120
 2996SOL     OW 9886   0.298   1.300   4.593
 2996SOL    HW1 9887   0.300   1.399   4.582
 2996SOL    HW2 9888   0.348   1.274   4.676
 2997SOL     OW 9889   5.134   0.480   3.962
 2997SOL    HW1 9890   5.141   0.579   3.969
 2997SOL    HW2 9891   5.220   0.443   3.927
 2998SOL     OW 9892   2.524   1.412   2.465
 2998SOL    HW1 9893   2.548   1.317   2.486
 2998SOL    HW2 9894   2.603   1.459   2.425
 2999SOL     OW 9895   2.797   4.392   0.237
 2999SOL    HW1 9896   2.833   4.309   0.195
 2999SOL    HW2 9897   2.713   4.420   0.190
 3000SOL     OW 9898   3.078   3.620   5.074
 3000SOL    HW1 9899   3.035   3.537   5.038
 3000SOL    HW2 9900   3.175   3.603   5.091
 3001SOL     OW 9901   6.438   0.959   5.715
 3001SOL    HW1 9902   6.438   1.059   5.713
 3001SOL    HW2 9903   6.361   0.925   5.661
 3002SOL     OW 9904   2.554   1.409   1.753
 3002SOL    HW1 9905   2.526   1.502   1.729
 3002SOL    HW2 9906   2.653   1.407   1.767
 3003SOL     OW 9907   1.566   6.074   7.020
 3003SOL    HW1 9908   1.628   5.995   7.018
 3003SOL    HW2 9909   1.517   6.080   6.933
 3004SOL     OW 9910   2.574   5.974   3.735
 3004SOL    HW1 9911   2.588   5.932   3.645
 3004SOL    HW2 9912   2.580   5.904   3.806
 3005SOL     OW 9913   1.080   2.381   5.287
 3005SOL    HW1 9914   0.991   2.400   5.329
 3005SOL    HW2 9915   1.066   2.358   5.190
 3006SOL     OW 9916   5.612   1.479   5.347
 3006SOL    HW1 9917   5.527   1.428   5.337
 3006SOL    HW2 9918   5.676   1.426   5.403
 3007SOL     OW 9919   5.132   4.166   6.548
 3007SOL    HW1 9920   5.048   4.127   6.585
 3007SOL    HW2 9921   5.123   4.266   6.542
 3008SOL     OW 9922   4.497   2.226   5.944
 3008SOL    HW1 9923   4.472   2.237   5.848
 3008SOL    HW2 9924   4.578   2.167   5.951
 3009SOL     OW 9925   0.334   3.311   2.500
 3009SOL    HW1 9926   0.340   3.233   2.437
 3009SOL    HW2 9927   0.391   3.294   2.580
 3010SOL     OW 9928   4.365   5.975   6.083
 3010SOL    HW1 9929   4.439   5.920   6.123
 3010SOL    HW2 9930   4.378   6.071   6.109
 3011SOL     OW 9931   6.383   0.104   1.064
 3011SOL    HW1 9932   6.384   0.192   1.111
 3011SOL    HW2 9933   6.403   0.118   0.967
 3012SOL     OW 9934   2.580   2.790   6.127
 3012SOL    HW1 9935   2.580   2.876   6.076
 3012SOL    HW2 9936   2.560   2.714   6.065
 3013SOL     OW 9937   0.761   5.840   4.710
 3013SOL    HW1 9938   0.745   5.914   4.776
 3013SOL    HW2 9939   0.845   5.792   4.734
 3014SOL     OW 9940   4.798   0.318   5.368
 3014SOL    HW1 9941   4.795   0.218   5.364
 3014SOL    HW2 9942   4.851   0.352   5.290
 3015SOL     OW 9943   1.372   1.514   0.134
 3015SOL    HW1 9944   1.462   1.474   0.124
 3015SOL    HW2 9945   1.381   1.611   0.157
 3016SOL     OW 9946   2.283   6.597   4.859
 3016SOL    HW1 9947   2.273   6.692   4.888
 3016SOL    HW2 9948   2.363   6.557   4.903
 3017SOL     OW 9949   0.095   5.581   1.124
 3017SOL    HW1 9950   0.096   5.588   1.024
 3017SOL    HW2 9951   0.047   5.498   1.152
 3018SOL     OW 9952   3.671   0.102   6.763
 3018SOL    HW1 9953   3.653   0.118   6.666
 3018SOL    HW2 9954   3.598   0.047   6.802
 3019SOL     OW 9955   1.850   0.391   4.876
 3019SOL    HW1 9956   1.851   0.414   4.973
 3019SOL    HW2 9957   1.798   0.460   4.825
 3020SOL     OW 9958   5.068   3.252   7.016
 3020SOL    HW1 9959   5.070   3.172   0.053
 3020SOL    HW2 9960   5.153   3.255   6.963
 3021SOL     OW 9961   3.747   6.145   4.913
 3021SOL    HW1 9962   3.805   6.079   4.959
 3021SOL    HW2 9963   3.776   6.156   4.818
 3022SOL     OW 9964   4.243   5.631   4.018
 3022SOL    HW1 9965   4.238   5.562   3.946
 3022SOL    HW2 9966   4.338   5.651   4.038
 3023SOL     OW 9967   4.308   6.716   3.033
 3023SOL    HW1 9968   4.212   6.691   3.019
 3023SOL    HW2 9969   4.334   6.787   2.968
 3024SOL     OW 9970   0.193   6.679   6.930
 3024SOL    HW1 9971   0.154   6.663   7.021
 3024SOL    HW2 9972   0.159   6.611   6.866
 3025SOL     OW 9973   3.743   6.264   0.560
 3025SOL    HW1 9974   3.768   6.289   0.654
 3025SOL    HW2 9975   3.644   6.248   0.556
 3026SOL     OW 9976   6.269   0.926   0.444
 3026SOL    HW1 9977   6.228   0.853   0.390
 3026SOL    HW2 9978   6.199   0.969   0.501
 3027SOL     OW 9979   5.077   1.704   1.247
 3027SOL    HW1 9980   4.998   1.720   1.188
 3027SOL    HW2 9981   5.159   1.742   1.204
 3028SOL     OW 9982   2.452   4.705   5.804
 3028SOL    HW1 9983   2.436   4.623   5.858
 3028SOL    HW2 9984   2.543   4.741   5.822
 3029SOL     OW 9985   0.547   2.479   4.341
 3029SOL    HW1 9986   0.451   2.477   4.315
 3029SOL    HW2 9987   0.555   2.465   4.440
 3030SOL     OW 9988   2.542   3.206   0.312
 3030SOL    HW1 9989   2.518   3.172   0.222
 3030SOL    HW2 9990   2.496   3.152   0.383
 3031SOL     OW 9991   1.093   6.514   1.486
 3031SOL    HW1 9992   1.089   6.608   1.520
 3031SOL    HW2 9993   1.146   6.457   1.550
 3032SOL     OW 9994   2.079   0.586   2.285
 3032SOL    HW1 9995   1.986   0.622   2.278
 3032SOL    HW2 9996   2.134   0.620   2.209
 3033SOL     OW 9997   6.806   1.927   3.912
 3033SOL    HW1 9998   6.786   1.883   4.000
 3033SOL    HW2 9999   6.780   2.023   3.916
 3034SOL     OW10000   0.216   5.827   3.376
 3034SOL    HW110001   0.213   5.768   3.457
 3034SOL    HW210002   0.142   5.802   3.313
 3035SOL     OW10003   0.931   2.966   6.250
 3035SOL    HW110004   1.013   2.915   6.276
 3035SOL    HW210005   0.859   2.951   6.317
 3036SOL     OW10006   3.187   2.406   6.321
 3036SOL    HW110007   3.280   2.443   6.314
 3036SOL    HW210008   3.131   2.441   6.246
 3037SOL     OW10009   0.382   5.687   0.159
 3037SOL    HW110010   0.431   5.725   0.081
 3037SOL    HW210011   0.299   5.640   0.126
 3038SOL     OW10012   5.269   3.940   6.652
 3038SOL    HW110013   5.192   3.918   6.711
 3038SOL    HW210014   5.252   4.027   6.606
 3039SOL     OW10015   6.888   4.031   6.866
 3039SOL    HW110016   6.874   3.979   6.782
 3039SOL    HW210017   6.811   4.015   6.928
 3040SOL     OW10018   4.707   3.905   5.663
 3040SOL    HW110019   4.685   3.807   5.662
 3040SOL    HW210020   4.623   3.959   5.664
 3041SOL     OW10021   2.261   4.327   4.894
 3041SOL    HW110022   2.273   4.234   4.928
 3041SOL    HW210023   2.196   4.327   4.818
 3042SOL     OW10024   0.036   5.276   3.333
 3042SOL    HW110025   0.015   5.218   3.412
 3042SOL    HW210026   7.012   5.242   3.253
 3043SOL     OW10027   3.235   4.832   0.635
 3043SOL    HW110028   3.163   4.881   0.586
 3043SOL    HW210029   3.322   4.880   0.623
 3044SOL     OW10030   3.432   3.188   5.261
 3044SOL    HW110031   3.415   3.096   5.295
 3044SOL    HW210032   3.396   3.196   5.168
 3045SOL     OW10033   4.736   1.259   2.094
 3045SOL    HW110034   4.751   1.309   2.179
 3045SOL    HW210035   4.814   1.198   2.077
 3046SOL     OW10036   5.701   5.612   0.715
 3046SOL    HW110037   5.797   5.628   0.737
 3046SOL    HW210038   5.644   5.659   0.783
 3047SOL     OW10039   6.289   0.872   6.164
 3047SOL    HW110040   6.376   0.919   6.166
 3047SOL    HW210041   6.303   0.776   6.138
 3048SOL     OW10042   3.775   3.586   0.804
 3048SOL    HW110043   3.784   3.660   0.738
 3048SOL    HW210044   3.679   3.556   0.807
 3049SOL     OW10045   1.503   0.671   4.318
 3049SOL    HW110046   1.467   0.747   4.373
 3049SOL    HW210047   1.469   0.585   4.354
 3050SOL     OW10048   2.930   2.384   1.296
 3050SOL    HW110049   3.012   2.411   1.348
 3050SOL    HW210050   2.866   2.460   1.292
 3051SOL     OW10051   2.369   6.141   5.181
 3051SOL    HW110052   2.337   6.235   5.194
 3051SOL    HW210053   2.431   6.138   5.104
 3052SOL     OW10054   6.480   6.350   2.327
 3052SOL    HW110055   6.577   6.335   2.344
 3052SOL    HW210056   6.461   6.347   2.229
 3053SOL     OW10057   1.657   4.382   0.381
 3053SOL    HW110058   1.600   4.300   0.388
 3053SOL    HW210059   1.707   4.381   0.294
 3054SOL     OW10060   5.640   1.191   2.737
 3054SOL    HW110061   5.570   1.257   2.709
 3054SOL    HW210062   5.609   1.099   2.715
 3055SOL     OW10063   6.130   5.460   6.351
 3055SOL    HW110064   6.112   5.485   6.446
 3055SOL    HW210065   6.160   5.540   6.300
 3056SOL     OW10066   4.744   1.473   6.206
 3056SOL    HW110067   4.832   1.507   6.174
 3056SOL    HW210068   4.723   1.386   6.163
 3057SOL     OW10069   5.811   5.429   3.057
 3057SOL    HW110070   5.848   5.520   3.078
 3057SOL    HW210071   5.731   5.438   2.999
 3058SOL     OW10072   0.008   4.940   6.814
 3058SOL    HW110073   0.061   4.860   6.841
 3058SOL    HW210074   6.978   4.920   6.733
 3059SOL     OW10075   2.286   2.467   4.549
 3059SOL    HW110076   2.380   2.488   4.578
 3059SOL    HW210077   2.286   2.381   4.498
 3060SOL     OW10078   4.949   5.060   5.277
 3060SOL    HW110079   4.903   5.057   5.189
 3060SOL    HW210080   4.907   5.130   5.335
 3061SOL     OW10081   5.899   5.298   4.969
 3061SOL    HW110082   5.862   5.380   4.924
 3061SOL    HW210083   5.991   5.317   5.003
 3062SOL     OW10084   5.025   4.431   1.911
 3062SOL    HW110085   4.983   4.513   1.872
 3062SOL    HW210086   4.954   4.367   1.939
 3063SOL     OW10087   0.256   4.528   1.503
 3063SOL    HW110088   0.234   4.445   1.453
 3063SOL    HW210089   0.312   4.588   1.446
 3064SOL     OW10090   4.291   1.904   6.817
 3064SOL    HW110091   4.349   1.823   6.803
 3064SOL    HW210092   4.231   1.916   6.738
 3065SOL     OW10093   0.715   0.758   6.697
 3065SOL    HW110094   0.787   0.720   6.755
 3065SOL    HW210095   0.747   0.763   6.602
 3066SOL     OW10096   5.331   5.949   6.014
 3066SOL    HW110097   5.233   5.941   6.035
 3066SOL    HW210098   5.371   6.020   6.072
 3067SOL     OW10099   2.158   2.572   6.373
 3067SOL    HW110100   2.142   2.651   6.431
 3067SOL    HW210101   2.087   2.566   6.303
 3068SOL     OW10102   0.693   1.117   1.276
 3068SOL    HW110103   0.695   1.070   1.187
 3068SOL    HW210104   0.661   1.054   1.346
 3069SOL     OW10105   4.841   0.044   2.999
 3069SOL    HW110106   4.794   0.076   3.082
 3069SOL    HW210107   4.791   0.077   2.918
 3070SOL     OW10108   2.753   1.048   1.107
 3070SOL    HW110109   2.661   1.083   1.089
 3070SOL    HW210110   2.805   1.115   1.160
 3071SOL     OW10111   6.991   3.228   3.888
 3071SOL    HW110112   6.912   3.286   3.871
 3071SOL    HW210113   6.964   3.150   3.945
 3072SOL     OW10114   2.231   6.573   6.273
 3072SOL    HW110115   2.267   6.657   6.231
 3072SOL    HW210116   2.209   6.591   6.369
 3073SOL     OW10117   6.385   5.174   0.491
 3073SOL    HW110118   6.332   5.213   0.416
 3073SOL    HW210119   6.332   5.101   0.535
 3074SOL     OW10120   2.374   3.258   1.042
 3074SOL    HW110121   2.468   3.277   1.012
 3074SOL    HW210122   2.376   3.205   1.127
 3075SOL     OW10123   2.365   5.465   2.771
 3075SOL    HW110124   2.305   5.422   2.704
 3075SOL    HW210125   2.326   5.453   2.863
 3076SOL     OW10126   0.182   6.966   4.635
 3076SOL    HW110127   0.202   6.888   4.694
 3076SOL    HW210128   0.221   0.025   4.675
 3077SOL     OW10129   6.476   3.934   1.969
 3077SOL    HW110130   6.413   3.973   1.902
 3077SOL    HW210131   6.435   3.853   2.010
 3078SOL     OW10132   6.572   3.081   1.529
 3078SOL    HW110133   6.519   3.157   1.568
 3078SOL    HW210134   6.669   3.100   1.540
 3079SOL     OW10135   2.625   3.378   5.368
 3079SOL    HW110136   2.640   3.339   5.459
 3079SOL    HW210137   2.571   3.314   5.313
 3080SOL     OW10138   4.254   5.166   1.090
 3080SOL    HW110139   4.232   5.069   1.098
 3080SOL    HW210140   4.303   5.196   1.171
 3081SOL     OW10141   1.927   4.312   0.664
 3081SOL    HW110142   1.929   4.265   0.753
 3081SOL    HW210143   1.833   4.337   0.642
 3082SOL     OW10144   4.363   5.105   4.974
 3082SOL    HW110145   4.338   5.022   5.023
 3082SOL    HW210146   4.461   5.120   4.980
 3083SOL     OW10147   2.722   5.760   2.546
 3083SOL    HW110148   2.652   5.779   2.615
 3083SOL    HW210149   2.809   5.802   2.573
 3084SOL     OW10150   0.567   3.115   3.890
 3084SOL    HW110151   0.601   3.205   3.919
 3084SOL    HW210152   0.603   3.095   3.798
 3085SOL     OW10153   5.097   4.258   0.927
 3085SOL    HW110154   5.163   4.315   0.975
 3085SOL    HW210155   5.082   4.296   0.835
 3086SOL     OW10156   6.032   0.851   6.567
 3086SOL    HW110157   6.086   0.895   6.639
 3086SOL    HW210158   6.077   0.865   6.479
 3087SOL     OW10159   2.786   0.293   2.359
 3087SOL    HW110160   2.710   0.328   2.414
 3087SOL    HW210161   2.848   0.368   2.337
 3088SOL     OW10162   1.660   2.939   5.310
 3088SOL    HW110163   1.624   2.847   5.329
 3088SOL    HW210164   1.603   3.007   5.357
 3089SOL     OW10165   4.885   6.863   4.921
 3089SOL    HW110166   4.920   6.827   5.007
 3089SOL    HW210167   4.961   6.883   4.860
 3090SOL     OW10168   1.106   2.672   1.964
 3090SOL    HW110169   1.104   2.681   2.063
 3090SOL    HW210170   1.196   2.697   1.929
 3091SOL     OW10171   1.106   2.270   0.905
 3091SOL    HW110172   1.052   2.315   0.976
 3091SOL    HW210173   1.049   2.254   0.824
 3092SOL     OW10174   6.854   0.037   2.330
 3092SOL    HW110175   6.829   6.964   2.323
 3092SOL    HW210176   6.844   0.067   2.424
 3093SOL     OW10177   5.132   5.073   6.875
 3093SOL    HW110178   5.184   5.158   6.883
 3093SOL    HW210179   5.118   5.034   6.966
 3094SOL     OW10180   3.071   1.448   5.979
 3094SOL    HW110181   3.162   1.481   5.951
 3094SOL    HW210182   3.025   1.520   6.031
 3095SOL     OW10183   1.916   3.594   5.204
 3095SOL    HW110184   1.860   3.531   5.258
 3095SOL    HW210185   1.969   3.653   5.265
 3096SOL     OW10186   0.351   4.025   4.560
 3096SOL    HW110187   0.280   3.972   4.606
 3096SOL    HW210188   0.313   4.111   4.526
 3097SOL     OW10189   5.393   1.954   6.371
 3097SOL    HW110190   5.484   1.972   6.333
 3097SOL    HW210191   5.357   2.038   6.410
 3098SOL     OW10192   2.052   2.602   2.356
 3098SOL    HW110193   2.077   2.585   2.260
 3098SOL    HW210194   2.010   2.693   2.364
 3099SOL     OW10195   0.108   6.005   3.832
 3099SOL    HW110196   0.042   5.968   3.897
 3099SOL    HW210197   0.201   5.979   3.860
 3100SOL     OW10198   6.966   5.437   2.356
 3100SOL    HW110199   6.877   5.471   2.386
 3100SOL    HW210200   7.011   5.389   2.432
 3101SOL     OW10201   3.969   6.153   5.721
 3101SOL    HW110202   3.968   6.232   5.660
 3101SOL    HW210203   3.879   6.109   5.719
 3102SOL     OW10204   0.086   4.573   0.708
 3102SOL    HW110205   0.078   4.481   0.746
 3102SOL    HW210206   0.111   4.637   0.781
 3103SOL     OW10207   3.395   0.213   1.450
 3103SOL    HW110208   3.452   0.286   1.412
 3103SOL    HW210209   3.299   0.241   1.448
 3104SOL     OW10210   4.588   0.103   6.286
 3104SOL    HW110211   4.659   0.110   6.216
 3104SOL    HW210212   4.503   0.140   6.251
 3105SOL     OW10213   5.726   3.251   0.174
 3105SOL    HW110214   5.790   3.318   0.214
 3105SOL    HW210215   5.674   3.208   0.247
 3106SOL     OW10216   5.810   0.276   5.001
 3106SOL    HW110217   5.808   0.356   4.941
 3106SOL    HW210218   5.902   0.265   5.038
 3107SOL     OW10219   3.813   0.793   6.276
 3107SOL    HW110220   3.777   0.812   6.367
 3107SOL    HW210221   3.760   0.844   6.208
 3108SOL     OW10222   2.056   4.548   4.045
 3108SOL    HW110223   2.004   4.513   4.123
 3108SOL    HW210224   2.074   4.645   4.057
 3109SOL     OW10225   6.777   6.083   4.030
 3109SOL    HW110226   6.842   6.008   4.044
 3109SOL    HW210227   6.720   6.063   3.951
 3110SOL     OW10228   1.731   4.763   3.898
 3110SOL    HW110229   1.756   4.742   3.993
 3110SOL    HW210230   1.733   4.862   3.884
 3111SOL     OW10231   5.931   4.452   4.204
 3111SOL    HW110232   5.984   4.395   4.141
 3111SOL    HW210233   5.927   4.407   4.293
 3112SOL     OW10234   3.520   2.219   6.930
 3112SOL    HW110235   3.512   2.122   6.911
 3112SOL    HW210236   3.554   2.233   7.023
 3113SOL     OW10237   2.042   5.672   3.461
 3113SOL    HW110238   1.951   5.711   3.467
 3113SOL    HW210239   2.108   5.733   3.506
 3114SOL     OW10240   4.284   0.730   0.143
 3114SOL    HW110241   4.195   0.740   0.187
 3114SOL    HW210242   4.314   0.635   0.149
 3115SOL     OW10243   4.368   4.984   5.538
 3115SOL    HW110244   4.377   5.014   5.443
 3115SOL    HW210245   4.409   4.893   5.548
 3116SOL     OW10246   0.767   2.042   1.367
 3116SOL    HW110247   0.838   2.056   1.297
 3116SOL    HW210248   0.751   2.128   1.414
 3117SOL     OW10249   5.208   1.587   5.327
 3117SOL    HW110250   5.288   1.592   5.268
 3117SOL    HW210251   5.237   1.588   5.423
 3118SOL     OW10252   2.074   1.351   2.908
 3118SOL    HW110253   2.048   1.267   2.859
 3118SOL    HW210254   1.993   1.407   2.924
 3119SOL     OW10255   4.354   4.253   5.844
 3119SOL    HW110256   4.324   4.186   5.776
 3119SOL    HW210257   4.451   4.275   5.827
 3120SOL     OW10258   1.873   6.531   4.595
 3120SOL    HW110259   1.835   6.623   4.583
 3120SOL    HW210260   1.863   6.503   4.691
 3121SOL     OW10261   4.528   1.091   4.587
 3121SOL    HW110262   4.587   1.096   4.668
 3121SOL    HW210263   4.572   1.137   4.510
 3122SOL     OW10264   4.131   5.341   5.024
 3122SOL    HW110265   4.231   5.342   5.026
 3122SOL    HW210266   4.096   5.353   5.117
 3123SOL     OW10267   2.986   1.726   3.623
 3123SOL    HW110268   2.967   1.781   3.704
 3123SOL    HW210269   3.065   1.764   3.575
 3124SOL     OW10270   4.966   0.280   3.875
 3124SOL    HW110271   4.880   0.299   3.922
 3124SOL    HW210272   5.026   0.359   3.882
 3125SOL     OW10273   1.676   2.440   5.271
 3125SOL    HW110274   1.663   2.389   5.356
 3125SOL    HW210275   1.770   2.428   5.239
 3126SOL     OW10276   5.620   5.051   4.511
 3126SOL    HW110277   5.658   5.107   4.438
 3126SOL    HW210278   5.614   5.105   4.595
 3127SOL     OW10279   0.014   1.236   4.651
 3127SOL    HW110280   0.104   1.224   4.609
 3127SOL    HW210281   0.024   1.289   4.735
 3128SOL     OW10282   4.637   0.855   0.223
 3128SOL    HW110283   4.589   0.779   0.179
 3128SOL    HW210284   4.694   0.902   0.156
 3129SOL     OW10285   4.966   3.243   0.702
 3129SOL    HW110286   5.009   3.154   0.717
 3129SOL    HW210287   4.881   3.247   0.756
 3130SOL     OW10288   0.932   4.447   1.374
 3130SOL    HW110289   1.003   4.475   1.438
 3130SOL    HW210290   0.855   4.511   1.378
 3131SOL     OW10291   6.733   3.980   2.549
 3131SOL    HW110292   6.787   3.936   2.477
 3131SOL    HW210293   6.792   4.037   2.605
 3132SOL     OW10294   3.997   4.682   6.920
 3132SOL    HW110295   3.983   4.606   6.856
 3132SOL    HW210296   3.935   4.672   6.998
 3133SOL     OW10297   4.139   0.770   3.655
 3133SOL    HW110298   4.202   0.765   3.732
 3133SOL    HW210299   4.109   0.678   3.630
 3134SOL     OW10300   4.046   5.219   2.430
 3134SOL    HW110301   4.081   5.126   2.418
 3134SOL    HW210302   4.078   5.255   2.518
 3135SOL     OW10303   5.551   6.665   6.032
 3135SOL    HW110304   5.553   6.704   5.940
 3135SOL    HW210305   5.623   6.706   6.088
 3136SOL     OW10306   6.118   1.263   2.726
 3136SOL    HW110307   6.025   1.241   2.697
 3136SOL    HW210308   6.118   1.349   2.778
 3137SOL     OW10309   6.596   6.894   6.835
 3137SOL    HW110310   6.548   6.982   6.832
 3137SOL    HW210311   6.657   6.887   6.756
 3138SOL     OW10312   5.814   4.893   3.858
 3138SOL    HW110313   5.913   4.877   3.855
 3138SOL    HW210314   5.772   4.859   3.774
 3139SOL     OW10315   2.725   4.848   1.001
 3139SOL    HW110316   2.742   4.751   0.988
 3139SOL    HW210317   2.738   4.872   1.097
 3140SOL     OW10318   6.803   6.332   6.143
 3140SOL    HW110319   6.738   6.407   6.158
 3140SOL    HW210320   6.895   6.362   6.166
 3141SOL     OW10321   6.362   2.467   6.451
 3141SOL    HW110322   6.325   2.558   6.471
 3141SOL    HW210323   6.341   2.443   6.356
 3142SOL     OW10324   4.990   0.803   2.581
 3142SOL    HW110325   4.905   0.783   2.533
 3142SOL    HW210326   5.066   0.757   2.535
 3143SOL     OW10327   6.431   1.618   0.024
 3143SOL    HW110328   6.413   1.537   6.992
 3143SOL    HW210329   6.486   1.591   0.103
 3144SOL     OW10330   3.884   4.192   6.332
 3144SOL    HW110331   3.793   4.173   6.369
 3144SOL    HW210332   3.953   4.173   6.402
 3145SOL     OW10333   1.010   6.124   1.499
 3145SOL    HW110334   1.007   6.074   1.413
 3145SOL    HW210335   0.921   6.168   1.516
 3146SOL     OW10336   0.318   0.482   5.046
 3146SOL    HW110337   0.406   0.510   5.008
 3146SOL    HW210338   0.244   0.527   4.996
 3147SOL     OW10339   3.970   5.014   6.641
 3147SOL    HW110340   3.889   5.063   6.674
 3147SOL    HW210341   4.020   4.976   6.719
 3148SOL     OW10342   0.599   5.864   2.888
 3148SOL    HW110343   0.631   5.953   2.920
 3148SOL    HW210344   0.519   5.877   2.829
 3149SOL     OW10345   2.916   1.033   0.830
 3149SOL    HW110346   2.850   1.042   0.904
 3149SOL    HW210347   2.894   1.098   0.757
 3150SOL     OW10348   6.886   5.928   5.384
 3150SOL    HW110349   6.806   5.879   5.350
 3150SOL    HW210350   6.922   5.988   5.312
 3151SOL     OW10351   6.137   1.756   5.851
 3151SOL    HW110352   6.163   1.670   5.894
 3151SOL    HW210353   6.172   1.832   5.905
 3152SOL     OW10354   1.279   2.846   6.034
 3152SOL    HW110355   1.328   2.793   6.104
 3152SOL    HW210356   1.340   2.861   5.956
 3153SOL     OW10357   6.495   5.196   1.093
 3153SOL    HW110358   6.471   5.099   1.102
 3153SOL    HW210359   6.509   5.218   0.996
 3154SOL     OW10360   5.308   1.655   1.063
 3154SOL    HW110361   5.314   1.642   0.964
 3154SOL    HW210362   5.285   1.568   1.106
 3155SOL     OW10363   0.416   4.727   0.971
 3155SOL    HW110364   0.436   4.810   0.918
 3155SOL    HW210365   0.317   4.719   0.983
 3156SOL     OW10366   3.568   4.147   2.024
 3156SOL    HW110367   3.668   4.150   2.027
 3156SOL    HW210368   3.538   4.117   1.934
 3157SOL     OW10369   0.826   1.997   5.335
 3157SOL    HW110370   0.880   2.001   5.419
 3157SOL    HW210371   0.839   1.907   5.292
 3158SOL     OW10372   2.907   1.279   5.649
 3158SOL    HW110373   2.874   1.284   5.555
 3158SOL    HW210374   2.900   1.370   5.691
 3159SOL     OW10375   5.625   0.080   0.221
 3159SOL    HW110376   5.704   0.116   0.271
 3159SOL    HW210377   5.602   7.014   0.258
 3160SOL     OW10378   2.343   0.207   5.741
 3160SOL    HW110379   2.373   0.194   5.836
 3160SOL    HW210380   2.349   0.119   5.693
 3161SOL     OW10381   2.150   2.668   3.284
 3161SOL    HW110382   2.206   2.751   3.285
 3161SOL    HW210383   2.073   2.679   3.347
 3162SOL     OW10384   1.801   5.627   0.712
 3162SOL    HW110385   1.856   5.559   0.762
 3162SOL    HW210386   1.739   5.580   0.649
 3163SOL     OW10387   4.540   4.259   0.467
 3163SOL    HW110388   4.603   4.207   0.410
 3163SOL    HW210389   4.448   4.221   0.458
 3164SOL     OW10390   2.663   6.179   3.188
 3164SOL    HW110391   2.725   6.253   3.213
 3164SOL    HW210392   2.716   6.098   3.164
 3165SOL     OW10393   1.033   6.132   0.840
 3165SOL    HW110394   0.984   6.130   0.753
 3165SOL    HW210395   0.974   6.095   0.912
 3166SOL     OW10396   3.999   0.751   5.348
 3166SOL    HW110397   3.972   0.845   5.369
 3166SOL    HW210398   4.088   0.731   5.388
 3167SOL     OW10399   5.087   3.627   0.568
 3167SOL    HW110400   5.012   3.693   0.579
 3167SOL    HW210401   5.148   3.657   0.495
 3168SOL     OW10402   4.048   1.856   0.327
 3168SOL    HW110403   4.093   1.916   0.393
 3168SOL    HW210404   4.041   1.763   0.365
 3169SOL     OW10405   1.724   4.634   2.183
 3169SOL    HW110406   1.740   4.711   2.244
 3169SOL    HW210407   1.806   4.619   2.127
 3170SOL     OW10408   3.593   5.203   3.466
 3170SOL    HW110409   3.649   5.191   3.385
 3170SOL    HW210410   3.519   5.268   3.447
 3171SOL     OW10411   5.417   2.644   2.737
 3171SOL    HW110412   5.339   2.706   2.747
 3171SOL    HW210413   5.398   2.579   2.663
 3172SOL     OW10414   0.536   4.877   0.701
 3172SOL    HW110415   0.514   4.781   0.680
 3172SOL    HW210416   0.491   4.937   0.635
 3173SOL     OW10417   3.296   1.584   0.330
 3173SOL    HW110418   3.230   1.620   0.264
 3173SOL    HW210419   3.388   1.594   0.293
 3174SOL     OW10420   3.010   3.584   5.975
 3174SOL    HW110421   2.927   3.555   5.927
 3174SOL    HW210422   3.090   3.555   5.923
 3175SOL     OW10423   6.928   0.721   4.193
 3175SOL    HW110424   6.984   0.703   4.112
 3175SOL    HW210425   6.952   0.656   4.265
 3176SOL     OW10426   1.180   4.598   4.578
 3176SOL    HW110427   1.251   4.534   4.606
 3176SOL    HW210428   1.093   4.571   4.619
 3177SOL     OW10429   5.579   3.905   3.015
 3177SOL    HW110430   5.489   3.876   2.983
 3177SOL    HW210431   5.650   3.855   2.967
 3178SOL     OW10432   6.915   0.875   1.139
 3178SOL    HW110433   6.939   0.941   1.068
 3178SOL    HW210434   6.997   0.826   1.168
 3179SOL     OW10435   0.737   1.925   2.052
 3179SOL    HW110436   0.832   1.900   2.034
 3179SOL    HW210437   0.684   1.844   2.076
 3180SOL     OW10438   6.813   6.026   6.932
 3180SOL    HW110439   6.745   6.084   6.978
 3180SOL    HW210440   6.784   6.009   6.839
 3181SOL     OW10441   0.521   1.207   4.408
 3181SOL    HW110442   0.519   1.108   4.421
 3181SOL    HW210443   0.446   1.249   4.459
 3182SOL     OW10444   2.934   0.549   0.242
 3182SOL    HW110445   2.862   0.521   0.305
 3182SOL    HW210446   2.910   0.520   0.149
 3183SOL     OW10447   4.501   4.539   1.984
 3183SOL    HW110448   4.581   4.580   2.028
 3183SOL    HW210449   4.503   4.440   1.996
 3184SOL     OW10450   0.160   2.515   4.589
 3184SOL    HW110451   0.086   2.544   4.649
 3184SOL    HW210452   0.131   2.434   4.537
 3185SOL     OW10453   0.213   6.203   6.299
 3185SOL    HW110454   0.189   6.106   6.299
 3185SOL    HW210455   0.282   6.220   6.228
 3186SOL     OW10456   1.133   1.466   5.922
 3186SOL    HW110457   1.088   1.403   5.986
 3186SOL    HW210458   1.116   1.435   5.828
 3187SOL     OW10459   3.873   5.587   2.870
 3187SOL    HW110460   3.878   5.510   2.807
 3187SOL    HW210461   3.952   5.647   2.858
 3188SOL     OW10462   2.159   5.350   6.097
 3188SOL    HW110463   2.154   5.261   6.052
 3188SOL    HW210464   2.151   5.423   6.029
 3189SOL     OW10465   2.604   1.558   0.328
 3189SOL    HW110466   2.604   1.551   0.228
 3189SOL    HW210467   2.698   1.569   0.360
 3190SOL     OW10468   0.014   6.014   4.699
 3190SOL    HW110469   6.995   5.927   4.677
 3190SOL    HW210470   0.083   6.036   4.630
 3191SOL     OW10471   4.645   5.551   1.812
 3191SOL    HW110472   4.695   5.637   1.802
 3191SOL    HW210473   4.574   5.544   1.741
 3192SOL     OW10474   6.359   2.200   1.990
 3192SOL    HW110475   6.332   2.118   2.041
 3192SOL    HW210476   6.417   2.172   1.912
 3193SOL     OW10477   3.563   0.433   5.459
 3193SOL    HW110478   3.551   0.437   5.558
 3193SOL    HW210479   3.630   0.502   5.431
 3194SOL     OW10480   1.029   1.348   5.662
 3194SOL    HW110481   1.011   1.329   5.566
 3194SOL    HW210482   1.034   1.263   5.713
 3195SOL     OW10483   0.112   1.799   1.676
 3195SOL    HW110484   0.138   1.711   1.718
 3195SOL    HW210485   0.014   1.797   1.655
 3196SOL     OW10486   6.572   6.976   4.691
 3196SOL    HW110487   6.616   7.016   4.611
 3196SOL    HW210488   6.611   7.016   4.774
 3197SOL     OW10489   2.021   0.248   6.066
 3197SOL    HW110490   1.977   0.337   6.056
 3197SOL    HW210491   2.120   0.261   6.077
 3198SOL     OW10492   6.743   2.558   3.467
 3198SOL    HW110493   6.654   2.511   3.468
 3198SOL    HW210494   6.769   2.581   3.561
 3199SOL     OW10495   5.678   4.415   2.966
 3199SOL    HW110496   5.643   4.387   2.877
 3199SOL    HW210497   5.748   4.485   2.954
 3200SOL     OW10498   5.548   3.133   3.720
 3200SOL    HW110499   5.477   3.173   3.664
 3200SOL    HW210500   5.637   3.148   3.677
 3201SOL     OW10501   6.025   3.710   2.632
 3201SOL    HW110502   5.926   3.714   2.639
 3201SOL    HW210503   6.059   3.798   2.598
 3202SOL     OW10504   1.285   5.092   0.651
 3202SOL    HW110505   1.303   5.162   0.720
 3202SOL    HW210506   1.370   5.066   0.606
 3203SOL     OW10507   4.416   6.328   1.288
 3203SOL    HW110508   4.331   6.286   1.320
 3203SOL    HW210509   4.403   6.426   1.278
 3204SOL     OW10510   3.131   1.233   3.725
 3204SOL    HW110511   3.178   1.318   3.700
 3204SOL    HW210512   3.194   1.156   3.710
 3205SOL     OW10513   5.740   2.814   5.467
 3205SOL    HW110514   5.812   2.884   5.467
 3205SOL    HW210515   5.701   2.806   5.559
 3206SOL     OW10516   2.718   2.802   1.624
 3206SOL    HW110517   2.757   2.890   1.652
 3206SOL    HW210518   2.636   2.783   1.678
 3207SOL     OW10519   0.732   0.383   5.144
 3207SOL    HW110520   0.682   0.411   5.226
 3207SOL    HW210521   0.718   0.285   5.128
 3208SOL     OW10522   6.069   5.961   5.501
 3208SOL    HW110523   6.110   5.888   5.446
 3208SOL    HW210524   6.005   5.922   5.567
 3209SOL     OW10525   4.983   5.756   6.270
 3209SOL    HW110526   4.978   5.838   6.328
 3209SOL    HW210527   4.938   5.680   6.317
 3210SOL     OW10528   0.238   4.944   1.307
 3210SOL    HW110529   0.285   5.026   1.339
 3210SOL    HW210530   0.147   4.969   1.272
 3211SOL     OW10531   1.339   5.992   0.094
 3211SOL    HW110532   1.260   6.052   0.083
 3211SOL    HW210533   1.422   6.041   0.066
 3212SOL     OW10534   3.010   0.113   3.135
 3212SOL    HW110535   3.110   0.110   3.139
 3212SOL    HW210536   2.972   0.084   3.223
 3213SOL     OW10537   1.576   1.159   6.447
 3213SOL    HW110538   1.621   1.074   6.477
 3213SOL    HW210539   1.645   1.220   6.408
 3214SOL     OW10540   3.700   1.070   2.991
 3214SOL    HW110541   3.704   1.123   3.076
 3214SOL    HW210542   3.717   0.974   3.011
 3215SOL     OW10543   1.313   2.992   0.590
 3215SOL    HW110544   1.330   2.894   0.584
 3215SOL    HW210545   1.281   3.027   0.502
 3216SOL     OW10546   5.816   4.380   0.665
 3216SOL    HW110547   5.769   4.450   0.611
 3216SOL    HW210548   5.799   4.396   0.762
 3217SOL     OW10549   0.548   4.633   2.978
 3217SOL    HW110550   0.581   4.724   3.002
 3217SOL    HW210551   0.466   4.612   3.031
 3218SOL     OW10552   6.887   1.878   2.797
 3218SOL    HW110553   6.900   1.977   2.805
 3218SOL    HW210554   6.831   1.858   2.716
 3219SOL     OW10555   6.764   0.907   4.933
 3219SOL    HW110556   6.675   0.883   4.973
 3219SOL    HW210557   6.762   0.889   4.835
 3220SOL     OW10558   6.621   5.770   6.921
 3220SOL    HW110559   6.602   5.694   6.859
 3220SOL    HW210560   6.611   5.856   6.871
 3221SOL     OW10561   4.344   0.378   2.157
 3221SOL    HW110562   4.388   0.326   2.230
 3221SOL    HW210563   4.280   0.444   2.197
 3222SOL     OW10564   2.969   1.654   2.475
 3222SOL    HW110565   2.997   1.749   2.482
 3222SOL    HW210566   3.040   1.595   2.516
 3223SOL     OW10567   1.698   6.588   0.705
 3223SOL    HW110568   1.762   6.648   0.658
 3223SOL    HW210569   1.653   6.529   0.638
 3224SOL     OW10570   4.381   2.320   4.867
 3224SOL    HW110571   4.438   2.395   4.834
 3224SOL    HW210572   4.302   2.359   4.915
 3225SOL     OW10573   3.959   0.568   3.887
 3225SOL    HW110574   3.977   0.479   3.927
 3225SOL    HW210575   3.949   0.636   3.959
 3226SOL     OW10576   1.227   0.200   2.152
 3226SOL    HW110577   1.213   0.268   2.080
 3226SOL    HW210578   1.179   0.228   2.235
 3227SOL     OW10579   4.368   2.897   6.157
 3227SOL    HW110580   4.320   2.983   6.143
 3227SOL    HW210581   4.423   2.902   6.241
 3228SOL     OW10582   1.047   4.402   0.815
 3228SOL    HW110583   1.076   4.472   0.749
 3228SOL    HW210584   0.955   4.371   0.792
 3229SOL     OW10585   2.672   1.588   6.242
 3229SOL    HW110586   2.722   1.656   6.295
 3229SOL    HW210587   2.575   1.614   6.237
 3230SOL     OW10588   2.718   5.681   5.538
 3230SOL    HW110589   2.745   5.672   5.442
 3230SOL    HW210590   2.729   5.592   5.584
 3231SOL     OW10591   2.941   1.297   2.420
 3231SOL    HW110592   2.945   1.252   2.330
 3231SOL    HW210593   3.025   1.348   2.435
 3232SOL     OW10594   3.996   5.703   4.082
 3232SOL    HW110595   4.095   5.711   4.071
 3232SOL    HW210596   3.955   5.665   3.998
 3233SOL     OW10597   0.744   2.505   0.015
 3233SOL    HW110598   0.650   2.538   0.024
 3233SOL    HW210599   0.788   2.505   0.104
 3234SOL     OW10600   2.508   3.172   0.689
 3234SOL    HW110601   2.511   3.102   0.761
 3234SOL    HW210602   2.597   3.176   0.643
 3235SOL     OW10603   6.562   6.030   2.218
 3235SOL    HW110604   6.521   6.108   2.266
 3235SOL    HW210605   6.658   6.021   2.244
 3236SOL     OW10606   2.645   4.065   0.731
 3236SOL    HW110607   2.605   4.126   0.663
 3236SOL    HW210608   2.697   4.118   0.797
 3237SOL     OW10609   6.070   1.044   5.120
 3237SOL    HW110610   6.132   1.085   5.187
 3237SOL    HW210611   5.975   1.064   5.146
 3238SOL     OW10612   6.443   5.368   0.718
 3238SOL    HW110613   6.420   5.354   0.622
 3238SOL    HW210614   6.500   5.292   0.750
 3239SOL     OW10615   0.466   0.322   3.415
 3239SOL    HW110616   0.390   0.259   3.399
 3239SOL    HW210617   0.437   0.393   3.479
 3240SOL     OW10618   0.259   0.388   6.297
 3240SOL    HW110619   0.336   0.422   6.351
 3240SOL    HW210620   0.273   0.410   6.200
 3241SOL     OW10621   5.375   1.301   6.450
 3241SOL    HW110622   5.380   1.340   6.358
 3241SOL    HW210623   5.450   1.336   6.505
 3242SOL     OW10624   4.765   4.310   5.475
 3242SOL    HW110625   4.773   4.393   5.421
 3242SOL    HW210626   4.744   4.333   5.570
 3243SOL     OW10627   4.203   5.194   6.204
 3243SOL    HW110628   4.133   5.171   6.270
 3243SOL    HW210629   4.255   5.112   6.180
 3244SOL     OW10630   5.732   6.613   6.451
 3244SOL    HW110631   5.787   6.591   6.371
 3244SOL    HW210632   5.639   6.580   6.437
 3245SOL     OW10633   4.367   1.782   3.903
 3245SOL    HW110634   4.372   1.878   3.930
 3245SOL    HW210635   4.415   1.770   3.816
 3246SOL     OW10636   0.692   0.254   2.465
 3246SOL    HW110637   0.637   0.231   2.546
 3246SOL    HW210638   0.746   0.175   2.438
 3247SOL     OW10639   0.232   4.308   2.278
 3247SOL    HW110640   0.241   4.407   2.288
 3247SOL    HW210641   0.263   4.263   2.361
 3248SOL     OW10642   5.405   2.174   2.989
 3248SOL    HW110643   5.451   2.124   2.915
 3248SOL    HW210644   5.473   2.209   3.053
 3249SOL     OW10645   3.677   3.425   3.915
 3249SOL    HW110646   3.709   3.411   4.009
 3249SOL    HW210647   3.748   3.468   3.861
 3250SOL     OW10648   5.303   5.742   2.511
 3250SOL    HW110649   5.234   5.754   2.582
 3250SOL    HW210650   5.337   5.648   2.513
 3251SOL     OW10651   2.605   0.995   4.700
 3251SOL    HW110652   2.651   0.936   4.766
 3251SOL    HW210653   2.506   0.982   4.707
 3252SOL     OW10654   2.863   1.340   3.721
 3252SOL    HW110655   2.843   1.404   3.647
 3252SOL    HW210656   2.944   1.286   3.698
 3253SOL     OW10657   6.382   3.029   1.000
 3253SOL    HW110658   6.306   3.046   0.936
 3253SOL    HW210659   6.360   3.070   1.088
 3254SOL     OW10660   5.903   0.899   0.350
 3254SOL    HW110661   5.870   0.963   0.420
 3254SOL    HW210662   5.831   0.883   0.283
 3255SOL     OW10663   6.120   4.766   1.445
 3255SOL    HW110664   6.200   4.808   1.486
 3255SOL    HW210665   6.052   4.836   1.424
 3256SOL     OW10666   4.849   2.228   1.410
 3256SOL    HW110667   4.904   2.294   1.358
 3256SOL    HW210668   4.808   2.163   1.346
 3257SOL     OW10669   2.962   2.251   2.523
 3257SOL    HW110670   2.884   2.300   2.561
 3257SOL    HW210671   2.946   2.231   2.426
 3258SOL     OW10672   2.850   5.997   3.439
 3258SOL    HW110673   2.909   5.923   3.407
 3258SOL    HW210674   2.755   5.967   3.437
 3259SOL     OW10675   5.362   4.468   4.301
 3259SOL    HW110676   5.370   4.369   4.288
 3259SOL    HW210677   5.425   4.515   4.240
 3260SOL     OW10678   1.992   4.380   1.422
 3260SOL    HW110679   1.907   4.338   1.393
 3260SOL    HW210680   2.038   4.421   1.343
 3261SOL     OW10681   4.837   0.526   3.135
 3261SOL    HW110682   4.885   0.608   3.167
 3261SOL    HW210683   4.895   0.446   3.146
 3262SOL     OW10684   3.665   2.045   2.862
 3262SOL    HW110685   3.705   2.051   2.770
 3262SOL    HW210686   3.720   2.100   2.925
 3263SOL     OW10687   2.505   1.450   3.062
 3263SOL    HW110688   2.602   1.444   3.082
 3263SOL    HW210689   2.471   1.540   3.087
 3264SOL     OW10690   2.196   5.372   0.173
 3264SOL    HW110691   2.217   5.318   0.091
 3264SOL    HW210692   2.272   5.435   0.192
 3265SOL     OW10693   5.948   5.552   5.670
 3265SOL    HW110694   5.914   5.567   5.577
 3265SOL    HW210695   6.019   5.619   5.691
 3266SOL     OW10696   2.913   4.830   0.398
 3266SOL    HW110697   2.886   4.839   0.302
 3266SOL    HW210698   2.992   4.889   0.416
 3267SOL     OW10699   4.591   0.392   1.026
 3267SOL    HW110700   4.507   0.398   0.972
 3267SOL    HW210701   4.646   0.314   0.994
 3268SOL     OW10702   7.019   4.961   1.241
 3268SOL    HW110703   6.962   4.879   1.246
 3268SOL    HW210704   6.965   5.041   1.267
 3269SOL     OW10705   1.196   5.146   2.485
 3269SOL    HW110706   1.151   5.104   2.406
 3269SOL    HW210707   1.133   5.146   2.563
 3270SOL     OW10708   0.758   2.452   5.288
 3270SOL    HW110709   0.725   2.455   5.193
 3270SOL    HW210710   0.696   2.398   5.344
 3271SOL     OW10711   0.105   3.484   1.903
 3271SOL    HW110712   0.189   3.531   1.931
 3271SOL    HW210713   0.099   3.485   1.803
 3272SOL     OW10714   4.303   5.825   0.332
 3272SOL    HW110715   4.233   5.891   0.360
 3272SOL    HW210716   4.343   5.854   0.245
 3273SOL     OW10717   4.230   3.588   6.053
 3273SOL    HW110718   4.241   3.687   6.053
 3273SOL    HW210719   4.280   3.548   5.975
 3274SOL     OW10720   6.053   0.906   0.034
 3274SOL    HW110721   6.080   0.851   0.114
 3274SOL    HW210722   5.986   0.855   7.004
 3275SOL     OW10723   4.787   0.610   1.119
 3275SOL    HW110724   4.756   0.694   1.163
 3275SOL    HW210725   4.710   0.548   1.106
 3276SOL     OW10726   5.071   0.126   0.372
 3276SOL    HW110727   5.006   0.177   0.316
 3276SOL    HW210728   5.161   0.169   0.365
 3277SOL     OW10729   3.052   1.559   1.879
 3277SOL    HW110730   3.122   1.527   1.816
 3277SOL    HW210731   3.054   1.659   1.884
 3278SOL     OW10732   0.284   0.427   6.746
 3278SOL    HW110733   0.235   0.514   6.737
 3278SOL    HW210734   0.356   0.422   6.677
 3279SOL     OW10735   4.547   6.555   1.317
 3279SOL    HW110736   4.457   6.594   1.298
 3279SOL    HW210737   4.601   6.618   1.373
 3280SOL     OW10738   5.604   3.325   4.212
 3280SOL    HW110739   5.554   3.278   4.140
 3280SOL    HW210740   5.621   3.261   4.287
 3281SOL     OW10741   6.930   4.495   1.974
 3281SOL    HW110742   6.937   4.436   2.055
 3281SOL    HW210743   7.018   4.539   1.957
 3282SOL     OW10744   0.379   3.772   5.113
 3282SOL    HW110745   0.337   3.836   5.176
 3282SOL    HW210746   0.460   3.732   5.155
 3283SOL     OW10747   3.373   1.056   1.450
 3283SOL    HW110748   3.424   1.023   1.530
 3283SOL    HW210749   3.377   1.155   1.446
 3284SOL     OW10750   1.815   5.756   4.912
 3284SOL    HW110751   1.760   5.840   4.907
 3284SOL    HW210752   1.757   5.677   4.892
 3285SOL     OW10753   5.400   1.108   4.745
 3285SOL    HW110754   5.494   1.075   4.739
 3285SOL    HW210755   5.394   1.199   4.704
 3286SOL     OW10756   3.327   1.972   1.611
 3286SOL    HW110757   3.401   1.909   1.635
 3286SOL    HW210758   3.322   1.981   1.511
 3287SOL     OW10759   1.068   6.941   6.386
 3287SOL    HW110760   1.113   6.856   6.412
 3287SOL    HW210761   1.134   7.002   6.343
 3288SOL     OW10762   1.673   6.241   0.474
 3288SOL    HW110763   1.748   6.285   0.522
 3288SOL    HW210764   1.676   6.265   0.377
 3289SOL     OW10765   2.892   1.335   6.766
 3289SOL    HW110766   2.987   1.305   6.752
 3289SOL    HW210767   2.854   1.365   6.678
 3290SOL     OW10768   6.678   5.535   0.781
 3290SOL    HW110769   6.713   5.480   0.856
 3290SOL    HW210770   6.601   5.489   0.738
 3291SOL     OW10771   4.486   6.647   5.931
 3291SOL    HW110772   4.416   6.586   5.968
 3291SOL    HW210773   4.550   6.672   6.004
 3292SOL     OW10774   0.474   1.694   1.031
 3292SOL    HW110775   0.416   1.652   1.101
 3292SOL    HW210776   0.564   1.649   1.032
 3293SOL     OW10777   6.110   5.173   2.628
 3293SOL    HW110778   6.188   5.164   2.567
 3293SOL    HW210779   6.136   5.144   2.720
 3294SOL     OW10780   5.147   2.367   5.504
 3294SOL    HW110781   5.106   2.430   5.570
 3294SOL    HW210782   5.146   2.408   5.413
 3295SOL     OW10783   1.723   2.673   0.891
 3295SOL    HW110784   1.778   2.700   0.969
 3295SOL    HW210785   1.643   2.733   0.883
 3296SOL     OW10786   6.976   6.894   5.492
 3296SOL    HW110787   6.938   6.803   5.474
 3296SOL    HW210788   0.045   6.884   5.530
 3297SOL     OW10789   3.056   2.011   5.423
 3297SOL    HW110790   2.990   2.077   5.459
 3297SOL    HW210791   3.140   2.058   5.398
 3298SOL     OW10792   5.922   3.599   4.686
 3298SOL    HW110793   5.913   3.506   4.721
 3298SOL    HW210794   5.892   3.601   4.590
 3299SOL     OW10795   3.562   4.913   3.554
 3299SOL    HW110796   3.608   4.997   3.526
 3299SOL    HW210797   3.467   4.933   3.578
 3300SOL     OW10798   1.954   6.937   5.344
 3300SOL    HW110799   1.945   7.021   5.290
 3300SOL    HW210800   1.892   6.867   5.308
 3301SOL     OW10801   1.694   3.365   2.582
 3301SOL    HW110802   1.782   3.362   2.628
 3301SOL    HW210803   1.695   3.435   2.510
 3302SOL     OW10804   2.100   5.107   5.970
 3302SOL    HW110805   2.137   5.014   5.964
 3302SOL    HW210806   2.019   5.115   5.911
 3303SOL     OW10807   3.389   2.602   0.420
 3303SOL    HW110808   3.375   2.667   0.346
 3303SOL    HW210809   3.300   2.563   0.448
 3304SOL     OW10810   2.197   4.921   6.396
 3304SOL    HW110811   2.278   4.958   6.441
 3304SOL    HW210812   2.155   4.852   6.454
 3305SOL     OW10813   3.547   0.663   1.135
 3305SOL    HW110814   3.539   0.637   1.039
 3305SOL    HW210815   3.469   0.719   1.161
 3306SOL     OW10816   1.106   7.016   0.101
 3306SOL    HW110817   1.078   0.077   0.148
 3306SOL    HW210818   1.170   6.966   0.159
 3307SOL     OW10819   1.220   0.152   5.161
 3307SOL    HW110820   1.179   0.239   5.136
 3307SOL    HW210821   1.313   0.147   5.126
 3308SOL     OW10822   3.955   4.358   1.279
 3308SOL    HW110823   3.893   4.416   1.332
 3308SOL    HW210824   4.042   4.406   1.265
 3309SOL     OW10825   5.298   4.308   3.675
 3309SOL    HW110826   5.357   4.228   3.663
 3309SOL    HW210827   5.207   4.288   3.640
 3310SOL     OW10828   0.484   4.900   4.569
 3310SOL    HW110829   0.484   4.998   4.586
 3310SOL    HW210830   0.571   4.861   4.600
 3311SOL     OW10831   3.316   3.436   0.583
 3311SOL    HW110832   3.318   3.356   0.642
 3311SOL    HW210833   3.285   3.516   0.636
 3312SOL     OW10834   5.259   2.501   6.271
 3312SOL    HW110835   5.244   2.522   6.175
 3312SOL    HW210836   5.182   2.534   6.325
 3313SOL     OW10837   0.860   0.765   2.996
 3313SOL    HW110838   0.939   0.822   2.972
 3313SOL    HW210839   0.779   0.797   2.948
 3314SOL     OW10840   2.533   0.017   3.471
 3314SOL    HW110841   2.552   6.995   3.384
 3314SOL    HW210842   2.618   0.033   3.520
 3315SOL     OW10843   0.255   5.370   5.110
 3315SOL    HW110844   0.306   5.307   5.169
 3315SOL    HW210845   0.267   5.463   5.143
 3316SOL     OW10846   2.635   0.943   6.652
 3316SOL    HW110847   2.539   0.943   6.621
 3316SOL    HW210848   2.694   0.967   6.575
 3317SOL     OW10849   5.117   2.715   1.870
 3317SOL    HW110850   5.208   2.756   1.880
 3317SOL    HW210851   5.048   2.787   1.876
 3318SOL     OW10852   3.010   2.377   6.858
 3318SOL    HW110853   3.009   2.376   6.758
 3318SOL    HW210854   2.923   2.414   6.892
 3319SOL     OW10855   6.676   6.852   2.699
 3319SOL    HW110856   6.643   6.946   2.701
 3319SOL    HW210857   6.776   6.852   2.701
 3320SOL     OW10858   6.340   0.580   1.063
 3320SOL    HW110859   6.399   0.627   0.997
 3320SOL    HW210860   6.349   0.624   1.153
 3321SOL     OW10861   5.975   1.536   0.894
 3321SOL    HW110862   6.070   1.519   0.866
 3321SOL    HW210863   5.926   1.584   0.821
 3322SOL     OW10864   6.446   3.379   0.730
 3322SOL    HW110865   6.494   3.370   0.642
 3322SOL    HW210866   6.511   3.365   0.805
 3323SOL     OW10867   2.345   1.824   1.526
 3323SOL    HW110868   2.374   1.894   1.591
 3323SOL    HW210869   2.420   1.804   1.463
 3324SOL     OW10870   4.886   5.585   6.053
 3324SOL    HW110871   4.796   5.597   6.095
 3324SOL    HW210872   4.949   5.653   6.091
 3325SOL     OW10873   1.268   3.558   6.802
 3325SOL    HW110874   1.320   3.631   6.847
 3325SOL    HW210875   1.243   3.587   6.710
 3326SOL     OW10876   5.479   1.035   3.015
 3326SOL    HW110877   5.455   0.983   2.933
 3326SOL    HW210878   5.510   0.973   3.086
 3327SOL     OW10879   1.510   6.213   1.321
 3327SOL    HW110880   1.469   6.133   1.364
 3327SOL    HW210881   1.558   6.186   1.238
 3328SOL     OW10882   3.395   1.501   0.949
 3328SOL    HW110883   3.386   1.506   1.048
 3328SOL    HW210884   3.308   1.525   0.906
 3329SOL     OW10885   6.815   5.806   5.665
 3329SOL    HW110886   6.809   5.888   5.722
 3329SOL    HW210887   6.903   5.806   5.617
 3330SOL     OW10888   6.097   2.875   2.231
 3330SOL    HW110889   6.117   2.778   2.223
 3330SOL    HW210890   6.175   2.928   2.199
 3331SOL     OW10891   1.517   2.495   1.075
 3331SOL    HW110892   1.599   2.511   1.130
 3331SOL    HW210893   1.436   2.527   1.124
 3332SOL     OW10894   5.503   4.465   0.401
 3332SOL    HW110895   5.441   4.515   0.340
 3332SOL    HW210896   5.455   4.442   0.485
 3333SOL     OW10897   4.000   5.115   6.381
 3333SOL    HW110898   3.998   5.074   6.473
 3333SOL    HW210899   3.924   5.080   6.327
 3334SOL     OW10900   3.454   3.301   1.338
 3334SOL    HW110901   3.436   3.210   1.376
 3334SOL    HW210902   3.459   3.368   1.412
 3335SOL     OW10903   5.129   4.829   5.596
 3335SOL    HW110904   5.095   4.921   5.613
 3335SOL    HW210905   5.145   4.783   5.684
 3336SOL     OW10906   2.869   5.393   6.062
 3336SOL    HW110907   2.967   5.378   6.057
 3336SOL    HW210908   2.843   5.468   6.001
 3337SOL     OW10909   3.562   1.820   1.706
 3337SOL    HW110910   3.603   1.734   1.735
 3337SOL    HW210911   3.615   1.897   1.742
 3338SOL     OW10912   6.786   4.174   1.355
 3338SOL    HW110913   6.798   4.095   1.295
 3338SOL    HW210914   6.838   4.161   1.439
 3339SOL     OW10915   6.539   6.083   0.012
 3339SOL    HW110916   6.491   6.048   6.955
 3339SOL    HW210917   6.542   6.183   0.008
 3340SOL     OW10918   3.250   6.610   1.869
 3340SOL    HW110919   3.278   6.603   1.773
 3340SOL    HW210920   3.186   6.536   1.891
 3341SOL     OW10921   0.552   6.892   2.929
 3341SOL    HW110922   0.558   6.812   2.869
 3341SOL    HW210923   0.635   6.899   2.985
 3342SOL     OW10924   1.911   0.005   4.007
 3342SOL    HW110925   1.884   6.937   4.037
 3342SOL    HW210926   1.993   7.023   3.950
 3343SOL     OW10927   4.666   2.645   0.880
 3343SOL    HW110928   4.736   2.666   0.812
 3343SOL    HW210929   4.598   2.584   0.840
 3344SOL     OW10930   5.521   3.856   4.901
 3344SOL    HW110931   5.563   3.840   4.990
 3344SOL    HW210932   5.494   3.952   4.894
 3345SOL     OW10933   2.977   3.919   5.812
 3345SOL    HW110934   2.940   3.988   5.750
 3345SOL    HW210935   3.027   3.850   5.760
 3346SOL     OW10936   0.532   1.357   2.094
 3346SOL    HW110937   0.503   1.277   2.146
 3346SOL    HW210938   0.470   1.433   2.113
 3347SOL     OW10939   6.338   3.629   4.185
 3347SOL    HW110940   6.346   3.722   4.221
 3347SOL    HW210941   6.314   3.632   4.089
 3348SOL     OW10942   3.253   3.309   3.901
 3348SOL    HW110943   3.311   3.290   3.822
 3348SOL    HW210944   3.176   3.367   3.873
 3349SOL     OW10945   6.607   3.783   4.003
 3349SOL    HW110946   6.647   3.693   4.023
 3349SOL    HW210947   6.651   3.822   3.922
 3350SOL     OW10948   1.946   1.044   6.643
 3350SOL    HW110949   2.001   1.070   6.722
 3350SOL    HW210950   2.006   1.002   6.574
 3351SOL     OW10951   5.476   1.013   1.079
 3351SOL    HW110952   5.426   0.968   1.154
 3351SOL    HW210953   5.491   1.109   1.102
 3352SOL     OW10954   0.822   4.307   0.706
 3352SOL    HW110955   0.769   4.225   0.730
 3352SOL    HW210956   0.778   4.354   0.629
 3353SOL     OW10957   1.515   6.866   6.623
 3353SOL    HW110958   1.466   6.912   6.698
 3353SOL    HW210959   1.585   6.807   6.661
 3354SOL     OW10960   6.849   2.246   3.377
 3354SOL    HW110961   6.756   2.245   3.340
 3354SOL    HW210962   6.908   2.301   3.317
 3355SOL     OW10963   0.629   2.246   1.519
 3355SOL    HW110964   0.559   2.304   1.476
 3355SOL    HW210965   0.585   2.164   1.557
 3356SOL     OW10966   2.610   3.632   6.901
 3356SOL    HW110967   2.634   3.709   6.843
 3356SOL    HW210968   2.519   3.598   6.877
 3357SOL     OW10969   2.529   5.080   1.424
 3357SOL    HW110970   2.588   5.151   1.386
 3357SOL    HW210971   2.483   5.032   1.350
 3358SOL     OW10972   4.704   6.567   2.301
 3358SOL    HW110973   4.657   6.513   2.231
 3358SOL    HW210974   4.798   6.536   2.310
 3359SOL     OW10975   0.659   0.541   2.892
 3359SOL    HW110976   0.591   0.499   2.952
 3359SOL    HW210977   0.699   0.621   2.938
 3360SOL     OW10978   0.627   0.908   0.338
 3360SOL    HW110979   0.708   0.966   0.323
 3360SOL    HW210980   0.640   0.821   0.291
 3361SOL     OW10981   6.450   5.674   3.141
 3361SOL    HW110982   6.502   5.712   3.218
 3361SOL    HW210983   6.454   5.738   3.064
 3362SOL     OW10984   3.242   1.281   4.780
 3362SOL    HW110985   3.266   1.362   4.727
 3362SOL    HW210986   3.244   1.302   4.877
 3363SOL     OW10987   0.350   1.737   6.699
 3363SOL    HW110988   0.400   1.748   6.613
 3363SOL    HW210989   0.284   1.663   6.691
 3364SOL     OW10990   0.964   5.900   6.141
 3364SOL    HW110991   0.988   5.923   6.046
 3364SOL    HW210992   0.941   5.984   6.190
 3365SOL     OW10993   0.125   2.285   4.915
 3365SOL    HW110994   0.092   2.332   4.997
 3365SOL    HW210995   0.116   2.186   4.929
 3366SOL     OW10996   5.506   0.712   5.139
 3366SOL    HW110997   5.561   0.738   5.060
 3366SOL    HW210998   5.543   0.628   5.179
 3367SOL     OW10999   1.716   2.645   2.145
 3367SOL    HW111000   1.661   2.608   2.070
 3367SOL    HW211001   1.811   2.614   2.136
 3368SOL     OW11002   6.383   5.320   6.501
 3368SOL    HW111003   6.404   5.399   6.444
 3368SOL    HW211004   6.318   5.261   6.453
 3369SOL     OW11005   3.552   0.562   0.501
 3369SOL    HW111006   3.548   0.631   0.428
 3369SOL    HW211007   3.544   0.471   0.460
 3370SOL     OW11008   6.349   6.714   5.094
 3370SOL    HW111009   6.433   6.763   5.070
 3370SOL    HW211010   6.353   6.686   5.190
 3371SOL     OW11011   1.149   4.615   1.826
 3371SOL    HW111012   1.063   4.589   1.872
 3371SOL    HW211013   1.130   4.685   1.758
 3372SOL     OW11014   0.514   0.702   2.280
 3372SOL    HW111015   0.433   0.645   2.275
 3372SOL    HW211016   0.547   0.722   2.188
 3373SOL     OW11017   6.152   1.407   4.547
 3373SOL    HW111018   6.119   1.326   4.498
 3373SOL    HW211019   6.110   1.489   4.509
 3374SOL     OW11020   3.494   6.048   5.365
 3374SOL    HW111021   3.521   5.966   5.416
 3374SOL    HW211022   3.520   6.129   5.416
 3375SOL     OW11023   4.619   4.475   5.020
 3375SOL    HW111024   4.654   4.426   4.940
 3375SOL    HW211025   4.519   4.479   5.015
 3376SOL     OW11026   3.318   2.899   2.573
 3376SOL    HW111027   3.321   2.912   2.672
 3376SOL    HW211028   3.396   2.842   2.545
 3377SOL     OW11029   1.480   6.583   5.170
 3377SOL    HW111030   1.394   6.621   5.138
 3377SOL    HW211031   1.507   6.507   5.112
 3378SOL     OW11032   6.648   1.421   1.007
 3378SOL    HW111033   6.705   1.371   0.943
 3378SOL    HW211034   6.621   1.360   1.082
 3379SOL     OW11035   0.657   4.815   5.867
 3379SOL    HW111036   0.660   4.717   5.848
 3379SOL    HW211037   0.728   4.861   5.813
 3380SOL     OW11038   6.744   4.602   6.523
 3380SOL    HW111039   6.739   4.628   6.426
 3380SOL    HW211040   6.830   4.555   6.541
 3381SOL     OW11041   2.807   2.648   0.606
 3381SOL    HW111042   2.807   2.559   0.561
 3381SOL    HW211043   2.713   2.679   0.618
 3382SOL     OW11044   0.484   1.878   6.905
 3382SOL    HW111045   0.438   1.831   6.830
 3382SOL    HW211046   0.508   1.812   6.976
 3383SOL     OW11047   5.967   4.788   2.690
 3383SOL    HW111048   5.949   4.876   2.646
 3383SOL    HW211049   5.987   4.720   2.620
 3384SOL     OW11050   3.362   3.245   5.011
 3384SOL    HW111051   3.455   3.267   4.981
 3384SOL    HW211052   3.297   3.285   4.946
 3385SOL     OW11053   6.101   3.751   3.585
 3385SOL    HW111054   6.125   3.794   3.498
 3385SOL    HW211055   6.072   3.821   3.650
 3386SOL     OW11056   6.266   4.121   4.387
 3386SOL    HW111057   6.312   4.209   4.392
 3386SOL    HW211058   6.215   4.115   4.301
 3387SOL     OW11059   2.487   2.604   2.751
 3387SOL    HW111060   2.586   2.613   2.738
 3387SOL    HW211061   2.458   2.513   2.720
 3388SOL     OW11062   5.711   2.392   1.175
 3388SOL    HW111063   5.668   2.441   1.100
 3388SOL    HW211064   5.678   2.428   1.262
 3389SOL     OW11065   4.717   4.211   3.851
 3389SOL    HW111066   4.667   4.281   3.799
 3389SOL    HW211067   4.687   4.213   3.946
 3390SOL     OW11068   4.968   2.599   5.910
 3390SOL    HW111069   4.894   2.557   5.857
 3390SOL    HW211070   4.930   2.645   5.990
 3391SOL     OW11071   3.749   1.977   4.927
 3391SOL    HW111072   3.812   1.970   4.849
 3391SOL    HW211073   3.760   1.898   4.986
 3392SOL     OW11074   2.642   0.459   4.308
 3392SOL    HW111075   2.562   0.399   4.307
 3392SOL    HW211076   2.617   0.548   4.346
 3393SOL     OW11077   6.742   6.729   0.577
 3393SOL    HW111078   6.746   6.788   0.657
 3393SOL    HW211079   6.776   6.779   0.497
 3394SOL     OW11080   5.699   2.905   0.980
 3394SOL    HW111081   5.690   2.811   1.012
 3394SOL    HW211082   5.790   2.939   1.002
 3395SOL     OW11083   0.186   3.281   4.301
 3395SOL    HW111084   0.145   3.292   4.391
 3395SOL    HW211085   0.271   3.228   4.309
 3396SOL     OW11086   0.065   3.323   3.270
 3396SOL    HW111087   0.101   3.238   3.234
 3396SOL    HW211088   0.135   3.395   3.264
 3397SOL     OW11089   3.781   0.320   5.723
 3397SOL    HW111090   3.846   0.369   5.664
 3397SOL    HW211091   3.692   0.364   5.718
 3398SOL     OW11092   0.922   0.396   4.006
 3398SOL    HW111093   0.906   0.299   3.987
 3398SOL    HW211094   0.932   0.410   4.104
 3399SOL     OW11095   4.439   4.596   4.480
 3399SOL    HW111096   4.443   4.694   4.460
 3399SOL    HW211097   4.432   4.583   4.579
 3400SOL     OW11098   5.106   2.209   6.010
 3400SOL    HW111099   5.018   2.208   5.961
 3400SOL    HW211100   5.151   2.120   5.999
 3401SOL     OW11101   0.074   3.552   0.345
 3401SOL    HW111102   7.009   3.559   0.300
 3401SOL    HW211103   0.118   3.642   0.345
 3402SOL     OW11104   5.466   5.770   1.185
 3402SOL    HW111105   5.495   5.806   1.273
 3402SOL    HW211106   5.406   5.691   1.199
 3403SOL     OW11107   3.732   0.144   4.815
 3403SOL    HW111108   3.657   0.099   4.864
 3403SOL    HW211109   3.819   0.121   4.860
 3404SOL     OW11110   3.984   1.292   0.550
 3404SOL    HW111111   3.922   1.239   0.608
 3404SOL    HW211112   3.952   1.289   0.455
 3405SOL     OW11113   6.521   3.673   6.025
 3405SOL    HW111114   6.542   3.734   5.948
 3405SOL    HW211115   6.462   3.721   6.091
 3406SOL     OW11116   2.360   4.345   1.704
 3406SOL    HW111117   2.378   4.396   1.789
 3406SOL    HW211118   2.402   4.392   1.627
 3407SOL     OW11119   1.723   5.558   1.912
 3407SOL    HW111120   1.675   5.499   1.847
 3407SOL    HW211121   1.664   5.633   1.939
 3408SOL     OW11122   4.783   3.972   3.346
 3408SOL    HW111123   4.794   4.025   3.262
 3408SOL    HW211124   4.759   4.033   3.421
 3409SOL     OW11125   3.808   6.991   6.162
 3409SOL    HW111126   3.828   0.057   6.199
 3409SOL    HW211127   3.892   6.949   6.127
 3410SOL     OW11128   5.930   5.245   6.646
 3410SOL    HW111129   5.994   5.169   6.654
 3410SOL    HW211130   5.865   5.241   6.722
 3411SOL     OW11131   5.256   2.515   2.033
 3411SOL    HW111132   5.232   2.440   2.094
 3411SOL    HW211133   5.182   2.583   2.034
 3412SOL     OW11134   4.328   3.454   6.946
 3412SOL    HW111135   4.277   3.536   6.972
 3412SOL    HW211136   4.311   3.434   6.849
 3413SOL     OW11137   4.459   1.494   2.930
 3413SOL    HW111138   4.513   1.470   2.849
 3413SOL    HW211139   4.391   1.423   2.947
 3414SOL     OW11140   3.143   1.725   4.792
 3414SOL    HW111141   3.130   1.730   4.693
 3414SOL    HW211142   3.054   1.732   4.838
 3415SOL     OW11143   0.938   4.875   4.046
 3415SOL    HW111144   0.988   4.884   3.960
 3415SOL    HW211145   0.913   4.780   4.061
 3416SOL     OW11146   0.365   4.210   5.934
 3416SOL    HW111147   0.360   4.277   5.860
 3416SOL    HW211148   0.275   4.167   5.946
 3417SOL     OW11149   6.776   6.274   2.393
 3417SOL    HW111150   6.872   6.303   2.393
 3417SOL    HW211151   6.762   6.208   2.466
 3418SOL     OW11152   3.513   1.479   5.053
 3418SOL    HW111153   3.453   1.560   5.047
 3418SOL    HW211154   3.583   1.485   4.982
 3419SOL     OW11155   4.291   4.846   6.446
 3419SOL    HW111156   4.215   4.782   6.459
 3419SOL    HW211157   4.320   4.882   6.534
 3420SOL     OW11158   5.297   1.679   3.827
 3420SOL    HW111159   5.247   1.765   3.820
 3420SOL    HW211160   5.300   1.650   3.922
 3421SOL     OW11161   6.634   0.556   5.761
 3421SOL    HW111162   6.689   0.476   5.781
 3421SOL    HW211163   6.687   0.620   5.705
 3422SOL     OW11164   3.498   0.106   0.816
 3422SOL    HW111165   3.559   0.125   0.893
 3422SOL    HW211166   3.512   0.174   0.745
 3423SOL     OW11167   2.108   0.555   0.308
 3423SOL    HW111168   2.092   0.507   0.394
 3423SOL    HW211169   2.064   0.644   0.310
 3424SOL     OW11170   3.575   1.508   2.479
 3424SOL    HW111171   3.615   1.598   2.464
 3424SOL    HW211172   3.535   1.504   2.570
 3425SOL     OW11173   5.146   4.607   2.101
 3425SOL    HW111174   5.173   4.702   2.083
 3425SOL    HW211175   5.100   4.570   2.021
 3426SOL     OW11176   3.753   3.424   0.602
 3426SOL    HW111177   3.698   3.481   0.541
 3426SOL    HW211178   3.812   3.482   0.658
 3427SOL     OW11179   6.617   6.852   0.082
 3427SOL    HW111180   6.629   6.871   7.008
 3427SOL    HW211181   6.566   6.926   0.124
 3428SOL     OW11182   3.945   5.040   1.980
 3428SOL    HW111183   3.947   5.073   2.074
 3428SOL    HW211184   3.928   4.941   1.980
 3429SOL     OW11185   0.943   2.365   6.748
 3429SOL    HW111186   0.878   2.440   6.756
 3429SOL    HW211187   1.031   2.400   6.716
 3430SOL     OW11188   1.143   6.769   6.785
 3430SOL    HW111189   1.220   6.727   6.832
 3430SOL    HW211190   1.111   6.847   6.837
 3431SOL     OW11191   1.903   6.501   1.067
 3431SOL    HW111192   1.826   6.451   1.027
 3431SOL    HW211193   1.950   6.442   1.134
 3432SOL     OW11194   2.742   2.349   5.151
 3432SOL    HW111195   2.660   2.317   5.199
 3432SOL    HW211196   2.795   2.271   5.119
 3433SOL     OW11197   2.596   1.055   6.206
 3433SOL    HW111198   2.659   1.131   6.221
 3433SOL    HW211199   2.638   0.970   6.238
 3434SOL     OW11200   3.787   2.784   0.721
 3434SOL    HW111201   3.707   2.841   0.743
 3434SOL    HW211202   3.848   2.781   0.801
 3435SOL     OW11203   0.117   2.318   1.879
 3435SOL    HW111204   0.031   2.368   1.890
 3435SOL    HW211205   0.124   2.248   1.950
 3436SOL     OW11206   4.350   6.681   5.022
 3436SOL    HW111207   4.405   6.719   5.096
 3436SOL    HW211208   4.356   6.581   5.024
 3437SOL     OW11209   4.322   6.929   6.070
 3437SOL    HW111210   4.294   6.847   6.119
 3437SOL    HW211211   4.296   6.920   5.974
 3438SOL     OW11212   2.030   2.886   6.827
 3438SOL    HW111213   2.021   2.911   6.731
 3438SOL    HW211214   2.006   2.965   6.884
 3439SOL     OW11215   2.834   6.973   5.421
 3439SOL    HW111216   2.744   6.995   5.384
 3439SOL    HW211217   2.848   6.874   5.418
 3440SOL     OW11218   4.403   3.549   1.048
 3440SOL    HW111219   4.474   3.536   0.979
 3440SOL    HW211220   4.417   3.636   1.095
 3441SOL     OW11221   4.030   6.637   3.929
 3441SOL    HW111222   4.002   6.678   3.842
 3441SOL    HW211223   4.097   6.565   3.911
 3442SOL     OW11224   1.976   5.106   3.417
 3442SOL    HW111225   1.896   5.074   3.467
 3442SOL    HW211226   1.955   5.105   3.319
 3443SOL     OW11227   5.691   1.788   3.409
 3443SOL    HW111228   5.608   1.794   3.465
 3443SOL    HW211229   5.670   1.741   3.323
 3444SOL     OW11230   4.876   5.611   6.486
 3444SOL    HW111231   4.777   5.618   6.499
 3444SOL    HW211232   4.924   5.661   6.559
 3445SOL     OW11233   6.622   3.942   4.250
 3445SOL    HW111234   6.722   3.940   4.257
 3445SOL    HW211235   6.594   3.893   4.167
 3446SOL     OW11236   4.624   1.262   2.864
 3446SOL    HW111237   4.618   1.234   2.769
 3446SOL    HW211238   4.537   1.244   2.910
 3447SOL     OW11239   5.650   5.102   0.154
 3447SOL    HW111240   5.638   5.082   0.057
 3447SOL    HW211241   5.662   5.017   0.204
 3448SOL     OW11242   3.735   6.564   0.702
 3448SOL    HW111243   3.715   6.590   0.608
 3448SOL    HW211244   3.834   6.559   0.715
 3449SOL     OW11245   6.412   6.569   2.465
 3449SOL    HW111246   6.451   6.502   2.401
 3449SOL    HW211247   6.473   6.581   2.543
 3450SOL     OW11248   0.974   2.069   1.528
 3450SOL    HW111249   0.904   2.012   1.485
 3450SOL    HW211250   0.969   2.162   1.492
 3451SOL     OW11251   0.892   5.877   3.798
 3451SOL    HW111252   0.835   5.901   3.719
 3451SOL    HW211253   0.914   5.960   3.848
 3452SOL     OW11254   6.824   0.682   6.806
 3452SOL    HW111255   6.851   0.618   6.878
 3452SOL    HW211256   6.779   0.632   6.732
 3453SOL     OW11257   5.861   5.545   4.863
 3453SOL    HW111258   5.811   5.589   4.789
 3453SOL    HW211259   5.954   5.582   4.867
 3454SOL     OW11260   1.810   1.309   6.613
 3454SOL    HW111261   1.886   1.353   6.661
 3454SOL    HW211262   1.826   1.210   6.609
 3455SOL     OW11263   1.224   3.172   4.746
 3455SOL    HW111264   1.230   3.077   4.777
 3455SOL    HW211265   1.212   3.232   4.824
 3456SOL     OW11266   6.082   6.084   2.331
 3456SOL    HW111267   6.124   6.001   2.294
 3456SOL    HW211268   6.026   6.061   2.410
 3457SOL     OW11269   2.683   5.194   4.112
 3457SOL    HW111270   2.700   5.273   4.053
 3457SOL    HW211271   2.675   5.112   4.055
 3458SOL     OW11272   6.167   0.158   0.351
 3458SOL    HW111273   6.216   0.093   0.409
 3458SOL    HW211274   6.226   0.237   0.333
 3459SOL     OW11275   0.496   3.465   3.356
 3459SOL    HW111276   0.436   3.425   3.425
 3459SOL    HW211277   0.546   3.542   3.396
 3460SOL     OW11278   3.453   3.090   0.471
 3460SOL    HW111279   3.420   3.072   0.378
 3460SOL    HW211280   3.374   3.107   0.531
 3461SOL     OW11281   3.653   5.317   4.023
 3461SOL    HW111282   3.714   5.385   4.063
 3461SOL    HW211283   3.563   5.322   4.066
 3462SOL     OW11284   5.900   2.909   2.053
 3462SOL    HW111285   5.977   2.947   2.105
 3462SOL    HW211286   5.935   2.842   1.988
 3463SOL     OW11287   0.173   3.022   2.667
 3463SOL    HW111288   0.144   3.116   2.686
 3463SOL    HW211289   0.235   2.992   2.740
 3464SOL     OW11290   5.782   2.442   6.883
 3464SOL    HW111291   5.767   2.344   6.893
 3464SOL    HW211292   5.696   2.491   6.899
 3465SOL     OW11293   2.118   3.493   1.375
 3465SOL    HW111294   2.165   3.581   1.390
 3465SOL    HW211295   2.021   3.503   1.397
 3466SOL     OW11296   5.425   5.140   5.970
 3466SOL    HW111297   5.364   5.185   5.905
 3466SOL    HW211298   5.430   5.193   6.054
 3467SOL     OW11299   3.058   1.501   0.624
 3467SOL    HW111300   3.024   1.492   0.530
 3467SOL    HW211301   3.151   1.537   0.621
 3468SOL     OW11302   4.757   1.610   2.105
 3468SOL    HW111303   4.847   1.643   2.134
 3468SOL    HW211304   4.752   1.609   2.006
 3469SOL     OW11305   4.911   0.351   6.435
 3469SOL    HW111306   4.913   0.285   6.511
 3469SOL    HW211307   4.869   0.436   6.465
 3470SOL     OW11308   0.557   2.905   1.631
 3470SOL    HW111309   0.622   2.838   1.667
 3470SOL    HW211310   0.537   2.973   1.701
 3471SOL     OW11311   4.732   4.127   3.572
 3471SOL    HW111312   4.712   4.170   3.660
 3471SOL    HW211313   4.698   4.185   3.498
 3472SOL     OW11314   4.121   1.673   2.528
 3472SOL    HW111315   4.219   1.662   2.511
 3472SOL    HW211316   4.084   1.742   2.466
 3473SOL     OW11317   6.956   3.492   3.780
 3473SOL    HW111318   6.865   3.453   3.798
 3473SOL    HW211319   7.022   3.418   3.769
 3474SOL     OW11320   0.129   4.187   3.915
 3474SOL    HW111321   0.120   4.092   3.885
 3474SOL    HW211322   0.161   4.189   4.009
 3475SOL     OW11323   0.661   4.982   3.967
 3475SOL    HW111324   0.747   4.940   3.995
 3475SOL    HW211325   0.596   4.910   3.943
 3476SOL     OW11326   1.879   1.472   3.638
 3476SOL    HW111327   1.814   1.459   3.713
 3476SOL    HW211328   1.830   1.505   3.557
 3477SOL     OW11329   1.045   3.621   0.381
 3477SOL    HW111330   1.110   3.650   0.311
 3477SOL    HW211331   1.082   3.543   0.431
 3478SOL     OW11332   2.286   0.107   6.744
 3478SOL    HW111333   2.377   0.142   6.765
 3478SOL    HW211334   2.220   0.183   6.743
 3479SOL     OW11335   0.771   1.875   3.799
 3479SOL    HW111336   0.682   1.917   3.814
 3479SOL    HW211337   0.795   1.880   3.702
 3480SOL     OW11338   1.110   6.122   6.562
 3480SOL    HW111339   1.081   6.069   6.641
 3480SOL    HW211340   1.189   6.077   6.519
 3481SOL     OW11341   5.556   1.073   0.724
 3481SOL    HW111342   5.575   0.976   0.738
 3481SOL    HW211343   5.611   1.127   0.787
 3482SOL     OW11344   6.117   1.679   2.996
 3482SOL    HW111345   6.027   1.636   2.995
 3482SOL    HW211346   6.126   1.737   3.077
 3483SOL     OW11347   5.568   2.248   3.171
 3483SOL    HW111348   5.657   2.204   3.157
 3483SOL    HW211349   5.583   2.340   3.208
 3484SOL     OW11350   1.698   3.258   6.900
 3484SOL    HW111351   1.631   3.291   6.834
 3484SOL    HW211352   1.651   3.214   6.976
 3485SOL     OW11353   0.260   2.269   5.249
 3485SOL    HW111354   0.257   2.169   5.260
 3485SOL    HW211355   0.340   2.293   5.193
 3486SOL     OW11356   2.076   0.206   4.122
 3486SOL    HW111357   2.035   0.125   4.080
 3486SOL    HW211358   2.116   0.264   4.051
 3487SOL     OW11359   6.532   2.181   6.767
 3487SOL    HW111360   6.528   2.161   6.865
 3487SOL    HW211361   6.441   2.205   6.733
 3488SOL     OW11362   5.646   0.675   4.796
 3488SOL    HW111363   5.745   0.683   4.781
 3488SOL    HW211364   5.597   0.730   4.729
 3489SOL     OW11365   3.355   6.811   1.136
 3489SOL    HW111366   3.289   6.886   1.135
 3489SOL    HW211367   3.432   6.833   1.076
 3490SOL     OW11368   3.931   4.933   1.516
 3490SOL    HW111369   3.844   4.913   1.561
 3490SOL    HW211370   3.914   4.963   1.422
 3491SOL     OW11371   4.454   4.047   6.114
 3491SOL    HW111372   4.421   4.141   6.123
 3491SOL    HW211373   4.554   4.048   6.115
 3492SOL     OW11374   6.544   4.286   1.223
 3492SOL    HW111375   6.632   4.242   1.241
 3492SOL    HW211376   6.560   4.375   1.181
 3493SOL     OW11377   6.464   3.916   3.683
 3493SOL    HW111378   6.561   3.938   3.697
 3493SOL    HW211379   6.424   3.983   3.621
 3494SOL     OW11380   2.910   1.109   1.962
 3494SOL    HW111381   2.909   1.015   1.929
 3494SOL    HW211382   2.816   1.143   1.970
 3495SOL     OW11383   0.653   3.926   2.228
 3495SOL    HW111384   0.724   3.997   2.235
 3495SOL    HW211385   0.564   3.969   2.212
 3496SOL     OW11386   5.704   5.133   1.011
 3496SOL    HW111387   5.625   5.105   0.957
 3496SOL    HW211388   5.778   5.066   0.999
 3497SOL     OW11389   3.287   1.021   3.671
 3497SOL    HW111390   3.250   0.954   3.607
 3497SOL    HW211391   3.329   0.973   3.748
 3498SOL     OW11392   3.004   1.417   2.094
 3498SOL    HW111393   2.929   1.352   2.080
 3498SOL    HW211394   3.024   1.464   2.008
 3499SOL     OW11395   6.246   5.436   4.776
 3499SOL    HW111396   6.233   5.337   4.786
 3499SOL    HW211397   6.272   5.475   4.865
 3500SOL     OW11398   2.113   2.885   4.238
 3500SOL    HW111399   2.044   2.852   4.173
 3500SOL    HW211400   2.198   2.835   4.225
 3501SOL     OW11401   2.553   6.919   6.094
 3501SOL    HW111402   2.645   6.950   6.120
 3501SOL    HW211403   2.551   6.819   6.093
 3502SOL     OW11404   6.123   3.193   1.468
 3502SOL    HW111405   6.084   3.285   1.467
 3502SOL    HW211406   6.121   3.156   1.561
 3503SOL     OW11407   6.772   6.373   5.779
 3503SOL    HW111408   6.848   6.432   5.805
 3503SOL    HW211409   6.807   6.283   5.752
 3504SOL     OW11410   1.853   1.011   2.210
 3504SOL    HW111411   1.946   1.027   2.176
 3504SOL    HW211412   1.844   1.053   2.301
 3505SOL     OW11413   5.948   5.573   5.396
 3505SOL    HW111414   6.014   5.642   5.365
 3505SOL    HW211415   5.860   5.591   5.353
 3506SOL     OW11416   5.687   4.307   4.781
 3506SOL    HW111417   5.731   4.224   4.817
 3506SOL    HW211418   5.713   4.320   4.686
 3507SOL     OW11419   2.273   6.681   0.290
 3507SOL    HW111420   2.328   6.696   0.372
 3507SOL    HW211421   2.323   6.622   0.227
 3508SOL     OW11422   3.034   2.433   6.565
 3508SOL    HW111423   2.958   2.493   6.541
 3508SOL    HW211424   3.101   2.433   6.491
 3509SOL     OW11425   5.286   6.479   0.186
 3509SOL    HW111426   5.187   6.482   0.175
 3509SOL    HW211427   5.329   6.449   0.101
 3510SOL     OW11428   1.680   0.608   1.044
 3510SOL    HW111429   1.641   0.552   1.117
 3510SOL    HW211430   1.699   0.700   1.079
 3511SOL     OW11431   1.618   4.338   1.371
 3511SOL    HW111432   1.559   4.390   1.309
 3511SOL    HW211433   1.707   4.324   1.330
 3512SOL     OW11434   1.108   3.402   0.731
 3512SOL    HW111435   1.110   3.303   0.742
 3512SOL    HW211436   1.125   3.425   0.636
 3513SOL     OW11437   5.977   1.750   1.517
 3513SOL    HW111438   5.932   1.826   1.471
 3513SOL    HW211439   5.973   1.668   1.460
 3514SOL     OW11440   5.571   0.567   2.245
 3514SOL    HW111441   5.541   0.530   2.157
 3514SOL    HW211442   5.497   0.559   2.312
 3515SOL     OW11443   5.247   5.917   3.985
 3515SOL    HW111444   5.154   5.881   3.977
 3515SOL    HW211445   5.246   6.015   3.968
 3516SOL     OW11446   5.193   6.269   1.041
 3516SOL    HW111447   5.256   6.195   1.021
 3516SOL    HW211448   5.159   6.260   1.135
 3517SOL     OW11449   0.544   1.609   1.837
 3517SOL    HW111450   0.576   1.641   1.748
 3517SOL    HW211451   0.614   1.550   1.878
 3518SOL     OW11452   4.993   1.737   5.225
 3518SOL    HW111453   5.061   1.681   5.272
 3518SOL    HW211454   5.036   1.820   5.189
 3519SOL     OW11455   2.222   1.024   6.038
 3519SOL    HW111456   2.205   0.927   6.020
 3519SOL    HW211457   2.156   1.080   5.987
 3520SOL     OW11458   3.065   6.913   0.033
 3520SOL    HW111459   3.044   6.892   0.128
 3520SOL    HW211460   3.145   6.973   0.029
 3521SOL     OW11461   3.953   2.819   6.719
 3521SOL    HW111462   3.914   2.737   6.760
 3521SOL    HW211463   4.000   2.872   6.789
 3522SOL     OW11464   6.404   5.072   6.759
 3522SOL    HW111465   6.487   5.066   6.703
 3522SOL    HW211466   6.324   5.048   6.703
 3523SOL     OW11467   1.457   4.494   5.332
 3523SOL    HW111468   1.381   4.429   5.332
 3523SOL    HW211469   1.504   4.490   5.244
 3524SOL     OW11470   5.102   2.142   2.339
 3524SOL    HW111471   5.183   2.109   2.387
 3524SOL    HW211472   5.021   2.099   2.378
 3525SOL     OW11473   6.199   3.214   4.311
 3525SOL    HW111474   6.103   3.223   4.338
 3525SOL    HW211475   6.256   3.272   4.370
 3526SOL     OW11476   2.106   6.926   3.369
 3526SOL    HW111477   2.025   6.971   3.331
 3526SOL    HW211478   2.085   6.892   3.460
 3527SOL     OW11479   5.737   3.303   6.193
 3527SOL    HW111480   5.736   3.389   6.142
 3527SOL    HW211481   5.797   3.237   6.147
 3528SOL     OW11482   1.943   6.092   4.922
 3528SOL    HW111483   1.978   6.185   4.911
 3528SOL    HW211484   2.015   6.026   4.902
 3529SOL     OW11485   4.076   6.811   0.563
 3529SOL    HW111486   4.087   6.717   0.593
 3529SOL    HW211487   4.019   6.813   0.480
 3530SOL     OW11488   6.857   5.113   1.636
 3530SOL    HW111489   6.770   5.137   1.679
 3530SOL    HW211490   6.923   5.186   1.652
 3531SOL     OW11491   5.976   2.594   1.131
 3531SOL    HW111492   6.027   2.680   1.124
 3531SOL    HW211493   5.881   2.613   1.155
 3532SOL     OW11494   2.577   1.051   1.697
 3532SOL    HW111495   2.496   1.019   1.648
 3532SOL    HW211496   2.659   1.012   1.656
 3533SOL     OW11497   0.704   1.462   2.502
 3533SOL    HW111498   0.754   1.476   2.588
 3533SOL    HW211499   0.686   1.551   2.460
 3534SOL     OW11500   0.857   2.176   2.050
 3534SOL    HW111501   0.844   2.077   2.038
 3534SOL    HW211502   0.832   2.223   1.966
 3535SOL     OW11503   1.920   5.669   5.808
 3535SOL    HW111504   1.822   5.691   5.806
 3535SOL    HW211505   1.968   5.723   5.739
 3536SOL     OW11506   3.338   2.153   3.617
 3536SOL    HW111507   3.268   2.190   3.557
 3536SOL    HW211508   3.315   2.172   3.712
 3537SOL     OW11509   1.990   5.556   1.831
 3537SOL    HW111510   1.893   5.558   1.857
 3537SOL    HW211511   2.001   5.594   1.739
 3538SOL     OW11512   2.431   5.634   5.720
 3538SOL    HW111513   2.472   5.560   5.668
 3538SOL    HW211514   2.433   5.718   5.666
 3539SOL     OW11515   3.419   3.413   4.534
 3539SOL    HW111516   3.508   3.449   4.508
 3539SOL    HW211517   3.383   3.356   4.460
 3540SOL     OW11518   1.903   2.204   4.787
 3540SOL    HW111519   1.952   2.141   4.728
 3540SOL    HW211520   1.961   2.230   4.864
 3541SOL     OW11521   2.602   2.622   5.690
 3541SOL    HW111522   2.673   2.566   5.734
 3541SOL    HW211523   2.644   2.702   5.647
 3542SOL     OW11524   1.402   4.926   2.885
 3542SOL    HW111525   1.369   4.910   2.978
 3542SOL    HW211526   1.502   4.928   2.884
 3543SOL     OW11527   6.213   2.794   3.459
 3543SOL    HW111528   6.262   2.760   3.379
 3543SOL    HW211529   6.125   2.747   3.467
 3544SOL     OW11530   2.120   4.294   6.522
 3544SOL    HW111531   2.110   4.263   6.427
 3544SOL    HW211532   2.063   4.237   6.582
 3545SOL     OW11533   3.798   6.355   6.791
 3545SOL    HW111534   3.717   6.324   6.841
 3545SOL    HW211535   3.844   6.427   6.844
 3546SOL     OW11536   0.542   4.271   3.269
 3546SOL    HW111537   0.586   4.341   3.214
 3546SOL    HW211538   0.469   4.312   3.324
 3547SOL     OW11539   4.522   4.673   3.966
 3547SOL    HW111540   4.481   4.731   4.037
 3547SOL    HW211541   4.600   4.720   3.926
 3548SOL     OW11542   5.204   1.575   5.946
 3548SOL    HW111543   5.199   1.635   6.025
 3548SOL    HW211544   5.279   1.605   5.887
 3549SOL     OW11545   6.853   4.658   4.749
 3549SOL    HW111546   6.842   4.690   4.655
 3549SOL    HW211547   6.886   4.732   4.806
 3550SOL     OW11548   4.830   2.973   2.619
 3550SOL    HW111549   4.770   2.931   2.551
 3550SOL    HW211550   4.916   2.999   2.575
 3551SOL     OW11551   3.804   6.154   3.096
 3551SOL    HW111552   3.730   6.102   3.055
 3551SOL    HW211553   3.767   6.235   3.142
 3552SOL     OW11554   4.731   6.129   2.522
 3552SOL    HW111555   4.752   6.171   2.434
 3552SOL    HW211556   4.692   6.038   2.507
 3553SOL     OW11557   5.931   3.136   1.262
 3553SOL    HW111558   6.001   3.175   1.322
 3553SOL    HW211559   5.853   3.198   1.258
 3554SOL     OW11560   3.589   3.225   0.711
 3554SOL    HW111561   3.542   3.195   0.627
 3554SOL    HW211562   3.647   3.304   0.691
 3555SOL     OW11563   0.721   3.363   2.803
 3555SOL    HW111564   0.713   3.396   2.897
 3555SOL    HW211565   0.786   3.420   2.753
 3556SOL     OW11566   3.677   0.593   5.080
 3556SOL    HW111567   3.747   0.525   5.057
 3556SOL    HW211568   3.685   0.671   5.018
 3557SOL     OW11569   0.736   0.574   3.971
 3557SOL    HW111570   0.712   0.604   4.064
 3557SOL    HW211571   0.817   0.516   3.974
 3558SOL     OW11572   0.123   5.921   1.772
 3558SOL    HW111573   0.163   5.844   1.723
 3558SOL    HW211574   0.195   5.973   1.819
 3559SOL     OW11575   0.603   6.993   4.598
 3559SOL    HW111576   0.602   6.894   4.589
 3559SOL    HW211577   0.520   0.008   4.557
 3560SOL     OW11578   1.774   5.845   1.264
 3560SOL    HW111579   1.819   5.863   1.177
 3560SOL    HW211580   1.736   5.752   1.264
 3561SOL     OW11581   5.231   5.198   5.745
 3561SOL    HW111582   5.218   5.296   5.755
 3561SOL    HW211583   5.307   5.179   5.683
 3562SOL     OW11584   4.463   0.962   4.366
 3562SOL    HW111585   4.490   1.023   4.441
 3562SOL    HW211586   4.518   0.879   4.370
 3563SOL     OW11587   5.272   0.986   1.936
 3563SOL    HW111588   5.329   1.065   1.913
 3563SOL    HW211589   5.243   0.993   2.032
 3564SOL     OW11590   1.554   4.420   4.012
 3564SOL    HW111591   1.648   4.407   3.981
 3564SOL    HW211592   1.492   4.368   3.953
 3565SOL     OW11593   3.441   6.551   5.077
 3565SOL    HW111594   3.460   6.504   4.991
 3565SOL    HW211595   3.515   6.615   5.097
 3566SOL     OW11596   0.074   3.216   5.889
 3566SOL    HW111597   0.123   3.149   5.834
 3566SOL    HW211598   0.033   3.170   5.969
 3567SOL     OW11599   1.712   2.208   0.524
 3567SOL    HW111600   1.794   2.250   0.562
 3567SOL    HW211601   1.734   2.162   0.439
 3568SOL     OW11602   5.452   5.005   2.697
 3568SOL    HW111603   5.458   4.936   2.626
 3568SOL    HW211604   5.446   4.961   2.787
 3569SOL     OW11605   3.061   3.042   5.276
 3569SOL    HW111606   3.129   3.007   5.212
 3569SOL    HW211607   2.978   2.987   5.268
 3570SOL     OW11608   5.535   0.714   5.494
 3570SOL    HW111609   5.447   0.698   5.538
 3570SOL    HW211610   5.526   0.787   5.426
 3571SOL     OW11611   1.609   0.766   4.940
 3571SOL    HW111612   1.703   0.785   4.970
 3571SOL    HW211613   1.596   0.667   4.931
 3572SOL     OW11614   5.220   3.993   2.301
 3572SOL    HW111615   5.211   3.927   2.226
 3572SOL    HW211616   5.130   4.007   2.344
 3573SOL     OW11617   6.960   4.443   2.510
 3573SOL    HW111618   6.975   4.509   2.436
 3573SOL    HW211619   6.883   4.383   2.486
 3574SOL     OW11620   2.249   3.207   6.426
 3574SOL    HW111621   2.184   3.279   6.452
 3574SOL    HW211622   2.231   3.180   6.331
 3575SOL     OW11623   5.011   5.637   0.882
 3575SOL    HW111624   4.960   5.614   0.799
 3575SOL    HW211625   4.968   5.593   0.961
 3576SOL     OW11626   0.346   2.650   0.399
 3576SOL    HW111627   0.400   2.567   0.414
 3576SOL    HW211628   0.252   2.634   0.430
 3577SOL     OW11629   2.278   3.303   5.593
 3577SOL    HW111630   2.371   3.301   5.630
 3577SOL    HW211631   2.271   3.236   5.519
 3578SOL     OW11632   4.020   3.109   1.014
 3578SOL    HW111633   3.972   3.039   1.068
 3578SOL    HW211634   4.054   3.181   1.075
 3579SOL     OW11635   0.213   2.947   3.007
 3579SOL    HW111636   0.274   2.922   2.932
 3579SOL    HW211637   0.148   3.016   2.977
 3580SOL     OW11638   7.011   3.646   1.438
 3580SOL    HW111639   0.032   3.604   1.359
 3580SOL    HW211640   7.011   3.581   1.515
 3581SOL     OW11641   0.984   6.605   3.224
 3581SOL    HW111642   0.977   6.577   3.320
 3581SOL    HW211643   1.052   6.549   3.178
 3582SOL     OW11644   3.507   4.985   5.779
 3582SOL    HW111645   3.451   4.938   5.711
 3582SOL    HW211646   3.536   4.920   5.849
 3583SOL     OW11647   0.590   4.166   0.768
 3583SOL    HW111648   0.514   4.202   0.823
 3583SOL    HW211649   0.606   4.070   0.792
 3584SOL     OW11650   6.267   4.444   5.326
 3584SOL    HW111651   6.169   4.454   5.306
 3584SOL    HW211652   6.278   4.387   5.407
 3585SOL     OW11653   3.013   1.900   4.972
 3585SOL    HW111654   3.104   1.899   4.932
 3585SOL    HW211655   2.983   1.994   4.987
 3586SOL     OW11656   6.107   2.849   4.095
 3586SOL    HW111657   6.027   2.876   4.149
 3586SOL    HW211658   6.162   2.931   4.075
 3587SOL     OW11659   3.449   6.003   6.893
 3587SOL    HW111660   3.470   5.908   6.913
 3587SOL    HW211661   3.431   6.013   6.795
 3588SOL     OW11662   6.433   4.494   4.017
 3588SOL    HW111663   6.473   4.465   4.104
 3588SOL    HW211664   6.506   4.509   3.951
 3589SOL     OW11665   6.810   0.088   5.847
 3589SOL    HW111666   6.898   0.053   5.815
 3589SOL    HW211667   6.799   0.066   5.944
 3590SOL     OW11668   0.160   4.059   0.703
 3590SOL    HW111669   0.200   3.983   0.755
 3590SOL    HW211670   0.230   4.101   0.646
 3591SOL     OW11671   5.834   2.573   0.304
 3591SOL    HW111672   5.759   2.516   0.271
 3591SOL    HW211673   5.899   2.589   0.230
 3592SOL     OW11674   0.933   0.544   2.411
 3592SOL    HW111675   0.847   0.592   2.424
 3592SOL    HW211676   1.004   0.585   2.468
 3593SOL     OW11677   0.367   4.891   5.629
 3593SOL    HW111678   0.309   4.832   5.573
 3593SOL    HW211679   0.375   4.981   5.585
 3594SOL     OW11680   4.335   6.087   5.260
 3594SOL    HW111681   4.279   6.170   5.262
 3594SOL    HW211682   4.375   6.076   5.169
 3595SOL     OW11683   6.211   6.289   0.011
 3595SOL    HW111684   6.148   6.366   0.001
 3595SOL    HW211685   6.186   6.216   6.971
 3596SOL     OW11686   4.775   1.882   2.875
 3596SOL    HW111687   4.677   1.900   2.884
 3596SOL    HW211688   4.826   1.968   2.884
 3597SOL     OW11689   2.022   3.357   5.713
 3597SOL    HW111690   2.099   3.342   5.651
 3597SOL    HW211691   1.945   3.299   5.687
 3598SOL     OW11692   1.647   6.634   5.733
 3598SOL    HW111693   1.565   6.634   5.791
 3598SOL    HW211694   1.653   6.548   5.682
 3599SOL     OW11695   4.664   1.735   6.185
 3599SOL    HW111696   4.670   1.638   6.207
 3599SOL    HW211697   4.568   1.762   6.180
 3600SOL     OW11698   2.231   3.105   0.795
 3600SOL    HW111699   2.303   3.167   0.765
 3600SOL    HW211700   2.186   3.142   0.876
 3601SOL     OW11701   4.924   1.181   5.551
 3601SOL    HW111702   4.973   1.268   5.551
 3601SOL    HW211703   4.855   1.181   5.623
 3602SOL     OW11704   2.153   2.692   1.643
 3602SOL    HW111705   2.120   2.598   1.649
 3602SOL    HW211706   2.152   2.734   1.734
 3603SOL     OW11707   3.176   0.988   6.385
 3603SOL    HW111708   3.247   1.058   6.388
 3603SOL    HW211709   3.123   0.998   6.300
 3604SOL     OW11710   6.918   0.795   3.451
 3604SOL    HW111711   6.995   0.826   3.507
 3604SOL    HW211712   6.860   0.733   3.505
 3605SOL     OW11713   1.485   5.230   3.830
 3605SOL    HW111714   1.512   5.300   3.896
 3605SOL    HW211715   1.493   5.140   3.872
 3606SOL     OW11716   1.517   6.490   1.175
 3606SOL    HW111717   1.522   6.437   1.259
 3606SOL    HW211718   1.545   6.584   1.193
 3607SOL     OW11719   5.594   2.865   2.353
 3607SOL    HW111720   5.662   2.838   2.421
 3607SOL    HW211721   5.506   2.824   2.376
 3608SOL     OW11722   5.089   2.141   4.112
 3608SOL    HW111723   5.041   2.179   4.190
 3608SOL    HW211724   5.052   2.050   4.091
 3609SOL     OW11725   2.241   6.345   4.429
 3609SOL    HW111726   2.215   6.417   4.493
 3609SOL    HW211727   2.317   6.376   4.372
 3610SOL     OW11728   1.725   0.267   5.414
 3610SOL    HW111729   1.636   0.302   5.386
 3610SOL    HW211730   1.790   0.344   5.422
 3611SOL     OW11731   4.712   4.340   4.513
 3611SOL    HW111732   4.788   4.390   4.472
 3611SOL    HW211733   4.628   4.394   4.505
 3612SOL     OW11734   6.344   1.432   6.369
 3612SOL    HW111735   6.301   1.362   6.426
 3612SOL    HW211736   6.393   1.496   6.428
 3613SOL     OW11737   4.349   5.312   1.586
 3613SOL    HW111738   4.278   5.315   1.516
 3613SOL    HW211739   4.417   5.243   1.561
 3614SOL     OW11740   3.551   3.756   0.109
 3614SOL    HW111741   3.600   3.674   0.137
 3614SOL    HW211742   3.548   3.761   0.009
 3615SOL     OW11743   5.840   3.051   5.769
 3615SOL    HW111744   5.772   3.052   5.842
 3615SOL    HW211745   5.795   3.060   5.681
 3616SOL     OW11746   2.017   2.120   6.360
 3616SOL    HW111747   2.090   2.090   6.421
 3616SOL    HW211748   2.045   2.203   6.312
 3617SOL     OW11749   4.086   6.537   5.808
 3617SOL    HW111750   4.016   6.575   5.869
 3617SOL    HW211751   4.158   6.605   5.793
 3618SOL     OW11752   2.050   3.605   4.797
 3618SOL    HW111753   2.029   3.702   4.791
 3618SOL    HW211754   2.145   3.593   4.827
 3619SOL     OW11755   5.972   3.186   0.496
 3619SOL    HW111756   5.923   3.104   0.466
 3619SOL    HW211757   5.976   3.188   0.595
 3620SOL     OW11758   6.044   5.972   4.529
 3620SOL    HW111759   5.971   6.041   4.526
 3620SOL    HW211760   6.005   5.882   4.512
 3621SOL     OW11761   3.509   3.049   3.931
 3621SOL    HW111762   3.433   2.989   3.956
 3621SOL    HW211763   3.587   3.033   3.992
 3622SOL     OW11764   0.742   0.693   1.359
 3622SOL    HW111765   0.835   0.731   1.356
 3622SOL    HW211766   0.736   0.628   1.435
 3623SOL     OW11767   0.575   5.472   6.424
 3623SOL    HW111768   0.595   5.535   6.349
 3623SOL    HW211769   0.490   5.423   6.405
 3624SOL     OW11770   2.226   0.575   1.467
 3624SOL    HW111771   2.307   0.592   1.523
 3624SOL    HW211772   2.239   0.614   1.376
 3625SOL     OW11773   6.416   2.827   6.753
 3625SOL    HW111774   6.380   2.919   6.770
 3625SOL    HW211775   6.479   2.830   6.676
 3626SOL     OW11776   6.892   3.935   4.247
 3626SOL    HW111777   6.958   3.939   4.322
 3626SOL    HW211778   6.940   3.920   4.161
 3627SOL     OW11779   4.575   2.889   1.225
 3627SOL    HW111780   4.573   2.808   1.285
 3627SOL    HW211781   4.485   2.930   1.222
 3628SOL     OW11782   1.405   1.922   1.723
 3628SOL    HW111783   1.496   1.884   1.702
 3628SOL    HW211784   1.340   1.894   1.652
 3629SOL     OW11785   1.077   1.188   3.489
 3629SOL    HW111786   0.980   1.163   3.487
 3629SOL    HW211787   1.108   1.195   3.584
 3630SOL     OW11788   6.974   2.524   2.631
 3630SOL    HW111789   6.963   2.575   2.716
 3630SOL    HW211790   6.884   2.508   2.591
 3631SOL     OW11791   1.836   0.021   3.309
 3631SOL    HW111792   1.859   0.081   3.385
 3631SOL    HW211793   1.737   0.004   3.309
 3632SOL     OW11794   4.163   3.670   0.663
 3632SOL    HW111795   4.191   3.640   0.754
 3632SOL    HW211796   4.133   3.765   0.667
 3633SOL     OW11797   3.194   2.468   5.901
 3633SOL    HW111798   3.149   2.537   5.845
 3633SOL    HW211799   3.293   2.470   5.883
 3634SOL     OW11800   2.821   6.057   5.885
 3634SOL    HW111801   2.803   6.155   5.870
 3634SOL    HW211802   2.891   6.026   5.820
 3635SOL     OW11803   2.903   1.200   1.669
 3635SOL    HW111804   2.930   1.153   1.753
 3635SOL    HW211805   2.885   1.296   1.689
 3636SOL     OW11806   6.857   5.358   0.932
 3636SOL    HW111807   6.884   5.383   1.025
 3636SOL    HW211808   6.925   5.296   0.893
 3637SOL     OW11809   0.734   2.889   6.422
 3637SOL    HW111810   0.644   2.915   6.386
 3637SOL    HW211811   0.732   2.794   6.452
 3638SOL     OW11812   6.182   4.152   3.048
 3638SOL    HW111813   6.168   4.078   2.982
 3638SOL    HW211814   6.117   4.225   3.029
 3639SOL     OW11815   3.912   4.070   5.055
 3639SOL    HW111816   3.898   3.989   5.112
 3639SOL    HW211817   4.010   4.085   5.043
 3640SOL     OW11818   5.612   2.576   0.001
 3640SOL    HW111819   5.541   2.634   0.041
 3640SOL    HW211820   5.699   2.594   0.046
 3641SOL     OW11821   6.182   4.226   0.811
 3641SOL    HW111822   6.260   4.165   0.827
 3641SOL    HW211823   6.159   4.226   0.714
 3642SOL     OW11824   5.963   2.235   6.470
 3642SOL    HW111825   6.012   2.238   6.383
 3642SOL    HW211826   5.984   2.317   6.523
 3643SOL     OW11827   4.722   6.013   6.184
 3643SOL    HW111828   4.777   5.979   6.260
 3643SOL    HW211829   4.753   6.104   6.159
 3644SOL     OW11830   2.676   0.745   2.034
 3644SOL    HW111831   2.595   0.697   1.999
 3644SOL    HW211832   2.759   0.696   2.006
 3645SOL     OW11833   1.600   3.871   4.608
 3645SOL    HW111834   1.531   3.806   4.577
 3645SOL    HW211835   1.645   3.913   4.529
 3646SOL     OW11836   2.678   4.787   4.596
 3646SOL    HW111837   2.705   4.731   4.518
 3646SOL    HW211838   2.668   4.730   4.677
 3647SOL     OW11839   1.725   6.548   0.107
 3647SOL    HW111840   1.657   6.596   0.051
 3647SOL    HW211841   1.710   6.449   0.100
 3648SOL     OW11842   5.070   5.481   3.420
 3648SOL    HW111843   4.982   5.437   3.407
 3648SOL    HW211844   5.073   5.566   3.366
 3649SOL     OW11845   5.691   3.277   6.735
 3649SOL    HW111846   5.727   3.288   6.642
 3649SOL    HW211847   5.621   3.206   6.736
 3650SOL     OW11848   4.767   4.658   1.247
 3650SOL    HW111849   4.678   4.686   1.282
 3650SOL    HW211850   4.767   4.559   1.230
 3651SOL     OW11851   1.671   2.617   5.665
 3651SOL    HW111852   1.677   2.573   5.575
 3651SOL    HW211853   1.759   2.660   5.686
 3652SOL     OW11854   5.052   0.746   2.221
 3652SOL    HW111855   5.113   0.824   2.219
 3652SOL    HW211856   4.973   0.764   2.162
 3653SOL     OW11857   1.544   1.237   2.370
 3653SOL    HW111858   1.455   1.281   2.361
 3653SOL    HW211859   1.612   1.286   2.314
 3654SOL     OW11860   5.231   6.532   0.993
 3654SOL    HW111861   5.244   6.434   1.005
 3654SOL    HW211862   5.156   6.563   1.051
 3655SOL     OW11863   2.726   1.450   3.964
 3655SOL    HW111864   2.790   1.399   3.907
 3655SOL    HW211865   2.657   1.388   4.001
 3656SOL     OW11866   0.893   5.593   2.202
 3656SOL    HW111867   0.991   5.576   2.211
 3656SOL    HW211868   0.844   5.543   2.274
 3657SOL     OW11869   5.221   6.461   5.721
 3657SOL    HW111870   5.270   6.386   5.764
 3657SOL    HW211871   5.243   6.464   5.623
 3658SOL     OW11872   1.212   5.253   6.410
 3658SOL    HW111873   1.301   5.211   6.429
 3658SOL    HW211874   1.169   5.279   6.497
 3659SOL     OW11875   0.039   1.975   6.260
 3659SOL    HW111876   0.092   2.059   6.252
 3659SOL    HW211877   0.079   1.917   6.332
 3660SOL     OW11878   5.221   5.471   5.730
 3660SOL    HW111879   5.162   5.490   5.651
 3660SOL    HW211880   5.212   5.545   5.796
 3661SOL     OW11881   6.922   1.623   4.999
 3661SOL    HW111882   6.921   1.710   4.949
 3661SOL    HW211883   7.008   1.616   5.051
 3662SOL     OW11884   3.606   0.816   5.869
 3662SOL    HW111885   3.537   0.863   5.814
 3662SOL    HW211886   3.628   0.873   5.949
 3663SOL     OW11887   2.659   3.213   6.969
 3663SOL    HW111888   2.577   3.163   6.995
 3663SOL    HW211889   2.643   3.263   6.883
 3664SOL     OW11890   4.247   1.722   2.129
 3664SOL    HW111891   4.312   1.693   2.059
 3664SOL    HW211892   4.266   1.673   2.214
 3665SOL     OW11893   0.278   6.596   5.636
 3665SOL    HW111894   0.259   6.604   5.734
 3665SOL    HW211895   0.192   6.591   5.586
 3666SOL     OW11896   1.567   2.574   3.900
 3666SOL    HW111897   1.572   2.508   3.825
 3666SOL    HW211898   1.542   2.664   3.864
 3667SOL     OW11899   1.581   1.497   2.598
 3667SOL    HW111900   1.569   1.468   2.503
 3667SOL    HW211901   1.519   1.573   2.618
 3668SOL     OW11902   1.181   0.141   1.750
 3668SOL    HW111903   1.276   0.164   1.730
 3668SOL    HW211904   1.176   0.049   1.789
 3669SOL     OW11905   6.377   2.633   3.996
 3669SOL    HW111906   6.349   2.724   3.966
 3669SOL    HW211907   6.454   2.602   3.940
 3670SOL     OW11908   3.438   5.138   1.138
 3670SOL    HW111909   3.525   5.138   1.187
 3670SOL    HW211910   3.418   5.231   1.107
 3671SOL     OW11911   6.830   0.496   3.603
 3671SOL    HW111912   6.912   0.531   3.650
 3671SOL    HW211913   6.857   0.425   3.539
 3672SOL     OW11914   5.005   0.848   2.934
 3672SOL    HW111915   5.010   0.899   3.021
 3672SOL    HW211916   5.080   0.782   2.930
 3673SOL     OW11917   4.885   5.587   0.627
 3673SOL    HW111918   4.786   5.589   0.640
 3673SOL    HW211919   4.905   5.581   0.529
 3674SOL     OW11920   1.702   5.845   5.736
 3674SOL    HW111921   1.659   5.920   5.785
 3674SOL    HW211922   1.799   5.866   5.723
 3675SOL     OW11923   0.045   1.838   3.912
 3675SOL    HW111924   0.047   1.794   3.822
 3675SOL    HW211925   6.993   1.902   3.916
 3676SOL     OW11926   4.993   2.636   2.865
 3676SOL    HW111927   4.919   2.701   2.850
 3676SOL    HW211928   5.081   2.682   2.849
 3677SOL     OW11929   2.268   0.832   4.131
 3677SOL    HW111930   2.344   0.850   4.194
 3677SOL    HW211931   2.248   0.915   4.078
 3678SOL     OW11932   1.503   0.425   3.833
 3678SOL    HW111933   1.452   0.401   3.916
 3678SOL    HW211934   1.587   0.370   3.828
 3679SOL     OW11935   4.763   0.446   2.880
 3679SOL    HW111936   4.795   0.472   2.971
 3679SOL    HW211937   4.743   0.348   2.878
 3680SOL     OW11938   4.784   1.546   3.484
 3680SOL    HW111939   4.876   1.582   3.500
 3680SOL    HW211940   4.785   1.487   3.404
 3681SOL     OW11941   1.277   0.612   4.839
 3681SOL    HW111942   1.361   0.562   4.858
 3681SOL    HW211943   1.263   0.682   4.909
 3682SOL     OW11944   5.841   2.444   0.904
 3682SOL    HW111945   5.896   2.371   0.864
 3682SOL    HW211946   5.886   2.479   0.986
 3683SOL     OW11947   6.997   0.831   5.051
 3683SOL    HW111948   6.962   0.744   5.085
 3683SOL    HW211949   6.930   0.872   4.989
 3684SOL     OW11950   1.854   6.918   5.620
 3684SOL    HW111951   1.898   6.916   5.531
 3684SOL    HW211952   1.921   6.900   5.692
 3685SOL     OW11953   2.167   6.221   5.463
 3685SOL    HW111954   2.199   6.127   5.453
 3685SOL    HW211955   2.071   6.227   5.436
 3686SOL     OW11956   6.679   3.642   3.458
 3686SOL    HW111957   6.678   3.577   3.534
 3686SOL    HW211958   6.679   3.593   3.371
 3687SOL     OW11959   4.449   5.973   3.330
 3687SOL    HW111960   4.543   5.948   3.306
 3687SOL    HW211961   4.401   6.007   3.248
 3688SOL     OW11962   5.857   2.987   0.180
 3688SOL    HW111963   5.812   3.076   0.189
 3688SOL    HW211964   5.792   2.914   0.197
 3689SOL     OW11965   1.910   1.093   5.426
 3689SOL    HW111966   1.975   1.152   5.378
 3689SOL    HW211967   1.817   1.123   5.405
 3690SOL     OW11968   5.253   4.963   0.998
 3690SOL    HW111969   5.175   4.975   1.059
 3690SOL    HW211970   5.276   4.866   0.991
 3691SOL     OW11971   2.853   1.571   0.098
 3691SOL    HW111972   2.891   1.643   0.040
 3691SOL    HW211973   2.753   1.572   0.091
 3692SOL     OW11974   0.398   3.725   6.197
 3692SOL    HW111975   0.313   3.714   6.146
 3692SOL    HW211976   0.465   3.658   6.165
 3693SOL     OW11977   1.012   2.215   2.566
 3693SOL    HW111978   1.107   2.237   2.588
 3693SOL    HW211979   1.010   2.141   2.499
 3694SOL     OW11980   0.788   0.629   1.964
 3694SOL    HW111981   0.722   0.703   1.980
 3694SOL    HW211982   0.742   0.541   1.972
 3695SOL     OW11983   6.592   2.429   2.888
 3695SOL    HW111984   6.567   2.411   2.793
 3695SOL    HW211985   6.663   2.499   2.891
 3696SOL     OW11986   4.896   0.726   5.049
 3696SOL    HW111987   4.909   0.710   5.146
 3696SOL    HW211988   4.898   0.640   4.999
 3697SOL     OW11989   6.314   6.057   3.553
 3697SOL    HW111990   6.393   6.101   3.597
 3697SOL    HW211991   6.230   6.105   3.579
 3698SOL     OW11992   1.871   0.340   3.116
 3698SOL    HW111993   1.965   0.323   3.144
 3698SOL    HW211994   1.811   0.271   3.156
 3699SOL     OW11995   2.532   2.154   4.268
 3699SOL    HW111996   2.514   2.057   4.252
 3699SOL    HW211997   2.631   2.169   4.266
 3700SOL     OW11998   1.279   5.230   4.693
 3700SOL    HW111999   1.302   5.276   4.779
 3700SOL    HW212000   1.257   5.298   4.623
 3701SOL     OW12001   1.026   6.820   3.049
 3701SOL    HW112002   1.122   6.819   3.020
 3701SOL    HW212003   1.007   6.740   3.105
 3702SOL     OW12004   5.101   4.895   3.710
 3702SOL    HW112005   5.077   4.916   3.805
 3702SOL    HW212006   5.153   4.810   3.707
 3703SOL     OW12007   1.510   1.949   5.662
 3703SOL    HW112008   1.568   1.888   5.608
 3703SOL    HW212009   1.414   1.931   5.642
 3704SOL     OW12010   6.428   2.473   1.065
 3704SOL    HW112011   6.332   2.446   1.056
 3704SOL    HW212012   6.441   2.561   1.019
 3705SOL     OW12013   4.825   4.596   3.684
 3705SOL    HW112014   4.845   4.530   3.611
 3705SOL    HW212015   4.833   4.689   3.647
 3706SOL     OW12016   1.021   3.863   0.551
 3706SOL    HW112017   1.011   3.777   0.501
 3706SOL    HW212018   0.961   3.932   0.511
 3707SOL     OW12019   2.371   4.941   3.799
 3707SOL    HW112020   2.352   4.843   3.789
 3707SOL    HW212021   2.400   4.978   3.711
 3708SOL     OW12022   3.587   6.853   0.982
 3708SOL    HW112023   3.597   6.801   0.897
 3708SOL    HW212024   3.629   6.943   0.971
 3709SOL     OW12025   1.771   0.238   2.293
 3709SOL    HW112026   1.704   0.165   2.309
 3709SOL    HW212027   1.724   0.317   2.253
 3710SOL     OW12028   0.425   5.227   5.283
 3710SOL    HW112029   0.448   5.132   5.304
 3710SOL    HW212030   0.507   5.275   5.250
 3711SOL     OW12031   1.683   6.333   4.809
 3711SOL    HW112032   1.763   6.385   4.840
 3711SOL    HW212033   1.712   6.262   4.745
 3712SOL     OW12034   1.960   5.722   5.175
 3712SOL    HW112035   1.967   5.628   5.142
 3712SOL    HW212036   1.975   5.785   5.100
 3713SOL     OW12037   6.615   6.802   5.132
 3713SOL    HW112038   6.683   6.866   5.167
 3713SOL    HW212039   6.613   6.720   5.189
 3714SOL     OW12040   1.265   4.875   0.343
 3714SOL    HW112041   1.336   4.938   0.375
 3714SOL    HW212042   1.256   4.882   0.244
 3715SOL     OW12043   0.030   5.945   3.106
 3715SOL    HW112044   0.040   5.849   3.134
 3715SOL    HW212045   0.034   6.003   3.188
 3716SOL     OW12046   5.514   5.640   4.055
 3716SOL    HW112047   5.608   5.658   4.027
 3716SOL    HW212048   5.457   5.626   3.974
 3717SOL     OW12049   4.758   1.447   1.177
 3717SOL    HW112050   4.857   1.432   1.175
 3717SOL    HW212051   4.730   1.473   1.270
 3718SOL     OW12052   6.923   6.576   6.430
 3718SOL    HW112053   6.962   6.543   6.344
 3718SOL    HW212054   6.834   6.617   6.413
 3719SOL     OW12055   4.545   3.892   6.563
 3719SOL    HW112056   4.632   3.849   6.589
 3719SOL    HW212057   4.505   3.937   6.642
 3720SOL     OW12058   6.631   3.409   0.962
 3720SOL    HW112059   6.569   3.414   1.040
 3720SOL    HW212060   6.627   3.318   0.922
 3721SOL     OW12061   6.556   4.652   6.711
 3721SOL    HW112062   6.597   4.686   6.796
 3721SOL    HW212063   6.628   4.625   6.647
 3722SOL     OW12064   3.786   0.015   2.523
 3722SOL    HW112065   3.855   0.070   2.570
 3722SOL    HW212066   3.728   0.074   2.467
 3723SOL     OW12067   4.275   5.423   0.110
 3723SOL    HW112068   4.226   5.417   0.197
 3723SOL    HW212069   4.264   5.514   0.072
 3724SOL     OW12070   1.662   5.176   4.823
 3724SOL    HW112071   1.611   5.090   4.824
 3724SOL    HW212072   1.717   5.183   4.906
 3725SOL     OW12073   0.108   6.570   0.169
 3725SOL    HW112074   0.042   6.554   0.242
 3725SOL    HW212075   0.113   6.490   0.110
 3726SOL     OW12076   5.729   3.799   3.750
 3726SOL    HW112077   5.741   3.716   3.804
 3726SOL    HW212078   5.759   3.783   3.656
 3727SOL     OW12079   0.158   2.646   4.180
 3727SOL    HW112080   0.100   2.703   4.238
 3727SOL    HW212081   0.233   2.702   4.143
 3728SOL     OW12082   2.925   3.923   0.118
 3728SOL    HW112083   2.950   3.856   0.187
 3728SOL    HW212084   2.970   3.901   0.032
 3729SOL     OW12085   0.672   0.037   5.435
 3729SOL    HW112086   0.582   0.080   5.429
 3729SOL    HW212087   0.738   0.089   5.381
 3730SOL     OW12088   4.401   6.240   6.104
 3730SOL    HW112089   4.362   6.327   6.134
 3730SOL    HW212090   4.376   6.224   6.008
 3731SOL     OW12091   0.170   1.784   6.439
 3731SOL    HW112092   0.129   1.842   6.510
 3731SOL    HW212093   0.270   1.788   6.448
 3732SOL     OW12094   2.557   2.022   0.040
 3732SOL    HW112095   2.570   2.110   0.086
 3732SOL    HW212096   2.550   2.037   6.966
 3733SOL     OW12097   1.971   2.718   3.484
 3733SOL    HW112098   1.899   2.714   3.415
 3733SOL    HW212099   1.930   2.731   3.574
 3734SOL     OW12100   3.993   7.016   1.531
 3734SOL    HW112101   3.967   6.921   1.548
 3734SOL    HW212102   3.925   0.036   1.473
 3735SOL     OW12103   4.183   0.002   2.334
 3735SOL    HW112104   4.094   7.000   2.297
 3735SOL    HW212105   4.239   6.944   2.347
 3736SOL     OW12106   6.716   1.334   1.313
 3736SOL    HW112107   6.754   1.409   1.366
 3736SOL    HW212108   6.677   1.266   1.376
 3737SOL     OW12109   0.335   2.228   3.462
 3737SOL    HW112110   0.279   2.297   3.417
 3737SOL    HW212111   0.417   2.211   3.407
 3738SOL     OW12112   6.787   6.471   0.682
 3738SOL    HW112113   6.781   6.565   0.648
 3738SOL    HW212114   6.707   6.451   0.739
 3739SOL     OW12115   2.930   4.566   1.450
 3739SOL    HW112116   2.915   4.519   1.364
 3739SOL    HW212117   2.899   4.661   1.442
 3740SOL     OW12118   5.630   5.616   6.747
 3740SOL    HW112119   5.606   5.548   6.677
 3740SOL    HW212120   5.547   5.663   6.777
 3741SOL     OW12121   5.543   2.435   0.294
 3741SOL    HW112122   5.550   2.338   0.273
 3741SOL    HW212123   5.529   2.447   0.393
 3742SOL     OW12124   4.297   5.560   0.413
 3742SOL    HW112125   4.297   5.629   0.339
 3742SOL    HW212126   4.352   5.594   0.489
 3743SOL     OW12127   3.848   3.426   1.292
 3743SOL    HW112128   3.875   3.485   1.368
 3743SOL    HW212129   3.917   3.355   1.279
 3744SOL     OW12130   0.944   5.965   1.915
 3744SOL    HW112131   0.850   5.983   1.945
 3744SOL    HW212132   1.003   5.951   1.994
 3745SOL     OW12133   4.897   3.699   2.439
 3745SOL    HW112134   4.948   3.613   2.450
 3745SOL    HW212135   4.871   3.710   2.344
 3746SOL     OW12136   6.453   0.346   3.534
 3746SOL    HW112137   6.497   0.403   3.603
 3746SOL    HW212138   6.499   0.258   3.528
 3747SOL     OW12139   4.895   6.633   6.448
 3747SOL    HW112140   4.930   6.725   6.468
 3747SOL    HW212141   4.799   6.627   6.477
 3748SOL     OW12142   5.209   1.003   2.659
 3748SOL    HW112143   5.123   0.961   2.631
 3748SOL    HW212144   5.203   1.102   2.647
 3749SOL     OW12145   0.793   5.063   2.835
 3749SOL    HW112146   0.761   5.158   2.836
 3749SOL    HW212147   0.844   5.045   2.919
 3750SOL     OW12148   5.684   3.985   0.051
 3750SOL    HW112149   5.710   3.971   0.146
 3750SOL    HW212150   5.585   3.977   0.042
 3751SOL     OW12151   1.886   3.063   0.913
 3751SOL    HW112152   1.893   2.967   0.938
 3751SOL    HW212153   1.901   3.120   0.994
 3752SOL     OW12154   0.437   0.006   6.782
 3752SOL    HW112155   0.504   0.027   6.710
 3752SOL    HW212156   0.456   6.939   6.819
 3753SOL     OW12157   0.272   6.267   4.411
 3753SOL    HW112158   0.293   6.326   4.333
 3753SOL    HW212159   0.183   6.292   4.448
 3754SOL     OW12160   5.642   6.641   0.803
 3754SOL    HW112161   5.560   6.669   0.853
 3754SOL    HW212162   5.698   6.721   0.783
 3755SOL     OW12163   5.200   4.533   3.363
 3755SOL    HW112164   5.224   4.575   3.451
 3755SOL    HW212165   5.226   4.593   3.288
 3756SOL     OW12166   1.997   2.384   6.193
 3756SOL    HW112167   1.920   2.421   6.244
 3756SOL    HW212168   1.981   2.398   6.095
 3757SOL     OW12169   2.965   5.763   5.901
 3757SOL    HW112170   2.918   5.850   5.885
 3757SOL    HW212171   2.904   5.687   5.876
 3758SOL     OW12172   2.734   1.274   4.769
 3758SOL    HW112173   2.830   1.271   4.741
 3758SOL    HW212174   2.699   1.180   4.774
 3759SOL     OW12175   5.102   4.993   5.909
 3759SOL    HW112176   5.151   4.908   5.890
 3759SOL    HW212177   5.134   5.064   5.846
 3760SOL     OW12178   1.410   3.026   4.294
 3760SOL    HW112179   1.475   2.954   4.268
 3760SOL    HW212180   1.445   3.075   4.374
 3761SOL     OW12181   0.673   6.762   5.130
 3761SOL    HW112182   0.684   6.662   5.127
 3761SOL    HW212183   0.676   6.798   5.037
 3762SOL     OW12184   0.530   4.095   0.404
 3762SOL    HW112185   0.547   4.160   0.329
 3762SOL    HW212186   0.496   4.145   0.484
 3763SOL     OW12187   6.106   3.293   6.197
 3763SOL    HW112188   6.018   3.256   6.166
 3763SOL    HW212189   6.136   3.365   6.134
 3764SOL     OW12190   2.332   0.212   4.355
 3764SOL    HW112191   2.266   0.271   4.309
 3764SOL    HW212192   2.369   0.259   4.435
 3765SOL     OW12193   4.998   1.004   3.735
 3765SOL    HW112194   4.955   1.089   3.766
 3765SOL    HW212195   4.953   0.973   3.651
 3766SOL     OW12196   0.725   0.913   3.856
 3766SOL    HW112197   0.779   0.900   3.939
 3766SOL    HW212198   0.710   0.825   3.812
 3767SOL     OW12199   1.364   5.015   6.747
 3767SOL    HW112200   1.458   5.004   6.781
 3767SOL    HW212201   1.326   4.925   6.726
 3768SOL     OW12202   4.513   6.232   6.805
 3768SOL    HW112203   4.471   6.147   6.836
 3768SOL    HW212204   4.450   6.281   6.745
 3769SOL     OW12205   5.591   6.151   4.606
 3769SOL    HW112206   5.623   6.101   4.526
 3769SOL    HW212207   5.641   6.121   4.687
 3770SOL     OW12208   1.882   1.645   6.086
 3770SOL    HW112209   1.939   1.726   6.071
 3770SOL    HW212210   1.941   1.565   6.098
 3771SOL     OW12211   4.925   2.447   0.700
 3771SOL    HW112212   4.982   2.427   0.620
 3771SOL    HW212213   4.917   2.546   0.712
 3772SOL     OW12214   5.979   0.969   1.516
 3772SOL    HW112215   5.966   1.038   1.588
 3772SOL    HW212216   6.053   0.998   1.455
 3773SOL     OW12217   5.594   3.254   5.541
 3773SOL    HW112218   5.632   3.263   5.449
 3773SOL    HW212219   5.496   3.231   5.534
 3774SOL     OW12220   1.018   0.289   6.671
 3774SOL    HW112221   1.066   0.353   6.732
 3774SOL    HW212222   1.081   0.256   6.601
 3775SOL     OW12223   5.326   3.736   3.014
 3775SOL    HW112224   5.251   3.780   3.064
 3775SOL    HW212225   5.314   3.753   2.916
 3776SOL     OW12226   2.384   2.617   1.468
 3776SOL    HW112227   2.344   2.572   1.388
 3776SOL    HW212228   2.314   2.625   1.539
 3777SOL     OW12229   2.964   5.246   4.614
 3777SOL    HW112230   2.898   5.172   4.627
 3777SOL    HW212231   2.938   5.325   4.669
 3778SOL     OW12232   3.011   5.891   2.571
 3778SOL    HW112233   3.006   5.989   2.547
 3778SOL    HW212234   3.072   5.879   2.648
 3779SOL     OW12235   2.509   4.339   0.011
 3779SOL    HW112236   2.561   4.254   0.001
 3779SOL    HW212237   2.424   4.321   0.059
 3780SOL     OW12238   3.169   5.533   5.183
 3780SOL    HW112239   3.215   5.557   5.269
 3780SOL    HW212240   3.226   5.469   5.132
 3781SOL     OW12241   3.177   6.923   4.248
 3781SOL    HW112242   3.271   6.949   4.269
 3781SOL    HW212243   3.162   6.929   4.149
 3782SOL     OW12244   2.412   1.629   4.357
 3782SOL    HW112245   2.467   1.657   4.436
 3782SOL    HW212246   2.443   1.540   4.325
 3783SOL     OW12247   5.814   6.082   4.936
 3783SOL    HW112248   5.746   6.029   4.886
 3783SOL    HW212249   5.794   6.081   5.034
 3784SOL     OW12250   5.875   1.237   3.537
 3784SOL    HW112251   5.786   1.277   3.513
 3784SOL    HW212252   5.863   1.171   3.611
 3785SOL     OW12253   2.507   2.097   0.951
 3785SOL    HW112254   2.592   2.084   1.002
 3785SOL    HW212255   2.471   2.189   0.969
 3786SOL     OW12256   2.835   4.714   3.541
 3786SOL    HW112257   2.800   4.798   3.499
 3786SOL    HW212258   2.923   4.733   3.585
 3787SOL     OW12259   5.250   1.287   4.336
 3787SOL    HW112260   5.187   1.219   4.373
 3787SOL    HW212261   5.200   1.352   4.279
 3788SOL     OW12262   6.365   2.929   3.627
 3788SOL    HW112263   6.438   2.913   3.561
 3788SOL    HW212264   6.281   2.887   3.595
 3789SOL     OW12265   1.530   4.230   4.235
 3789SOL    HW112266   1.548   4.279   4.150
 3789SOL    HW212267   1.534   4.293   4.312
 3790SOL     OW12268   1.931   3.449   4.606
 3790SOL    HW112269   1.958   3.353   4.613
 3790SOL    HW212270   1.954   3.496   4.692
 3791SOL     OW12271   5.309   6.871   1.268
 3791SOL    HW112272   5.335   6.925   1.349
 3791SOL    HW212273   5.391   6.827   1.230
 3792SOL     OW12274   6.211   6.949   5.034
 3792SOL    HW112275   6.117   6.926   5.008
 3792SOL    HW212276   6.265   6.866   5.042
 3793SOL     OW12277   2.121   1.439   2.233
 3793SOL    HW112278   2.031   1.453   2.274
 3793SOL    HW212279   2.120   1.467   2.138
 3794SOL     OW12280   4.068   5.841   1.568
 3794SOL    HW112281   3.973   5.816   1.585
 3794SOL    HW212282   4.124   5.814   1.646
 3795SOL     OW12283   5.387   0.638   0.170
 3795SOL    HW112284   5.393   0.716   0.107
 3795SOL    HW212285   5.349   0.669   0.257
 3796SOL     OW12286   1.271   2.052   1.420
 3796SOL    HW112287   1.326   2.134   1.431
 3796SOL    HW212288   1.187   2.074   1.369
 3797SOL     OW12289   1.059   5.315   2.077
 3797SOL    HW112290   1.110   5.230   2.068
 3797SOL    HW212291   0.983   5.315   2.012
 3798SOL     OW12292   2.633   4.697   3.117
 3798SOL    HW112293   2.686   4.781   3.114
 3798SOL    HW212294   2.627   4.664   3.211
 3799SOL     OW12295   0.894   1.217   4.961
 3799SOL    HW112296   0.900   1.158   4.881
 3799SOL    HW212297   0.901   1.313   4.932
 3800SOL     OW12298   5.101   2.263   4.758
 3800SOL    HW112299   5.060   2.244   4.669
 3800SOL    HW212300   5.046   2.332   4.805
 3801SOL     OW12301   6.587   6.515   5.393
 3801SOL    HW112302   6.583   6.505   5.493
 3801SOL    HW212303   6.634   6.436   5.355
 3802SOL     OW12304   0.975   1.778   4.741
 3802SOL    HW112305   0.977   1.708   4.670
 3802SOL    HW212306   0.953   1.866   4.700
 3803SOL     OW12307   4.215   7.017   1.737
 3803SOL    HW112308   4.123   0.032   1.731
 3803SOL    HW212309   4.282   0.067   1.729
 3804SOL     OW12310   4.197   1.889   4.513
 3804SOL    HW112311   4.156   1.806   4.477
 3804SOL    HW212312   4.126   1.960   4.521
 3805SOL     OW12313   3.039   4.249   1.746
 3805SOL    HW112314   2.986   4.322   1.789
 3805SOL    HW212315   3.036   4.259   1.646
 3806SOL     OW12316   3.162   2.954   0.054
 3806SOL    HW112317   3.099   2.877   0.045
 3806SOL    HW212318   3.238   2.942   7.014
 3807SOL     OW12319   0.843   6.908   3.891
 3807SOL    HW112320   0.796   6.822   3.872
 3807SOL    HW212321   0.891   6.939   3.809
 3808SOL     OW12322   2.983   0.433   2.046
 3808SOL    HW112323   3.016   0.346   2.081
 3808SOL    HW212324   2.892   0.421   2.007
 3809SOL     OW12325   6.253   1.770   6.710
 3809SOL    HW112326   6.316   1.721   6.649
 3809SOL    HW212327   6.284   1.864   6.722
 3810SOL     OW12328   3.378   2.938   5.339
 3810SOL    HW112329   3.385   2.877   5.260
 3810SOL    HW212330   3.294   2.916   5.390
 3811SOL     OW12331   0.632   4.295   4.415
 3811SOL    HW112332   0.540   4.334   4.414
 3811SOL    HW212333   0.685   4.339   4.487
 3812SOL     OW12334   6.244   2.167   5.852
 3812SOL    HW112335   6.156   2.176   5.806
 3812SOL    HW212336   6.245   2.084   5.907
 3813SOL     OW12337   3.442   5.506   0.737
 3813SOL    HW112338   3.497   5.545   0.663
 3813SOL    HW212339   3.497   5.438   0.787
 3814SOL     OW12340   6.235   6.074   1.565
 3814SOL    HW112341   6.332   6.097   1.556
 3814SOL    HW212342   6.206   6.082   1.660
 3815SOL     OW12343   5.459   2.457   1.471
 3815SOL    HW112344   5.381   2.394   1.462
 3815SOL    HW212345   5.425   2.551   1.476
 3816SOL     OW12346   0.160   6.519   2.003
 3816SOL    HW112347   0.168   6.544   1.906
 3816SOL    HW212348   0.169   6.601   2.059
 3817SOL     OW12349   4.345   2.195   4.284
 3817SOL    HW112350   4.432   2.145   4.283
 3817SOL    HW212351   4.330   2.238   4.195
 3818SOL     OW12352   4.124   5.759   2.865
 3818SOL    HW112353   4.154   5.701   2.790
 3818SOL    HW212354   4.199   5.773   2.929
 3819SOL     OW12355   5.250   5.164   0.613
 3819SOL    HW112356   5.194   5.228   0.560
 3819SOL    HW212357   5.297   5.213   0.686
 3820SOL     OW12358   4.399   5.885   4.785
 3820SOL    HW112359   4.304   5.915   4.770
 3820SOL    HW212360   4.417   5.803   4.731
 3821SOL     OW12361   1.837   3.727   2.176
 3821SOL    HW112362   1.902   3.653   2.160
 3821SOL    HW212363   1.878   3.796   2.236
 3822SOL     OW12364   2.295   4.860   1.627
 3822SOL    HW112365   2.285   4.957   1.603
 3822SOL    HW212366   2.346   4.852   1.713
 3823SOL     OW12367   3.781   2.197   5.808
 3823SOL    HW112368   3.730   2.276   5.774
 3823SOL    HW212369   3.822   2.220   5.897
 3824SOL     OW12370   6.103   2.020   6.201
 3824SOL    HW112371   6.055   2.108   6.203
 3824SOL    HW212372   6.072   1.964   6.278
 3825SOL     OW12373   0.185   0.172   6.709
 3825SOL    HW112374   0.215   0.267   6.720
 3825SOL    HW212375   0.246   0.112   6.761
 3826SOL     OW12376   0.064   3.682   0.911
 3826SOL    HW112377   7.014   3.749   0.922
 3826SOL    HW212378   0.024   3.592   0.893
 3827SOL     OW12379   3.459   3.838   0.483
 3827SOL    HW112380   3.538   3.880   0.439
 3827SOL    HW212381   3.455   3.868   0.579
 3828SOL     OW12382   4.484   2.508   1.869
 3828SOL    HW112383   4.421   2.484   1.795
 3828SOL    HW212384   4.521   2.599   1.853
 3829SOL     OW12385   2.070   5.217   3.660
 3829SOL    HW112386   2.072   5.168   3.574
 3829SOL    HW212387   2.151   5.276   3.667
 3830SOL     OW12388   2.196   0.085   5.213
 3830SOL    HW112389   2.100   0.085   5.183
 3830SOL    HW212390   2.208   0.152   5.286
 3831SOL     OW12391   4.122   1.899   2.362
 3831SOL    HW112392   4.038   1.870   2.317
 3831SOL    HW212393   4.189   1.927   2.292
 3832SOL     OW12394   6.482   0.746   1.740
 3832SOL    HW112395   6.494   0.696   1.826
 3832SOL    HW212396   6.482   0.681   1.663
 3833SOL     OW12397   0.531   5.013   1.065
 3833SOL    HW112398   0.444   5.061   1.056
 3833SOL    HW212399   0.587   5.058   1.135
 3834SOL     OW12400   3.318   2.035   0.799
 3834SOL    HW112401   3.330   1.976   0.879
 3834SOL    HW212402   3.221   2.056   0.788
 3835SOL     OW12403   3.758   5.741   6.253
 3835SOL    HW112404   3.822   5.801   6.204
 3835SOL    HW212405   3.691   5.797   6.302
 3836SOL     OW12406   1.509   4.253   5.857
 3836SOL    HW112407   1.482   4.242   5.952
 3836SOL    HW212408   1.550   4.343   5.844
 3837SOL     OW12409   4.838   3.857   7.012
 3837SOL    HW112410   4.770   3.876   6.942
 3837SOL    HW212411   4.805   3.889   0.077
 3838SOL     OW12412   5.721   2.308   4.112
 3838SOL    HW112413   5.809   2.306   4.160
 3838SOL    HW212414   5.688   2.214   4.100
 3839SOL     OW12415   5.761   6.733   5.489
 3839SOL    HW112416   5.832   6.733   5.418
 3839SOL    HW212417   5.804   6.746   5.579
 3840SOL     OW12418   1.805   1.184   3.898
 3840SOL    HW112419   1.779   1.173   3.802
 3840SOL    HW212420   1.830   1.096   3.937
 3841SOL     OW12421   1.272   3.689   5.146
 3841SOL    HW112422   1.269   3.598   5.189
 3841SOL    HW212423   1.196   3.744   5.180
 3842SOL     OW12424   0.816   5.450   0.279
 3842SOL    HW112425   0.755   5.469   0.202
 3842SOL    HW212426   0.762   5.447   0.363
 3843SOL     OW12427   6.457   3.203   0.230
 3843SOL    HW112428   6.417   3.172   0.144
 3843SOL    HW212429   6.395   3.183   0.305
 3844SOL     OW12430   1.858   5.075   5.787
 3844SOL    HW112431   1.853   4.999   5.723
 3844SOL    HW212432   1.771   5.124   5.788
 3845SOL     OW12433   3.312   3.478   3.027
 3845SOL    HW112434   3.310   3.408   2.956
 3845SOL    HW212435   3.398   3.472   3.077
 3846SOL     OW12436   0.194   4.227   4.400
 3846SOL    HW112437   0.240   4.301   4.449
 3846SOL    HW212438   0.096   4.247   4.395
 3847SOL     OW12439   6.794   0.342   6.082
 3847SOL    HW112440   6.763   0.249   6.103
 3847SOL    HW212441   6.892   0.349   6.101
 3848SOL     OW12442   2.851   5.032   1.666
 3848SOL    HW112443   2.926   5.098   1.660
 3848SOL    HW212444   2.839   5.004   1.762
 3849SOL     OW12445   0.924   1.943   6.070
 3849SOL    HW112446   1.000   1.994   6.029
 3849SOL    HW212447   0.932   1.847   6.045
 3850SOL     OW12448   3.274   3.932   1.742
 3850SOL    HW112449   3.364   3.974   1.731
 3850SOL    HW212450   3.236   3.957   1.832
 3851SOL     OW12451   1.903   3.310   3.202
 3851SOL    HW112452   1.915   3.216   3.233
 3851SOL    HW212453   1.984   3.339   3.151
 3852SOL     OW12454   4.154   0.610   4.725
 3852SOL    HW112455   4.104   0.694   4.743
 3852SOL    HW212456   4.235   0.605   4.783
 3853SOL     OW12457   0.934   3.656   2.443
 3853SOL    HW112458   1.031   3.663   2.466
 3853SOL    HW212459   0.924   3.632   2.346
 3854SOL     OW12460   0.917   3.631   4.381
 3854SOL    HW112461   0.830   3.588   4.353
 3854SOL    HW212462   0.915   3.647   4.479
 3855SOL     OW12463   5.852   3.580   5.548
 3855SOL    HW112464   5.947   3.592   5.521
 3855SOL    HW212465   5.811   3.668   5.570
 3856SOL     OW12466   6.561   6.795   5.684
 3856SOL    HW112467   6.536   6.847   5.602
 3856SOL    HW212468   6.542   6.698   5.669
 3857SOL     OW12469   1.112   6.548   4.985
 3857SOL    HW112470   1.180   6.620   4.994
 3857SOL    HW212471   1.155   6.465   4.949
 3858SOL     OW12472   1.930   5.696   6.339
 3858SOL    HW112473   1.999   5.768   6.344
 3858SOL    HW212474   1.973   5.608   6.360
 3859SOL     OW12475   0.077   3.161   2.931
 3859SOL    HW112476   0.094   3.258   2.913
 3859SOL    HW212477   7.003   3.143   2.923
 3860SOL     OW12478   2.505   6.494   5.426
 3860SOL    HW112479   2.408   6.492   5.400
 3860SOL    HW212480   2.549   6.572   5.380
 3861SOL     OW12481   4.646   4.410   1.225
 3861SOL    HW112482   4.618   4.358   1.306
 3861SOL    HW212483   4.577   4.398   1.153
 3862SOL     OW12484   0.970   5.948   5.872
 3862SOL    HW112485   0.991   6.029   5.817
 3862SOL    HW212486   0.932   5.877   5.814
 3863SOL     OW12487   3.283   3.702   1.585
 3863SOL    HW112488   3.267   3.712   1.487
 3863SOL    HW212489   3.266   3.790   1.630
 3864SOL     OW12490   3.418   1.942   6.924
 3864SOL    HW112491   3.449   1.853   6.957
 3864SOL    HW212492   3.361   1.930   6.842
 3865SOL     OW12493   4.557   0.313   2.383
 3865SOL    HW112494   4.645   0.286   2.423
 3865SOL    HW212495   4.485   0.252   2.417
 3866SOL     OW12496   3.812   0.184   0.562
 3866SOL    HW112497   3.889   0.138   0.607
 3866SOL    HW212498   3.763   0.118   0.505
 3867SOL     OW12499   2.134   3.519   3.416
 3867SOL    HW112500   2.215   3.460   3.417
 3867SOL    HW212501   2.061   3.477   3.468
 3868SOL     OW12502   2.541   6.944   2.538
 3868SOL    HW112503   2.590   6.990   2.464
 3868SOL    HW212504   2.445   6.935   2.513
 3869SOL     OW12505   0.649   3.136   3.188
 3869SOL    HW112506   0.617   3.200   3.118
 3869SOL    HW212507   0.688   3.187   3.265
 3870SOL     OW12508   2.893   5.282   0.442
 3870SOL    HW112509   2.942   5.278   0.529
 3870SOL    HW212510   2.804   5.325   0.455
 3871SOL     OW12511   2.789   0.209   3.538
 3871SOL    HW112512   2.726   0.259   3.477
 3871SOL    HW212513   2.758   0.218   3.632
 3872SOL     OW12514   4.179   3.548   0.898
 3872SOL    HW112515   4.257   3.568   0.956
 3872SOL    HW212516   4.094   3.556   0.951
 3873SOL     OW12517   5.885   4.522   1.811
 3873SOL    HW112518   5.938   4.606   1.825
 3873SOL    HW212519   5.902   4.487   1.719
 3874SOL     OW12520   4.357   0.393   0.170
 3874SOL    HW112521   4.261   0.364   0.175
 3874SOL    HW212522   4.375   0.434   0.080
 3875SOL     OW12523   1.219   4.619   1.283
 3875SOL    HW112524   1.155   4.685   1.323
 3875SOL    HW212525   1.193   4.601   1.188
 3876SOL     OW12526   5.228   3.552   3.690
 3876SOL    HW112527   5.239   3.646   3.721
 3876SOL    HW212528   5.274   3.540   3.602
 3877SOL     OW12529   6.147   1.208   2.457
 3877SOL    HW112530   6.063   1.168   2.419
 3877SOL    HW212531   6.127   1.248   2.546
 3878SOL     OW12532   3.850   6.685   5.930
 3878SOL    HW112533   3.759   6.679   5.972
 3878SOL    HW212534   3.908   6.747   5.983
 3879SOL     OW12535   4.290   5.573   1.975
 3879SOL    HW112536   4.347   5.493   1.992
 3879SOL    HW212537   4.294   5.635   2.053
 3880SOL     OW12538   5.442   3.254   3.184
 3880SOL    HW112539   5.372   3.252   3.256
 3880SOL    HW212540   5.413   3.317   3.112
 3881SOL     OW12541   1.100   3.733   0.774
 3881SOL    HW112542   1.198   3.734   0.791
 3881SOL    HW212543   1.078   3.796   0.700
 3882SOL     OW12544   0.166   0.778   5.471
 3882SOL    HW112545   0.170   0.726   5.556
 3882SOL    HW212546   0.207   0.724   5.397
 3883SOL     OW12547   3.944   0.482   5.558
 3883SOL    HW112548   3.917   0.578   5.570
 3883SOL    HW212549   3.949   0.462   5.460
 3884SOL     OW12550   1.555   5.601   6.045
 3884SOL    HW112551   1.542   5.609   5.946
 3884SOL    HW212552   1.549   5.505   6.073
 3885SOL     OW12553   6.804   1.286   3.915
 3885SOL    HW112554   6.843   1.377   3.930
 3885SOL    HW212555   6.757   1.256   3.999
 3886SOL     OW12556   6.352   6.651   5.380
 3886SOL    HW112557   6.308   6.564   5.359
 3886SOL    HW212558   6.445   6.634   5.413
 3887SOL     OW12559   4.178   2.294   5.715
 3887SOL    HW112560   4.148   2.389   5.718
 3887SOL    HW212561   4.278   2.292   5.711
 3888SOL     OW12562   0.255   2.134   1.122
 3888SOL    HW112563   0.219   2.154   1.213
 3888SOL    HW212564   0.236   2.038   1.099
 3889SOL     OW12565   0.778   6.374   6.408
 3889SOL    HW112566   0.751   6.419   6.323
 3889SOL    HW212567   0.721   6.292   6.421
 3890SOL     OW12568   5.562   3.982   3.275
 3890SOL    HW112569   5.559   3.955   3.179
 3890SOL    HW212570   5.469   3.986   3.311
 3891SOL     OW12571   5.292   4.829   4.840
 3891SOL    HW112572   5.225   4.754   4.837
 3891SOL    HW212573   5.326   4.839   4.934
 3892SOL     OW12574   4.911   6.802   3.093
 3892SOL    HW112575   4.837   6.735   3.106
 3892SOL    HW212576   4.875   6.882   3.046
 3893SOL     OW12577   3.020   5.950   4.071
 3893SOL    HW112578   3.019   5.938   3.971
 3893SOL    HW212579   2.971   5.873   4.113
 3894SOL     OW12580   5.064   3.876   6.794
 3894SOL    HW112581   4.989   3.810   6.787
 3894SOL    HW212582   5.056   3.928   6.879
 3895SOL     OW12583   2.867   2.197   5.565
 3895SOL    HW112584   2.932   2.237   5.629
 3895SOL    HW212585   2.798   2.265   5.540
 3896SOL     OW12586   6.061   2.820   5.340
 3896SOL    HW112587   6.083   2.723   5.350
 3896SOL    HW212588   6.129   2.864   5.281
 3897SOL     OW12589   3.751   6.910   1.953
 3897SOL    HW112590   3.665   6.916   1.903
 3897SOL    HW212591   3.766   6.994   2.005
 3898SOL     OW12592   3.609   4.155   4.300
 3898SOL    HW112593   3.576   4.175   4.208
 3898SOL    HW212594   3.531   4.152   4.364
 3899SOL     OW12595   4.127   1.461   5.389
 3899SOL    HW112596   4.060   1.430   5.457
 3899SOL    HW212597   4.170   1.381   5.346
 3900SOL     OW12598   6.884   2.648   3.230
 3900SOL    HW112599   6.822   2.622   3.304
 3900SOL    HW212600   6.913   2.743   3.242
 3901SOL     OW12601   1.402   6.277   5.670
 3901SOL    HW112602   1.333   6.263   5.598
 3901SOL    HW212603   1.380   6.217   5.748
 3902SOL     OW12604   4.256   4.931   1.419
 3902SOL    HW112605   4.213   4.953   1.331
 3902SOL    HW212606   4.218   4.990   1.490
 3903SOL     OW12607   4.178   2.555   6.781
 3903SOL    HW112608   4.176   2.458   6.804
 3903SOL    HW212609   4.084   2.588   6.770
 3904SOL     OW12610   1.145   6.595   1.211
 3904SOL    HW112611   1.200   6.515   1.184
 3904SOL    HW212612   1.098   6.576   1.297
 3905SOL     OW12613   6.710   0.115   4.899
 3905SOL    HW112614   6.799   0.111   4.853
 3905SOL    HW212615   6.723   0.118   4.998
 3906SOL     OW12616   0.974   5.408   3.706
 3906SOL    HW112617   1.041   5.431   3.636
 3906SOL    HW212618   0.921   5.328   3.677
 3907SOL     OW12619   0.504   0.916   4.460
 3907SOL    HW112620   0.435   0.899   4.389
 3907SOL    HW212621   0.549   0.830   4.483
 3908SOL     OW12622   1.450   0.792   4.693
 3908SOL    HW112623   1.371   0.735   4.712
 3908SOL    HW212624   1.510   0.796   4.773
 3909SOL     OW12625   5.731   2.543   6.505
 3909SOL    HW112626   5.828   2.546   6.531
 3909SOL    HW212627   5.679   2.495   6.576
 3910SOL     OW12628   3.509   1.674   7.009
 3910SOL    HW112629   3.583   1.722   6.964
 3910SOL    HW212630   3.530   1.662   0.082
 3911SOL     OW12631   0.030   1.444   0.975
 3911SOL    HW112632   0.066   1.494   1.053
 3911SOL    HW212633   0.099   1.382   0.939
 3912SOL     OW12634   3.762   1.693   0.193
 3912SOL    HW112635   3.756   1.789   0.220
 3912SOL    HW212636   3.677   1.647   0.217
 3913SOL     OW12637   5.653   5.383   0.953
 3913SOL    HW112638   5.697   5.294   0.972
 3913SOL    HW212639   5.705   5.456   0.998
 3914SOL     OW12640   6.671   1.780   6.959
 3914SOL    HW112641   6.731   1.735   0.002
 3914SOL    HW212642   6.582   1.735   6.960
 3915SOL     OW12643   4.925   5.441   6.790
 3915SOL    HW112644   4.876   5.375   6.846
 3915SOL    HW212645   4.921   5.412   6.694
 3916SOL     OW12646   2.081   1.989   2.133
 3916SOL    HW112647   2.110   1.993   2.037
 3916SOL    HW212648   2.139   2.051   2.187
 3917SOL     OW12649   3.322   5.163   1.580
 3917SOL    HW112650   3.362   5.118   1.500
 3917SOL    HW212651   3.351   5.115   1.663
 3918SOL     OW12652   5.282   1.158   0.621
 3918SOL    HW112653   5.258   1.235   0.562
 3918SOL    HW212654   5.369   1.178   0.667
 3919SOL     OW12655   3.198   0.180   2.383
 3919SOL    HW112656   3.133   0.195   2.308
 3919SOL    HW212657   3.257   0.260   2.394
 3920SOL     OW12658   2.892   1.541   5.781
 3920SOL    HW112659   2.937   1.497   5.859
 3920SOL    HW212660   2.900   1.640   5.789
 3921SOL     OW12661   6.673   2.812   6.082
 3921SOL    HW112662   6.638   2.719   6.082
 3921SOL    HW212663   6.773   2.810   6.086
 3922SOL     OW12664   5.548   4.225   2.752
 3922SOL    HW112665   5.518   4.138   2.711
 3922SOL    HW212666   5.469   4.277   2.781
 3923SOL     OW12667   5.263   1.121   1.462
 3923SOL    HW112668   5.338   1.080   1.409
 3923SOL    HW212669   5.181   1.065   1.451
 3924SOL     OW12670   5.667   4.752   4.063
 3924SOL    HW112671   5.699   4.830   4.008
 3924SOL    HW212672   5.746   4.706   4.103
 3925SOL     OW12673   4.878   3.796   0.529
 3925SOL    HW112674   4.814   3.782   0.604
 3925SOL    HW212675   4.915   3.889   0.533
 3926SOL     OW12676   0.450   6.474   6.375
 3926SOL    HW112677   0.362   6.446   6.414
 3926SOL    HW212678   0.511   6.395   6.370
 3927SOL     OW12679   5.747   2.241   5.953
 3927SOL    HW112680   5.664   2.282   5.915
 3927SOL    HW212681   5.731   2.145   5.974
 3928SOL     OW12682   3.133   5.750   2.061
 3928SOL    HW112683   3.061   5.818   2.051
 3928SOL    HW212684   3.101   5.675   2.118
 3929SOL     OW12685   6.837   2.040   5.035
 3929SOL    HW112686   6.801   1.964   4.981
 3929SOL    HW212687   6.845   2.121   4.977
 3930SOL     OW12688   1.256   4.634   4.268
 3930SOL    HW112689   1.296   4.720   4.298
 3930SOL    HW212690   1.268   4.625   4.169
 3931SOL     OW12691   2.105   2.407   1.673
 3931SOL    HW112692   2.033   2.341   1.696
 3931SOL    HW212693   2.193   2.374   1.708
 3932SOL     OW12694   2.307   5.351   3.817
 3932SOL    HW112695   2.264   5.280   3.872
 3932SOL    HW212696   2.353   5.417   3.877
 3933SOL     OW12697   2.310   5.630   1.159
 3933SOL    HW112698   2.278   5.680   1.240
 3933SOL    HW212699   2.400   5.590   1.178
 3934SOL     OW12700   0.076   1.474   1.596
 3934SOL    HW112701   0.108   1.522   1.678
 3934SOL    HW212702   0.147   1.411   1.565
 3935SOL     OW12703   6.425   3.230   6.191
 3935SOL    HW112704   6.510   3.250   6.240
 3935SOL    HW212705   6.372   3.314   6.182
 3936SOL     OW12706   0.435   5.147   5.546
 3936SOL    HW112707   0.400   5.208   5.475
 3936SOL    HW212708   0.421   5.188   5.636
 3937SOL     OW12709   0.627   6.842   1.920
 3937SOL    HW112710   0.707   6.899   1.902
 3937SOL    HW212711   0.640   6.752   1.878
 3938SOL     OW12712   0.531   3.547   2.635
 3938SOL    HW112713   0.559   3.494   2.555
 3938SOL    HW212714   0.559   3.642   2.623
 3939SOL     OW12715   1.755   1.088   2.496
 3939SOL    HW112716   1.675   1.133   2.458
 3939SOL    HW212717   1.813   1.155   2.542
 3940SOL     OW12718   3.197   5.615   1.027
 3940SOL    HW112719   3.246   5.692   0.988
 3940SOL    HW212720   3.193   5.624   1.127
 3941SOL     OW12721   5.452   5.809   3.301
 3941SOL    HW112722   5.436   5.907   3.307
 3941SOL    HW212723   5.372   5.764   3.261
 3942SOL     OW12724   6.534   6.028   5.545
 3942SOL    HW112725   6.591   6.108   5.526
 3942SOL    HW212726   6.516   6.023   5.644
 3943SOL     OW12727   1.423   2.898   0.189
 3943SOL    HW112728   1.512   2.896   0.234
 3943SOL    HW212729   1.392   2.805   0.172
 3944SOL     OW12730   5.574   2.300   6.652
 3944SOL    HW112731   5.587   2.264   6.745
 3944SOL    HW212732   5.483   2.274   6.619
 3945SOL     OW12733   6.295   0.857   3.478
 3945SOL    HW112734   6.310   0.870   3.380
 3945SOL    HW212735   6.357   0.786   3.512
 3946SOL     OW12736   1.247   3.094   0.297
 3946SOL    HW112737   1.298   3.178   0.317
 3946SOL    HW212738   1.311   3.021   0.276
 3947SOL     OW12739   6.286   4.931   2.496
 3947SOL    HW112740   6.256   4.998   2.428
 3947SOL    HW212741   6.240   4.949   2.583
 3948SOL     OW12742   1.049   2.708   6.318
 3948SOL    HW112743   1.043   2.649   6.237
 3948SOL    HW212744   0.964   2.703   6.369
 3949SOL     OW12745   5.955   0.130   1.622
 3949SOL    HW112746   5.919   0.061   1.558
 3949SOL    HW212747   6.051   0.149   1.600
 3950SOL     OW12748   3.075   4.700   1.725
 3950SOL    HW112749   3.034   4.641   1.795
 3950SOL    HW212750   3.023   4.692   1.640
 3951SOL     OW12751   0.776   2.086   4.932
 3951SOL    HW112752   0.854   2.025   4.950
 3951SOL    HW212753   0.811   2.176   4.907
 3952SOL     OW12754   5.796   3.310   6.491
 3952SOL    HW112755   5.894   3.318   6.507
 3952SOL    HW212756   5.779   3.295   6.393
 3953SOL     OW12757   3.046   4.310   6.309
 3953SOL    HW112758   3.050   4.326   6.408
 3953SOL    HW212759   3.084   4.220   6.288
 3954SOL     OW12760   0.498   3.390   5.300
 3954SOL    HW112761   0.524   3.470   5.246
 3954SOL    HW212762   0.433   3.334   5.248
 3955SOL     OW12763   6.922   4.412   0.223
 3955SOL    HW112764   6.945   4.359   0.142
 3955SOL    HW212765   6.966   4.372   0.303
 3956SOL     OW12766   1.040   2.970   5.600
 3956SOL    HW112767   1.075   2.982   5.693
 3956SOL    HW212768   1.101   3.015   5.535
 3957SOL     OW12769   0.994   1.519   3.029
 3957SOL    HW112770   0.970   1.434   3.075
 3957SOL    HW212771   1.087   1.513   2.993
 3958SOL     OW12772   5.828   6.063   5.946
 3958SOL    HW112773   5.892   5.988   5.925
 3958SOL    HW212774   5.880   6.146   5.964
 3959SOL     OW12775   2.674   5.093   0.771
 3959SOL    HW112776   2.739   5.043   0.713
 3959SOL    HW212777   2.680   5.059   0.865
 3960SOL     OW12778   4.405   3.849   0.633
 3960SOL    HW112779   4.412   3.947   0.613
 3960SOL    HW212780   4.375   3.800   0.551
 3961SOL     OW12781   5.308   0.669   2.523
 3961SOL    HW112782   5.294   0.617   2.607
 3961SOL    HW212783   5.262   0.623   2.447
 3962SOL     OW12784   0.539   6.732   5.916
 3962SOL    HW112785   0.579   6.817   5.951
 3962SOL    HW212786   0.578   6.711   5.826
 3963SOL     OW12787   4.847   5.385   3.275
 3963SOL    HW112788   4.862   5.286   3.274
 3963SOL    HW212789   4.767   5.406   3.330
 3964SOL     OW12790   5.836   6.322   6.125
 3964SOL    HW112791   5.758   6.294   6.181
 3964SOL    HW212792   5.879   6.404   6.164
 3965SOL     OW12793   3.832   3.440   0.194
 3965SOL    HW112794   3.863   3.391   0.113
 3965SOL    HW212795   3.816   3.375   0.268
 3966SOL     OW12796   5.628   4.167   5.093
 3966SOL    HW112797   5.606   4.139   5.187
 3966SOL    HW212798   5.548   4.155   5.035
 3967SOL     OW12799   0.845   5.418   6.400
 3967SOL    HW112800   0.754   5.433   6.438
 3967SOL    HW212801   0.914   5.449   6.465
 3968SOL     OW12802   5.806   0.748   1.591
 3968SOL    HW112803   5.867   0.826   1.577
 3968SOL    HW212804   5.788   0.705   1.502
 3969SOL     OW12805   0.318   5.419   1.728
 3969SOL    HW112806   0.341   5.495   1.667
 3969SOL    HW212807   0.267   5.454   1.807
 3970SOL     OW12808   4.376   4.735   3.400
 3970SOL    HW112809   4.411   4.801   3.467
 3970SOL    HW212810   4.357   4.648   3.445
 3971SOL     OW12811   1.777   5.608   4.025
 3971SOL    HW112812   1.781   5.671   4.103
 3971SOL    HW212813   1.789   5.660   3.940
 3972SOL     OW12814   1.648   0.190   0.404
 3972SOL    HW112815   1.707   0.157   0.477
 3972SOL    HW212816   1.609   0.112   0.354
 3973SOL     OW12817   3.153   3.172   3.393
 3973SOL    HW112818   3.067   3.191   3.346
 3973SOL    HW212819   3.223   3.236   3.361
 3974SOL     OW12820   6.151   1.388   6.570
 3974SOL    HW112821   6.111   1.312   6.621
 3974SOL    HW212822   6.084   1.463   6.565
 3975SOL     OW12823   6.860   0.884   5.850
 3975SOL    HW112824   6.774   0.861   5.896
 3975SOL    HW212825   6.867   0.830   5.766
 3976SOL     OW12826   0.932   3.481   6.749
 3976SOL    HW112827   1.008   3.545   6.742
 3976SOL    HW212828   0.913   3.461   6.845
 3977SOL     OW12829   3.793   6.589   6.635
 3977SOL    HW112830   3.877   6.607   6.688
 3977SOL    HW212831   3.748   6.508   6.672
 3978SOL     OW12832   5.696   2.988   6.049
 3978SOL    HW112833   5.644   2.936   6.115
 3978SOL    HW212834   5.651   3.076   6.032
 3979SOL     OW12835   1.104   0.197   3.028
 3979SOL    HW112836   1.014   0.232   3.054
 3979SOL    HW212837   1.139   0.137   3.101
 3980SOL     OW12838   5.449   3.464   4.998
 3980SOL    HW112839   5.532   3.492   5.047
 3980SOL    HW212840   5.378   3.532   5.013
 3981SOL     OW12841   6.375   1.730   5.700
 3981SOL    HW112842   6.301   1.756   5.762
 3981SOL    HW212843   6.422   1.649   5.736
 3982SOL     OW12844   3.550   1.588   4.014
 3982SOL    HW112845   3.495   1.529   3.954
 3982SOL    HW212846   3.617   1.638   3.959
 3983SOL     OW12847   3.473   6.330   3.862
 3983SOL    HW112848   3.496   6.262   3.793
 3983SOL    HW212849   3.390   6.302   3.911
 3984SOL     OW12850   1.469   6.729   1.546
 3984SOL    HW112851   1.447   6.774   1.460
 3984SOL    HW212852   1.407   6.760   1.617
 3985SOL     OW12853   1.737   3.510   1.868
 3985SOL    HW112854   1.830   3.521   1.833
 3985SOL    HW212855   1.699   3.600   1.890
 3986SOL     OW12856   0.857   3.283   2.439
 3986SOL    HW112857   0.933   3.267   2.502
 3986SOL    HW212858   0.885   3.260   2.346
 3987SOL     OW12859   2.547   4.992   6.823
 3987SOL    HW112860   2.602   4.948   6.753
 3987SOL    HW212861   2.493   4.923   6.871
 3988SOL     OW12862   4.066   2.313   0.584
 3988SOL    HW112863   4.076   2.272   0.675
 3988SOL    HW212864   3.969   2.326   0.563
 3989SOL     OW12865   4.388   0.521   6.956
 3989SOL    HW112866   4.467   0.547   6.902
 3989SOL    HW212867   4.305   0.557   6.914
 3990SOL     OW12868   1.086   3.151   3.750
 3990SOL    HW112869   1.154   3.127   3.819
 3990SOL    HW212870   1.020   3.076   3.739
 3991SOL     OW12871   0.242   1.735   4.057
 3991SOL    HW112872   0.269   1.825   4.093
 3991SOL    HW212873   0.162   1.747   3.997
 3992SOL     OW12874   4.724   4.028   6.134
 3992SOL    HW112875   4.688   3.958   6.196
 3992SOL    HW212876   4.822   4.010   6.118
 3993SOL     OW12877   2.360   1.933   3.270
 3993SOL    HW112878   2.411   1.944   3.356
 3993SOL    HW212879   2.262   1.928   3.289
 3994SOL     OW12880   2.602   2.172   3.825
 3994SOL    HW112881   2.519   2.187   3.771
 3994SOL    HW212882   2.593   2.086   3.875
 3995SOL     OW12883   1.567   4.010   2.968
 3995SOL    HW112884   1.642   3.945   2.982
 3995SOL    HW212885   1.482   3.960   2.951
 3996SOL     OW12886   5.750   0.032   3.288
 3996SOL    HW112887   5.687   7.002   3.344
 3996SOL    HW212888   5.777   0.114   3.337
 3997SOL     OW12889   5.698   3.748   2.387
 3997SOL    HW112890   5.723   3.838   2.425
 3997SOL    HW212891   5.602   3.749   2.360
 3998SOL     OW12892   6.270   2.157   3.091
 3998SOL    HW112893   6.265   2.075   3.033
 3998SOL    HW212894   6.292   2.131   3.184
 3999SOL     OW12895   5.177   2.840   1.617
 3999SOL    HW112896   5.177   2.781   1.697
 3999SOL    HW212897   5.088   2.836   1.572
 4000SOL     OW12898   3.402   5.516   2.412
 4000SOL    HW112899   3.477   5.569   2.371
 4000SOL    HW212900   3.322   5.574   2.422
 4001SOL     OW12901   1.931   4.328   5.085
 4001SOL    HW112902   2.007   4.279   5.127
 4001SOL    HW212903   1.923   4.301   4.989
 4002SOL     OW12904   3.632   3.204   3.725
 4002SOL    HW112905   3.643   3.290   3.775
 4002SOL    HW212906   3.590   3.135   3.784
 4003SOL     OW12907   2.352   0.762   5.013
 4003SOL    HW112908   2.420   0.825   5.053
 4003SOL    HW212909   2.362   0.672   5.056
 4004SOL     OW12910   0.469   3.983   3.316
 4004SOL    HW112911   0.516   4.045   3.378
 4004SOL    HW212912   0.406   3.925   3.368
 4005SOL     OW12913   5.220   2.869   1.117
 4005SOL    HW112914   5.135   2.917   1.097
 4005SOL    HW212915   5.294   2.909   1.064
 4006SOL     OW12916   5.325   5.197   3.165
 4006SOL    HW112917   5.404   5.217   3.107
 4006SOL    HW212918   5.282   5.282   3.194
 4007SOL     OW12919   6.809   1.322   3.015
 4007SOL    HW112920   6.887   1.259   3.008
 4007SOL    HW212921   6.829   1.406   2.964
 4008SOL     OW12922   2.492   0.197   0.998
 4008SOL    HW112923   2.437   0.184   1.080
 4008SOL    HW212924   2.589   0.197   1.023
 4009SOL     OW12925   3.996   1.789   1.279
 4009SOL    HW112926   4.005   1.808   1.181
 4009SOL    HW212927   3.939   1.860   1.321
 4010SOL     OW12928   2.308   5.127   1.551
 4010SOL    HW112929   2.253   5.202   1.513
 4010SOL    HW212930   2.399   5.129   1.510
 4011SOL     OW12931   5.982   6.101   6.765
 4011SOL    HW112932   5.900   6.101   6.708
 4011SOL    HW212933   5.970   6.036   6.840
 4012SOL     OW12934   3.755   0.151   2.087
 4012SOL    HW112935   3.831   0.205   2.051
 4012SOL    HW212936   3.674   0.209   2.097
 4013SOL     OW12937   0.845   1.111   6.870
 4013SOL    HW112938   0.882   1.023   6.839
 4013SOL    HW212939   0.786   1.149   6.799
 4014SOL     OW12940   2.705   5.367   2.999
 4014SOL    HW112941   2.689   5.464   2.982
 4014SOL    HW212942   2.755   5.328   2.922
 4015SOL     OW12943   3.996   5.326   6.068
 4015SOL    HW112944   3.940   5.280   5.999
 4015SOL    HW212945   4.068   5.263   6.099
 4016SOL     OW12946   4.155   5.911   5.926
 4016SOL    HW112947   4.239   5.923   5.978
 4016SOL    HW212948   4.173   5.931   5.829
 4017SOL     OW12949   1.154   4.781   6.009
 4017SOL    HW112950   1.075   4.838   5.990
 4017SOL    HW212951   1.198   4.753   5.924
 4018SOL     OW12952   4.440   6.252   1.924
 4018SOL    HW112953   4.480   6.316   1.858
 4018SOL    HW212954   4.436   6.160   1.883
 4019SOL     OW12955   5.242   3.189   2.878
 4019SOL    HW112956   5.286   3.275   2.902
 4019SOL    HW212957   5.158   3.179   2.932
 4020SOL     OW12958   6.638   4.605   4.374
 4020SOL    HW112959   6.674   4.687   4.418
 4020SOL    HW212960   6.689   4.587   4.291
 4021SOL     OW12961   3.302   3.575   5.535
 4021SOL    HW112962   3.288   3.507   5.463
 4021SOL    HW212963   3.391   3.618   5.522
 4022SOL     OW12964   2.545   0.284   0.443
 4022SOL    HW112965   2.537   0.185   0.433
 4022SOL    HW212966   2.455   0.323   0.464
 4023SOL     OW12967   0.253   2.420   5.487
 4023SOL    HW112968   0.251   2.362   5.406
 4023SOL    HW212969   0.323   2.491   5.476
 4024SOL     OW12970   0.813   4.564   3.925
 4024SOL    HW112971   0.774   4.502   3.993
 4024SOL    HW212972   0.903   4.530   3.897
 4025SOL     OW12973   1.123   5.727   3.788
 4025SOL    HW112974   1.119   5.693   3.694
 4025SOL    HW212975   1.039   5.779   3.808
 4026SOL     OW12976   6.618   6.119   3.356
 4026SOL    HW112977   6.602   6.020   3.348
 4026SOL    HW212978   6.685   6.147   3.287
 4027SOL     OW12979   2.763   3.747   5.496
 4027SOL    HW112980   2.726   3.805   5.423
 4027SOL    HW212981   2.836   3.689   5.459
 4028SOL     OW12982   4.650   1.800   2.578
 4028SOL    HW112983   4.628   1.888   2.621
 4028SOL    HW212984   4.704   1.745   2.641
 4029SOL     OW12985   2.385   4.958   6.578
 4029SOL    HW112986   2.368   4.988   6.672
 4029SOL    HW212987   2.478   4.923   6.570
 4030SOL     OW12988   0.559   1.092   2.698
 4030SOL    HW112989   0.474   1.050   2.730
 4030SOL    HW212990   0.591   1.158   2.767
 4031SOL     OW12991   5.583   0.023   1.323
 4031SOL    HW112992   5.554   0.099   1.266
 4031SOL    HW212993   5.569   6.961   1.274
 4032SOL     OW12994   6.182   0.253   1.510
 4032SOL    HW112995   6.098   0.307   1.511
 4032SOL    HW212996   6.228   0.264   1.421
 4033SOL     OW12997   3.095   2.203   2.880
 4033SOL    HW112998   3.183   2.249   2.864
 4033SOL    HW212999   3.080   2.135   2.808
 4034SOL     OW13000   0.164   3.322   4.864
 4034SOL    HW113001   0.243   3.285   4.912
 4034SOL    HW213002   0.167   3.422   4.867
 4035SOL     OW13003   6.816   2.111   0.971
 4035SOL    HW113004   6.775   2.020   0.974
 4035SOL    HW213005   6.868   2.122   0.886
 4036SOL     OW13006   2.740   5.379   3.513
 4036SOL    HW113007   2.644   5.379   3.540
 4036SOL    HW213008   2.780   5.289   3.533
 4037SOL     OW13009   1.565   0.847   5.341
 4037SOL    HW113010   1.573   0.945   5.326
 4037SOL    HW213011   1.468   0.823   5.353
 4038SOL     OW13012   3.495   4.478   5.904
 4038SOL    HW113013   3.422   4.538   5.872
 4038SOL    HW213014   3.512   4.407   5.836
 4039SOL     OW13015   5.459   4.412   1.495
 4039SOL    HW113016   5.410   4.339   1.448
 4039SOL    HW213017   5.514   4.373   1.569
 4040SOL     OW13018   3.798   4.973   5.355
 4040SOL    HW113019   3.871   4.958   5.422
 4040SOL    HW213020   3.740   5.049   5.386
 4041SOL     OW13021   1.989   6.599   1.349
 4041SOL    HW113022   2.054   6.663   1.309
 4041SOL    HW213023   1.899   6.611   1.305
 4042SOL     OW13024   6.697   0.546   3.357
 4042SOL    HW113025   6.767   0.496   3.306
 4042SOL    HW213026   6.713   0.535   3.455
 4043SOL     OW13027   5.458   3.550   6.193
 4043SOL    HW113028   5.412   3.463   6.208
 4043SOL    HW213029   5.506   3.577   6.276
 4044SOL     OW13030   4.051   4.818   3.312
 4044SOL    HW113031   4.084   4.831   3.406
 4044SOL    HW213032   4.052   4.720   3.290
 4045SOL     OW13033   5.236   0.017   6.128
 4045SOL    HW113034   5.191   0.104   6.143
 4045SOL    HW213035   5.209   7.003   6.039
 4046SOL     OW13036   0.205   1.770   3.639
 4046SOL    HW113037   0.184   1.868   3.634
 4046SOL    HW213038   0.291   1.753   3.590
 4047SOL     OW13039   2.815   3.050   6.799
 4047SOL    HW113040   2.866   3.111   6.739
 4047SOL    HW213041   2.795   3.097   6.885
 4048SOL     OW13042   4.933   1.092   1.989
 4048SOL    HW113043   4.933   0.993   2.003
 4048SOL    HW213044   5.023   1.129   2.011
 4049SOL     OW13045   3.721   5.714   6.681
 4049SOL    HW113046   3.650   5.684   6.745
 4049SOL    HW213047   3.761   5.634   6.635
 4050SOL     OW13048   0.904   5.810   2.722
 4050SOL    HW113049   0.832   5.804   2.654
 4050SOL    HW213050   0.993   5.798   2.678
 4051SOL     OW13051   4.920   1.053   6.812
 4051SOL    HW113052   5.017   1.077   6.817
 4051SOL    HW213053   4.878   1.104   6.737
 4052SOL     OW13054   6.173   1.808   3.249
 4052SOL    HW113055   6.160   1.900   3.287
 4052SOL    HW213056   6.269   1.783   3.256
 4053SOL     OW13057   0.939   5.634   4.783
 4053SOL    HW113058   0.897   5.605   4.869
 4053SOL    HW213059   1.035   5.607   4.782
 4054SOL     OW13060   4.623   4.081   1.103
 4054SOL    HW113061   4.589   4.175   1.111
 4054SOL    HW213062   4.707   4.080   1.050
 4055SOL     OW13063   1.231   3.858   1.973
 4055SOL    HW113064   1.285   3.873   1.890
 4055SOL    HW213065   1.292   3.855   2.052
 4056SOL     OW13066   5.346   3.409   0.593
 4056SOL    HW113067   5.258   3.382   0.555
 4056SOL    HW213068   5.336   3.427   0.691
 4057SOL     OW13069   6.452   3.528   6.489
 4057SOL    HW113070   6.482   3.615   6.526
 4057SOL    HW213071   6.378   3.543   6.423
 4058SOL     OW13072   2.892   5.457   4.786
 4058SOL    HW113073   2.894   5.409   4.874
 4058SOL    HW213074   2.885   5.555   4.801
 4059SOL     OW13075   0.618   2.063   4.259
 4059SOL    HW113076   0.619   1.979   4.205
 4059SOL    HW213077   0.676   2.131   4.216
 4060SOL     OW13078   6.628   5.640   4.951
 4060SOL    HW113079   6.540   5.688   4.963
 4060SOL    HW213080   6.629   5.558   5.008
 4061SOL     OW13081   2.425   5.421   2.006
 4061SOL    HW113082   2.439   5.442   2.102
 4061SOL    HW213083   2.448   5.325   1.989
 4062SOL     OW13084   2.508   1.651   1.697
 4062SOL    HW113085   2.473   1.693   1.613
 4062SOL    HW213086   2.575   1.712   1.739
 4063SOL     OW13087   5.728   0.167   1.016
 4063SOL    HW113088   5.654   0.209   1.070
 4063SOL    HW213089   5.812   0.166   1.070
 4064SOL     OW13090   1.997   2.241   4.330
 4064SOL    HW113091   1.954   2.321   4.288
 4064SOL    HW213092   1.927   2.185   4.375
 4065SOL     OW13093   1.577   6.926   0.351
 4065SOL    HW113094   1.623   6.930   0.262
 4065SOL    HW213095   1.488   6.881   0.340
 4066SOL     OW13096   6.452   4.304   3.104
 4066SOL    HW113097   6.354   4.291   3.088
 4066SOL    HW213098   6.490   4.222   3.146
 4067SOL     OW13099   6.068   3.940   2.487
 4067SOL    HW113100   5.973   3.957   2.514
 4067SOL    HW213101   6.120   4.025   2.491
 4068SOL     OW13102   1.485   2.563   5.081
 4068SOL    HW113103   1.468   2.661   5.088
 4068SOL    HW213104   1.551   2.535   5.151
 4069SOL     OW13105   3.971   6.520   6.920
 4069SOL    HW113106   4.025   6.489   6.998
 4069SOL    HW213107   4.023   6.588   6.868
 4070SOL     OW13108   1.086   3.333   3.042
 4070SOL    HW113109   1.030   3.251   3.048
 4070SOL    HW213110   1.100   3.371   3.133
 4071SOL     OW13111   1.138   0.454   3.851
 4071SOL    HW113112   1.177   0.539   3.886
 4071SOL    HW213113   1.043   0.446   3.880
 4072SOL     OW13114   1.349   5.737   4.466
 4072SOL    HW113115   1.337   5.689   4.380
 4072SOL    HW213116   1.259   5.763   4.503
 4073SOL     OW13117   2.089   5.250   0.409
 4073SOL    HW113118   2.141   5.301   0.478
 4073SOL    HW213119   2.142   5.246   0.324
 4074SOL     OW13120   1.351   4.923   1.918
 4074SOL    HW113121   1.289   4.960   1.987
 4074SOL    HW213122   1.378   4.830   1.944
 4075SOL     OW13123   5.021   1.086   0.555
 4075SOL    HW113124   5.098   1.122   0.608
 4075SOL    HW213125   5.014   0.987   0.569
 4076SOL     OW13126   3.301   3.222   5.690
 4076SOL    HW113127   3.245   3.227   5.607
 4076SOL    HW213128   3.254   3.270   5.764
 4077SOL     OW13129   4.392   1.782   1.609
 4077SOL    HW113130   4.384   1.874   1.646
 4077SOL    HW213131   4.407   1.787   1.510
 4078SOL     OW13132   2.923   4.775   2.470
 4078SOL    HW113133   2.830   4.800   2.500
 4078SOL    HW213134   2.989   4.816   2.532
 4079SOL     OW13135   1.507   2.236   4.316
 4079SOL    HW113136   1.544   2.315   4.266
 4079SOL    HW213137   1.431   2.197   4.264
 4080SOL     OW13138   4.745   1.836   5.208
 4080SOL    HW113139   4.712   1.845   5.114
 4080SOL    HW213140   4.842   1.812   5.207
 4081SOL     OW13141   1.747   2.862   4.448
 4081SOL    HW113142   1.779   2.957   4.452
 4081SOL    HW213143   1.788   2.810   4.523
 4082SOL     OW13144   1.382   3.262   0.909
 4082SOL    HW113145   1.357   3.348   0.952
 4082SOL    HW213146   1.418   3.279   0.817
 4083SOL     OW13147   5.911   2.880   3.657
 4083SOL    HW113148   5.905   2.832   3.745
 4083SOL    HW213149   5.902   2.814   3.582
 4084SOL     OW13150   6.112   1.953   4.114
 4084SOL    HW113151   6.063   1.929   4.030
 4084SOL    HW213152   6.089   2.047   4.140
 4085SOL     OW13153   4.280   6.289   0.754
 4085SOL    HW113154   4.260   6.256   0.847
 4085SOL    HW213155   4.378   6.307   0.746
 4086SOL     OW13156   1.899   4.986   1.254
 4086SOL    HW113157   1.884   4.893   1.222
 4086SOL    HW213158   1.860   4.997   1.346
 4087SOL     OW13159   2.295   2.291   3.447
 4087SOL    HW113160   2.390   2.300   3.418
 4087SOL    HW213161   2.273   2.365   3.511
 4088SOL     OW13162   6.477   1.721   1.382
 4088SOL    HW113163   6.537   1.718   1.462
 4088SOL    HW213164   6.392   1.674   1.402
 4089SOL     OW13165   0.626   0.143   3.533
 4089SOL    HW113166   0.559   0.211   3.501
 4089SOL    HW213167   0.666   0.175   3.619
 4090SOL     OW13168   2.907   4.358   6.777
 4090SOL    HW113169   2.995   4.333   6.738
 4090SOL    HW213170   2.836   4.295   6.744
 4091SOL     OW13171   5.325   6.831   0.115
 4091SOL    HW113172   5.311   6.885   0.033
 4091SOL    HW213173   5.357   6.740   0.090
 4092SOL     OW13174   0.254   3.003   5.311
 4092SOL    HW113175   0.159   2.990   5.283
 4092SOL    HW213176   0.282   2.929   5.372
 4093SOL     OW13177   5.376   0.388   3.850
 4093SOL    HW113178   5.416   0.414   3.938
 4093SOL    HW213179   5.449   0.368   3.785
 4094SOL     OW13180   1.825   4.593   5.093
 4094SOL    HW113181   1.856   4.503   5.062
 4094SOL    HW213182   1.887   4.626   5.165
 4095SOL     OW13183   1.232   3.826   6.131
 4095SOL    HW113184   1.330   3.816   6.112
 4095SOL    HW213185   1.184   3.743   6.102
 4096SOL     OW13186   4.880   5.533   1.082
 4096SOL    HW113187   4.913   5.571   1.168
 4096SOL    HW213188   4.894   5.434   1.082
 4097SOL     OW13189   3.046   4.411   5.886
 4097SOL    HW113190   3.010   4.318   5.890
 4097SOL    HW213191   2.978   4.475   5.922
 4098SOL     OW13192   0.431   2.922   2.750
 4098SOL    HW113193   0.454   3.019   2.760
 4098SOL    HW213194   0.507   2.866   2.784
 4099SOL     OW13195   2.986   5.464   1.535
 4099SOL    HW113196   2.888   5.446   1.529
 4099SOL    HW213197   3.008   5.502   1.625
 4100SOL     OW13198   4.789   5.456   3.997
 4100SOL    HW113199   4.854   5.473   4.071
 4100SOL    HW213200   4.807   5.520   3.922
 4101SOL     OW13201   5.747   1.560   0.410
 4101SOL    HW113202   5.809   1.493   0.369
 4101SOL    HW213203   5.659   1.517   0.429
 4102SOL     OW13204   6.431   0.570   1.314
 4102SOL    HW113205   6.519   0.559   1.268
 4102SOL    HW213206   6.413   0.667   1.330
 4103SOL     OW13207   0.812   1.015   1.961
 4103SOL    HW113208   0.872   0.939   1.985
 4103SOL    HW213209   0.801   1.076   2.039
 4104SOL     OW13210   1.624   4.113   2.697
 4104SOL    HW113211   1.716   4.147   2.678
 4104SOL    HW213212   1.608   4.113   2.796
 4105SOL     OW13213   4.014   5.803   0.931
 4105SOL    HW113214   4.001   5.903   0.931
 4105SOL    HW213215   3.993   5.767   0.841
 4106SOL     OW13216   0.086   3.915   4.714
 4106SOL    HW113217   0.154   3.928   4.786
 4106SOL    HW213218   7.021   3.947   4.747
 4107SOL     OW13219   0.383   6.215   1.320
 4107SOL    HW113220   0.328   6.132   1.324
 4107SOL    HW213221   0.328   6.292   1.352
 4108SOL     OW13222   6.871   4.845   6.611
 4108SOL    HW113223   6.800   4.785   6.575
 4108SOL    HW213224   6.888   4.920   6.546
 4109SOL     OW13225   4.207   6.380   4.203
 4109SOL    HW113226   4.132   6.445   4.215
 4109SOL    HW213227   4.278   6.421   4.145
 4110SOL     OW13228   3.629   4.109   6.425
 4110SOL    HW113229   3.566   4.059   6.366
 4110SOL    HW213230   3.590   4.115   6.517
 4111SOL     OW13231   3.647   3.037   6.973
 4111SOL    HW113232   3.652   2.946   6.933
 4111SOL    HW213233   3.582   3.093   6.920
 4112SOL     OW13234   4.736   1.465   5.179
 4112SOL    HW113235   4.724   1.524   5.258
 4112SOL    HW213236   4.834   1.453   5.161
 4113SOL     OW13237   3.473   5.459   5.028
 4113SOL    HW113238   3.411   5.413   5.090
 4113SOL    HW213239   3.539   5.393   4.992
 4114SOL     OW13240   3.050   1.219   4.031
 4114SOL    HW113241   2.957   1.243   4.059
 4114SOL    HW213242   3.087   1.291   3.973
 4115SOL     OW13243   4.816   6.170   2.239
 4115SOL    HW113244   4.829   6.074   2.261
 4115SOL    HW213245   4.785   6.179   2.144
 4116SOL     OW13246   4.068   1.592   1.446
 4116SOL    HW113247   4.061   1.664   1.377
 4116SOL    HW213248   4.035   1.627   1.534
 4117SOL     OW13249   0.659   5.302   1.441
 4117SOL    HW113250   0.710   5.379   1.480
 4117SOL    HW213251   0.597   5.265   1.510
 4118SOL     OW13252   0.920   6.656   1.060
 4118SOL    HW113253   0.943   6.617   0.971
 4118SOL    HW213254   1.000   6.653   1.120
 4119SOL     OW13255   3.775   1.416   4.484
 4119SOL    HW113256   3.805   1.321   4.469
 4119SOL    HW213257   3.676   1.421   4.471
 4120SOL     OW13258   4.358   6.804   2.378
 4120SOL    HW113259   4.442   6.804   2.324
 4120SOL    HW213260   4.324   6.711   2.387
 4121SOL     OW13261   6.188   2.041   4.470
 4121SOL    HW113262   6.136   2.008   4.549
 4121SOL    HW213263   6.261   1.975   4.449
 4122SOL     OW13264   0.256   6.263   5.208
 4122SOL    HW113265   0.297   6.173   5.224
 4122SOL    HW213266   0.317   6.334   5.244
 4123SOL     OW13267   5.744   4.421   5.880
 4123SOL    HW113268   5.808   4.496   5.894
 4123SOL    HW213269   5.762   4.349   5.947
 4124SOL     OW13270   5.635   5.963   4.411
 4124SOL    HW113271   5.606   5.969   4.315
 4124SOL    HW213272   5.700   5.888   4.421
 4125SOL     OW13273   4.754   0.386   1.832
 4125SOL    HW113274   4.670   0.434   1.807
 4125SOL    HW213275   4.822   0.453   1.863
 4126SOL     OW13276   1.343   4.016   4.233
 4126SOL    HW113277   1.395   4.101   4.219
 4126SOL    HW213278   1.357   3.955   4.154
 4127SOL     OW13279   5.264   3.404   4.146
 4127SOL    HW113280   5.228   3.450   4.227
 4127SOL    HW213281   5.303   3.316   4.172
 4128SOL     OW13282   2.168   3.950   2.550
 4128SOL    HW113283   2.196   3.939   2.645
 4128SOL    HW213284   2.156   3.860   2.508
 4129SOL     OW13285   5.430   1.694   6.292
 4129SOL    HW113286   5.353   1.640   6.326
 4129SOL    HW213287   5.417   1.790   6.316
 4130SOL     OW13288   6.892   3.316   5.701
 4130SOL    HW113289   6.965   3.306   5.769
 4130SOL    HW213290   6.835   3.395   5.723
 4131SOL     OW13291   0.647   5.868   3.969
 4131SOL    HW113292   0.690   5.789   4.012
 4131SOL    HW213293   0.710   5.946   3.971
 4132SOL     OW13294   5.720   3.327   3.250
 4132SOL    HW113295   5.802   3.359   3.202
 4132SOL    HW213296   5.642   3.330   3.187
 4133SOL     OW13297   3.265   0.404   0.993
 4133SOL    HW113298   3.339   0.394   0.927
 4133SOL    HW213299   3.177   0.385   0.949
 4134SOL     OW13300   2.155   2.267   0.951
 4134SOL    HW113301   2.088   2.334   0.982
 4134SOL    HW213302   2.115   2.209   0.880
 4135SOL     OW13303   1.891   0.600   2.014
 4135SOL    HW113304   1.809   0.561   1.972
 4135SOL    HW213305   1.966   0.534   2.009
 4136SOL     OW13306   0.226   2.163   3.703
 4136SOL    HW113307   0.138   2.122   3.678
 4136SOL    HW213308   0.278   2.183   3.620
 4137SOL     OW13309   2.827   3.997   0.546
 4137SOL    HW113310   2.896   3.933   0.579
 4137SOL    HW213311   2.742   3.985   0.597
 4138SOL     OW13312   4.275   4.857   4.118
 4138SOL    HW113313   4.368   4.883   4.145
 4138SOL    HW213314   4.220   4.841   4.199
 4139SOL     OW13315   2.104   2.235   5.857
 4139SOL    HW113316   2.069   2.329   5.857
 4139SOL    HW213317   2.033   2.173   5.889
 4140SOL     OW13318   3.455   0.986   5.621
 4140SOL    HW113319   3.492   1.048   5.690
 4140SOL    HW213320   3.359   0.967   5.641
 4141SOL     OW13321   5.060   4.962   1.234
 4141SOL    HW113322   5.068   4.864   1.251
 4141SOL    HW213323   5.120   5.012   1.297
 4142SOL     OW13324   6.710   5.519   1.230
 4142SOL    HW113325   6.691   5.434   1.280
 4142SOL    HW213326   6.638   5.534   1.162
 4143SOL     OW13327   6.971   3.091   0.350
 4143SOL    HW113328   7.014   3.070   0.438
 4143SOL    HW213329   0.007   3.152   0.298
 4144SOL     OW13330   5.975   1.969   0.979
 4144SOL    HW113331   5.981   2.017   1.066
 4144SOL    HW213332   6.014   2.026   0.906
 4145SOL     OW13333   6.976   6.584   1.764
 4145SOL    HW113334   6.913   6.587   1.687
 4145SOL    HW213335   0.041   6.621   1.737
 4146SOL     OW13336   5.745   0.418   6.202
 4146SOL    HW113337   5.825   0.369   6.237
 4146SOL    HW213338   5.736   0.505   6.250
 4147SOL     OW13339   3.159   2.095   6.278
 4147SOL    HW113340   3.198   2.177   6.238
 4147SOL    HW213341   3.225   2.020   6.272
 4148SOL     OW13342   0.438   0.468   4.065
 4148SOL    HW113343   0.454   0.378   4.106
 4148SOL    HW213344   0.525   0.503   4.029
 4149SOL     OW13345   6.644   3.114   6.975
 4149SOL    HW113346   6.687   3.063   0.025
 4149SOL    HW213347   6.626   3.207   7.005
 4150SOL     OW13348   5.921   0.557   6.378
 4150SOL    HW113349   5.878   0.644   6.351
 4150SOL    HW213350   6.020   0.568   6.380
 4151SOL     OW13351   5.618   6.257   0.066
 4151SOL    HW113352   5.583   6.259   0.159
 4151SOL    HW213353   5.716   6.275   0.066
 4152SOL     OW13354   3.608   5.079   2.022
 4152SOL    HW113355   3.645   5.171   2.011
 4152SOL    HW213356   3.682   5.014   2.037
 4153SOL     OW13357   5.450   5.314   6.217
 4153SOL    HW113358   5.387   5.377   6.171
 4153SOL    HW213359   5.399   5.241   6.261
 4154SOL     OW13360   6.470   3.731   4.895
 4154SOL    HW113361   6.465   3.646   4.949
 4154SOL    HW213362   6.379   3.752   4.858
 4155SOL     OW13363   0.392   3.458   2.905
 4155SOL    HW113364   0.295   3.440   2.889
 4155SOL    HW213365   0.433   3.494   2.821
 4156SOL     OW13366   5.910   0.015   4.963
 4156SOL    HW113367   5.856   0.081   5.014
 4156SOL    HW213368   5.926   0.050   4.870
 4157SOL     OW13369   3.704   0.222   3.847
 4157SOL    HW113370   3.652   0.242   3.764
 4157SOL    HW213371   3.693   0.296   3.912
 4158SOL     OW13372   0.521   5.170   3.810
 4158SOL    HW113373   0.529   5.156   3.711
 4158SOL    HW213374   0.555   5.090   3.858
 4159SOL     OW13375   1.946   3.029   3.712
 4159SOL    HW113376   1.912   2.940   3.742
 4159SOL    HW213377   1.923   3.044   3.616
 4160SOL     OW13378   6.417   0.488   1.610
 4160SOL    HW113379   6.447   0.401   1.650
 4160SOL    HW213380   6.446   0.492   1.514
 4161SOL     OW13381   1.591   0.687   6.315
 4161SOL    HW113382   1.609   0.784   6.299
 4161SOL    HW213383   1.678   0.638   6.326
 4162SOL     OW13384   5.962   0.467   4.837
 4162SOL    HW113385   6.038   0.422   4.884
 4162SOL    HW213386   5.992   0.556   4.804
 4163SOL     OW13387   5.880   1.460   3.243
 4163SOL    HW113388   5.921   1.525   3.308
 4163SOL    HW213389   5.783   1.448   3.265
 4164SOL     OW13390   1.418   0.354   6.830
 4164SOL    HW113391   1.468   0.321   6.911
 4164SOL    HW213392   1.403   0.452   6.839
 4165SOL     OW13393   4.465   6.623   0.988
 4165SOL    HW113394   4.373   6.660   0.975
 4165SOL    HW213395   4.520   6.689   1.039
 4166SOL     OW13396   4.089   2.498   1.035
 4166SOL    HW113397   4.033   2.571   0.996
 4166SOL    HW213398   4.035   2.449   1.104
 4167SOL     OW13399   2.634   2.378   1.218
 4167SOL    HW113400   2.635   2.454   1.153
 4167SOL    HW213401   2.652   2.412   1.310
 4168SOL     OW13402   0.080   5.317   1.637
 4168SOL    HW113403   0.160   5.346   1.691
 4168SOL    HW213404   0.065   5.382   1.563
 4169SOL     OW13405   4.902   3.931   4.132
 4169SOL    HW113406   4.906   3.985   4.216
 4169SOL    HW213407   4.881   3.990   4.054
 4170SOL     OW13408   4.015   2.526   5.646
 4170SOL    HW113409   3.930   2.512   5.595
 4170SOL    HW213410   4.001   2.594   5.717
 4171SOL     OW13411   5.346   3.534   0.858
 4171SOL    HW113412   5.251   3.528   0.888
 4171SOL    HW213413   5.358   3.617   0.803
 4172SOL     OW13414   0.191   2.394   0.166
 4172SOL    HW113415   0.182   2.439   0.255
 4172SOL    HW213416   0.288   2.382   0.144
 4173SOL     OW13417   5.945   3.024   5.465
 4173SOL    HW113418   6.010   2.954   5.434
 4173SOL    HW213419   5.989   3.083   5.533
 4174SOL     OW13420   4.382   0.357   4.125
 4174SOL    HW113421   4.350   0.451   4.139
 4174SOL    HW213422   4.371   0.333   4.028
 4175SOL     OW13423   3.523   6.813   3.962
 4175SOL    HW113424   3.501   6.721   3.931
 4175SOL    HW213425   3.461   6.879   3.919
 4176SOL     OW13426   4.389   0.132   2.537
 4176SOL    HW113427   4.327   0.078   2.480
 4176SOL    HW213428   4.374   0.109   2.633
 4177SOL     OW13429   0.290   5.440   4.677
 4177SOL    HW113430   0.345   5.512   4.720
 4177SOL    HW213431   0.196   5.472   4.666
 4178SOL     OW13432   3.163   1.247   6.144
 4178SOL    HW113433   3.137   1.151   6.127
 4178SOL    HW213434   3.115   1.306   6.079
 4179SOL     OW13435   5.636   3.331   4.658
 4179SOL    HW113436   5.686   3.340   4.745
 4179SOL    HW213437   5.560   3.396   4.656
 4180SOL     OW13438   5.655   4.325   1.850
 4180SOL    HW113439   5.564   4.350   1.816
 4180SOL    HW213440   5.721   4.397   1.825
 4181SOL     OW13441   0.980   2.043   6.302
 4181SOL    HW113442   0.955   1.999   6.216
 4181SOL    HW213443   0.987   1.974   6.374
 4182SOL     OW13444   0.522   0.188   2.668
 4182SOL    HW113445   0.429   0.203   2.702
 4182SOL    HW213446   0.584   0.174   2.745
 4183SOL     OW13447   2.706   1.822   1.770
 4183SOL    HW113448   2.779   1.877   1.730
 4183SOL    HW213449   2.680   1.860   1.859
 4184SOL     OW13450   3.852   5.444   1.166
 4184SOL    HW113451   3.876   5.541   1.159
 4184SOL    HW213452   3.786   5.431   1.239
 4185SOL     OW13453   0.597   6.278   3.336
 4185SOL    HW113454   0.637   6.335   3.265
 4185SOL    HW213455   0.501   6.261   3.314
 4186SOL     OW13456   2.114   3.989   6.896
 4186SOL    HW113457   2.104   3.973   6.994
 4186SOL    HW213458   2.211   3.983   6.871
 4187SOL     OW13459   3.460   3.481   6.512
 4187SOL    HW113460   3.539   3.488   6.451
 4187SOL    HW213461   3.403   3.562   6.503
 4188SOL     OW13462   4.739   0.575   4.545
 4188SOL    HW113463   4.764   0.666   4.578
 4188SOL    HW213464   4.821   0.520   4.534
 4189SOL     OW13465   2.984   1.198   4.625
 4189SOL    HW113466   3.081   1.202   4.649
 4189SOL    HW213467   2.972   1.140   4.545
 4190SOL     OW13468   2.094   0.332   6.421
 4190SOL    HW113469   2.155   0.307   6.496
 4190SOL    HW213470   2.030   0.256   6.404
 4191SOL     OW13471   5.969   3.063   2.961
 4191SOL    HW113472   6.056   3.013   2.961
 4191SOL    HW213473   5.904   3.015   3.020
 4192SOL     OW13474   5.971   1.273   3.066
 4192SOL    HW113475   5.983   1.334   2.988
 4192SOL    HW213476   5.939   1.326   3.145
 4193SOL     OW13477   2.205   0.076   2.048
 4193SOL    HW113478   2.106   0.065   2.044
 4193SOL    HW213479   2.248   7.011   2.067
 4194SOL     OW13480   6.905   2.060   4.372
 4194SOL    HW113481   6.849   2.121   4.316
 4194SOL    HW213482   6.974   2.016   4.314
 4195SOL     OW13483   4.547   0.378   1.306
 4195SOL    HW113484   4.589   0.350   1.220
 4195SOL    HW213485   4.607   0.444   1.352
 4196SOL     OW13486   5.234   2.612   3.945
 4196SOL    HW113487   5.318   2.649   3.985
 4196SOL    HW213488   5.157   2.671   3.969
 4197SOL     OW13489   5.131   4.604   4.361
 4197SOL    HW113490   5.218   4.554   4.360
 4197SOL    HW213491   5.147   4.700   4.383
 4198SOL     OW13492   5.878   3.256   6.940
 4198SOL    HW113493   5.823   3.242   7.021
 4198SOL    HW213494   5.819   3.266   6.860
 4199SOL     OW13495   3.285   3.414   5.330
 4199SOL    HW113496   3.284   3.472   5.248
 4199SOL    HW213497   3.321   3.324   5.307
 4200SOL     OW13498   2.300   6.777   5.879
 4200SOL    HW113499   2.312   6.775   5.978
 4200SOL    HW213500   2.353   6.703   5.838
 4201SOL     OW13501   6.204   6.715   2.973
 4201SOL    HW113502   6.241   6.667   3.052
 4201SOL    HW213503   6.154   6.651   2.915
 4202SOL     OW13504   5.117   4.663   5.381
 4202SOL    HW113505   5.212   4.635   5.363
 4202SOL    HW213506   5.116   4.725   5.460
 4203SOL     OW13507   5.032   5.770   3.310
 4203SOL    HW113508   5.046   5.793   3.406
 4203SOL    HW213509   4.999   5.851   3.260
 4204SOL     OW13510   3.149   3.287   1.238
 4204SOL    HW113511   3.126   3.360   1.302
 4204SOL    HW213512   3.221   3.230   1.277
 4205SOL     OW13513   3.110   5.134   4.860
 4205SOL    HW113514   3.102   5.199   4.785
 4205SOL    HW213515   3.024   5.131   4.911
 4206SOL     OW13516   4.546   0.149   5.122
 4206SOL    HW113517   4.546   0.091   5.041
 4206SOL    HW213518   4.463   0.132   5.176
 4207SOL     OW13519   1.198   1.092   1.999
 4207SOL    HW113520   1.185   1.167   1.934
 4207SOL    HW213521   1.282   1.108   2.051
 4208SOL     OW13522   1.659   2.806   1.181
 4208SOL    HW113523   1.622   2.874   1.245
 4208SOL    HW213524   1.583   2.756   1.138
 4209SOL     OW13525   1.793   6.797   4.802
 4209SOL    HW113526   1.752   6.784   4.712
 4209SOL    HW213527   1.861   6.870   4.798
 4210SOL     OW13528   3.726   3.254   1.469
 4210SOL    HW113529   3.744   3.337   1.417
 4210SOL    HW213530   3.662   3.274   1.543
 4211SOL     OW13531   4.964   4.897   5.019
 4211SOL    HW113532   5.044   4.837   5.028
 4211SOL    HW213533   4.881   4.841   5.013
 4212SOL     OW13534   6.369   1.013   2.517
 4212SOL    HW113535   6.328   0.960   2.592
 4212SOL    HW213536   6.296   1.054   2.463
 4213SOL     OW13537   1.639   0.860   2.068
 4213SOL    HW113538   1.733   0.895   2.060
 4213SOL    HW213539   1.588   0.917   2.133
 4214SOL     OW13540   0.982   3.304   5.657
 4214SOL    HW113541   1.028   3.313   5.569
 4214SOL    HW213542   0.946   3.211   5.667
 4215SOL     OW13543   0.938   5.656   4.513
 4215SOL    HW113544   0.915   5.625   4.606
 4215SOL    HW213545   0.874   5.614   4.448
 4216SOL     OW13546   1.012   2.442   4.605
 4216SOL    HW113547   0.980   2.537   4.601
 4216SOL    HW213548   1.090   2.430   4.543
 4217SOL     OW13549   0.418   0.314   2.418
 4217SOL    HW113550   0.509   0.296   2.382
 4217SOL    HW213551   0.408   0.270   2.508
 4218SOL     OW13552   4.855   0.163   2.113
 4218SOL    HW113553   4.946   0.189   2.080
 4218SOL    HW213554   4.806   0.114   2.040
 4219SOL     OW13555   3.879   4.968   5.080
 4219SOL    HW113556   3.866   4.956   5.179
 4219SOL    HW213557   3.791   4.983   5.036
 4220SOL     OW13558   0.007   3.394   3.532
 4220SOL    HW113559   6.935   3.420   3.547
 4220SOL    HW213560   0.020   3.366   3.437
 4221SOL     OW13561   5.217   5.197   6.242
 4221SOL    HW113562   5.132   5.167   6.198
 4221SOL    HW213563   5.202   5.284   6.289
 4222SOL     OW13564   5.650   2.097   1.705
 4222SOL    HW113565   5.580   2.112   1.636
 4222SOL    HW213566   5.611   2.116   1.796
 4223SOL     OW13567   3.379   3.999   2.491
 4223SOL    HW113568   3.374   4.041   2.400
 4223SOL    HW213569   3.337   3.909   2.489
 4224SOL     OW13570   4.537   2.531   4.753
 4224SOL    HW113571   4.598   2.572   4.820
 4224SOL    HW213572   4.584   2.522   4.665
 4225SOL     OW13573   5.979   0.480   4.194
 4225SOL    HW113574   6.048   0.491   4.122
 4225SOL    HW213575   6.001   0.399   4.249
 4226SOL     OW13576   0.795   1.244   3.602
 4226SOL    HW113577   0.711   1.215   3.649
 4226SOL    HW213578   0.804   1.343   3.608
 4227SOL     OW13579   3.976   4.905   0.442
 4227SOL    HW113580   4.026   4.871   0.522
 4227SOL    HW213581   3.886   4.862   0.439
 4228SOL     OW13582   5.956   5.529   3.711
 4228SOL    HW113583   5.989   5.563   3.623
 4228SOL    HW213584   5.856   5.522   3.710
 4229SOL     OW13585   4.336   4.957   6.204
 4229SOL    HW113586   4.431   4.939   6.181
 4229SOL    HW213587   4.316   4.921   6.295
 4230SOL     OW13588   3.014   0.336   5.135
 4230SOL    HW113589   2.996   0.416   5.193
 4230SOL    HW213590   3.049   0.262   5.192
 4231SOL     OW13591   4.953   6.793   5.180
 4231SOL    HW113592   5.044   6.832   5.186
 4231SOL    HW213593   4.924   6.761   5.270
 4232SOL     OW13594   1.746   5.182   2.855
 4232SOL    HW113595   1.766   5.166   2.759
 4232SOL    HW213596   1.651   5.211   2.865
 4233SOL     OW13597   6.283   0.429   6.645
 4233SOL    HW113598   6.238   0.373   6.715
 4233SOL    HW213599   6.226   0.510   6.627
 4234SOL     OW13600   3.000   5.322   6.661
 4234SOL    HW113601   2.927   5.256   6.675
 4234SOL    HW213602   3.061   5.290   6.588
 4235SOL     OW13603   6.203   4.310   5.559
 4235SOL    HW113604   6.114   4.268   5.542
 4235SOL    HW213605   6.256   4.250   5.619
 4236SOL     OW13606   0.416   2.550   3.912
 4236SOL    HW113607   0.348   2.525   3.844
 4236SOL    HW213608   0.443   2.469   3.965
 4237SOL     OW13609   5.168   4.046   4.965
 4237SOL    HW113610   5.171   3.975   5.035
 4237SOL    HW213611   5.143   4.133   5.008
 4238SOL     OW13612   4.064   5.240   3.910
 4238SOL    HW113613   4.129   5.166   3.890
 4238SOL    HW213614   4.087   5.283   3.997
 4239SOL     OW13615   4.344   6.610   5.438
 4239SOL    HW113616   4.422   6.568   5.485
 4239SOL    HW213617   4.275   6.637   5.505
 4240SOL     OW13618   2.612   4.868   0.390
 4240SOL    HW113619   2.590   4.819   0.305
 4240SOL    HW213620   2.683   4.817   0.439
 4241SOL     OW13621   5.137   0.548   1.193
 4241SOL    HW113622   5.067   0.480   1.170
 4241SOL    HW213623   5.102   0.640   1.172
 4242SOL     OW13624   2.329   0.144   2.418
 4242SOL    HW113625   2.310   0.048   2.397
 4242SOL    HW213626   2.294   0.202   2.344
 4243SOL     OW13627   0.648   3.805   2.534
 4243SOL    HW113628   0.656   3.904   2.528
 4243SOL    HW213629   0.734   3.762   2.505
 4244SOL     OW13630   4.977   6.680   1.062
 4244SOL    HW113631   4.960   6.743   0.986
 4244SOL    HW213632   4.900   6.616   1.070
 4245SOL     OW13633   6.555   3.071   0.592
 4245SOL    HW113634   6.459   3.051   0.576
 4245SOL    HW213635   6.610   3.030   0.519
 4246SOL     OW13636   5.037   2.332   3.495
 4246SOL    HW113637   5.063   2.236   3.492
 4246SOL    HW213638   5.048   2.366   3.589
 4247SOL     OW13639   1.671   4.761   4.929
 4247SOL    HW113640   1.738   4.701   4.972
 4247SOL    HW213641   1.701   4.783   4.836
 4248SOL     OW13642   2.069   0.925   2.552
 4248SOL    HW113643   2.113   0.848   2.597
 4248SOL    HW213644   1.970   0.918   2.563
 4249SOL     OW13645   7.002   0.658   4.680
 4249SOL    HW113646   7.022   0.753   4.706
 4249SOL    HW213647   6.905   0.650   4.658
 4250SOL     OW13648   6.767   6.138   4.299
 4250SOL    HW113649   6.776   6.147   4.200
 4250SOL    HW213650   6.793   6.046   4.328
 4251SOL     OW13651   6.104   2.287   6.233
 4251SOL    HW113652   6.181   2.350   6.220
 4251SOL    HW213653   6.025   2.320   6.182
 4252SOL     OW13654   6.299   6.333   5.690
 4252SOL    HW113655   6.224   6.387   5.729
 4252SOL    HW213656   6.379   6.339   5.749
 4253SOL     OW13657   4.104   5.611   2.602
 4253SOL    HW113658   4.058   5.590   2.516
 4253SOL    HW213659   4.174   5.542   2.621
 4254SOL     OW13660   2.139   3.496   6.424
 4254SOL    HW113661   2.084   3.569   6.463
 4254SOL    HW213662   2.234   3.506   6.451
 4255SOL     OW13663   0.367   3.801   2.382
 4255SOL    HW113664   0.466   3.796   2.370
 4255SOL    HW213665   0.329   3.709   2.389
 4256SOL     OW13666   0.571   5.404   2.361
 4256SOL    HW113667   0.572   5.364   2.269
 4256SOL    HW213668   0.663   5.399   2.400
 4257SOL     OW13669   6.026   0.850   4.923
 4257SOL    HW113670   6.057   0.924   4.982
 4257SOL    HW213671   6.088   0.772   4.931
 4258SOL     OW13672   3.928   5.899   0.303
 4258SOL    HW113673   3.853   5.965   0.297
 4258SOL    HW213674   4.015   5.948   0.317
 4259SOL     OW13675   1.052   6.574   2.375
 4259SOL    HW113676   1.080   6.484   2.340
 4259SOL    HW213677   1.039   6.569   2.474
 4260SOL     OW13678   5.454   7.001   4.948
 4260SOL    HW113679   5.457   0.077   4.952
 4260SOL    HW213680   5.541   6.964   4.980
 4261SOL     OW13681   1.801   0.044   3.759
 4261SOL    HW113682   1.706   0.077   3.766
 4261SOL    HW213683   1.839   0.035   3.851
 4262SOL     OW13684   1.522   4.465   6.612
 4262SOL    HW113685   1.448   4.436   6.674
 4262SOL    HW213686   1.559   4.385   6.566
 4263SOL     OW13687   2.861   1.998   3.695
 4263SOL    HW113688   2.795   2.015   3.623
 4263SOL    HW213689   2.941   2.058   3.683
 4264SOL     OW13690   5.598   1.320   4.107
 4264SOL    HW113691   5.606   1.416   4.137
 4264SOL    HW213692   5.591   1.261   4.187
 4265SOL     OW13693   2.981   0.209   1.073
 4265SOL    HW113694   3.021   0.239   0.987
 4265SOL    HW213695   2.894   0.256   1.088
 4266SOL     OW13696   1.122   6.245   0.502
 4266SOL    HW113697   1.080   6.321   0.550
 4266SOL    HW213698   1.222   6.250   0.513
 4267SOL     OW13699   1.875   4.225   4.564
 4267SOL    HW113700   1.799   4.163   4.545
 4267SOL    HW213701   1.872   4.302   4.499
 4268SOL     OW13702   1.259   4.650   6.562
 4268SOL    HW113703   1.350   4.616   6.586
 4268SOL    HW213704   1.227   4.604   6.480
 4269SOL     OW13705   3.352   1.702   4.431
 4269SOL    HW113706   3.398   1.784   4.467
 4269SOL    HW213707   3.343   1.711   4.332
 4270SOL     OW13708   3.617   2.322   0.673
 4270SOL    HW113709   3.563   2.355   0.751
 4270SOL    HW213710   3.705   2.370   0.672
 4271SOL     OW13711   6.649   0.433   0.913
 4271SOL    HW113712   6.638   0.480   1.001
 4271SOL    HW213713   6.712   0.357   0.924
 4272SOL     OW13714   6.228   2.434   5.915
 4272SOL    HW113715   6.136   2.432   5.875
 4272SOL    HW213716   6.258   2.340   5.932
 4273SOL     OW13717   4.414   5.410   5.036
 4273SOL    HW113718   4.408   5.459   4.949
 4273SOL    HW213719   4.499   5.358   5.039
 4274SOL     OW13720   6.846   0.219   1.903
 4274SOL    HW113721   6.895   0.133   1.918
 4274SOL    HW213722   6.761   0.218   1.956
 4275SOL     OW13723   0.888   2.779   3.290
 4275SOL    HW113724   0.789   2.793   3.288
 4275SOL    HW213725   0.929   2.818   3.208
 4276SOL     OW13726   2.919   5.930   3.734
 4276SOL    HW113727   2.860   5.850   3.746
 4276SOL    HW213728   2.899   5.973   3.646
 4277SOL     OW13729   6.359   5.736   4.188
 4277SOL    HW113730   6.423   5.799   4.143
 4277SOL    HW213731   6.310   5.684   4.118
 4278SOL     OW13732   1.189   6.904   1.873
 4278SOL    HW113733   1.209   6.806   1.881
 4278SOL    HW213734   1.151   6.937   1.959
 4279SOL     OW13735   2.142   2.380   3.252
 4279SOL    HW113736   2.198   2.344   3.327
 4279SOL    HW213737   2.157   2.479   3.244
 4280SOL     OW13738   6.737   0.033   6.102
 4280SOL    HW113739   6.759   0.021   6.199
 4280SOL    HW213740   6.676   6.983   6.073
 4281SOL     OW13741   4.507   5.635   3.946
 4281SOL    HW113742   4.576   5.700   3.976
 4281SOL    HW213743   4.545   5.574   3.876
 4282SOL     OW13744   3.639   4.133   1.116
 4282SOL    HW113745   3.670   4.193   1.042
 4282SOL    HW213746   3.715   4.077   1.148
 4283SOL     OW13747   4.854   1.209   3.785
 4283SOL    HW113748   4.797   1.286   3.756
 4283SOL    HW213749   4.804   1.153   3.850
 4284SOL     OW13750   5.009   5.803   6.682
 4284SOL    HW113751   5.034   5.728   6.742
 4284SOL    HW213752   4.952   5.869   6.732
 4285SOL     OW13753   3.022   0.611   6.121
 4285SOL    HW113754   2.988   0.666   6.045
 4285SOL    HW213755   3.036   0.517   6.089
 4286SOL     OW13756   6.676   1.289   6.527
 4286SOL    HW113757   6.622   1.333   6.599
 4286SOL    HW213758   6.705   1.358   6.460
 4287SOL     OW13759   4.774   0.679   6.970
 4287SOL    HW113760   4.829   0.760   6.992
 4287SOL    HW213761   4.712   0.660   0.022
 4288SOL     OW13762   6.846   6.284   2.133
 4288SOL    HW113763   6.934   6.263   2.090
 4288SOL    HW213764   6.849   6.258   2.229
 4289SOL     OW13765   0.330   3.094   4.905
 4289SOL    HW113766   0.285   3.099   4.816
 4289SOL    HW213767   0.393   3.016   4.906
 4290SOL     OW13768   0.413   0.756   3.077
 4290SOL    HW113769   0.474   0.779   3.002
 4290SOL    HW213770   0.343   0.692   3.044
 4291SOL     OW13771   4.926   3.088   5.841
 4291SOL    HW113772   4.924   3.046   5.750
 4291SOL    HW213773   5.010   3.141   5.851
 4292SOL     OW13774   5.489   1.918   0.908
 4292SOL    HW113775   5.469   1.943   1.003
 4292SOL    HW213776   5.580   1.877   0.904
 4293SOL     OW13777   4.540   3.837   6.859
 4293SOL    HW113778   4.488   3.752   6.847
 4293SOL    HW213779   4.478   3.909   6.891
 4294SOL     OW13780   2.892   2.093   6.350
 4294SOL    HW113781   2.852   2.177   6.313
 4294SOL    HW213782   2.987   2.085   6.320
 4295SOL     OW13783   4.148   6.311   3.324
 4295SOL    HW113784   4.127   6.361   3.408
 4295SOL    HW213785   4.223   6.355   3.276
 4296SOL     OW13786   2.973   6.482   1.225
 4296SOL    HW113787   2.942   6.388   1.243
 4296SOL    HW213788   2.995   6.526   1.311
 4297SOL     OW13789   5.436   5.464   1.272
 4297SOL    HW113790   5.396   5.395   1.212
 4297SOL    HW213791   5.524   5.493   1.235
 4298SOL     OW13792   3.280   6.371   1.292
 4298SOL    HW113793   3.320   6.331   1.374
 4298SOL    HW213794   3.256   6.467   1.310
 4299SOL     OW13795   1.093   2.326   0.337
 4299SOL    HW113796   1.104   2.242   0.286
 4299SOL    HW213797   1.179   2.350   0.382
 4300SOL     OW13798   3.909   0.504   1.050
 4300SOL    HW113799   3.997   0.460   1.069
 4300SOL    HW213800   3.894   0.578   1.116
 4301SOL     OW13801   3.480   6.962   1.894
 4301SOL    HW113802   3.394   6.914   1.910
 4301SOL    HW213803   3.478   0.027   1.940
 4302SOL     OW13804   1.732   5.818   6.178
 4302SOL    HW113805   1.685   5.755   6.117
 4302SOL    HW213806   1.795   5.768   6.237
 4303SOL     OW13807   6.086   4.298   4.036
 4303SOL    HW113808   6.119   4.214   4.080
 4303SOL    HW213809   6.036   4.276   3.953
 4304SOL     OW13810   3.444   3.479   1.542
 4304SOL    HW113811   3.535   3.506   1.575
 4304SOL    HW213812   3.379   3.553   1.557
 4305SOL     OW13813   1.059   0.369   5.354
 4305SOL    HW113814   1.116   0.353   5.435
 4305SOL    HW213815   1.117   0.381   5.274
 4306SOL     OW13816   5.219   3.854   4.442
 4306SOL    HW113817   5.151   3.926   4.429
 4306SOL    HW213818   5.275   3.876   4.522
 4307SOL     OW13819   6.137   1.961   5.444
 4307SOL    HW113820   6.206   1.890   5.427
 4307SOL    HW213821   6.052   1.918   5.473
 4308SOL     OW13822   4.875   4.751   1.004
 4308SOL    HW113823   4.840   4.733   1.096
 4308SOL    HW213824   4.968   4.715   0.997
 4309SOL     OW13825   1.391   3.777   0.386
 4309SOL    HW113826   1.479   3.808   0.350
 4309SOL    HW213827   1.406   3.723   0.469
 4310SOL     OW13828   0.158   1.798   2.349
 4310SOL    HW113829   0.239   1.792   2.292
 4310SOL    HW213830   0.076   1.798   2.291
 4311SOL     OW13831   1.099   6.109   2.480
 4311SOL    HW113832   1.119   6.168   2.402
 4311SOL    HW213833   1.001   6.094   2.486
 4312SOL     OW13834   0.363   4.641   2.217
 4312SOL    HW113835   0.326   4.626   2.309
 4312SOL    HW213836   0.383   4.738   2.205
 4313SOL     OW13837   6.117   1.511   6.846
 4313SOL    HW113838   6.198   1.465   6.882
 4313SOL    HW213839   6.140   1.557   6.759
 4314SOL     OW13840   6.454   2.865   4.915
 4314SOL    HW113841   6.477   2.828   4.825
 4314SOL    HW213842   6.433   2.791   4.978
 4315SOL     OW13843   2.564   1.732   3.982
 4315SOL    HW113844   2.482   1.676   3.990
 4315SOL    HW213845   2.641   1.674   3.953
 4316SOL     OW13846   5.440   6.810   2.053
 4316SOL    HW113847   5.425   6.742   2.124
 4316SOL    HW213848   5.430   6.768   1.963
 4317SOL     OW13849   4.833   0.851   5.913
 4317SOL    HW113850   4.881   0.766   5.890
 4317SOL    HW213851   4.772   0.834   5.991
 4318SOL     OW13852   1.063   1.900   4.131
 4318SOL    HW113853   0.983   1.844   4.112
 4318SOL    HW213854   1.065   1.977   4.066
 4319SOL     OW13855   1.070   4.683   2.151
 4319SOL    HW113856   0.970   4.681   2.150
 4319SOL    HW213857   1.104   4.712   2.062
 4320SOL     OW13858   3.646   6.118   0.087
 4320SOL    HW113859   3.592   6.039   0.117
 4320SOL    HW213860   3.617   6.146   7.020
 4321SOL     OW13861   6.186   6.729   2.473
 4321SOL    HW113862   6.264   6.666   2.466
 4321SOL    HW213863   6.192   6.780   2.559
 4322SOL     OW13864   0.892   3.204   5.045
 4322SOL    HW113865   0.800   3.215   5.006
 4322SOL    HW213866   0.884   3.165   5.137
 4323SOL     OW13867   3.792   5.576   0.085
 4323SOL    HW113868   3.693   5.582   0.096
 4323SOL    HW213869   3.813   5.527   0.000
 4324SOL     OW13870   6.937   3.722   5.759
 4324SOL    HW113871   6.904   3.770   5.677
 4324SOL    HW213872   0.001   3.761   5.787
 4325SOL     OW13873   2.763   0.777   2.983
 4325SOL    HW113874   2.741   0.833   2.903
 4325SOL    HW213875   2.695   0.703   2.992
 4326SOL     OW13876   5.020   2.379   2.708
 4326SOL    HW113877   5.006   2.467   2.753
 4326SOL    HW213878   5.036   2.395   2.610
 4327SOL     OW13879   3.591   5.642   4.095
 4327SOL    HW113880   3.673   5.592   4.123
 4327SOL    HW213881   3.510   5.587   4.115
 4328SOL     OW13882   5.685   5.623   5.073
 4328SOL    HW113883   5.739   5.567   5.010
 4328SOL    HW213884   5.743   5.694   5.113
 4329SOL     OW13885   5.964   2.617   5.961
 4329SOL    HW113886   6.015   2.684   6.016
 4329SOL    HW213887   5.980   2.635   5.864
 4330SOL     OW13888   2.782   5.080   5.314
 4330SOL    HW113889   2.792   4.998   5.257
 4330SOL    HW213890   2.829   5.157   5.271
 4331SOL     OW13891   6.499   0.570   1.944
 4331SOL    HW113892   6.406   0.540   1.961
 4331SOL    HW213893   6.549   0.501   1.892
 4332SOL     OW13894   6.875   4.914   2.513
 4332SOL    HW113895   6.902   4.838   2.572
 4332SOL    HW213896   6.954   4.973   2.497
 4333SOL     OW13897   3.984   1.891   5.169
 4333SOL    HW113898   4.011   1.883   5.073
 4333SOL    HW213899   4.042   1.831   5.225
 4334SOL     OW13900   1.172   2.533   3.505
 4334SOL    HW113901   1.261   2.494   3.530
 4334SOL    HW213902   1.142   2.495   3.418
 4335SOL     OW13903   3.439   3.508   1.150
 4335SOL    HW113904   3.458   3.435   1.215
 4335SOL    HW213905   3.370   3.570   1.187
 4336SOL     OW13906   2.355   5.851   5.934
 4336SOL    HW113907   2.392   5.758   5.931
 4336SOL    HW213908   2.300   5.863   6.016
 4337SOL     OW13909   1.526   5.363   2.909
 4337SOL    HW113910   1.604   5.425   2.915
 4337SOL    HW213911   1.479   5.376   2.821
 4338SOL     OW13912   4.646   0.531   5.727
 4338SOL    HW113913   4.740   0.542   5.757
 4338SOL    HW213914   4.594   0.613   5.748
 4339SOL     OW13915   4.268   2.825   5.921
 4339SOL    HW113916   4.294   2.846   6.015
 4339SOL    HW213917   4.280   2.727   5.904
 4340SOL     OW13918   6.646   3.673   0.905
 4340SOL    HW113919   6.716   3.731   0.948
 4340SOL    HW213920   6.659   3.579   0.934
 4341SOL     OW13921   0.942   5.827   2.390
 4341SOL    HW113922   1.037   5.812   2.419
 4341SOL    HW213923   0.911   5.916   2.424
 4342SOL     OW13924   5.422   3.984   2.631
 4342SOL    HW113925   5.494   3.967   2.564
 4342SOL    HW213926   5.372   3.900   2.649
 4343SOL     OW13927   3.895   0.195   6.277
 4343SOL    HW113928   3.981   0.176   6.229
 4343SOL    HW213929   3.912   0.199   6.376
 4344SOL     OW13930   0.193   2.446   3.762
 4344SOL    HW113931   0.105   2.490   3.741
 4344SOL    HW213932   0.186   2.348   3.746
 4345SOL     OW13933   2.953   3.560   2.416
 4345SOL    HW113934   2.906   3.472   2.422
 4345SOL    HW213935   3.009   3.574   2.497
 4346SOL     OW13936   1.943   3.397   1.657
 4346SOL    HW113937   1.995   3.432   1.734
 4346SOL    HW213938   1.921   3.472   1.594
 4347SOL     OW13939   5.831   4.976   1.674
 4347SOL    HW113940   5.874   5.034   1.743
 4347SOL    HW213941   5.743   4.944   1.707
 4348SOL     OW13942   6.215   6.135   4.134
 4348SOL    HW113943   6.300   6.157   4.183
 4348SOL    HW213944   6.174   6.053   4.173
 4349SOL     OW13945   0.154   3.903   4.190
 4349SOL    HW113946   0.191   3.832   4.130
 4349SOL    HW213947   0.171   3.879   4.285
 4350SOL     OW13948   4.762   0.959   5.009
 4350SOL    HW113949   4.744   0.987   4.915
 4350SOL    HW213950   4.810   0.871   5.009
 4351SOL     OW13951   1.166   6.922   0.992
 4351SOL    HW113952   1.081   6.925   0.939
 4351SOL    HW213953   1.222   6.845   0.962
 4352SOL     OW13954   4.039   3.768   1.171
 4352SOL    HW113955   4.115   3.759   1.236
 4352SOL    HW213956   4.001   3.677   1.152
 4353SOL     OW13957   2.982   2.867   0.529
 4353SOL    HW113958   3.032   2.817   0.458
 4353SOL    HW213959   2.910   2.808   0.567
 4354SOL     OW13960   5.902   6.986   4.511
 4354SOL    HW113961   5.961   6.905   4.510
 4354SOL    HW213962   5.870   7.005   4.418
 4355SOL     OW13963   1.904   6.279   3.460
 4355SOL    HW113964   1.888   6.360   3.403
 4355SOL    HW213965   1.988   6.292   3.512
 4356SOL     OW13966   5.118   2.347   6.537
 4356SOL    HW113967   5.082   2.343   6.444
 4356SOL    HW213968   5.042   2.355   6.602
 4357SOL     OW13969   6.628   0.626   2.163
 4357SOL    HW113970   6.697   0.698   2.156
 4357SOL    HW213971   6.576   0.621   2.078
 4358SOL     OW13972   1.001   0.843   0.345
 4358SOL    HW113973   1.022   0.792   0.262
 4358SOL    HW213974   0.956   0.929   0.322
 4359SOL     OW13975   2.196   1.265   6.521
 4359SOL    HW113976   2.174   1.300   6.430
 4359SOL    HW213977   2.128   1.299   6.586
 4360SOL     OW13978   1.215   3.068   3.525
 4360SOL    HW113979   1.174   3.060   3.434
 4360SOL    HW213980   1.150   3.111   3.587
 4361SOL     OW13981   0.878   1.992   1.019
 4361SOL    HW113982   0.905   2.021   0.927
 4361SOL    HW213983   0.895   1.894   1.030
 4362SOL     OW13984   1.467   5.941   4.320
 4362SOL    HW113985   1.500   6.028   4.359
 4362SOL    HW213986   1.425   5.887   4.392
 4363SOL     OW13987   4.753   0.745   2.399
 4363SOL    HW113988   4.660   0.717   2.422
 4363SOL    HW213989   4.810   0.664   2.385
 4364SOL     OW13990   3.304   3.721   2.886
 4364SOL    HW113991   3.325   3.632   2.927
 4364SOL    HW213992   3.246   3.774   2.948
 4365SOL     OW13993   3.037   2.156   1.891
 4365SOL    HW113994   3.073   2.089   1.957
 4365SOL    HW213995   2.972   2.216   1.938
 4366SOL     OW13996   4.733   6.373   5.101
 4366SOL    HW113997   4.674   6.356   5.022
 4366SOL    HW213998   4.816   6.317   5.093
 4367SOL     OW13999   3.042   5.596   3.918
 4367SOL    HW114000   2.983   5.651   3.977
 4367SOL    HW214001   3.025   5.499   3.935
 4368SOL     OW14002   4.813   4.540   2.309
 4368SOL    HW114003   4.895   4.513   2.360
 4368SOL    HW214004   4.759   4.459   2.287
 4369SOL     OW14005   4.307   5.060   2.956
 4369SOL    HW114006   4.208   5.071   2.958
 4369SOL    HW214007   4.331   4.971   2.917
 4370SOL     OW14008   3.560   4.743   1.469
 4370SOL    HW114009   3.503   4.697   1.537
 4370SOL    HW214010   3.517   4.736   1.379
 4371SOL     OW14011   2.690   0.691   1.744
 4371SOL    HW114012   2.746   0.768   1.713
 4371SOL    HW214013   2.737   0.605   1.725
 4372SOL     OW14014   1.995   2.937   4.912
 4372SOL    HW114015   1.944   2.917   4.995
 4372SOL    HW214016   1.992   3.035   4.893
 4373SOL     OW14017   4.383   0.812   6.008
 4373SOL    HW114018   4.405   0.808   6.106
 4373SOL    HW214019   4.303   0.871   5.995
 4374SOL     OW14020   2.513   1.170   1.042
 4374SOL    HW114021   2.477   1.240   1.104
 4374SOL    HW214022   2.534   1.212   0.954
 4375SOL     OW14023   4.050   0.737   3.245
 4375SOL    HW114024   4.142   0.704   3.224
 4375SOL    HW214025   4.034   0.825   3.201
 4376SOL     OW14026   6.097   6.883   1.266
 4376SOL    HW114027   6.122   6.939   1.345
 4376SOL    HW214028   6.153   6.801   1.263
 4377SOL     OW14029   6.079   6.521   6.497
 4377SOL    HW114030   6.149   6.559   6.436
 4377SOL    HW214031   6.110   6.527   6.592
 4378SOL     OW14032   1.677   5.907   2.187
 4378SOL    HW114033   1.677   5.993   2.238
 4378SOL    HW214034   1.733   5.839   2.235
 4379SOL     OW14035   1.216   1.193   1.609
 4379SOL    HW114036   1.195   1.247   1.691
 4379SOL    HW214037   1.292   1.131   1.630
 4380SOL     OW14038   1.821   6.387   5.110
 4380SOL    HW114039   1.756   6.316   5.136
 4380SOL    HW214040   1.913   6.358   5.134
 4381SOL     OW14041   3.491   0.060   4.922
 4381SOL    HW114042   3.440   0.146   4.911
 4381SOL    HW214043   3.428   7.007   4.919
 4382SOL     OW14044   5.103   4.052   4.692
 4382SOL    HW114045   5.138   4.061   4.785
 4382SOL    HW214046   5.132   4.130   4.637
 4383SOL     OW14047   1.245   2.559   5.797
 4383SOL    HW114048   1.252   2.543   5.896
 4383SOL    HW214049   1.337   2.567   5.759
 4384SOL     OW14050   3.740   6.751   1.203
 4384SOL    HW114051   3.703   6.799   1.123
 4384SOL    HW214052   3.743   6.653   1.185
 4385SOL     OW14053   0.434   1.706   3.226
 4385SOL    HW114054   0.454   1.632   3.290
 4385SOL    HW214055   0.391   1.782   3.275
 4386SOL     OW14056   0.799   3.644   6.536
 4386SOL    HW114057   0.700   3.642   6.521
 4386SOL    HW214058   0.826   3.565   6.591
 4387SOL     OW14059   6.474   3.361   1.239
 4387SOL    HW114060   6.461   3.441   1.297
 4387SOL    HW214061   6.545   3.302   1.279
 4388SOL     OW14062   3.298   0.659   6.084
 4388SOL    HW114063   3.210   0.613   6.091
 4388SOL    HW214064   3.288   0.741   6.028
 4389SOL     OW14065   6.016   2.784   1.850
 4389SOL    HW114066   6.008   2.799   1.751
 4389SOL    HW214067   6.079   2.708   1.866
 4390SOL     OW14068   4.795   2.812   2.197
 4390SOL    HW114069   4.811   2.721   2.159
 4390SOL    HW214070   4.775   2.876   2.123
 4391SOL     OW14071   0.695   5.511   0.554
 4391SOL    HW114072   0.741   5.475   0.635
 4391SOL    HW214073   0.625   5.577   0.582
 4392SOL     OW14074   4.919   3.367   4.599
 4392SOL    HW114075   4.994   3.368   4.666
 4392SOL    HW214076   4.906   3.460   4.563
 4393SOL     OW14077   4.746   6.962   3.287
 4393SOL    HW114078   4.796   6.881   3.257
 4393SOL    HW214079   4.704   6.944   3.376
 4394SOL     OW14080   5.266   6.797   2.412
 4394SOL    HW114081   5.207   6.755   2.481
 4394SOL    HW214082   5.251   6.896   2.411
 4395SOL     OW14083   4.995   1.490   1.920
 4395SOL    HW114084   4.989   1.412   1.858
 4395SOL    HW214085   4.923   1.556   1.899
 4396SOL     OW14086   0.832   0.856   4.376
 4396SOL    HW114087   0.809   0.953   4.372
 4396SOL    HW214088   0.930   0.845   4.394
 4397SOL     OW14089   6.999   0.311   5.227
 4397SOL    HW114090   0.026   0.265   5.299
 4397SOL    HW214091   7.023   0.408   5.227
 4398SOL     OW14092   0.478   4.659   4.198
 4398SOL    HW114093   0.409   4.590   4.180
 4398SOL    HW214094   0.519   4.689   4.111
 4399SOL     OW14095   1.838   1.292   0.812
 4399SOL    HW114096   1.824   1.333   0.722
 4399SOL    HW214097   1.757   1.240   0.838
 4400SOL     OW14098   2.954   6.543   4.319
 4400SOL    HW114099   3.034   6.600   4.340
 4400SOL    HW214100   2.975   6.447   4.335
 4401SOL     OW14101   5.816   6.011   4.047
 4401SOL    HW114102   5.885   5.940   4.029
 4401SOL    HW214103   5.729   5.969   4.069
 4402SOL     OW14104   1.313   5.783   2.757
 4402SOL    HW114105   1.412   5.773   2.767
 4402SOL    HW214106   1.287   5.878   2.774
 4403SOL     OW14107   0.068   0.106   3.290
 4403SOL    HW114108   0.149   0.047   3.291
 4403SOL    HW214109   0.097   0.202   3.292
 4404SOL     OW14110   0.486   4.019   2.814
 4404SOL    HW114111   0.413   4.004   2.747
 4404SOL    HW214112   0.473   3.959   2.892
 4405SOL     OW14113   2.814   4.799   5.914
 4405SOL    HW114114   2.831   4.795   5.816
 4405SOL    HW214115   2.863   4.876   5.954
 4406SOL     OW14116   5.765   4.098   1.020
 4406SOL    HW114117   5.676   4.136   0.995
 4406SOL    HW214118   5.832   4.172   1.029
 4407SOL     OW14119   6.791   6.343   0.435
 4407SOL    HW114120   6.697   6.369   0.411
 4407SOL    HW214121   6.804   6.356   0.533
 4408SOL     OW14122   5.163   0.404   0.042
 4408SOL    HW114123   5.222   0.350   0.101
 4408SOL    HW214124   5.195   0.399   6.972
 4409SOL     OW14125   3.298   0.636   2.158
 4409SOL    HW114126   3.338   0.582   2.231
 4409SOL    HW214127   3.254   0.717   2.196
 4410SOL     OW14128   2.243   5.257   1.027
 4410SOL    HW114129   2.203   5.210   1.106
 4410SOL    HW214130   2.265   5.190   0.957
 4411SOL     OW14131   3.432   3.259   2.900
 4411SOL    HW114132   3.498   3.209   2.843
 4411SOL    HW214133   3.356   3.290   2.843
 4412SOL     OW14134   3.927   1.105   6.183
 4412SOL    HW114135   3.849   1.061   6.138
 4412SOL    HW214136   3.894   1.167   6.254
 4413SOL     OW14137   3.977   5.685   4.387
 4413SOL    HW114138   3.953   5.713   4.293
 4413SOL    HW214139   4.061   5.731   4.415
 4414SOL     OW14140   4.067   4.793   1.844
 4414SOL    HW114141   4.114   4.708   1.820
 4414SOL    HW214142   3.972   4.789   1.813
 4415SOL     OW14143   4.892   3.461   6.209
 4415SOL    HW114144   4.953   3.531   6.247
 4415SOL    HW214145   4.944   3.377   6.191
 4416SOL     OW14146   3.060   0.783   4.668
 4416SOL    HW114147   2.975   0.779   4.616
 4416SOL    HW214148   3.137   0.759   4.609
 4417SOL     OW14149   0.106   5.361   2.138
 4417SOL    HW114150   0.080   5.426   2.210
 4417SOL    HW214151   0.183   5.306   2.170
 4418SOL     OW14152   4.555   5.916   4.292
 4418SOL    HW114153   4.592   5.947   4.379
 4418SOL    HW214154   4.461   5.948   4.282
 4419SOL     OW14155   6.690   5.127   0.389
 4419SOL    HW114156   6.753   5.183   0.443
 4419SOL    HW214157   6.597   5.139   0.424
 4420SOL     OW14158   5.307   1.333   0.045
 4420SOL    HW114159   5.302   1.430   0.023
 4420SOL    HW214160   5.346   1.283   6.991
 4421SOL     OW14161   1.456   1.767   2.982
 4421SOL    HW114162   1.463   1.771   2.883
 4421SOL    HW214163   1.407   1.684   3.009
 4422SOL     OW14164   2.507   4.151   6.164
 4422SOL    HW114165   2.536   4.056   6.176
 4422SOL    HW214166   2.587   4.208   6.147
 4423SOL     OW14167   1.397   2.628   6.650
 4423SOL    HW114168   1.488   2.667   6.662
 4423SOL    HW214169   1.345   2.685   6.586
 4424SOL     OW14170   5.951   6.528   3.099
 4424SOL    HW114171   6.001   6.449   3.062
 4424SOL    HW214172   6.015   6.589   3.145
 4425SOL     OW14173   3.790   5.465   6.551
 4425SOL    HW114174   3.769   5.468   6.453
 4425SOL    HW214175   3.889   5.457   6.563
 4426SOL     OW14176   0.099   0.226   5.697
 4426SOL    HW114177   0.108   0.320   5.731
 4426SOL    HW214178   0.004   0.210   5.669
 4427SOL     OW14179   0.834   0.601   3.327
 4427SOL    HW114180   0.895   0.587   3.249
 4427SOL    HW214181   0.760   0.534   3.324
 4428SOL     OW14182   1.933   5.324   4.435
 4428SOL    HW114183   1.856   5.300   4.376
 4428SOL    HW214184   1.979   5.240   4.465
 4429SOL     OW14185   3.345   6.865   3.730
 4429SOL    HW114186   3.291   6.925   3.671
 4429SOL    HW214187   3.285   6.796   3.770
 4430SOL     OW14188   3.058   1.508   2.803
 4430SOL    HW114189   3.003   1.592   2.800
 4430SOL    HW214190   3.075   1.476   2.710
 4431SOL     OW14191   3.166   1.469   3.466
 4431SOL    HW114192   3.224   1.530   3.521
 4431SOL    HW214193   3.224   1.414   3.406
 4432SOL     OW14194   3.217   3.358   2.756
 4432SOL    HW114195   3.208   3.448   2.715
 4432SOL    HW214196   3.128   3.313   2.759
 4433SOL     OW14197   6.218   6.301   2.703
 4433SOL    HW114198   6.197   6.394   2.673
 4433SOL    HW214199   6.134   6.258   2.736
 4434SOL     OW14200   5.529   1.519   3.663
 4434SOL    HW114201   5.460   1.586   3.635
 4434SOL    HW214202   5.609   1.566   3.700
 4435SOL     OW14203   3.402   2.916   1.551
 4435SOL    HW114204   3.359   2.826   1.548
 4435SOL    HW214205   3.456   2.925   1.635
 4436SOL     OW14206   3.723   1.814   6.891
 4436SOL    HW114207   3.701   1.876   6.816
 4436SOL    HW214208   3.808   1.844   6.935
 4437SOL     OW14209   3.807   0.662   4.613
 4437SOL    HW114210   3.771   0.577   4.650
 4437SOL    HW214211   3.875   0.700   4.676
 4438SOL     OW14212   4.153   2.317   6.908
 4438SOL    HW114213   4.213   2.318   6.988
 4438SOL    HW214214   4.088   2.241   6.915
 4439SOL     OW14215   1.342   5.403   2.448
 4439SOL    HW114216   1.313   5.308   2.452
 4439SOL    HW214217   1.265   5.461   2.423
 4440SOL     OW14218   1.479   6.087   6.755
 4440SOL    HW114219   1.499   6.159   6.688
 4440SOL    HW214220   1.410   6.025   6.718
 4441SOL     OW14221   5.395   2.483   2.494
 4441SOL    HW114222   5.390   2.576   2.460
 4441SOL    HW214223   5.382   2.419   2.418
 4442SOL     OW14224   3.925   5.583   3.828
 4442SOL    HW114225   3.859   5.652   3.800
 4442SOL    HW214226   3.884   5.492   3.820
 4443SOL     OW14227   2.352   2.140   5.758
 4443SOL    HW114228   2.286   2.207   5.792
 4443SOL    HW214229   2.314   2.048   5.766
 4444SOL     OW14230   4.645   6.804   1.064
 4444SOL    HW114231   4.736   6.826   1.027
 4444SOL    HW214232   4.645   6.817   1.163
 4445SOL     OW14233   1.311   1.018   6.412
 4445SOL    HW114234   1.407   1.042   6.429
 4445SOL    HW214235   1.282   1.061   6.326
 4446SOL     OW14236   6.001   0.182   3.060
 4446SOL    HW114237   6.049   0.238   2.993
 4446SOL    HW214238   5.903   0.203   3.058
 4447SOL     OW14239   5.565   2.459   5.862
 4447SOL    HW114240   5.479   2.455   5.914
 4447SOL    HW214241   5.614   2.543   5.887
 4448SOL     OW14242   2.233   3.631   0.089
 4448SOL    HW114243   2.194   3.540   0.098
 4448SOL    HW214244   2.276   3.658   0.175
 4449SOL     OW14245   2.254   0.469   5.240
 4449SOL    HW114246   2.343   0.513   5.249
 4449SOL    HW214247   2.245   0.396   5.308
 4450SOL     OW14248   3.479   2.937   3.100
 4450SOL    HW114249   3.381   2.942   3.117
 4450SOL    HW214250   3.523   3.020   3.134
 4451SOL     OW14251   6.639   4.700   2.060
 4451SOL    HW114252   6.561   4.638   2.055
 4451SOL    HW214253   6.634   4.754   2.144
 4452SOL     OW14254   6.344   6.035   6.221
 4452SOL    HW114255   6.252   6.075   6.212
 4452SOL    HW214256   6.381   6.019   6.129
 4453SOL     OW14257   5.138   2.562   1.547
 4453SOL    HW114258   5.193   2.513   1.613
 4453SOL    HW214259   5.041   2.541   1.561
 4454SOL     OW14260   5.056   2.752   0.873
 4454SOL    HW114261   5.140   2.739   0.822
 4454SOL    HW214262   5.063   2.836   0.927
 4455SOL     OW14263   3.529   0.438   2.764
 4455SOL    HW114264   3.591   0.404   2.834
 4455SOL    HW214265   3.442   0.388   2.768
 4456SOL     OW14266   1.431   5.254   3.118
 4456SOL    HW114267   1.464   5.288   3.030
 4456SOL    HW214268   1.509   5.223   3.173
 4457SOL     OW14269   5.134   1.752   6.573
 4457SOL    HW114270   5.050   1.806   6.567
 4457SOL    HW214271   5.213   1.813   6.577
 4458SOL     OW14272   2.704   2.393   6.501
 4458SOL    HW114273   2.741   2.403   6.408
 4458SOL    HW214274   2.707   2.481   6.548
 4459SOL     OW14275   4.752   6.649   4.847
 4459SOL    HW114276   4.702   6.626   4.931
 4459SOL    HW214277   4.796   6.739   4.859
 4460SOL     OW14278   2.619   3.309   6.686
 4460SOL    HW114279   2.643   3.400   6.651
 4460SOL    HW214280   2.667   3.239   6.633
 4461SOL     OW14281   1.700   6.910   2.395
 4461SOL    HW114282   1.724   6.977   2.465
 4461SOL    HW214283   1.603   6.888   2.400
 4462SOL     OW14284   6.529   5.763   0.790
 4462SOL    HW114285   6.440   5.727   0.759
 4462SOL    HW214286   6.601   5.697   0.767
 4463SOL     OW14287   1.818   3.269   6.259
 4463SOL    HW114288   1.877   3.342   6.222
 4463SOL    HW214289   1.729   3.274   6.215
 4464SOL     OW14290   5.414   4.042   6.029
 4464SOL    HW114291   5.400   3.943   6.034
 4464SOL    HW214292   5.436   4.068   5.935
 4465SOL     OW14293   1.819   6.238   1.912
 4465SOL    HW114294   1.858   6.200   1.996
 4465SOL    HW214295   1.776   6.165   1.859
 4466SOL     OW14296   1.180   1.455   2.550
 4466SOL    HW114297   1.129   1.515   2.612
 4466SOL    HW214298   1.142   1.363   2.555
 4467SOL     OW14299   1.306   0.046   2.814
 4467SOL    HW114300   1.265   0.071   2.726
 4467SOL    HW214301   1.399   0.014   2.800
 4468SOL     OW14302   1.093   2.677   0.396
 4468SOL    HW114303   1.016   2.634   0.349
 4468SOL    HW214304   1.176   2.666   0.341
 4469SOL     OW14305   3.338   0.201   1.162
 4469SOL    HW114306   3.428   0.224   1.199
 4469SOL    HW214307   3.296   0.283   1.123
 4470SOL     OW14308   4.910   3.636   1.497
 4470SOL    HW114309   5.000   3.662   1.531
 4470SOL    HW214310   4.904   3.536   1.489
 4471SOL     OW14311   0.050   2.801   1.490
 4471SOL    HW114312   0.017   2.880   1.438
 4471SOL    HW214313   7.021   2.791   1.574
 4472SOL     OW14314   1.924   3.904   2.344
 4472SOL    HW114315   1.936   4.004   2.348
 4472SOL    HW214316   1.850   3.877   2.405
 4473SOL     OW14317   0.196   6.707   4.494
 4473SOL    HW114318   0.260   6.715   4.418
 4473SOL    HW214319   0.179   6.797   4.534
 4474SOL     OW14320   4.002   6.972   2.828
 4474SOL    HW114321   4.061   6.919   2.767
 4474SOL    HW214322   3.908   6.937   2.822
 4475SOL     OW14323   1.819   4.299   0.921
 4475SOL    HW114324   1.916   4.316   0.908
 4475SOL    HW214325   1.804   4.202   0.940
 4476SOL     OW14326   4.564   6.467   2.118
 4476SOL    HW114327   4.509   6.395   2.075
 4476SOL    HW214328   4.515   6.554   2.113
 4477SOL     OW14329   2.069   1.557   7.014
 4477SOL    HW114330   1.973   1.566   6.990
 4477SOL    HW214331   2.119   1.517   6.937
 4478SOL     OW14332   2.300   6.856   2.431
 4478SOL    HW114333   2.287   6.872   2.333
 4478SOL    HW214334   2.286   6.759   2.451
 4479SOL     OW14335   1.189   0.265   5.597
 4479SOL    HW114336   1.270   0.269   5.656
 4479SOL    HW214337   1.116   0.216   5.644
 4480SOL     OW14338   1.105   5.019   4.702
 4480SOL    HW114339   1.149   4.935   4.732
 4480SOL    HW214340   1.172   5.093   4.700
 4481SOL     OW14341   1.168   6.206   4.318
 4481SOL    HW114342   1.120   6.241   4.238
 4481SOL    HW214343   1.106   6.149   4.372
 4482SOL     OW14344   0.394   4.414   3.463
 4482SOL    HW114345   0.471   4.469   3.496
 4482SOL    HW214346   0.357   4.360   3.539
 4483SOL     OW14347   5.740   2.961   1.371
 4483SOL    HW114348   5.803   3.013   1.313
 4483SOL    HW214349   5.719   3.013   1.453
 4484SOL     OW14350   3.795   2.521   5.489
 4484SOL    HW114351   3.710   2.508   5.439
 4484SOL    HW214352   3.852   2.588   5.441
 4485SOL     OW14353   4.787   1.674   6.814
 4485SOL    HW114354   4.869   1.730   6.814
 4485SOL    HW214355   4.804   1.589   6.865
 4486SOL     OW14356   6.888   4.020   4.861
 4486SOL    HW114357   6.891   4.116   4.835
 4486SOL    HW214358   6.809   3.976   4.818
 4487SOL     OW14359   2.851   3.685   6.380
 4487SOL    HW114360   2.855   3.616   6.308
 4487SOL    HW214361   2.778   3.750   6.360
 4488SOL     OW14362   6.242   1.689   5.460
 4488SOL    HW114363   6.285   1.729   5.542
 4488SOL    HW214364   6.145   1.671   5.479
 4489SOL     OW14365   5.741   5.684   4.366
 4489SOL    HW114366   5.805   5.676   4.289
 4489SOL    HW214367   5.655   5.639   4.342
 4490SOL     OW14368   6.258   1.733   2.346
 4490SOL    HW114369   6.234   1.761   2.439
 4490SOL    HW214370   6.178   1.739   2.288
 4491SOL     OW14371   1.292   3.933   3.123
 4491SOL    HW114372   1.211   3.928   3.064
 4491SOL    HW214373   1.287   3.861   3.192
 4492SOL     OW14374   4.871   2.460   0.302
 4492SOL    HW114375   4.891   2.557   0.296
 4492SOL    HW214376   4.956   2.408   0.305
 4493SOL     OW14377   5.166   4.924   5.224
 4493SOL    HW114378   5.080   4.976   5.234
 4493SOL    HW214379   5.146   4.827   5.223
 4494SOL     OW14380   0.334   4.141   5.182
 4494SOL    HW114381   0.332   4.049   5.220
 4494SOL    HW214382   0.405   4.146   5.111
 4495SOL     OW14383   5.222   6.466   1.931
 4495SOL    HW114384   5.261   6.483   1.841
 4495SOL    HW214385   5.140   6.522   1.944
 4496SOL     OW14386   5.372   3.765   6.066
 4496SOL    HW114387   5.278   3.776   6.034
 4496SOL    HW214388   5.389   3.668   6.087
 4497SOL     OW14389   5.787   5.229   6.881
 4497SOL    HW114390   5.768   5.321   6.916
 4497SOL    HW214391   5.701   5.183   6.858
 4498SOL     OW14392   0.054   3.566   6.588
 4498SOL    HW114393   0.026   3.517   6.506
 4498SOL    HW214394   0.154   3.569   6.593
 4499SOL     OW14395   6.779   3.615   5.060
 4499SOL    HW114396   6.726   3.700   5.057
 4499SOL    HW214397   6.868   3.629   5.016
 4500SOL     OW14398   3.016   3.716   4.586
 4500SOL    HW114399   2.992   3.785   4.655
 4500SOL    HW214400   2.948   3.716   4.513
 4501SOL     OW14401   0.443   4.620   5.207
 4501SOL    HW114402   0.477   4.607   5.300
 4501SOL    HW214403   0.490   4.698   5.165
 4502SOL     OW14404   1.513   2.596   0.042
 4502SOL    HW114405   1.580   2.667   0.025
 4502SOL    HW214406   1.555   2.521   0.093
 4503SOL     OW14407   2.130   1.290   3.859
 4503SOL    HW114408   2.031   1.278   3.855
 4503SOL    HW214409   2.171   1.257   3.774
 4504SOL     OW14410   5.935   2.576   5.650
 4504SOL    HW114411   5.905   2.495   5.701
 4504SOL    HW214412   5.864   2.603   5.585
 4505SOL     OW14413   1.700   6.151   5.184
 4505SOL    HW114414   1.657   6.143   5.275
 4505SOL    HW214415   1.795   6.122   5.190
 4506SOL     OW14416   3.899   1.208   5.222
 4506SOL    HW114417   3.883   1.145   5.146
 4506SOL    HW214418   3.991   1.246   5.215
 4507SOL     OW14419   4.595   4.664   0.933
 4507SOL    HW114420   4.681   4.714   0.928
 4507SOL    HW214421   4.547   4.671   0.845
 4508SOL     OW14422   1.216   3.939   0.019
 4508SOL    HW114423   1.128   3.911   0.057
 4508SOL    HW214424   1.238   4.032   0.050
 4509SOL     OW14425   3.555   1.719   4.795
 4509SOL    HW114426   3.647   1.706   4.831
 4509SOL    HW214427   3.529   1.638   4.743
 4510SOL     OW14428   5.582   0.136   5.214
 4510SOL    HW114429   5.604   0.040   5.229
 4510SOL    HW214430   5.547   0.149   5.121
 4511SOL     OW14431   6.709   2.945   0.406
 4511SOL    HW114432   6.791   2.997   0.382
 4511SOL    HW214433   6.734   2.857   0.446
 4512SOL     OW14434   2.106   6.253   6.822
 4512SOL    HW114435   2.201   6.222   6.827
 4512SOL    HW214436   2.049   6.193   6.877
 4513SOL     OW14437   4.970   6.631   1.935
 4513SOL    HW114438   4.962   6.717   1.885
 4513SOL    HW214439   4.997   6.650   2.029
 4514SOL     OW14440   3.253   1.126   5.357
 4514SOL    HW114441   3.273   1.062   5.282
 4514SOL    HW214442   3.310   1.207   5.348
 4515SOL     OW14443   0.010   4.830   0.488
 4515SOL    HW114444   0.079   4.775   0.441
 4515SOL    HW214445   6.944   4.812   0.447
 4516SOL     OW14446   0.633   1.190   5.065
 4516SOL    HW114447   0.712   1.180   5.005
 4516SOL    HW214448   0.628   1.284   5.098
 4517SOL     OW14449   3.399   6.640   6.484
 4517SOL    HW114450   3.342   6.612   6.561
 4517SOL    HW214451   3.342   6.652   6.403
 4518SOL     OW14452   0.861   2.208   3.367
 4518SOL    HW114453   0.878   2.305   3.353
 4518SOL    HW214454   0.936   2.155   3.327
 4519SOL     OW14455   6.948   2.588   3.676
 4519SOL    HW114456   6.996   2.609   3.591
 4519SOL    HW214457   6.904   2.671   3.711
 4520SOL     OW14458   6.358   4.327   2.781
 4520SOL    HW114459   6.314   4.357   2.866
 4520SOL    HW214460   6.457   4.339   2.788
 4521SOL     OW14461   4.867   2.563   6.565
 4521SOL    HW114462   4.889   2.468   6.587
 4521SOL    HW214463   4.783   2.566   6.511
 4522SOL     OW14464   6.142   6.262   3.326
 4522SOL    HW114465   6.060   6.314   3.349
 4522SOL    HW214466   6.122   6.199   3.251
 4523SOL     OW14467   2.927   4.577   0.573
 4523SOL    HW114468   2.861   4.514   0.615
 4523SOL    HW214469   2.883   4.624   0.496
 4524SOL     OW14470   5.025   1.435   5.175
 4524SOL    HW114471   5.062   1.342   5.177
 4524SOL    HW214472   5.089   1.497   5.220
 4525SOL     OW14473   6.396   1.279   4.477
 4525SOL    HW114474   6.307   1.319   4.499
 4525SOL    HW214475   6.385   1.180   4.463
 4526SOL     OW14476   4.857   6.905   0.930
 4526SOL    HW114477   4.785   6.924   0.863
 4526SOL    HW214478   4.908   6.988   0.950
 4527SOL     OW14479   5.131   1.295   2.881
 4527SOL    HW114480   5.180   1.259   2.961
 4527SOL    HW214481   5.039   1.254   2.877
 4528SOL     OW14482   5.443   0.307   0.220
 4528SOL    HW114483   5.452   0.375   0.146
 4528SOL    HW214484   5.507   0.232   0.204
 4529SOL     OW14485   2.404   0.325   2.875
 4529SOL    HW114486   2.365   0.325   2.783
 4529SOL    HW214487   2.365   0.400   2.927
 4530SOL     OW14488   0.540   3.504   5.574
 4530SOL    HW114489   0.490   3.441   5.633
 4530SOL    HW214490   0.517   3.486   5.478
 4531SOL     OW14491   0.877   3.461   3.961
 4531SOL    HW114492   0.910   3.427   3.873
 4531SOL    HW214493   0.939   3.434   4.034
 4532SOL     OW14494   6.273   1.437   1.215
 4532SOL    HW114495   6.331   1.501   1.163
 4532SOL    HW214496   6.177   1.462   1.202
 4533SOL     OW14497   1.884   6.363   3.033
 4533SOL    HW114498   1.955   6.371   2.963
 4533SOL    HW214499   1.800   6.404   2.999
 4534SOL     OW14500   6.163   3.780   5.167
 4534SOL    HW114501   6.138   3.753   5.074
 4534SOL    HW214502   6.088   3.834   5.207
 4535SOL     OW14503   5.170   3.567   2.048
 4535SOL    HW114504   5.107   3.519   2.108
 4535SOL    HW214505   5.258   3.578   2.094
 4536SOL     OW14506   5.668   0.993   4.728
 4536SOL    HW114507   5.676   0.975   4.826
 4536SOL    HW214508   5.749   1.042   4.696
 4537SOL     OW14509   3.883   3.278   6.987
 4537SOL    HW114510   3.809   3.213   7.005
 4537SOL    HW214511   3.967   3.246   0.008
 4538SOL     OW14512   3.640   1.783   2.871
 4538SOL    HW114513   3.711   1.777   2.941
 4538SOL    HW214514   3.624   1.879   2.848
 4539SOL     OW14515   2.122   2.038   3.529
 4539SOL    HW114516   2.151   2.128   3.498
 4539SOL    HW214517   2.106   1.979   3.450
 4540SOL     OW14518   3.058   3.120   4.736
 4540SOL    HW114519   3.074   3.214   4.766
 4540SOL    HW214520   3.103   3.106   4.648
 4541SOL     OW14521   5.004   1.610   0.672
 4541SOL    HW114522   4.950   1.579   0.751
 4541SOL    HW214523   4.998   1.541   0.599
 4542SOL     OW14524   6.286   6.023   1.999
 4542SOL    HW114525   6.321   5.956   2.065
 4542SOL    HW214526   6.333   6.110   2.013
 4543SOL     OW14527   4.917   1.973   0.984
 4543SOL    HW114528   4.860   1.902   1.027
 4543SOL    HW214529   5.005   1.977   1.029
 4544SOL     OW14530   2.599   5.970   6.878
 4544SOL    HW114531   2.614   5.873   6.861
 4544SOL    HW214532   2.618   6.022   6.795
 4545SOL     OW14533   4.272   2.033   5.319
 4545SOL    HW114534   4.337   1.957   5.315
 4545SOL    HW214535   4.322   2.119   5.332
 4546SOL     OW14536   0.771   6.503   6.637
 4546SOL    HW114537   0.775   6.460   6.546
 4546SOL    HW214538   0.676   6.511   6.666
 4547SOL     OW14539   5.733   2.726   1.210
 4547SOL    HW114540   5.717   2.647   1.269
 4547SOL    HW214541   5.765   2.803   1.265
 4548SOL     OW14542   0.305   4.289   3.705
 4548SOL    HW114543   0.245   4.276   3.784
 4548SOL    HW214544   0.328   4.201   3.664
 4549SOL     OW14545   6.503   3.579   3.002
 4549SOL    HW114546   6.505   3.488   2.961
 4549SOL    HW214547   6.580   3.590   3.064
 4550SOL     OW14548   1.046   6.011   3.123
 4550SOL    HW114549   0.999   6.018   3.036
 4550SOL    HW214550   1.121   5.945   3.115
 4551SOL     OW14551   0.862   2.721   5.302
 4551SOL    HW114552   0.832   2.787   5.371
 4551SOL    HW214553   0.820   2.633   5.319
 4552SOL     OW14554   0.682   3.456   5.025
 4552SOL    HW114555   0.657   3.360   5.012
 4552SOL    HW214556   0.771   3.472   4.983
 4553SOL     OW14557   4.473   4.984   0.629
 4553SOL    HW114558   4.455   5.080   0.610
 4553SOL    HW214559   4.502   4.973   0.725
 4554SOL     OW14560   4.061   6.688   2.908
 4554SOL    HW114561   4.010   6.728   2.832
 4554SOL    HW214562   4.005   6.691   2.991
 4555SOL     OW14563   4.636   2.114   6.778
 4555SOL    HW114564   4.580   2.108   6.861
 4555SOL    HW214565   4.733   2.110   6.803
 4556SOL     OW14566   4.380   0.223   3.855
 4556SOL    HW114567   4.294   0.232   3.805
 4556SOL    HW214568   4.443   0.165   3.803
 4557SOL     OW14569   5.526   0.405   5.610
 4557SOL    HW114570   5.473   0.477   5.654
 4557SOL    HW214571   5.470   0.360   5.540
 4558SOL     OW14572   6.147   3.706   6.367
 4558SOL    HW114573   6.047   3.707   6.356
 4558SOL    HW214574   6.173   3.775   6.435
 4559SOL     OW14575   1.390   6.818   1.245
 4559SOL    HW114576   1.333   6.766   1.183
 4559SOL    HW214577   1.333   6.860   1.316
 4560SOL     OW14578   5.212   2.951   2.562
 4560SOL    HW114579   5.149   2.960   2.485
 4560SOL    HW214580   5.250   3.041   2.584
 4561SOL     OW14581   2.934   1.329   0.012
 4561SOL    HW114582   2.898   1.409   0.060
 4561SOL    HW214583   2.920   1.340   6.937
 4562SOL     OW14584   3.190   6.015   6.637
 4562SOL    HW114585   3.283   6.021   6.601
 4562SOL    HW214586   3.146   6.105   6.631
 4563SOL     OW14587   5.541   1.712   0.643
 4563SOL    HW114588   5.447   1.731   0.670
 4563SOL    HW214589   5.542   1.658   0.558
 4564SOL     OW14590   1.059   5.458   0.401
 4564SOL    HW114591   1.060   5.375   0.457
 4564SOL    HW214592   0.974   5.462   0.349
 4565SOL     OW14593   0.395   1.216   4.847
 4565SOL    HW114594   0.462   1.157   4.890
 4565SOL    HW214595   0.333   1.253   4.916
 4566SOL     OW14596   0.500   0.493   6.586
 4566SOL    HW114597   0.577   0.479   6.648
 4566SOL    HW214598   0.516   0.442   6.501
 4567SOL     OW14599   6.831   1.339   0.807
 4567SOL    HW114600   6.779   1.403   0.750
 4567SOL    HW214601   6.912   1.384   0.844
 4568SOL     OW14602   2.992   4.338   5.602
 4568SOL    HW114603   2.913   4.278   5.608
 4568SOL    HW214604   3.020   4.366   5.694
 4569SOL     OW14605   1.210   1.605   4.302
 4569SOL    HW114606   1.129   1.653   4.269
 4569SOL    HW214607   1.208   1.510   4.270
 4570SOL     OW14608   0.040   5.694   3.199
 4570SOL    HW114609   0.027   5.642   3.283
 4570SOL    HW214610   0.068   5.633   3.125
 4571SOL     OW14611   2.874   3.608   4.385
 4571SOL    HW114612   2.778   3.600   4.411
 4571SOL    HW214613   2.883   3.593   4.286
 4572SOL     OW14614   0.989   0.008   1.187
 4572SOL    HW114615   0.988   0.095   1.137
 4572SOL    HW214616   1.061   6.973   1.150
 4573SOL     OW14617   6.135   5.833   1.474
 4573SOL    HW114618   6.061   5.883   1.428
 4573SOL    HW214619   6.189   5.897   1.530
 4574SOL     OW14620   6.849   4.437   1.344
 4574SOL    HW114621   6.830   4.339   1.342
 4574SOL    HW214622   6.891   4.464   1.257
 4575SOL     OW14623   6.533   1.651   1.112
 4575SOL    HW114624   6.548   1.557   1.079
 4575SOL    HW214625   6.501   1.649   1.206
 4576SOL     OW14626   2.966   6.036   6.892
 4576SOL    HW114627   3.033   6.108   6.873
 4576SOL    HW214628   3.013   5.956   6.928
 4577SOL     OW14629   0.989   3.665   3.172
 4577SOL    HW114630   0.919   3.612   3.125
 4577SOL    HW214631   0.945   3.735   3.229
 4578SOL     OW14632   0.260   3.299   3.559
 4578SOL    HW114633   0.165   3.326   3.542
 4578SOL    HW214634   0.268   3.199   3.551
 4579SOL     OW14635   5.066   2.041   3.121
 4579SOL    HW114636   5.140   1.982   3.089
 4579SOL    HW214637   5.015   2.077   3.042
 4580SOL     OW14638   5.961   5.672   0.698
 4580SOL    HW114639   5.943   5.688   0.601
 4580SOL    HW214640   6.005   5.582   0.709
 4581SOL     OW14641   3.397   5.383   3.371
 4581SOL    HW114642   3.347   5.298   3.352
 4581SOL    HW214643   3.385   5.446   3.295
 4582SOL     OW14644   4.933   6.667   3.441
 4582SOL    HW114645   5.029   6.683   3.416
 4582SOL    HW214646   4.919   6.691   3.537
 4583SOL     OW14647   2.757   1.885   5.411
 4583SOL    HW114648   2.802   1.796   5.397
 4583SOL    HW214649   2.676   1.890   5.352
 4584SOL     OW14650   0.136   5.732   5.988
 4584SOL    HW114651   0.069   5.683   6.044
 4584SOL    HW214652   0.103   5.824   5.968
 4585SOL     OW14653   3.262   6.206   3.282
 4585SOL    HW114654   3.292   6.117   3.316
 4585SOL    HW214655   3.296   6.278   3.343
 4586SOL     OW14656   3.419   5.865   2.062
 4586SOL    HW114657   3.325   5.830   2.057
 4586SOL    HW214658   3.476   5.801   2.114
 4587SOL     OW14659   3.680   3.108   1.190
 4587SOL    HW114660   3.609   3.116   1.120
 4587SOL    HW214661   3.687   3.194   1.240
 4588SOL     OW14662   4.160   3.653   5.025
 4588SOL    HW114663   4.236   3.709   4.993
 4588SOL    HW214664   4.165   3.562   4.983
 4589SOL     OW14665   6.077   2.325   3.163
 4589SOL    HW114666   6.070   2.392   3.090
 4589SOL    HW214667   6.140   2.253   3.137
 4590SOL     OW14668   4.208   5.354   2.638
 4590SOL    HW114669   4.282   5.395   2.584
 4590SOL    HW214670   4.246   5.315   2.722
 4591SOL     OW14671   6.156   5.355   5.479
 4591SOL    HW114672   6.202   5.391   5.560
 4591SOL    HW214673   6.064   5.392   5.473
 4592SOL     OW14674   4.168   2.721   0.550
 4592SOL    HW114675   4.091   2.678   0.503
 4592SOL    HW214676   4.253   2.674   0.523
 4593SOL     OW14677   3.978   5.948   2.666
 4593SOL    HW114678   4.023   5.870   2.709
 4593SOL    HW214679   3.976   6.024   2.731
 4594SOL     OW14680   2.816   1.453   1.768
 4594SOL    HW114681   2.819   1.491   1.676
 4594SOL    HW214682   2.897   1.481   1.820
 4595SOL     OW14683   3.581   3.155   6.264
 4595SOL    HW114684   3.656   3.184   6.323
 4595SOL    HW214685   3.615   3.143   6.170
 4596SOL     OW14686   5.797   6.441   2.592
 4596SOL    HW114687   5.812   6.539   2.579
 4596SOL    HW214688   5.809   6.394   2.504
 4597SOL     OW14689   5.478   4.365   5.887
 4597SOL    HW114690   5.577   4.358   5.872
 4597SOL    HW214691   5.460   4.399   5.979
 4598SOL     OW14692   2.115   5.411   6.837
 4598SOL    HW114693   2.131   5.471   6.759
 4598SOL    HW214694   2.028   5.434   6.881
 4599SOL     OW14695   1.487   4.531   1.230
 4599SOL    HW114696   1.519   4.542   1.136
 4599SOL    HW214697   1.391   4.559   1.236
 4600SOL     OW14698   3.135   5.870   0.642
 4600SOL    HW114699   3.092   5.784   0.619
 4600SOL    HW214700   3.068   5.932   0.683
 4601SOL     OW14701   2.365   1.195   4.909
 4601SOL    HW114702   2.363   1.119   4.843
 4601SOL    HW214703   2.362   1.158   5.002
 4602SOL     OW14704   1.802   6.972   1.499
 4602SOL    HW114705   1.742   6.971   1.419
 4602SOL    HW214706   1.897   6.981   1.469
 4603SOL     OW14707   3.033   6.825   1.771
 4603SOL    HW114708   2.959   6.775   1.816
 4603SOL    HW214709   3.113   6.826   1.831
 4604SOL     OW14710   3.638   0.396   2.504
 4604SOL    HW114711   3.732   0.375   2.481
 4604SOL    HW214712   3.635   0.476   2.564
 4605SOL     OW14713   4.764   0.819   4.679
 4605SOL    HW114714   4.692   0.806   4.747
 4605SOL    HW214715   4.853   0.814   4.723
 4606SOL     OW14716   6.443   6.490   4.676
 4606SOL    HW114717   6.536   6.454   4.684
 4606SOL    HW214718   6.380   6.415   4.656
 4607SOL     OW14719   3.182   1.670   1.492
 4607SOL    HW114720   3.255   1.661   1.560
 4607SOL    HW214721   3.111   1.731   1.528
 4608SOL     OW14722   1.349   5.281   4.967
 4608SOL    HW114723   1.379   5.186   4.963
 4608SOL    HW214724   1.424   5.338   5.001
 4609SOL     OW14725   4.567   6.158   0.144
 4609SOL    HW114726   4.666   6.144   0.147
 4609SOL    HW214727   4.546   6.242   0.094
 4610SOL     OW14728   0.495   2.615   7.005
 4610SOL    HW114729   0.496   2.708   0.016
 4610SOL    HW214730   0.406   2.595   6.965
 4611SOL     OW14731   0.311   3.774   6.862
 4611SOL    HW114732   0.361   3.729   6.935
 4611SOL    HW214733   0.212   3.766   6.879
 4612SOL     OW14734   1.960   6.280   6.175
 4612SOL    HW114735   1.988   6.206   6.236
 4612SOL    HW214736   1.862   6.296   6.183
 4613SOL     OW14737   3.034   5.538   2.472
 4613SOL    HW114738   3.023   5.440   2.461
 4613SOL    HW214739   3.006   5.565   2.564
 4614SOL     OW14740   2.006   5.567   0.250
 4614SOL    HW114741   1.921   5.569   0.198
 4614SOL    HW214742   2.060   5.487   0.223
 4615SOL     OW14743   1.539   2.098   0.085
 4615SOL    HW114744   1.481   2.018   0.103
 4615SOL    HW214745   1.496   2.156   0.016
 4616SOL     OW14746   6.113   0.041   0.109
 4616SOL    HW114747   6.128   0.049   0.208
 4616SOL    HW214748   6.040   7.000   0.091
 4617SOL     OW14749   0.778   2.884   2.475
 4617SOL    HW114750   0.810   2.791   2.495
 4617SOL    HW214751   0.786   2.902   2.377
 4618SOL     OW14752   0.949   2.561   5.796
 4618SOL    HW114753   0.967   2.608   5.710
 4618SOL    HW214754   0.881   2.612   5.848
 4619SOL     OW14755   5.012   1.059   4.112
 4619SOL    HW114756   5.032   0.977   4.166
 4619SOL    HW214757   5.059   1.053   4.024
 4620SOL     OW14758   3.031   4.534   0.247
 4620SOL    HW114759   2.954   4.481   0.282
 4620SOL    HW214760   3.067   4.490   0.165
 4621SOL     OW14761   6.844   1.237   4.940
 4621SOL    HW114762   6.823   1.140   4.935
 4621SOL    HW214763   6.881   1.259   5.030
 4622SOL     OW14764   2.155   3.296   0.514
 4622SOL    HW114765   2.157   3.387   0.473
 4622SOL    HW214766   2.112   3.301   0.603
 4623SOL     OW14767   0.131   4.752   0.916
 4623SOL    HW114768   0.095   4.832   0.867
 4623SOL    HW214769   0.069   4.728   0.990
 4624SOL     OW14770   4.709   1.011   3.928
 4624SOL    HW114771   4.741   0.927   3.974
 4624SOL    HW214772   4.613   1.026   3.950
 4625SOL     OW14773   0.884   4.004   6.888
 4625SOL    HW114774   0.838   4.092   6.885
 4625SOL    HW214775   0.953   4.000   6.816
 4626SOL     OW14776   6.551   4.971   1.689
 4626SOL    HW114777   6.568   4.875   1.714
 4626SOL    HW214778   6.595   5.031   1.755
 4627SOL     OW14779   3.560   5.772   5.423
 4627SOL    HW114780   3.646   5.809   5.459
 4627SOL    HW214781   3.566   5.672   5.419
 4628SOL     OW14782   6.388   4.751   2.321
 4628SOL    HW114783   6.385   4.783   2.227
 4628SOL    HW214784   6.334   4.812   2.379
 4629SOL     OW14785   2.211   5.511   5.498
 4629SOL    HW114786   2.163   5.466   5.573
 4629SOL    HW214787   2.309   5.494   5.505
 4630SOL     OW14788   2.566   5.688   3.285
 4630SOL    HW114789   2.525   5.739   3.209
 4630SOL    HW214790   2.503   5.616   3.315
 4631SOL     OW14791   2.753   6.590   3.489
 4631SOL    HW114792   2.827   6.563   3.427
 4631SOL    HW214793   2.728   6.513   3.547
 4632SOL     OW14794   4.655   5.178   4.605
 4632SOL    HW114795   4.564   5.184   4.647
 4632SOL    HW214796   4.721   5.144   4.672
 4633SOL     OW14797   6.358   1.711   5.051
 4633SOL    HW114798   6.396   1.626   5.013
 4633SOL    HW214799   6.415   1.741   5.128
 4634SOL     OW14800   2.578   4.662   0.629
 4634SOL    HW114801   2.650   4.668   0.699
 4634SOL    HW214802   2.541   4.569   0.628
 4635SOL     OW14803   5.225   3.276   2.402
 4635SOL    HW114804   5.305   3.275   2.462
 4635SOL    HW214805   5.149   3.227   2.445
 4636SOL     OW14806   2.650   5.343   0.884
 4636SOL    HW114807   2.660   5.259   0.831
 4636SOL    HW214808   2.711   5.340   0.964
 4637SOL     OW14809   1.052   0.541   6.063
 4637SOL    HW114810   1.129   0.585   6.110
 4637SOL    HW214811   1.076   0.445   6.043
 4638SOL     OW14812   3.733   3.383   5.711
 4638SOL    HW114813   3.661   3.411   5.648
 4638SOL    HW214814   3.821   3.381   5.663
 4639SOL     OW14815   0.589   4.312   5.690
 4639SOL    HW114816   0.681   4.349   5.703
 4639SOL    HW214817   0.582   4.274   5.597
 4640SOL     OW14818   5.439   4.357   3.418
 4640SOL    HW114819   5.467   4.430   3.357
 4640SOL    HW214820   5.361   4.387   3.473
 4641SOL     OW14821   2.665   4.678   4.321
 4641SOL    HW114822   2.647   4.587   4.285
 4641SOL    HW214823   2.753   4.711   4.287
 4642SOL     OW14824   5.935   5.637   4.182
 4642SOL    HW114825   5.875   5.567   4.143
 4642SOL    HW214826   5.957   5.705   4.112
 4643SOL     OW14827   4.124   2.258   1.725
 4643SOL    HW114828   4.087   2.237   1.816
 4643SOL    HW214829   4.049   2.279   1.663
 4644SOL     OW14830   1.324   6.411   4.556
 4644SOL    HW114831   1.278   6.460   4.482
 4644SOL    HW214832   1.258   6.351   4.602
 4645SOL     OW14833   2.126   6.527   4.191
 4645SOL    HW114834   2.058   6.473   4.241
 4645SOL    HW214835   2.139   6.615   4.238
 4646SOL     OW14836   2.942   0.492   2.326
 4646SOL    HW114837   3.004   0.483   2.248
 4646SOL    HW214838   2.953   0.583   2.366
 4647SOL     OW14839   0.371   0.159   3.766
 4647SOL    HW114840   0.374   0.143   3.667
 4647SOL    HW214841   0.397   0.076   3.814
 4648SOL     OW14842   2.380   6.381   2.570
 4648SOL    HW114843   2.423   6.380   2.660
 4648SOL    HW214844   2.438   6.432   2.507
 4649SOL     OW14845   5.316   0.980   6.037
 4649SOL    HW114846   5.294   0.932   5.952
 4649SOL    HW214847   5.414   0.997   6.041
 4650SOL     OW14848   4.664   6.127   2.960
 4650SOL    HW114849   4.675   6.189   2.883
 4650SOL    HW214850   4.580   6.073   2.947
 4651SOL     OW14851   6.811   2.117   1.794
 4651SOL    HW114852   6.825   2.101   1.696
 4651SOL    HW214853   6.713   2.130   1.811
 4652SOL     OW14854   6.803   0.902   4.392
 4652SOL    HW114855   6.826   0.836   4.320
 4652SOL    HW214856   6.817   0.995   4.358
 4653SOL     OW14857   6.828   6.527   0.041
 4653SOL    HW114858   6.877   6.615   0.044
 4653SOL    HW214859   6.732   6.542   0.066
 4654SOL     OW14860   0.685   0.030   0.645
 4654SOL    HW114861   0.723   7.003   0.722
 4654SOL    HW214862   0.631   6.992   0.588
 4655SOL     OW14863   0.085   4.200   2.791
 4655SOL    HW114864   0.120   4.293   2.803
 4655SOL    HW214865   0.068   4.159   2.880
 4656SOL     OW14866   1.112   0.948   3.059
 4656SOL    HW114867   1.135   0.971   3.153
 4656SOL    HW214868   1.034   1.004   3.029
 4657SOL     OW14869   5.249   6.462   1.660
 4657SOL    HW114870   5.241   6.393   1.588
 4657SOL    HW214871   5.220   6.551   1.624
 4658SOL     OW14872   4.333   0.131   3.174
 4658SOL    HW114873   4.242   0.107   3.141
 4658SOL    HW214874   4.339   0.113   3.272
 4659SOL     OW14875   1.798   2.843   5.075
 4659SOL    HW114876   1.759   2.840   4.983
 4659SOL    HW214877   1.733   2.888   5.137
 4660SOL     OW14878   0.280   1.502   5.589
 4660SOL    HW114879   0.244   1.413   5.561
 4660SOL    HW214880   0.372   1.490   5.626
 4661SOL     OW14881   3.405   4.133   4.480
 4661SOL    HW114882   3.388   4.205   4.547
 4661SOL    HW214883   3.385   4.044   4.520
 4662SOL     OW14884   5.103   0.515   5.686
 4662SOL    HW114885   5.170   0.561   5.627
 4662SOL    HW214886   5.131   0.419   5.699
 4663SOL     OW14887   6.857   2.034   2.214
 4663SOL    HW114888   6.802   2.033   2.130
 4663SOL    HW214889   6.890   2.127   2.231
 4664SOL     OW14890   2.676   2.649   6.624
 4664SOL    HW114891   2.586   2.692   6.617
 4664SOL    HW214892   2.734   2.704   6.684
 4665SOL     OW14893   4.910   0.292   6.693
 4665SOL    HW114894   4.844   0.225   6.726
 4665SOL    HW214895   4.922   0.364   6.761
 4666SOL     OW14896   1.905   1.940   6.979
 4666SOL    HW114897   1.951   1.888   0.027
 4666SOL    HW214898   1.808   1.915   6.977
 4667SOL     OW14899   6.898   5.180   6.893
 4667SOL    HW114900   6.859   5.168   6.984
 4667SOL    HW214901   6.942   5.095   6.864
 4668SOL     OW14902   6.648   1.278   4.765
 4668SOL    HW114903   6.571   1.243   4.818
 4668SOL    HW214904   6.732   1.265   4.818
 4669SOL     OW14905   1.685   6.276   0.190
 4669SOL    HW114906   1.652   6.188   0.155
 4669SOL    HW214907   1.608   6.332   0.218
 4670SOL     OW14908   2.238   1.534   5.112
 4670SOL    HW114909   2.294   1.607   5.071
 4670SOL    HW214910   2.191   1.570   5.192
 4671SOL     OW14911   6.153   3.133   1.723
 4671SOL    HW114912   6.073   3.185   1.753
 4671SOL    HW214913   6.142   3.036   1.748
 4672SOL     OW14914   1.858   4.109   6.446
 4672SOL    HW114915   1.943   4.063   6.473
 4672SOL    HW214916   1.858   4.121   6.347
 4673SOL     OW14917   3.170   0.509   2.505
 4673SOL    HW114918   3.152   0.605   2.527
 4673SOL    HW214919   3.130   0.451   2.576
 4674SOL     OW14920   5.099   5.540   5.510
 4674SOL    HW114921   5.002   5.537   5.484
 4674SOL    HW214922   5.155   5.523   5.429
 4675SOL     OW14923   1.300   4.007   0.945
 4675SOL    HW114924   1.373   4.073   0.958
 4675SOL    HW214925   1.298   3.944   1.022
 4676SOL     OW14926   1.734   5.816   3.335
 4676SOL    HW114927   1.668   5.753   3.375
 4676SOL    HW214928   1.736   5.901   3.388
 4677SOL     OW14929   1.917   2.373   0.612
 4677SOL    HW114930   1.850   2.365   0.685
 4677SOL    HW214931   1.994   2.430   0.644
 4678SOL     OW14932   1.528   4.471   2.901
 4678SOL    HW114933   1.447   4.417   2.878
 4678SOL    HW214934   1.586   4.419   2.964
 4679SOL     OW14935   5.404   6.202   1.758
 4679SOL    HW114936   5.386   6.300   1.752
 4679SOL    HW214937   5.342   6.152   1.699
 4680SOL     OW14938   2.774   1.665   1.529
 4680SOL    HW114939   2.751   1.685   1.624
 4680SOL    HW214940   2.712   1.716   1.468
 4681SOL     OW14941   5.550   4.250   0.219
 4681SOL    HW114942   5.574   4.172   0.278
 4681SOL    HW214943   5.527   4.329   0.276
 4682SOL     OW14944   4.632   3.427   6.169
 4682SOL    HW114945   4.633   3.331   6.141
 4682SOL    HW214946   4.724   3.454   6.199
 4683SOL     OW14947   5.648   4.336   3.968
 4683SOL    HW114948   5.693   4.365   3.884
 4683SOL    HW214949   5.554   4.309   3.949
 4684SOL     OW14950   4.291   6.476   0.335
 4684SOL    HW114951   4.330   6.388   0.359
 4684SOL    HW214952   4.364   6.538   0.305
 4685SOL     OW14953   2.489   3.522   6.182
 4685SOL    HW114954   2.405   3.490   6.138
 4685SOL    HW214955   2.487   3.500   6.279
 4686SOL     OW14956   3.706   6.494   1.072
 4686SOL    HW114957   3.643   6.544   1.012
 4686SOL    HW214958   3.665   6.407   1.099
 4687SOL     OW14959   3.131   1.521   3.074
 4687SOL    HW114960   3.099   1.526   2.979
 4687SOL    HW214961   3.123   1.611   3.116
 4688SOL     OW14962   5.326   2.361   5.978
 4688SOL    HW114963   5.378   2.329   6.057
 4688SOL    HW214964   5.240   2.310   5.971
 4689SOL     OW14965   5.600   0.826   0.813
 4689SOL    HW114966   5.642   0.853   0.900
 4689SOL    HW214967   5.565   0.733   0.820
 4690SOL     OW14968   2.409   1.350   0.851
 4690SOL    HW114969   2.310   1.336   0.843
 4690SOL    HW214970   2.438   1.424   0.790
 4691SOL     OW14971   5.327   4.219   0.027
 4691SOL    HW114972   5.318   4.119   0.024
 4691SOL    HW214973   5.420   4.242   0.056
 4692SOL     OW14974   6.560   4.528   3.241
 4692SOL    HW114975   6.642   4.505   3.292
 4692SOL    HW214976   6.535   4.452   3.181
 4693SOL     OW14977   1.529   0.896   3.718
 4693SOL    HW114978   1.481   0.955   3.783
 4693SOL    HW214979   1.613   0.941   3.687
 4694SOL     OW14980   2.604   1.133   0.441
 4694SOL    HW114981   2.699   1.128   0.470
 4694SOL    HW214982   2.597   1.110   0.344
 4695SOL     OW14983   1.368   5.689   0.892
 4695SOL    HW114984   1.437   5.711   0.961
 4695SOL    HW214985   1.330   5.773   0.854
 4696SOL     OW14986   1.231   5.342   5.928
 4696SOL    HW114987   1.239   5.395   6.013
 4696SOL    HW214988   1.236   5.244   5.949
 4697SOL     OW14989   1.815   3.798   1.048
 4697SOL    HW114990   1.899   3.744   1.054
 4697SOL    HW214991   1.739   3.748   1.088
 4698SOL     OW14992   4.530   0.457   3.270
 4698SOL    HW114993   4.562   0.466   3.364
 4698SOL    HW214994   4.590   0.508   3.208
 4699SOL     OW14995   0.316   0.559   2.148
 4699SOL    HW114996   0.248   0.531   2.216
 4699SOL    HW214997   0.271   0.574   2.060
 4700SOL     OW14998   6.252   2.056   2.687
 4700SOL    HW114999   6.183   2.113   2.641
 4700SOL    HW215000   6.340   2.067   2.641
 4701SOL     OW15001   3.427   2.021   1.986
 4701SOL    HW115002   3.412   2.055   1.893
 4701SOL    HW215003   3.352   2.050   2.045
 4702SOL     OW15004   4.859   5.096   6.815
 4702SOL    HW115005   4.837   5.091   6.717
 4702SOL    HW215006   4.958   5.097   6.827
 4703SOL     OW15007   1.054   4.679   2.514
 4703SOL    HW115008   1.068   4.590   2.472
 4703SOL    HW215009   1.137   4.734   2.505
 4704SOL     OW15010   0.063   5.984   5.873
 4704SOL    HW115011   0.107   6.074   5.872
 4704SOL    HW215012   6.988   5.996   5.881
 4705SOL     OW15013   3.059   2.428   1.040
 4705SOL    HW115014   3.150   2.470   1.048
 4705SOL    HW215015   3.022   2.412   1.131
 4706SOL     OW15016   1.274   0.396   0.679
 4706SOL    HW115017   1.285   0.309   0.631
 4706SOL    HW215018   1.205   0.452   0.632
 4707SOL     OW15019   1.667   6.421   0.947
 4707SOL    HW115020   1.622   6.423   1.036
 4707SOL    HW215021   1.615   6.476   0.882
 4708SOL     OW15022   1.395   2.315   4.577
 4708SOL    HW115023   1.475   2.306   4.519
 4708SOL    HW215024   1.422   2.351   4.667
 4709SOL     OW15025   5.074   4.679   4.805
 4709SOL    HW115026   5.131   4.621   4.747
 4709SOL    HW215027   4.980   4.676   4.772
 4710SOL     OW15028   5.559   6.488   4.882
 4710SOL    HW115029   5.646   6.537   4.884
 4710SOL    HW215030   5.486   6.547   4.917
 4711SOL     OW15031   6.053   3.011   3.319
 4711SOL    HW115032   6.072   2.916   3.347
 4711SOL    HW215033   5.970   3.012   3.263
 4712SOL     OW15034   4.331   4.520   5.611
 4712SOL    HW115035   4.404   4.466   5.651
 4712SOL    HW215036   4.244   4.497   5.655
 4713SOL     OW15037   5.560   4.260   0.904
 4713SOL    HW115038   5.618   4.341   0.896
 4713SOL    HW215039   5.479   4.283   0.959
 4714SOL     OW15040   6.269   1.698   6.239
 4714SOL    HW115041   6.205   1.689   6.162
 4714SOL    HW215042   6.279   1.609   6.283
 4715SOL     OW15043   6.443   1.739   2.154
 4715SOL    HW115044   6.456   1.649   2.112
 4715SOL    HW215045   6.380   1.731   2.231
 4716SOL     OW15046   3.783   5.623   5.594
 4716SOL    HW115047   3.855   5.620   5.662
 4716SOL    HW215048   3.809   5.687   5.521
 4717SOL     OW15049   2.737   5.379   5.642
 4717SOL    HW115050   2.817   5.370   5.581
 4717SOL    HW215051   2.698   5.289   5.658
 4718SOL     OW15052   5.544   2.877   0.676
 4718SOL    HW115053   5.605   2.823   0.735
 4718SOL    HW215054   5.541   2.971   0.709
 4719SOL     OW15055   6.247   3.077   3.119
 4719SOL    HW115056   6.299   2.992   3.118
 4719SOL    HW215057   6.184   3.077   3.198
 4720SOL     OW15058   3.032   5.266   0.663
 4720SOL    HW115059   3.108   5.328   0.640
 4720SOL    HW215060   3.035   5.246   0.761
 4721SOL     OW15061   6.460   3.516   1.700
 4721SOL    HW115062   6.525   3.583   1.664
 4721SOL    HW215063   6.473   3.507   1.799
 4722SOL     OW15064   0.953   4.417   6.700
 4722SOL    HW115065   1.025   4.361   6.660
 4722SOL    HW215066   0.865   4.390   6.661
 4723SOL     OW15067   3.857   4.622   5.695
 4723SOL    HW115068   3.762   4.594   5.684
 4723SOL    HW215069   3.861   4.709   5.744
 4724SOL     OW15070   7.017   6.379   4.098
 4724SOL    HW115071   0.033   6.395   4.007
 4724SOL    HW215072   0.024   6.290   4.131
 4725SOL     OW15073   5.478   5.061   0.883
 4725SOL    HW115074   5.393   5.031   0.925
 4725SOL    HW215075   5.478   5.035   0.786
 4726SOL     OW15076   2.223   3.063   6.189
 4726SOL    HW115077   2.190   2.979   6.146
 4726SOL    HW215078   2.323   3.067   6.180
 4727SOL     OW15079   0.586   5.754   0.954
 4727SOL    HW115080   0.504   5.778   0.902
 4727SOL    HW215081   0.668   5.783   0.905
 4728SOL     OW15082   6.265   0.925   2.786
 4728SOL    HW115083   6.200   0.978   2.839
 4728SOL    HW215084   6.343   0.900   2.843
 4729SOL     OW15085   5.730   0.357   6.998
 4729SOL    HW115086   5.718   0.305   6.914
 4729SOL    HW215087   5.643   0.400   7.023
 4730SOL     OW15088   3.550   6.768   4.778
 4730SOL    HW115089   3.589   6.764   4.870
 4730SOL    HW215090   3.611   6.820   4.718
 4731SOL     OW15091   3.058   0.372   0.819
 4731SOL    HW115092   3.074   0.292   0.762
 4731SOL    HW215093   3.015   0.444   0.764
 4732SOL     OW15094   0.549   3.973   4.717
 4732SOL    HW115095   0.562   4.059   4.766
 4732SOL    HW215096   0.489   3.987   4.639
 4733SOL     OW15097   1.975   3.857   3.093
 4733SOL    HW115098   2.020   3.768   3.081
 4733SOL    HW215099   2.035   3.917   3.147
 4734SOL     OW15100   5.470   3.751   5.717
 4734SOL    HW115101   5.444   3.672   5.661
 4734SOL    HW215102   5.388   3.795   5.752
 4735SOL     OW15103   0.012   6.315   4.482
 4735SOL    HW115104   0.022   6.340   4.579
 4735SOL    HW215105   6.948   6.348   4.448
 4736SOL     OW15106   6.843   1.765   3.516
 4736SOL    HW115107   6.817   1.861   3.502
 4736SOL    HW215108   6.895   1.733   3.437
 4737SOL     OW15109   1.739   5.179   1.134
 4737SOL    HW115110   1.704   5.221   1.217
 4737SOL    HW215111   1.809   5.111   1.158
 4738SOL     OW15112   2.298   0.662   3.890
 4738SOL    HW115113   2.305   0.740   3.952
 4738SOL    HW215114   2.269   0.694   3.800
 4739SOL     OW15115   5.822   3.060   4.786
 4739SOL    HW115116   5.759   3.077   4.861
 4739SOL    HW215117   5.912   3.035   4.822
 4740SOL     OW15118   0.735   1.391   1.911
 4740SOL    HW115119   0.680   1.381   1.994
 4740SOL    HW215120   0.743   1.302   1.866
 4741SOL     OW15121   4.055   4.650   0.982
 4741SOL    HW115122   4.149   4.622   1.003
 4741SOL    HW215123   4.001   4.650   1.066
 4742SOL     OW15124   2.909   5.973   1.260
 4742SOL    HW115125   2.922   5.925   1.346
 4742SOL    HW215126   2.894   6.070   1.277
 4743SOL     OW15127   2.647   1.728   5.871
 4743SOL    HW115128   2.548   1.731   5.878
 4743SOL    HW215129   2.677   1.634   5.853
 4744SOL     OW15130   1.796   3.805   5.499
 4744SOL    HW115131   1.744   3.720   5.502
 4744SOL    HW215132   1.888   3.787   5.462
 4745SOL     OW15133   2.968   5.291   5.514
 4745SOL    HW115134   2.962   5.315   5.417
 4745SOL    HW215135   3.031   5.354   5.560
 4746SOL     OW15136   6.045   5.668   0.120
 4746SOL    HW115137   6.142   5.650   0.137
 4746SOL    HW215138   6.003   5.588   0.077
 4747SOL     OW15139   6.999   2.604   6.980
 4747SOL    HW115140   0.044   2.564   0.017
 4747SOL    HW215141   6.920   2.544   6.976
 4748SOL     OW15142   0.987   0.828   1.324
 4748SOL    HW115143   0.995   0.928   1.330
 4748SOL    HW215144   1.078   0.787   1.332
 4749SOL     OW15145   1.953   6.331   0.217
 4749SOL    HW115146   1.975   6.427   0.238
 4749SOL    HW215147   1.854   6.322   0.205
 4750SOL     OW15148   0.335   1.443   4.101
 4750SOL    HW115149   0.237   1.459   4.086
 4750SOL    HW215150   0.387   1.520   4.066
 4751SOL     OW15151   1.301   4.357   6.750
 4751SOL    HW115152   1.243   4.370   6.830
 4751SOL    HW215153   1.247   4.316   6.676
 4752SOL     OW15154   2.142   6.081   1.451
 4752SOL    HW115155   2.072   6.136   1.496
 4752SOL    HW215156   2.207   6.048   1.520
 4753SOL     OW15157   5.643   6.910   5.284
 4753SOL    HW115158   5.693   6.887   5.201
 4753SOL    HW215159   5.674   6.852   5.360
 4754SOL     OW15160   0.040   6.968   6.491
 4754SOL    HW115161   0.096   0.022   6.462
 4754SOL    HW215162   0.081   6.884   6.456
 4755SOL     OW15163   2.667   1.332   6.179
 4755SOL    HW115164   2.643   1.326   6.082
 4755SOL    HW215165   2.676   1.428   6.204
 4756SOL     OW15166   4.774   2.633   1.644
 4756SOL    HW115167   4.839   2.708   1.630
 4756SOL    HW215168   4.715   2.654   1.722
 4757SOL     OW15169   2.391   2.578   1.994
 4757SOL    HW115170   2.454   2.525   1.937
 4757SOL    HW215171   2.407   2.557   2.090
 4758SOL     OW15172   4.504   5.206   5.716
 4758SOL    HW115173   4.509   5.260   5.632
 4758SOL    HW215174   4.477   5.112   5.693
 4759SOL     OW15175   5.402   5.808   5.231
 4759SOL    HW115176   5.318   5.783   5.277
 4759SOL    HW215177   5.468   5.733   5.238
 4760SOL     OW15178   1.739   1.058   1.396
 4760SOL    HW115179   1.837   1.074   1.385
 4760SOL    HW215180   1.691   1.146   1.400
 4761SOL     OW15181   6.944   0.401   6.638
 4761SOL    HW115182   6.971   0.368   6.729
 4761SOL    HW215183   6.874   0.340   6.600
 4762SOL     OW15184   2.328   4.751   2.057
 4762SOL    HW115185   2.382   4.697   2.122
 4762SOL    HW215186   2.390   4.804   1.999
 4763SOL     OW15187   6.147   5.826   3.042
 4763SOL    HW115188   6.207   5.829   2.962
 4763SOL    HW215189   6.163   5.741   3.093
 4764SOL     OW15190   4.652   3.771   5.342
 4764SOL    HW115191   4.672   3.694   5.282
 4764SOL    HW215192   4.736   3.824   5.359
 4765SOL     OW15193   5.068   6.019   5.241
 4765SOL    HW115194   5.000   5.970   5.186
 4765SOL    HW215195   5.022   6.064   5.318
 4766SOL     OW15196   2.779   0.730   3.292
 4766SOL    HW115197   2.783   0.630   3.296
 4766SOL    HW215198   2.799   0.760   3.199
 4767SOL     OW15199   4.068   6.893   0.841
 4767SOL    HW115200   4.037   6.988   0.847
 4767SOL    HW215201   4.070   6.865   0.745
 4768SOL     OW15202   4.971   1.132   4.855
 4768SOL    HW115203   4.967   1.036   4.881
 4768SOL    HW215204   5.046   1.177   4.902
 4769SOL     OW15205   3.781   5.691   1.700
 4769SOL    HW115206   3.797   5.738   1.787
 4769SOL    HW215207   3.852   5.621   1.687
 4770SOL     OW15208   2.009   0.306   2.887
 4770SOL    HW115209   2.098   0.324   2.928
 4770SOL    HW215210   1.937   0.324   2.955
 4771SOL     OW15211   3.361   4.802   6.436
 4771SOL    HW115212   3.384   4.882   6.492
 4771SOL    HW215213   3.264   4.781   6.447
 4772SOL     OW15214   2.692   0.210   1.368
 4772SOL    HW115215   2.643   0.152   1.303
 4772SOL    HW215216   2.668   0.306   1.353
 4773SOL     OW15217   0.299   6.050   4.140
 4773SOL    HW115218   0.220   6.012   4.186
 4773SOL    HW215219   0.293   6.150   4.139
 4774SOL     OW15220   0.629   3.446   2.404
 4774SOL    HW115221   0.570   3.378   2.360
 4774SOL    HW215222   0.718   3.404   2.425
 4775SOL     OW15223   4.685   0.392   2.619
 4775SOL    HW115224   4.764   0.343   2.583
 4775SOL    HW215225   4.711   0.441   2.702
 4776SOL     OW15226   2.934   5.978   2.142
 4776SOL    HW115227   2.843   6.005   2.113
 4776SOL    HW215228   2.927   5.919   2.223
 4777SOL     OW15229   2.474   4.306   0.917
 4777SOL    HW115230   2.461   4.251   1.000
 4777SOL    HW215231   2.457   4.402   0.938
 4778SOL     OW15232   4.829   3.669   1.934
 4778SOL    HW115233   4.822   3.733   1.858
 4778SOL    HW215234   4.863   3.581   1.901
 4779SOL     OW15235   6.687   0.081   3.178
 4779SOL    HW115236   6.642   0.124   3.256
 4779SOL    HW215237   6.619   0.057   3.109
 4780SOL     OW15238   0.852   0.665   6.171
 4780SOL    HW115239   0.872   0.760   6.147
 4780SOL    HW215240   0.915   0.604   6.122
 4781SOL     OW15241   2.384   5.928   1.382
 4781SOL    HW115242   2.317   5.854   1.389
 4781SOL    HW215243   2.372   5.992   1.458
 4782SOL     OW15244   5.612   0.683   6.290
 4782SOL    HW115245   5.562   0.708   6.374
 4782SOL    HW215246   5.550   0.689   6.212
 4783SOL     OW15247   4.809   4.293   0.702
 4783SOL    HW115248   4.722   4.338   0.679
 4783SOL    HW215249   4.853   4.343   0.776
 4784SOL     OW15250   5.929   4.536   5.235
 4784SOL    HW115251   5.844   4.506   5.192
 4784SOL    HW215252   5.960   4.621   5.192
 4785SOL     OW15253   6.675   6.576   1.012
 4785SOL    HW115254   6.715   6.545   1.099
 4785SOL    HW215255   6.741   6.633   0.964
 4786SOL     OW15256   1.951   2.859   2.369
 4786SOL    HW115257   2.017   2.930   2.342
 4786SOL    HW215258   1.915   2.879   2.459
 4787SOL     OW15259   3.144   2.157   3.841
 4787SOL    HW115260   3.142   2.058   3.847
 4787SOL    HW215261   3.096   2.197   3.919
 4788SOL     OW15262   1.544   5.614   5.747
 4788SOL    HW115263   1.573   5.530   5.702
 4788SOL    HW215264   1.606   5.688   5.722
 4789SOL     OW15265   5.488   0.463   0.001
 4789SOL    HW115266   5.454   0.538   0.057
 4789SOL    HW215267   5.467   0.481   6.929
 4790SOL     OW15268   5.356   2.221   6.489
 4790SOL    HW115269   5.397   2.231   6.399
 4790SOL    HW215270   5.275   2.280   6.495
 4791SOL     OW15271   5.701   6.943   2.144
 4791SOL    HW115272   5.682   0.010   2.180
 4791SOL    HW215273   5.617   6.903   2.107
 4792SOL     OW15274   2.237   3.108   3.174
 4792SOL    HW115275   2.265   3.028   3.226
 4792SOL    HW215276   2.294   3.117   3.093
 4793SOL     OW15277   1.472   0.221   5.631
 4793SOL    HW115278   1.534   0.147   5.604
 4793SOL    HW215279   1.511   0.271   5.708
 4794SOL     OW15280   3.229   6.574   2.602
 4794SOL    HW115281   3.198   6.669   2.607
 4794SOL    HW215282   3.325   6.572   2.575
 4795SOL     OW15283   6.284   3.041   4.781
 4795SOL    HW115284   6.323   2.960   4.826
 4795SOL    HW215285   6.337   3.061   4.699
 4796SOL     OW15286   5.272   3.115   0.197
 4796SOL    HW115287   5.191   3.070   0.160
 4796SOL    HW215288   5.351   3.094   0.140
 4797SOL     OW15289   1.287   5.105   6.020
 4797SOL    HW115290   1.231   5.069   6.094
 4797SOL    HW215291   1.372   5.053   6.013
 4798SOL     OW15292   0.369   4.433   4.488
 4798SOL    HW115293   0.363   4.524   4.447
 4798SOL    HW215294   0.430   4.437   4.567
 4799SOL     OW15295   5.683   1.296   5.044
 4799SOL    HW115296   5.585   1.314   5.054
 4799SOL    HW215297   5.735   1.369   5.088
 4800SOL     OW15298   2.827   2.991   5.926
 4800SOL    HW115299   2.924   2.991   5.950
 4800SOL    HW215300   2.801   2.901   5.891
 4801SOL     OW15301   1.712   1.814   0.443
 4801SOL    HW115302   1.637   1.880   0.445
 4801SOL    HW215303   1.774   1.832   0.519
 4802SOL     OW15304   2.465   6.682   1.649
 4802SOL    HW115305   2.431   6.748   1.717
 4802SOL    HW215306   2.387   6.632   1.610
 4803SOL     OW15307   0.769   0.092   0.936
 4803SOL    HW115308   0.844   0.158   0.931
 4803SOL    HW215309   0.691   0.134   0.983
 4804SOL     OW15310   4.299   5.621   6.801
 4804SOL    HW115311   4.397   5.604   6.790
 4804SOL    HW215312   4.272   5.602   6.896
 4805SOL     OW15313   6.576   0.500   0.405
 4805SOL    HW115314   6.534   0.527   0.318
 4805SOL    HW215315   6.559   0.572   0.473
 4806SOL     OW15316   6.712   4.118   2.942
 4806SOL    HW115317   6.697   4.216   2.925
 4806SOL    HW215318   6.809   4.103   2.965
 4807SOL     OW15319   0.720   5.711   1.821
 4807SOL    HW115320   0.669   5.643   1.770
 4807SOL    HW215321   0.688   5.803   1.796
 4808SOL     OW15322   5.609   3.446   0.481
 4808SOL    HW115323   5.644   3.354   0.461
 4808SOL    HW215324   5.525   3.439   0.534
 4809SOL     OW15325   3.082   5.021   0.088
 4809SOL    HW115326   3.088   4.925   0.115
 4809SOL    HW215327   2.988   5.042   0.062
 4810SOL     OW15328   0.613   5.526   1.681
 4810SOL    HW115329   0.701   5.533   1.633
 4810SOL    HW215330   0.540   5.554   1.619
 4811SOL     OW15331   2.964   5.086   1.914
 4811SOL    HW115332   3.058   5.113   1.893
 4811SOL    HW215333   2.964   4.994   1.952
 4812SOL     OW15334   6.921   5.258   4.189
 4812SOL    HW115335   6.951   5.353   4.175
 4812SOL    HW215336   6.908   5.242   4.287
 4813SOL     OW15337   4.964   1.754   2.230
 4813SOL    HW115338   4.991   1.850   2.225
 4813SOL    HW215339   4.918   1.737   2.317
 4814SOL     OW15340   6.945   4.102   0.577
 4814SOL    HW115341   6.862   4.071   0.623
 4814SOL    HW215342   0.002   4.070   0.628
 4815SOL     OW15343   5.129   5.166   2.163
 4815SOL    HW115344   5.210   5.121   2.201
 4815SOL    HW215345   5.139   5.265   2.171
 4816SOL     OW15346   5.240   5.369   2.678
 4816SOL    HW115347   5.200   5.399   2.591
 4816SOL    HW215348   5.187   5.292   2.714
 4817SOL     OW15349   0.945   2.050   5.568
 4817SOL    HW115350   0.915   2.145   5.558
 4817SOL    HW215351   0.962   2.032   5.665
 4818SOL     OW15352   0.067   0.083   3.623
 4818SOL    HW115353   0.013   0.149   3.675
 4818SOL    HW215354   0.093   0.007   3.683
 4819SOL     OW15355   1.554   3.373   0.158
 4819SOL    HW115356   1.516   3.300   0.102
 4819SOL    HW215357   1.588   3.446   0.098
 4820SOL     OW15358   0.129   3.489   1.640
 4820SOL    HW115359   0.192   3.433   1.586
 4820SOL    HW215360   0.150   3.586   1.626
 4821SOL     OW15361   0.082   5.994   2.262
 4821SOL    HW115362   0.082   5.901   2.298
 4821SOL    HW215363   0.174   6.034   2.273
 4822SOL     OW15364   0.839   3.879   4.275
 4822SOL    HW115365   0.873   3.802   4.328
 4822SOL    HW215366   0.818   3.849   4.182
 4823SOL     OW15367   1.251   3.018   2.486
 4823SOL    HW115368   1.203   3.078   2.422
 4823SOL    HW215369   1.347   3.009   2.458
 4824SOL     OW15370   5.097   0.506   5.240
 4824SOL    HW115371   5.023   0.550   5.290
 4824SOL    HW215372   5.147   0.574   5.187
 4825SOL     OW15373   1.487   0.242   4.320
 4825SOL    HW115374   1.499   0.154   4.366
 4825SOL    HW215375   1.575   0.290   4.316
 4826SOL     OW15376   4.780   6.957   1.556
 4826SOL    HW115377   4.694   6.923   1.594
 4826SOL    HW215378   4.790   0.031   1.578
 4827SOL     OW15379   6.946   2.237   0.215
 4827SOL    HW115380   7.022   2.295   0.185
 4827SOL    HW215381   6.868   2.249   0.153
 4828SOL     OW15382   4.719   6.883   2.604
 4828SOL    HW115383   4.690   6.836   2.521
 4828SOL    HW215384   4.766   6.968   2.578
 4829SOL     OW15385   4.227   6.746   5.669
 4829SOL    HW115386   4.158   6.808   5.634
 4829SOL    HW215387   4.314   6.795   5.681
 4830SOL     OW15388   3.705   5.427   3.607
 4830SOL    HW115389   3.753   5.413   3.693
 4830SOL    HW215390   3.680   5.338   3.568
 4831SOL     OW15391   3.336   5.566   6.021
 4831SOL    HW115392   3.426   5.557   5.978
 4831SOL    HW215393   3.347   5.610   6.110
 4832SOL     OW15394   2.892   3.389   4.953
 4832SOL    HW115395   2.882   3.348   5.043
 4832SOL    HW215396   2.819   3.358   4.893
 4833SOL     OW15397   5.796   2.759   4.389
 4833SOL    HW115398   5.805   2.829   4.318
 4833SOL    HW215399   5.725   2.786   4.454
 4834SOL     OW15400   2.168   5.368   2.185
 4834SOL    HW115401   2.073   5.394   2.205
 4834SOL    HW215402   2.169   5.279   2.140
 4835SOL     OW15403   6.575   3.277   5.652
 4835SOL    HW115404   6.647   3.337   5.688
 4835SOL    HW215405   6.486   3.312   5.679
 4836SOL     OW15406   4.879   0.709   5.319
 4836SOL    HW115407   4.805   0.649   5.351
 4836SOL    HW215408   4.873   0.797   5.365
 4837SOL     OW15409   6.709   3.115   3.920
 4837SOL    HW115410   6.758   3.032   3.946
 4837SOL    HW215411   6.610   3.096   3.921
 4838SOL     OW15412   1.366   4.667   6.144
 4838SOL    HW115413   1.402   4.700   6.231
 4838SOL    HW215414   1.285   4.720   6.119
 4839SOL     OW15415   2.260   2.071   1.096
 4839SOL    HW115416   2.227   2.155   1.053
 4839SOL    HW215417   2.352   2.051   1.063
 4840SOL     OW15418   4.964   3.711   5.235
 4840SOL    HW115419   4.950   3.672   5.327
 4840SOL    HW215420   4.903   3.664   5.170
 4841SOL     OW15421   2.758   4.941   3.424
 4841SOL    HW115422   2.764   4.990   3.337
 4841SOL    HW215423   2.784   5.003   3.498
 4842SOL     OW15424   2.674   5.081   2.733
 4842SOL    HW115425   2.671   5.004   2.668
 4842SOL    HW215426   2.768   5.116   2.738
 4843SOL     OW15427   0.186   2.508   2.199
 4843SOL    HW115428   0.162   2.600   2.168
 4843SOL    HW215429   0.171   2.501   2.298
 4844SOL     OW15430   1.354   5.440   5.230
 4844SOL    HW115431   1.327   5.529   5.192
 4844SOL    HW215432   1.453   5.439   5.245
 4845SOL     OW15433   4.782   4.458   5.248
 4845SOL    HW115434   4.697   4.463   5.196
 4845SOL    HW215435   4.803   4.548   5.287
 4846SOL     OW15436   0.172   3.097   4.661
 4846SOL    HW115437   0.078   3.063   4.649
 4846SOL    HW215438   0.176   3.193   4.632
 4847SOL     OW15439   2.702   6.320   5.808
 4847SOL    HW115440   2.760   6.313   5.727
 4847SOL    HW215441   2.608   6.299   5.783
 4848SOL     OW15442   2.575   0.880   4.104
 4848SOL    HW115443   2.559   0.926   4.017
 4848SOL    HW215444   2.653   0.818   4.095
 4849SOL     OW15445   2.302   0.296   0.813
 4849SOL    HW115446   2.238   0.297   0.890
 4849SOL    HW215447   2.389   0.257   0.843
 4850SOL     OW15448   4.762   0.971   0.857
 4850SOL    HW115449   4.761   1.020   0.770
 4850SOL    HW215450   4.717   1.026   0.927
 4851SOL     OW15451   3.100   6.244   0.124
 4851SOL    HW115452   3.039   6.318   0.096
 4851SOL    HW215453   3.169   6.229   0.053
 4852SOL     OW15454   4.312   5.340   5.279
 4852SOL    HW115455   4.235   5.405   5.280
 4852SOL    HW215456   4.357   5.343   5.190
 4853SOL     OW15457   3.782   0.782   3.046
 4853SOL    HW115458   3.850   0.734   2.991
 4853SOL    HW215459   3.789   0.752   3.141
 4854SOL     OW15460   6.134   6.233   1.331
 4854SOL    HW115461   6.145   6.180   1.415
 4854SOL    HW215462   6.037   6.245   1.311
 4855SOL     OW15463   6.602   4.554   4.674
 4855SOL    HW115464   6.538   4.630   4.660
 4855SOL    HW215465   6.695   4.591   4.683
 4856SOL     OW15466   0.304   3.937   2.604
 4856SOL    HW115467   0.322   3.911   2.509
 4856SOL    HW215468   0.215   3.901   2.633
 4857SOL     OW15469   2.955   2.198   4.069
 4857SOL    HW115470   3.033   2.193   4.132
 4857SOL    HW215471   2.894   2.273   4.097
 4858SOL     OW15472   0.713   6.791   4.840
 4858SOL    HW115473   0.675   6.884   4.839
 4858SOL    HW215474   0.694   6.747   4.752
 4859SOL     OW15475   0.721   5.789   2.107
 4859SOL    HW115476   0.789   5.728   2.147
 4859SOL    HW215477   0.703   5.761   2.013
 4860SOL     OW15478   5.347   5.566   0.882
 4860SOL    HW115479   5.425   5.628   0.875
 4860SOL    HW215480   5.272   5.600   0.827
 4861SOL     OW15481   6.975   5.042   6.398
 4861SOL    HW115482   6.996   5.127   6.446
 4861SOL    HW215483   6.948   5.063   6.304
 4862SOL     OW15484   2.640   4.864   5.013
 4862SOL    HW115485   2.654   4.779   4.961
 4862SOL    HW215486   2.682   4.856   5.103
 4863SOL     OW15487   4.572   2.505   2.983
 4863SOL    HW115488   4.500   2.519   3.051
 4863SOL    HW215489   4.642   2.445   3.021
 4864SOL     OW15490   3.093   1.110   2.214
 4864SOL    HW115491   3.072   1.134   2.120
 4864SOL    HW215492   3.175   1.159   2.244
 4865SOL     OW15493   3.561   5.476   5.681
 4865SOL    HW115494   3.645   5.518   5.646
 4865SOL    HW215495   3.482   5.524   5.643
 4866SOL     OW15496   6.055   4.930   1.928
 4866SOL    HW115497   6.079   4.854   1.869
 4866SOL    HW215498   6.116   5.007   1.909
 4867SOL     OW15499   5.058   5.493   2.410
 4867SOL    HW115500   5.042   5.581   2.454
 4867SOL    HW215501   5.122   5.506   2.334
 4868SOL     OW15502   0.616   5.849   1.205
 4868SOL    HW115503   0.716   5.851   1.207
 4868SOL    HW215504   0.585   5.806   1.120
 4869SOL     OW15505   0.083   1.815   7.018
 4869SOL    HW115506   0.158   1.880   0.005
 4869SOL    HW215507   0.016   1.829   0.067
 4870SOL     OW15508   4.797   6.520   1.702
 4870SOL    HW115509   4.864   6.551   1.770
 4870SOL    HW215510   4.708   6.510   1.746
 4871SOL     OW15511   1.018   2.455   3.756
 4871SOL    HW115512   1.067   2.503   3.683
 4871SOL    HW215513   1.028   2.357   3.744
 4872SOL     OW15514   1.234   0.201   2.540
 4872SOL    HW115515   1.200   0.257   2.615
 4872SOL    HW215516   1.157   0.171   2.483
 4873SOL     OW15517   6.947   5.718   4.887
 4873SOL    HW115518   6.947   5.689   4.983
 4873SOL    HW215519   6.865   5.773   4.869
 4874SOL     OW15520   5.568   3.605   3.093
 4874SOL    HW115521   5.584   3.518   3.048
 4874SOL    HW215522   5.480   3.642   3.065
 4875SOL     OW15523   5.598   1.651   1.122
 4875SOL    HW115524   5.507   1.674   1.086
 4875SOL    HW215525   5.605   1.683   1.216
 4876SOL     OW15526   0.048   1.549   0.045
 4876SOL    HW115527   0.055   1.474   7.003
 4876SOL    HW215528   0.059   1.636   7.022
 4877SOL     OW15529   6.380   1.221   1.367
 4877SOL    HW115530   6.376   1.241   1.465
 4877SOL    HW215531   6.348   1.300   1.316
 4878SOL     OW15532   6.884   1.755   1.604
 4878SOL    HW115533   6.831   1.830   1.566
 4878SOL    HW215534   6.837   1.718   1.684
 4879SOL     OW15535   4.229   5.032   3.760
 4879SOL    HW115536   4.194   5.034   3.666
 4879SOL    HW215537   4.211   4.942   3.800
 4880SOL     OW15538   5.643   1.565   6.884
 4880SOL    HW115539   5.614   1.493   6.948
 4880SOL    HW215540   5.583   1.644   6.893
 4881SOL     OW15541   3.326   6.244   6.149
 4881SOL    HW115542   3.331   6.170   6.217
 4881SOL    HW215543   3.316   6.204   6.058
 4882SOL     OW15544   5.827   1.111   5.180
 4882SOL    HW115545   5.816   1.113   5.280
 4882SOL    HW215546   5.750   1.158   5.137
 4883SOL     OW15547   6.559   4.723   1.801
 4883SOL    HW115548   6.610   4.648   1.759
 4883SOL    HW215549   6.594   4.739   1.894
 4884SOL     OW15550   3.489   6.366   1.770
 4884SOL    HW115551   3.494   6.449   1.826
 4884SOL    HW215552   3.465   6.288   1.827
 4885SOL     OW15553   1.842   0.165   1.037
 4885SOL    HW115554   1.837   0.262   1.012
 4885SOL    HW215555   1.931   0.147   1.080
 4886SOL     OW15556   6.333   0.365   0.280
 4886SOL    HW115557   6.372   0.356   0.372
 4886SOL    HW215558   6.406   0.371   0.213
 4887SOL     OW15559   0.008   2.017   3.595
 4887SOL    HW115560   6.949   1.972   3.629
 4887SOL    HW215561   0.018   1.998   3.497
 4888SOL     OW15562   2.424   5.993   2.778
 4888SOL    HW115563   2.377   6.040   2.703
 4888SOL    HW215564   2.361   5.979   2.854
 4889SOL     OW15565   1.280   1.937   0.028
 4889SOL    HW115566   1.244   2.030   0.021
 4889SOL    HW215567   1.268   1.891   6.964
 4890SOL     OW15568   1.168   0.870   4.403
 4890SOL    HW115569   1.191   0.892   4.309
 4890SOL    HW215570   1.234   0.912   4.465
 4891SOL     OW15571   1.117   4.689   0.683
 4891SOL    HW115572   1.148   4.606   0.636
 4891SOL    HW215573   1.018   4.687   0.694
 4892SOL     OW15574   0.824   5.522   1.514
 4892SOL    HW115575   0.829   5.540   1.415
 4892SOL    HW215576   0.914   5.495   1.547
 4893SOL     OW15577   0.540   3.766   6.427
 4893SOL    HW115578   0.459   3.764   6.368
 4893SOL    HW215579   0.517   3.809   6.514
 4894SOL     OW15580   2.412   0.994   3.558
 4894SOL    HW115581   2.492   0.958   3.511
 4894SOL    HW215582   2.354   1.044   3.493
 4895SOL     OW15583   0.993   3.164   0.358
 4895SOL    HW115584   0.921   3.107   0.396
 4895SOL    HW215585   1.075   3.108   0.343
 4896SOL     OW15586   3.622   4.968   5.008
 4896SOL    HW115587   3.603   4.907   5.084
 4896SOL    HW215588   3.539   4.983   4.954
 4897SOL     OW15589   3.225   5.479   0.580
 4897SOL    HW115590   3.299   5.495   0.646
 4897SOL    HW215591   3.263   5.471   0.488
 4898SOL     OW15592   5.395   1.366   5.562
 4898SOL    HW115593   5.393   1.323   5.472
 4898SOL    HW215594   5.388   1.465   5.553
 4899SOL     OW15595   6.175   4.527   3.585
 4899SOL    HW115596   6.262   4.561   3.547
 4899SOL    HW215597   6.128   4.472   3.516
 4900SOL     OW15598   0.436   6.479   6.027
 4900SOL    HW115599   0.379   6.544   6.077
 4900SOL    HW215600   0.467   6.521   5.941
 4901SOL     OW15601   0.757   6.636   3.902
 4901SOL    HW115602   0.792   6.581   3.826
 4901SOL    HW215603   0.711   6.576   3.968
 4902SOL     OW15604   2.789   4.813   1.538
 4902SOL    HW115605   2.692   4.792   1.553
 4902SOL    HW215606   2.812   4.898   1.586
 4903SOL     OW15607   4.396   7.023   6.611
 4903SOL    HW115608   4.358   0.034   6.525
 4903SOL    HW215609   4.462   0.066   6.647
 4904SOL     OW15610   2.430   6.093   4.263
 4904SOL    HW115611   2.462   6.185   4.287
 4904SOL    HW215612   2.500   6.026   4.288
 4905SOL     OW15613   4.717   3.244   1.748
 4905SOL    HW115614   4.669   3.164   1.783
 4905SOL    HW215615   4.658   3.324   1.757
 4906SOL     OW15616   5.337   0.161   0.407
 4906SOL    HW115617   5.375   0.224   0.339
 4906SOL    HW215618   5.406   0.141   0.476
 4907SOL     OW15619   3.917   0.330   3.469
 4907SOL    HW115620   3.828   0.286   3.483
 4907SOL    HW215621   3.988   0.260   3.464
 4908SOL     OW15622   3.418   6.402   6.699
 4908SOL    HW115623   3.436   6.380   6.604
 4908SOL    HW215624   3.319   6.410   6.713
 4909SOL     OW15625   6.733   6.188   5.439
 4909SOL    HW115626   6.743   6.257   5.368
 4909SOL    HW215627   6.740   6.097   5.399
 4910SOL     OW15628   5.135   0.211   5.201
 4910SOL    HW115629   5.137   0.205   5.101
 4910SOL    HW215630   5.103   0.301   5.228
 4911SOL     OW15631   6.945   2.582   5.798
 4911SOL    HW115632   7.012   2.507   5.797
 4911SOL    HW215633   6.958   2.637   5.880
 4912SOL     OW15634   3.899   1.869   2.206
 4912SOL    HW115635   3.819   1.930   2.200
 4912SOL    HW215636   3.921   1.833   2.116
 4913SOL     OW15637   3.650   3.741   3.307
 4913SOL    HW115638   3.552   3.735   3.289
 4913SOL    HW215639   3.673   3.688   3.389
 4914SOL     OW15640   2.414   6.649   3.359
 4914SOL    HW115641   2.486   6.599   3.312
 4914SOL    HW215642   2.349   6.585   3.399
 4915SOL     OW15643   4.160   6.278   3.744
 4915SOL    HW115644   4.149   6.222   3.826
 4915SOL    HW215645   4.079   6.269   3.687
 4916SOL     OW15646   2.409   2.021   3.018
 4916SOL    HW115647   2.395   2.004   3.115
 4916SOL    HW215648   2.321   2.024   2.971
 4917SOL     OW15649   1.944   4.748   0.689
 4917SOL    HW115650   1.984   4.828   0.735
 4917SOL    HW215651   1.906   4.686   0.758
 4918SOL     OW15652   1.935   0.112   2.117
 4918SOL    HW115653   1.900   0.021   2.142
 4918SOL    HW215654   1.911   0.177   2.189
 4919SOL     OW15655   1.752   2.916   2.195
 4919SOL    HW115656   1.833   2.896   2.250
 4919SOL    HW215657   1.711   2.830   2.163
 4920SOL     OW15658   4.178   0.625   0.886
 4920SOL    HW115659   4.133   0.666   0.965
 4920SOL    HW215660   4.274   0.605   0.909
 4921SOL     OW15661   1.925   4.035   1.833
 4921SOL    HW115662   1.992   4.108   1.822
 4921SOL    HW215663   1.836   4.065   1.797
 4922SOL     OW15664   1.691   3.205   5.184
 4922SOL    HW115665   1.688   3.203   5.084
 4922SOL    HW215666   1.657   3.118   5.220
 4923SOL     OW15667   5.091   0.600   1.595
 4923SOL    HW115668   5.127   0.577   1.504
 4923SOL    HW215669   4.999   0.563   1.605
 4924SOL     OW15670   0.976   4.214   4.715
 4924SOL    HW115671   0.979   4.115   4.700
 4924SOL    HW215672   0.963   4.261   4.628
 4925SOL     OW15673   4.907   6.471   0.365
 4925SOL    HW115674   4.966   6.405   0.318
 4925SOL    HW215675   4.881   6.544   0.301
 4926SOL     OW15676   4.807   2.540   2.127
 4926SOL    HW115677   4.850   2.504   2.045
 4926SOL    HW215678   4.855   2.504   2.208
 4927SOL     OW15679   3.047   3.071   2.986
 4927SOL    HW115680   2.999   3.152   3.020
 4927SOL    HW215681   3.108   3.036   3.057
 4928SOL     OW15682   0.677   6.253   7.016
 4928SOL    HW115683   0.685   6.188   0.067
 4928SOL    HW215684   0.594   6.307   0.004
 4929SOL     OW15685   1.244   4.964   4.355
 4929SOL    HW115686   1.178   4.992   4.425
 4929SOL    HW215687   1.336   4.992   4.383
 4930SOL     OW15688   0.640   2.029   0.635
 4930SOL    HW115689   0.559   2.081   0.607
 4930SOL    HW215690   0.618   1.971   0.714
 4931SOL     OW15691   0.086   0.353   0.521
 4931SOL    HW115692   0.170   0.334   0.470
 4931SOL    HW215693   0.010   0.363   0.457
 4932SOL     OW15694   2.771   1.898   1.223
 4932SOL    HW115695   2.767   1.992   1.189
 4932SOL    HW215696   2.792   1.836   1.147
 4933SOL     OW15697   2.814   0.976   3.930
 4933SOL    HW115698   2.873   0.932   3.862
 4933SOL    HW215699   2.744   1.030   3.885
 4934SOL     OW15700   0.544   6.155   4.272
 4934SOL    HW115701   0.495   6.094   4.210
 4934SOL    HW215702   0.482   6.185   4.345
 4935SOL     OW15703   1.801   1.597   6.933
 4935SOL    HW115704   1.856   1.615   6.851
 4935SOL    HW215705   1.726   1.662   6.938
 4936SOL     OW15706   3.804   5.978   1.582
 4936SOL    HW115707   3.766   6.006   1.494
 4936SOL    HW215708   3.731   5.976   1.651
 4937SOL     OW15709   0.783   2.365   5.938
 4937SOL    HW115710   0.806   2.462   5.926
 4937SOL    HW215711   0.762   2.347   6.034
 4938SOL     OW15712   3.325   4.533   1.560
 4938SOL    HW115713   3.423   4.522   1.578
 4938SOL    HW215714   3.292   4.615   1.608
 4939SOL     OW15715   1.573   2.269   1.517
 4939SOL    HW115716   1.630   2.248   1.597
 4939SOL    HW215717   1.494   2.323   1.546
 4940SOL     OW15718   0.133   3.031   4.162
 4940SOL    HW115719   0.180   3.106   4.207
 4940SOL    HW215720   0.196   2.986   4.098
 4941SOL     OW15721   3.952   2.340   5.336
 4941SOL    HW115722   3.878   2.368   5.397
 4941SOL    HW215723   3.983   2.420   5.284
 4942SOL     OW15724   5.639   2.438   3.468
 4942SOL    HW115725   5.687   2.479   3.546
 4942SOL    HW215726   5.625   2.341   3.486
 4943SOL     OW15727   5.343   2.983   6.300
 4943SOL    HW115728   5.374   2.960   6.392
 4943SOL    HW215729   5.244   2.967   6.293
 4944SOL     OW15730   1.505   5.375   1.045
 4944SOL    HW115731   1.551   5.305   1.099
 4944SOL    HW215732   1.568   5.450   1.026
 4945SOL     OW15733   2.272   1.044   5.163
 4945SOL    HW115734   2.364   1.015   5.191
 4945SOL    HW215735   2.205   0.979   5.197
 4946SOL     OW15736   1.523   5.245   0.277
 4946SOL    HW115737   1.469   5.314   0.326
 4946SOL    HW215738   1.467   5.203   0.206
 4947SOL     OW15739   1.710   0.983   1.792
 4947SOL    HW115740   1.799   0.938   1.798
 4947SOL    HW215741   1.674   0.995   1.884
 4948SOL     OW15742   1.499   2.600   1.453
 4948SOL    HW115743   1.436   2.523   1.441
 4948SOL    HW215744   1.459   2.682   1.413
 4949SOL     OW15745   6.680   3.306   6.372
 4949SOL    HW115746   6.644   3.234   6.432
 4949SOL    HW215747   6.770   3.278   6.338
 4950SOL     OW15748   2.464   4.779   5.374
 4950SOL    HW115749   2.423   4.799   5.285
 4950SOL    HW215750   2.506   4.688   5.372
 4951SOL     OW15751   4.971   5.373   3.732
 4951SOL    HW115752   5.005   5.327   3.814
 4951SOL    HW215753   5.047   5.417   3.684
 4952SOL     OW15754   0.407   0.196   6.038
 4952SOL    HW115755   0.498   0.220   6.005
 4952SOL    HW215756   0.358   0.145   5.967
 4953SOL     OW15757   1.222   2.041   4.858
 4953SOL    HW115758   1.220   2.064   4.761
 4953SOL    HW215759   1.308   1.994   4.879
 4954SOL     OW15760   3.021   4.023   5.160
 4954SOL    HW115761   3.075   4.065   5.087
 4954SOL    HW215762   2.960   4.092   5.199
 4955SOL     OW15763   3.052   6.218   0.404
 4955SOL    HW115764   3.103   6.247   0.323
 4955SOL    HW215765   3.103   6.145   0.450
 4956SOL     OW15766   2.085   0.678   5.182
 4956SOL    HW115767   2.000   0.668   5.233
 4956SOL    HW215768   2.141   0.596   5.193
 4957SOL     OW15769   6.319   4.156   6.455
 4957SOL    HW115770   6.418   4.140   6.457
 4957SOL    HW215771   6.271   4.069   6.464
 4958SOL     OW15772   2.515   0.228   6.818
 4958SOL    HW115773   2.594   0.230   6.758
 4958SOL    HW215774   2.513   0.311   6.874
 4959SOL     OW15775   0.143   3.190   1.740
 4959SOL    HW115776   0.065   3.252   1.731
 4959SOL    HW215777   0.196   3.191   1.655
 4960SOL     OW15778   4.146   4.837   4.357
 4960SOL    HW115779   4.111   4.897   4.429
 4960SOL    HW215780   4.202   4.765   4.397
 4961SOL     OW15781   3.266   0.758   0.119
 4961SOL    HW115782   3.243   0.697   0.044
 4961SOL    HW215783   3.182   0.793   0.161
 4962SOL     OW15784   0.309   3.802   1.197
 4962SOL    HW115785   0.231   3.859   1.171
 4962SOL    HW215786   0.359   3.775   1.115
 4963SOL     OW15787   0.527   4.245   6.853
 4963SOL    HW115788   0.438   4.242   6.807
 4963SOL    HW215789   0.554   4.152   6.879
 4964SOL     OW15790   2.577   6.608   4.739
 4964SOL    HW115791   2.519   6.529   4.755
 4964SOL    HW215792   2.665   6.596   4.786
 4965SOL     OW15793   1.428   6.684   2.829
 4965SOL    HW115794   1.480   6.748   2.772
 4965SOL    HW215795   1.380   6.619   2.770
 4966SOL     OW15796   3.249   6.308   4.127
 4966SOL    HW115797   3.184   6.318   4.202
 4966SOL    HW215798   3.324   6.249   4.155
 4967SOL     OW15799   3.929   4.598   5.428
 4967SOL    HW115800   3.856   4.633   5.368
 4967SOL    HW215801   3.898   4.601   5.523
 4968SOL     OW15802   0.501   1.819   3.937
 4968SOL    HW115803   0.407   1.800   3.966
 4968SOL    HW215804   0.518   1.777   3.848
 4969SOL     OW15805   0.670   6.089   2.693
 4969SOL    HW115806   0.660   6.158   2.764
 4969SOL    HW215807   0.582   6.044   2.677
 4970SOL     OW15808   1.442   1.004   1.631
 4970SOL    HW115809   1.382   0.957   1.696
 4970SOL    HW215810   1.533   0.964   1.635
 4971SOL     OW15811   6.333   5.821   2.849
 4971SOL    HW115812   6.393   5.866   2.916
 4971SOL    HW215813   6.317   5.883   2.773
 4972SOL     OW15814   1.493   4.174   1.047
 4972SOL    HW115815   1.507   4.254   0.989
 4972SOL    HW215816   1.581   4.145   1.085
 4973SOL     OW15817   0.265   0.933   0.956
 4973SOL    HW115818   0.203   0.956   1.031
 4973SOL    HW215819   0.279   1.013   0.898
 4974SOL     OW15820   3.596   4.747   5.935
 4974SOL    HW115821   3.682   4.779   5.976
 4974SOL    HW215822   3.609   4.657   5.894
 4975SOL     OW15823   5.767   3.528   0.251
 4975SOL    HW115824   5.824   3.534   0.333
 4975SOL    HW215825   5.671   3.522   0.277
 4976SOL     OW15826   1.187   6.561   4.370
 4976SOL    HW115827   1.177   6.593   4.276
 4976SOL    HW215828   1.103   6.580   4.421
 4977SOL     OW15829   2.619   5.361   6.570
 4977SOL    HW115830   2.561   5.442   6.572
 4977SOL    HW215831   2.692   5.374   6.502
 4978SOL     OW15832   5.133   4.252   5.136
 4978SOL    HW115833   5.074   4.204   5.201
 4978SOL    HW215834   5.090   4.339   5.110
 4979SOL     OW15835   1.541   6.956   6.347
 4979SOL    HW115836   1.638   6.936   6.333
 4979SOL    HW215837   1.511   6.917   6.434
 4980SOL     OW15838   6.141   3.869   3.088
 4980SOL    HW115839   6.057   3.855   3.035
 4980SOL    HW215840   6.220   3.850   3.031
 4981SOL     OW15841   3.738   4.848   1.721
 4981SOL    HW115842   3.673   4.816   1.652
 4981SOL    HW215843   3.710   4.814   1.811
 4982SOL     OW15844   4.858   1.421   6.899
 4982SOL    HW115845   4.764   1.389   6.915
 4982SOL    HW215846   4.923   1.355   6.936
 4983SOL     OW15847   6.676   5.181   3.593
 4983SOL    HW115848   6.673   5.252   3.522
 4983SOL    HW215849   6.697   5.223   3.681
 4984SOL     OW15850   4.961   4.404   2.730
 4984SOL    HW115851   5.048   4.439   2.765
 4984SOL    HW215852   4.915   4.476   2.679
 4985SOL     OW15853   5.905   5.686   3.118
 4985SOL    HW115854   5.992   5.641   3.135
 4985SOL    HW215855   5.887   5.752   3.191
 4986SOL     OW15856   0.804   4.841   1.747
 4986SOL    HW115857   0.721   4.797   1.713
 4986SOL    HW215858   0.883   4.807   1.696
 4987SOL     OW15859   1.026   0.271   2.354
 4987SOL    HW115860   0.979   0.199   2.404
 4987SOL    HW215861   0.982   0.359   2.372
 4988SOL     OW15862   5.822   6.757   3.296
 4988SOL    HW115863   5.819   6.850   3.261
 4988SOL    HW215864   5.913   6.738   3.333
 4989SOL     OW15865   5.051   1.336   2.374
 4989SOL    HW115866   5.131   1.356   2.431
 4989SOL    HW215867   5.043   1.404   2.302
 4990SOL     OW15868   4.406   1.460   6.203
 4990SOL    HW115869   4.381   1.505   6.289
 4990SOL    HW215870   4.504   1.439   6.204
 4991SOL     OW15871   1.007   5.899   5.133
 4991SOL    HW115872   0.972   5.902   5.039
 4991SOL    HW215873   1.029   5.805   5.158
 4992SOL     OW15874   0.087   0.899   3.600
 4992SOL    HW115875   0.073   0.964   3.675
 4992SOL    HW215876   0.159   0.835   3.625
 4993SOL     OW15877   4.640   6.008   5.393
 4993SOL    HW115878   4.563   6.070   5.379
 4993SOL    HW215879   4.671   6.012   5.488
 4994SOL     OW15880   3.023   5.113   5.717
 4994SOL    HW115881   2.968   5.179   5.666
 4994SOL    HW215882   2.974   5.086   5.800
 4995SOL     OW15883   0.171   0.473   4.757
 4995SOL    HW115884   0.253   0.473   4.699
 4995SOL    HW215885   0.098   0.524   4.711
 4996SOL     OW15886   0.357   1.578   4.526
 4996SOL    HW115887   0.363   1.656   4.465
 4996SOL    HW215888   0.429   1.583   4.595
 4997SOL     OW15889   3.557   1.819   1.426
 4997SOL    HW115890   3.569   1.821   1.525
 4997SOL    HW215891   3.463   1.792   1.404
 4998SOL     OW15892   1.077   3.411   3.686
 4998SOL    HW115893   1.156   3.426   3.626
 4998SOL    HW215894   1.083   3.319   3.726
 4999SOL     OW15895   1.077   3.915   4.608
 4999SOL    HW115896   1.081   3.817   4.631
 4999SOL    HW215897   1.164   3.943   4.568
 5000SOL     OW15898   3.044   5.818   3.346
 5000SOL    HW115899   3.137   5.781   3.340
 5000SOL    HW215900   2.978   5.746   3.324
 5001SOL     OW15901   1.177   5.121   3.014
 5001SOL    HW115902   1.254   5.081   2.965
 5001SOL    HW215903   1.211   5.173   3.093
 5002SOL     OW15904   0.617   4.133   2.589
 5002SOL    HW115905   0.555   4.097   2.659
 5002SOL    HW215906   0.707   4.147   2.629
 5003SOL     OW15907   4.297   6.027   3.119
 5003SOL    HW115908   4.199   6.031   3.133
 5003SOL    HW215909   4.326   6.108   3.066
 5004SOL     OW15910   3.223   6.072   6.344
 5004SOL    HW115911   3.179   5.986   6.322
 5004SOL    HW215912   3.163   6.148   6.320
 5005SOL     OW15913   3.103   3.183   6.297
 5005SOL    HW115914   3.006   3.211   6.296
 5005SOL    HW215915   3.154   3.240   6.232
 5006SOL     OW15916   5.306   1.496   1.824
 5006SOL    HW115917   5.319   1.582   1.774
 5006SOL    HW215918   5.211   1.465   1.813
 5007SOL     OW15919   6.248   0.854   1.127
 5007SOL    HW115920   6.167   0.803   1.099
 5007SOL    HW215921   6.291   0.896   1.047
 5008SOL     OW15922   6.486   0.228   1.638
 5008SOL    HW115923   6.535   0.149   1.600
 5008SOL    HW215924   6.388   0.216   1.625
 5009SOL     OW15925   0.754   2.620   0.569
 5009SOL    HW115926   0.692   2.699   0.576
 5009SOL    HW215927   0.845   2.646   0.602
 5010SOL     OW15928   3.377   2.617   0.010
 5010SOL    HW115929   3.326   2.568   6.963
 5010SOL    HW215930   3.392   2.556   0.088
 5011SOL     OW15931   1.945   3.596   0.025
 5011SOL    HW115932   2.040   3.626   0.017
 5011SOL    HW215933   1.884   3.673   0.002
 5012SOL     OW15934   5.432   1.997   5.751
 5012SOL    HW115935   5.441   2.075   5.689
 5012SOL    HW215936   5.495   2.008   5.828
 5013SOL     OW15937   6.332   0.423   5.112
 5013SOL    HW115938   6.256   0.363   5.089
 5013SOL    HW215939   6.417   0.370   5.111
 5014SOL     OW15940   6.747   4.123   0.854
 5014SOL    HW115941   6.647   4.130   0.857
 5014SOL    HW215942   6.773   4.029   0.832
 5015SOL     OW15943   5.611   0.566   4.453
 5015SOL    HW115944   5.597   0.488   4.515
 5015SOL    HW215945   5.657   0.640   4.503
 5016SOL     OW15946   1.227   3.640   4.656
 5016SOL    HW115947   1.309   3.682   4.616
 5016SOL    HW215948   1.223   3.544   4.629
 5017SOL     OW15949   0.924   2.427   1.143
 5017SOL    HW115950   0.858   2.421   1.068
 5017SOL    HW215951   0.894   2.497   1.208
 5018SOL     OW15952   0.602   5.217   2.116
 5018SOL    HW115953   0.528   5.150   2.109
 5018SOL    HW215954   0.577   5.299   2.064
 5019SOL     OW15955   1.884   5.838   5.416
 5019SOL    HW115956   1.963   5.812   5.472
 5019SOL    HW215957   1.900   5.811   5.321
 5020SOL     OW15958   0.277   6.592   5.347
 5020SOL    HW115959   0.339   6.670   5.341
 5020SOL    HW215960   0.326   6.513   5.385
 5021SOL     OW15961   1.786   0.821   0.789
 5021SOL    HW115962   1.687   0.824   0.778
 5021SOL    HW215963   1.809   0.835   0.885
 5022SOL     OW15964   0.301   2.944   1.417
 5022SOL    HW115965   0.374   2.970   1.480
 5022SOL    HW215966   0.251   2.866   1.454
 5023SOL     OW15967   0.180   3.772   1.636
 5023SOL    HW115968   0.248   3.841   1.611
 5023SOL    HW215969   0.090   3.815   1.642
 5024SOL     OW15970   5.249   3.956   0.533
 5024SOL    HW115971   5.346   3.954   0.506
 5024SOL    HW215972   5.243   3.957   0.633
 5025SOL     OW15973   4.432   1.743   4.338
 5025SOL    HW115974   4.367   1.794   4.395
 5025SOL    HW215975   4.386   1.712   4.254
 5026SOL     OW15976   6.113   5.809   5.058
 5026SOL    HW115977   6.108   5.744   4.982
 5026SOL    HW215978   6.149   5.897   5.024
 5027SOL     OW15979   5.003   0.770   0.624
 5027SOL    HW115980   5.088   0.721   0.647
 5027SOL    HW215981   4.939   0.763   0.701
 5028SOL     OW15982   0.406   2.149   2.921
 5028SOL    HW115983   0.321   2.123   2.968
 5028SOL    HW215984   0.389   2.230   2.865
 5029SOL     OW15985   6.509   2.662   2.182
 5029SOL    HW115986   6.486   2.569   2.153
 5029SOL    HW215987   6.596   2.689   2.141
 5030SOL     OW15988   6.881   5.921   6.387
 5030SOL    HW115989   6.975   5.936   6.417
 5030SOL    HW215990   6.861   5.983   6.310
 5031SOL     OW15991   6.973   1.225   5.201
 5031SOL    HW115992   7.004   1.306   5.251
 5031SOL    HW215993   0.028   1.168   5.179
 5032SOL     OW15994   3.349   2.235   6.090
 5032SOL    HW115995   3.281   2.298   6.052
 5032SOL    HW215996   3.363   2.159   6.026
 5033SOL     OW15997   2.197   1.307   0.346
 5033SOL    HW115998   2.263   1.367   0.391
 5033SOL    HW215999   2.149   1.252   0.415
 5034SOL     OW16000   4.443   6.663   4.137
 5034SOL    HW116001   4.537   6.676   4.167
 5034SOL    HW216002   4.382   6.664   4.217
 5035SOL     OW16003   6.664   4.293   4.889
 5035SOL    HW116004   6.610   4.283   4.972
 5035SOL    HW216005   6.762   4.285   4.911
 5036SOL     OW16006   6.839   4.112   5.601
 5036SOL    HW116007   6.804   4.109   5.507
 5036SOL    HW216008   6.804   4.194   5.647
 5037SOL     OW16009   4.193   4.464   1.229
 5037SOL    HW116010   4.244   4.524   1.168
 5037SOL    HW216011   4.257   4.410   1.284
 5038SOL     OW16012   3.270   3.269   4.353
 5038SOL    HW116013   3.176   3.264   4.387
 5038SOL    HW216014   3.272   3.238   4.258
 5039SOL     OW16015   1.953   3.554   5.891
 5039SOL    HW116016   1.966   3.518   5.984
 5039SOL    HW216017   1.989   3.488   5.825
 5040SOL     OW16018   1.358   5.149   5.290
 5040SOL    HW116019   1.455   5.128   5.278
 5040SOL    HW216020   1.339   5.240   5.253
 5041SOL     OW16021   0.719   3.182   1.896
 5041SOL    HW116022   0.727   3.233   1.981
 5041SOL    HW216023   0.738   3.243   1.819
 5042SOL     OW16024   0.159   4.091   6.301
 5042SOL    HW116025   0.248   4.134   6.317
 5042SOL    HW216026   0.164   3.994   6.324
 5043SOL     OW16027   4.118   0.642   0.390
 5043SOL    HW116028   4.093   0.678   0.480
 5043SOL    HW216029   4.193   0.577   0.400
 5044SOL     OW16030   6.992   6.173   1.323
 5044SOL    HW116031   6.998   6.096   1.387
 5044SOL    HW216032   0.038   6.163   1.253
 5045SOL     OW16033   6.375   4.620   5.814
 5045SOL    HW116034   6.307   4.661   5.753
 5045SOL    HW216035   6.418   4.691   5.869
 5046SOL     OW16036   3.660   3.744   4.197
 5046SOL    HW116037   3.629   3.777   4.108
 5046SOL    HW216038   3.682   3.646   4.190
 5047SOL     OW16039   2.154   3.356   3.036
 5047SOL    HW116040   2.160   3.322   2.943
 5047SOL    HW216041   2.150   3.279   3.100
 5048SOL     OW16042   1.846   0.816   5.006
 5048SOL    HW116043   1.910   0.748   4.971
 5048SOL    HW216044   1.873   0.842   5.099
 5049SOL     OW16045   6.174   1.079   6.012
 5049SOL    HW116046   6.166   1.043   5.919
 5049SOL    HW216047   6.207   1.006   6.072
 5050SOL     OW16048   1.532   1.595   6.643
 5050SOL    HW116049   1.455   1.591   6.708
 5050SOL    HW216050   1.572   1.504   6.634
 5051SOL     OW16051   3.769   4.509   1.385
 5051SOL    HW116052   3.731   4.563   1.460
 5051SOL    HW216053   3.709   4.516   1.305
 5052SOL     OW16054   3.592   1.952   6.253
 5052SOL    HW116055   3.599   1.936   6.155
 5052SOL    HW216056   3.683   1.945   6.295
 5053SOL     OW16057   0.939   4.979   3.043
 5053SOL    HW116058   1.028   5.017   3.016
 5053SOL    HW216059   0.890   5.046   3.099
 5054SOL     OW16060   3.364   4.892   5.558
 5054SOL    HW116061   3.408   4.937   5.480
 5054SOL    HW216062   3.265   4.895   5.547
 5055SOL     OW16063   0.439   2.884   5.834
 5055SOL    HW116064   0.368   2.947   5.801
 5055SOL    HW216065   0.511   2.877   5.765
 5056SOL     OW16066   4.781   4.050   5.113
 5056SOL    HW116067   4.782   4.067   5.015
 5056SOL    HW216068   4.829   3.965   5.132
 5057SOL     OW16069   1.029   6.990   2.091
 5057SOL    HW116070   0.996   6.934   2.167
 5057SOL    HW216071   1.104   0.024   2.122
 5058SOL     OW16072   3.242   4.701   6.756
 5058SOL    HW116073   3.245   4.666   6.850
 5058SOL    HW216074   3.307   4.776   6.746
 5059SOL     OW16075   6.495   6.649   3.257
 5059SOL    HW116076   6.559   6.588   3.304
 5059SOL    HW216077   6.541   6.691   3.179
 5060SOL     OW16078   6.811   1.930   5.900
 5060SOL    HW116079   6.720   1.969   5.883
 5060SOL    HW216080   6.807   1.831   5.891
 5061SOL     OW16081   4.857   2.370   0.042
 5061SOL    HW116082   4.889   2.434   6.996
 5061SOL    HW216083   4.845   2.418   0.129
 5062SOL     OW16084   0.570   0.056   2.058
 5062SOL    HW116085   0.580   7.020   1.979
 5062SOL    HW216086   0.659   0.066   2.103
 5063SOL     OW16087   0.936   6.680   2.004
 5063SOL    HW116088   1.029   6.681   2.042
 5063SOL    HW216089   0.889   6.764   2.030
 5064SOL     OW16090   4.704   3.198   0.195
 5064SOL    HW116091   4.699   3.199   0.295
 5064SOL    HW216092   4.637   3.263   0.158
 5065SOL     OW16093   3.232   6.970   5.148
 5065SOL    HW116094   3.280   0.028   5.179
 5065SOL    HW216095   3.266   6.944   5.058
 5066SOL     OW16096   5.437   4.133   1.463
 5066SOL    HW116097   5.530   4.126   1.498
 5066SOL    HW216098   5.376   4.076   1.519
 5067SOL     OW16099   5.273   1.583   7.006
 5067SOL    HW116100   5.322   1.665   6.978
 5067SOL    HW216101   5.176   1.604   7.021
 5068SOL     OW16102   3.185   4.374   0.911
 5068SOL    HW116103   3.222   4.457   0.870
 5068SOL    HW216104   3.152   4.313   0.838
 5069SOL     OW16105   1.217   4.379   3.176
 5069SOL    HW116106   1.241   4.377   3.079
 5069SOL    HW216107   1.233   4.470   3.213
 5070SOL     OW16108   5.001   3.692   4.057
 5070SOL    HW116109   4.959   3.778   4.084
 5070SOL    HW216110   4.955   3.616   4.105
 5071SOL     OW16111   4.092   2.167   5.100
 5071SOL    HW116112   4.032   2.145   5.024
 5071SOL    HW216113   4.103   2.267   5.106
 5072SOL     OW16114   6.935   5.113   0.819
 5072SOL    HW116115   6.995   5.036   0.797
 5072SOL    HW216116   6.884   5.093   0.902
 5073SOL     OW16117   6.750   6.810   2.396
 5073SOL    HW116118   6.737   6.764   2.309
 5073SOL    HW216119   6.807   6.753   2.456
 5074SOL     OW16120   2.797   3.861   6.809
 5074SOL    HW116121   2.794   3.945   6.864
 5074SOL    HW216122   2.890   3.826   6.807
 5075SOL     OW16123   6.932   0.701   5.601
 5075SOL    HW116124   6.846   0.745   5.574
 5075SOL    HW216125   7.006   0.769   5.600
 5076SOL     OW16126   3.382   0.407   0.703
 5076SOL    HW116127   3.463   0.361   0.666
 5076SOL    HW216128   3.301   0.375   0.654
 5077SOL     OW16129   1.605   2.427   3.671
 5077SOL    HW116130   1.703   2.421   3.650
 5077SOL    HW216131   1.561   2.488   3.605
 5078SOL     OW16132   1.692   2.188   3.360
 5078SOL    HW116133   1.613   2.215   3.305
 5078SOL    HW216134   1.771   2.244   3.335
 5079SOL     OW16135   2.773   5.406   6.326
 5079SOL    HW116136   2.785   5.362   6.237
 5079SOL    HW216137   2.810   5.499   6.322
 5080SOL     OW16138   5.769   6.618   5.043
 5080SOL    HW116139   5.709   6.606   5.123
 5080SOL    HW216140   5.810   6.530   5.020
 5081SOL     OW16141   3.069   3.849   3.363
 5081SOL    HW116142   3.080   3.948   3.371
 5081SOL    HW216143   3.009   3.828   3.286
 5082SOL     OW16144   5.803   6.669   5.802
 5082SOL    HW116145   5.731   6.738   5.811
 5082SOL    HW216146   5.764   6.578   5.813
 5083SOL     OW16147   1.448   0.084   2.240
 5083SOL    HW116148   1.480   0.141   2.315
 5083SOL    HW216149   1.369   0.127   2.196
 5084SOL     OW16150   1.149   5.014   3.871
 5084SOL    HW116151   1.169   5.047   3.963
 5084SOL    HW216152   1.225   4.956   3.840
 5085SOL     OW16153   5.805   1.131   6.557
 5085SOL    HW116154   5.885   1.140   6.616
 5085SOL    HW216155   5.724   1.117   6.614
 5086SOL     OW16156   6.756   4.912   3.533
 5086SOL    HW116157   6.707   4.868   3.458
 5086SOL    HW216158   6.691   4.961   3.591
 5087SOL     OW16159   6.259   6.179   4.426
 5087SOL    HW116160   6.211   6.096   4.397
 5087SOL    HW216161   6.192   6.250   4.447
 5088SOL     OW16162   6.553   0.933   6.208
 5088SOL    HW116163   6.621   1.004   6.190
 5088SOL    HW216164   6.574   0.852   6.153
 5089SOL     OW16165   6.343   3.117   2.370
 5089SOL    HW116166   6.248   3.106   2.399
 5089SOL    HW216167   6.359   3.212   2.344
 5090SOL     OW16168   2.189   4.445   1.179
 5090SOL    HW116169   2.214   4.354   1.214
 5090SOL    HW216170   2.168   4.438   1.081
 5091SOL     OW16171   1.551   6.184   3.015
 5091SOL    HW116172   1.483   6.256   3.021
 5091SOL    HW216173   1.535   6.130   2.932
 5092SOL     OW16174   3.791   2.345   1.179
 5092SOL    HW116175   3.713   2.289   1.153
 5092SOL    HW216176   3.790   2.360   1.278
 5093SOL     OW16177   1.306   2.467   2.216
 5093SOL    HW116178   1.221   2.414   2.210
 5093SOL    HW216179   1.371   2.433   2.148
 5094SOL     OW16180   1.240   6.906   5.773
 5094SOL    HW116181   1.228   6.813   5.738
 5094SOL    HW216182   1.334   6.937   5.755
 5095SOL     OW16183   1.748   0.552   4.690
 5095SOL    HW116184   1.655   0.514   4.681
 5095SOL    HW216185   1.767   0.610   4.612
 5096SOL     OW16186   5.004   3.503   0.292
 5096SOL    HW116187   5.011   3.585   0.235
 5096SOL    HW216188   4.913   3.500   0.334
 5097SOL     OW16189   1.442   0.648   5.640
 5097SOL    HW116190   1.391   0.581   5.693
 5097SOL    HW216191   1.540   0.635   5.656
 5098SOL     OW16192   0.818   1.184   2.183
 5098SOL    HW116193   0.871   1.263   2.151
 5098SOL    HW216194   0.794   1.197   2.279
 5099SOL     OW16195   0.857   0.513   5.469
 5099SOL    HW116196   0.884   0.540   5.562
 5099SOL    HW216197   0.930   0.459   5.428
 5100SOL     OW16198   5.474   6.784   6.451
 5100SOL    HW116199   5.425   6.776   6.364
 5100SOL    HW216200   5.422   6.842   6.513
 5101SOL     OW16201   4.568   6.783   0.513
 5101SOL    HW116202   4.492   6.820   0.566
 5101SOL    HW216203   4.578   6.686   0.532
 5102SOL     OW16204   5.293   0.949   5.573
 5102SOL    HW116205   5.237   1.012   5.519
 5102SOL    HW216206   5.321   0.994   5.658
 5103SOL     OW16207   0.452   0.571   4.345
 5103SOL    HW116208   0.359   0.596   4.371
 5103SOL    HW216209   0.450   0.506   4.270
 5104SOL     OW16210   2.311   1.217   1.596
 5104SOL    HW116211   2.383   1.199   1.530
 5104SOL    HW216212   2.351   1.241   1.684
 5105SOL     OW16213   4.257   4.246   6.470
 5105SOL    HW116214   4.273   4.338   6.435
 5105SOL    HW216215   4.236   4.185   6.393
 5106SOL     OW16216   3.293   0.191   2.841
 5106SOL    HW116217   3.241   0.201   2.755
 5106SOL    HW216218   3.369   0.128   2.826
 5107SOL     OW16219   2.935   0.295   6.857
 5107SOL    HW116220   3.028   0.259   6.868
 5107SOL    HW216221   2.890   0.248   6.781
 5108SOL     OW16222   3.138   3.861   3.966
 5108SOL    HW116223   3.149   3.923   3.888
 5108SOL    HW216224   3.160   3.911   4.051
 5109SOL     OW16225   0.300   1.332   0.947
 5109SOL    HW116226   0.354   1.335   1.032
 5109SOL    HW216227   0.335   1.259   0.888
 5110SOL     OW16228   2.042   6.655   5.558
 5110SOL    HW116229   2.047   6.630   5.655
 5110SOL    HW216230   2.109   6.601   5.506
 5111SOL     OW16231   1.404   1.771   6.493
 5111SOL    HW116232   1.448   1.702   6.549
 5111SOL    HW216233   1.364   1.728   6.412
 5112SOL     OW16234   0.173   6.304   3.860
 5112SOL    HW116235   0.162   6.213   3.821
 5112SOL    HW216236   0.246   6.353   3.813
 5113SOL     OW16237   1.342   1.113   0.314
 5113SOL    HW116238   1.279   1.177   0.357
 5113SOL    HW216239   1.432   1.120   0.357
 5114SOL     OW16240   3.514   4.822   0.412
 5114SOL    HW116241   3.490   4.896   0.475
 5114SOL    HW216242   3.433   4.765   0.396
 5115SOL     OW16243   1.226   3.578   6.525
 5115SOL    HW116244   1.172   3.662   6.531
 5115SOL    HW216245   1.187   3.517   6.457
 5116SOL     OW16246   5.159   4.708   6.706
 5116SOL    HW116247   5.104   4.648   6.765
 5116SOL    HW216248   5.105   4.735   6.627
 5117SOL     OW16249   2.644   4.755   3.983
 5117SOL    HW116250   2.664   4.694   3.907
 5117SOL    HW216251   2.557   4.728   4.025
 5118SOL     OW16252   4.837   5.910   0.350
 5118SOL    HW116253   4.836   5.831   0.288
 5118SOL    HW216254   4.932   5.937   0.368
 5119SOL     OW16255   5.467   0.889   2.362
 5119SOL    HW116256   5.559   0.857   2.340
 5119SOL    HW216257   5.416   0.816   2.408
 5120SOL     OW16258   5.432   0.857   2.765
 5120SOL    HW116259   5.522   0.870   2.723
 5120SOL    HW216260   5.361   0.879   2.699
 5121SOL     OW16261   0.271   3.407   5.527
 5121SOL    HW116262   0.340   3.362   5.470
 5121SOL    HW216263   0.217   3.470   5.470
 5122SOL     OW16264   2.268   0.126   3.347
 5122SOL    HW116265   2.230   0.034   3.360
 5122SOL    HW216266   2.365   0.118   3.323
 5123SOL     OW16267   4.940   3.939   2.773
 5123SOL    HW116268   4.972   3.865   2.715
 5123SOL    HW216269   4.995   3.943   2.857
 5124SOL     OW16270   2.889   6.465   0.015
 5124SOL    HW116271   2.886   6.521   6.957
 5124SOL    HW216272   2.938   6.514   0.087
 5125SOL     OW16273   0.250   3.661   4.029
 5125SOL    HW116274   0.271   3.564   4.041
 5125SOL    HW216275   0.220   3.678   3.936
 5126SOL     OW16276   5.973   5.095   6.137
 5126SOL    HW116277   6.013   5.007   6.112
 5126SOL    HW216278   5.876   5.083   6.158
 5127SOL     OW16279   5.480   3.390   6.491
 5127SOL    HW116280   5.553   3.354   6.549
 5127SOL    HW216281   5.501   3.485   6.467
 5128SOL     OW16282   1.034   0.879   6.857
 5128SOL    HW116283   1.088   0.862   6.940
 5128SOL    HW216284   1.093   0.866   6.776
 5129SOL     OW16285   5.200   0.490   2.201
 5129SOL    HW116286   5.200   0.426   2.278
 5129SOL    HW216287   5.130   0.560   2.215
 5130SOL     OW16288   1.209   5.583   4.746
 5130SOL    HW116289   1.266   5.646   4.798
 5130SOL    HW216290   1.246   5.575   4.653
 5131SOL     OW16291   3.122   4.864   3.310
 5131SOL    HW116292   3.087   4.891   3.399
 5131SOL    HW216293   3.048   4.829   3.254
 5132SOL     OW16294   3.213   1.369   6.728
 5132SOL    HW116295   3.305   1.407   6.739
 5132SOL    HW216296   3.173   1.354   6.818
 5133SOL     OW16297   4.048   5.512   6.653
 5133SOL    HW116298   4.117   5.538   6.721
 5133SOL    HW216299   4.049   5.578   6.577
 5134SOL     OW16300   6.644   6.825   1.420
 5134SOL    HW116301   6.594   6.766   1.357
 5134SOL    HW216302   6.702   6.888   1.369
 5135SOL     OW16303   6.580   2.879   1.895
 5135SOL    HW116304   6.654   2.812   1.889
 5135SOL    HW216305   6.492   2.831   1.895
 5136SOL     OW16306   1.118   0.865   6.291
 5136SOL    HW116307   1.091   0.775   6.325
 5136SOL    HW216308   1.179   0.908   6.357
 5137SOL     OW16309   5.093   1.965   5.100
 5137SOL    HW116310   5.052   2.051   5.130
 5137SOL    HW216311   5.192   1.968   5.117
 5138SOL     OW16312   3.691   3.464   4.462
 5138SOL    HW116313   3.692   3.492   4.366
 5138SOL    HW216314   3.748   3.526   4.516
 5139SOL     OW16315   1.846   0.417   5.130
 5139SOL    HW116316   1.913   0.427   5.203
 5139SOL    HW216317   1.753   0.416   5.168
 5140SOL     OW16318   4.127   2.172   6.001
 5140SOL    HW116319   4.148   2.121   5.918
 5140SOL    HW216320   4.126   2.270   5.982
 5141SOL     OW16321   6.803   3.022   2.000
 5141SOL    HW116322   6.707   2.995   1.991
 5141SOL    HW216323   6.813   3.118   1.971
 5142SOL     OW16324   6.948   6.908   3.476
 5142SOL    HW116325   6.882   6.933   3.547
 5142SOL    HW216326   7.018   6.979   3.469
 5143SOL     OW16327   0.879   4.974   4.306
 5143SOL    HW116328   0.808   5.035   4.270
 5143SOL    HW216329   0.946   4.956   4.234
 5144SOL     OW16330   1.493   3.531   6.470
 5144SOL    HW116331   1.470   3.529   6.373
 5144SOL    HW216332   1.410   3.546   6.524
 5145SOL     OW16333   2.478   6.572   6.863
 5145SOL    HW116334   2.389   6.543   6.828
 5145SOL    HW216335   2.465   6.639   6.936
 5146SOL     OW16336   4.956   4.672   6.225
 5146SOL    HW116337   4.864   4.641   6.249
 5146SOL    HW216338   4.977   4.644   6.131
 5147SOL     OW16339   4.808   2.990   3.378
 5147SOL    HW116340   4.785   2.896   3.354
 5147SOL    HW216341   4.823   2.997   3.477
 5148SOL     OW16342   0.778   0.248   1.892
 5148SOL    HW116343   0.875   0.267   1.904
 5148SOL    HW216344   0.728   0.280   1.972
 5149SOL     OW16345   5.793   4.305   3.316
 5149SOL    HW116346   5.741   4.388   3.299
 5149SOL    HW216347   5.891   4.325   3.311
 5150SOL     OW16348   0.834   5.155   3.658
 5150SOL    HW116349   0.795   5.144   3.750
 5150SOL    HW216350   0.768   5.124   3.590
 5151SOL     OW16351   6.118   4.462   2.167
 5151SOL    HW116352   6.028   4.429   2.137
 5151SOL    HW216353   6.166   4.389   2.215
 5152SOL     OW16354   1.279   0.430   6.258
 5152SOL    HW116355   1.283   0.513   6.204
 5152SOL    HW216356   1.352   0.368   6.230
 5153SOL     OW16357   1.305   2.138   0.540
 5153SOL    HW116358   1.340   2.228   0.515
 5153SOL    HW216359   1.345   2.110   0.627
 5154SOL     OW16360   0.162   2.844   6.683
 5154SOL    HW116361   0.212   2.765   6.718
 5154SOL    HW216362   0.168   2.845   6.583
 5155SOL     OW16363   2.055   1.174   0.541
 5155SOL    HW116364   2.100   1.085   0.540
 5155SOL    HW216365   2.072   1.220   0.628
 5156SOL     OW16366   5.750   5.043   5.627
 5156SOL    HW116367   5.737   5.007   5.534
 5156SOL    HW216368   5.789   5.134   5.622
 5157SOL     OW16369   3.863   0.852   1.941
 5157SOL    HW116370   3.943   0.827   1.995
 5157SOL    HW216371   3.780   0.823   1.988
 5158SOL     OW16372   3.950   1.438   2.882
 5158SOL    HW116373   3.989   1.448   2.790
 5158SOL    HW216374   4.011   1.385   2.939
 5159SOL     OW16375   5.808   3.377   5.720
 5159SOL    HW116376   5.721   3.354   5.677
 5159SOL    HW216377   5.851   3.453   5.670
 5160SOL     OW16378   6.807   6.311   3.139
 5160SOL    HW116379   6.901   6.344   3.133
 5160SOL    HW216380   6.764   6.346   3.223
 5161SOL     OW16381   1.024   3.096   0.049
 5161SOL    HW116382   1.038   3.084   0.147
 5161SOL    HW216383   0.930   3.125   0.032
 5162SOL     OW16384   6.865   6.609   2.834
 5162SOL    HW116385   6.890   6.584   2.741
 5162SOL    HW216386   6.766   6.627   2.838
 5163SOL     OW16387   3.094   6.417   1.979
 5163SOL    HW116388   3.019   6.408   1.913
 5163SOL    HW216389   3.070   6.370   2.064
 5164SOL     OW16390   3.030   3.796   1.110
 5164SOL    HW116391   3.049   3.878   1.056
 5164SOL    HW216392   2.936   3.799   1.144
 5165SOL     OW16393   1.137   4.708   7.018
 5165SOL    HW116394   1.082   4.786   0.023
 5165SOL    HW216395   1.117   4.686   6.923
 5166SOL     OW16396   1.847   5.487   1.536
 5166SOL    HW116397   1.924   5.444   1.490
 5166SOL    HW216398   1.794   5.417   1.585
 5167SOL     OW16399   4.892   2.727   5.274
 5167SOL    HW116400   4.971   2.769   5.229
 5167SOL    HW216401   4.810   2.745   5.221
 5168SOL     OW16402   4.333   2.389   2.375
 5168SOL    HW116403   4.390   2.430   2.304
 5168SOL    HW216404   4.376   2.304   2.407
 5169SOL     OW16405   3.702   6.903   3.783
 5169SOL    HW116406   3.640   6.979   3.763
 5169SOL    HW216407   3.685   6.870   3.876
 5170SOL     OW16408   1.134   3.479   6.275
 5170SOL    HW116409   1.038   3.506   6.268
 5170SOL    HW216410   1.140   3.383   6.303
 5171SOL     OW16411   1.965   6.083   5.325
 5171SOL    HW116412   2.061   6.081   5.297
 5171SOL    HW216413   1.948   6.012   5.393
 5172SOL     OW16414   0.206   5.597   3.592
 5172SOL    HW116415   0.214   5.641   3.682
 5172SOL    HW216416   0.280   5.628   3.533
 5173SOL     OW16417   4.696   3.626   5.677
 5173SOL    HW116418   4.710   3.557   5.747
 5173SOL    HW216419   4.624   3.596   5.614
 5174SOL     OW16420   2.770   6.791   3.660
 5174SOL    HW116421   2.702   6.863   3.646
 5174SOL    HW216422   2.762   6.723   3.588
 5175SOL     OW16423   2.891   4.555   6.984
 5175SOL    HW116424   2.904   4.641   6.936
 5175SOL    HW216425   2.895   4.479   6.919
 5176SOL     OW16426   5.486   5.466   0.299
 5176SOL    HW116427   5.456   5.500   0.388
 5176SOL    HW216428   5.564   5.519   0.267
 5177SOL     OW16429   4.662   0.628   0.698
 5177SOL    HW116430   4.730   0.656   0.766
 5177SOL    HW216431   4.659   0.696   0.624
 5178SOL     OW16432   0.940   3.601   1.691
 5178SOL    HW116433   0.886   3.528   1.732
 5178SOL    HW216434   0.882   3.681   1.676
 5179SOL     OW16435   6.259   4.171   3.316
 5179SOL    HW116436   6.228   4.082   3.350
 5179SOL    HW216437   6.268   4.168   3.217
 5180SOL     OW16438   2.491   6.889   1.381
 5180SOL    HW116439   2.582   6.848   1.372
 5180SOL    HW216440   2.453   6.868   1.471
 5181SOL     OW16441   0.604   0.515   6.122
 5181SOL    HW116442   0.684   0.568   6.151
 5181SOL    HW216443   0.534   0.576   6.087
 5182SOL     OW16444   4.056   5.181   3.031
 5182SOL    HW116445   4.047   5.251   3.102
 5182SOL    HW216446   3.997   5.204   2.954
 5183SOL     OW16447   4.410   1.747   3.639
 5183SOL    HW116448   4.364   1.793   3.563
 5183SOL    HW216449   4.508   1.745   3.623
 5184SOL     OW16450   2.160   1.383   4.232
 5184SOL    HW116451   2.136   1.287   4.248
 5184SOL    HW216452   2.077   1.437   4.222
 5185SOL     OW16453   5.368   0.816   1.750
 5185SOL    HW116454   5.333   0.881   1.818
 5185SOL    HW216455   5.379   0.726   1.793
 5186SOL     OW16456   6.668   3.216   6.039
 5186SOL    HW116457   6.589   3.154   6.037
 5186SOL    HW216458   6.637   3.310   6.031
 5187SOL     OW16459   1.967   4.907   5.203
 5187SOL    HW116460   1.970   4.929   5.105
 5187SOL    HW216461   2.014   4.821   5.219
 5188SOL     OW16462   6.981   6.757   2.057
 5188SOL    HW116463   6.946   6.664   2.058
 5188SOL    HW216464   6.988   6.789   1.962
 5189SOL     OW16465   5.702   0.237   5.989
 5189SOL    HW116466   5.724   0.295   6.067
 5189SOL    HW216467   5.605   0.245   5.968
 5190SOL     OW16468   1.484   3.306   1.399
 5190SOL    HW116469   1.470   3.237   1.328
 5190SOL    HW216470   1.579   3.305   1.429
 5191SOL     OW16471   3.101   5.500   2.173
 5191SOL    HW116472   3.076   5.547   2.258
 5191SOL    HW216473   3.165   5.426   2.193
 5192SOL     OW16474   2.179   5.352   1.877
 5192SOL    HW116475   2.100   5.397   1.836
 5192SOL    HW216476   2.227   5.415   1.938
 5193SOL     OW16477   6.453   0.772   6.849
 5193SOL    HW116478   6.478   0.758   6.753
 5193SOL    HW216479   6.430   0.683   6.891
 5194SOL     OW16480   4.343   2.269   0.057
 5194SOL    HW116481   4.392   2.295   0.141
 5194SOL    HW216482   4.356   2.172   0.040
 5195SOL     OW16483   6.891   1.037   4.169
 5195SOL    HW116484   6.853   1.118   4.126
 5195SOL    HW216485   6.918   0.971   4.099
 5196SOL     OW16486   5.019   6.350   3.447
 5196SOL    HW116487   4.935   6.307   3.479
 5196SOL    HW216488   5.009   6.450   3.451
 5197SOL     OW16489   1.578   4.423   5.563
 5197SOL    HW116490   1.645   4.368   5.512
 5197SOL    HW216491   1.506   4.454   5.501
 5198SOL     OW16492   4.984   5.567   2.829
 5198SOL    HW116493   5.030   5.478   2.822
 5198SOL    HW216494   4.929   5.569   2.912
 5199SOL     OW16495   6.640   5.239   1.327
 5199SOL    HW116496   6.585   5.216   1.407
 5199SOL    HW216497   6.587   5.225   1.244
 5200SOL     OW16498   0.372   3.840   5.782
 5200SOL    HW116499   0.304   3.840   5.709
 5200SOL    HW216500   0.349   3.770   5.850
 5201SOL     OW16501   1.536   5.548   4.227
 5201SOL    HW116502   1.544   5.522   4.131
 5201SOL    HW216503   1.621   5.591   4.257
 5202SOL     OW16504   6.898   3.744   6.719
 5202SOL    HW116505   6.872   3.832   6.679
 5202SOL    HW216506   6.956   3.694   6.655
 5203SOL     OW16507   0.680   2.373   6.536
 5203SOL    HW116508   0.772   2.340   6.517
 5203SOL    HW216509   0.633   2.308   6.596
 5204SOL     OW16510   4.174   5.170   0.101
 5204SOL    HW116511   4.218   5.259   0.093
 5204SOL    HW216512   4.087   5.171   0.052
 5205SOL     OW16513   1.988   1.103   1.334
 5205SOL    HW116514   2.050   1.082   1.410
 5205SOL    HW216515   2.033   1.081   1.248
 5206SOL     OW16516   0.615   4.308   0.249
 5206SOL    HW116517   0.704   4.264   0.247
 5206SOL    HW216518   0.592   4.344   0.159
 5207SOL     OW16519   1.494   5.349   4.397
 5207SOL    HW116520   1.536   5.267   4.359
 5207SOL    HW216521   1.510   5.426   4.336
 5208SOL     OW16522   3.970   0.575   0.052
 5208SOL    HW116523   3.966   0.640   0.129
 5208SOL    HW216524   4.012   0.490   0.083
 5209SOL     OW16525   6.061   5.650   3.453
 5209SOL    HW116526   6.072   5.567   3.399
 5209SOL    HW216527   6.151   5.683   3.482
 5210SOL     OW16528   5.236   3.906   3.643
 5210SOL    HW116529   5.142   3.893   3.676
 5210SOL    HW216530   5.299   3.862   3.707
 5211SOL     OW16531   3.080   3.472   3.364
 5211SOL    HW116532   3.077   3.502   3.268
 5211SOL    HW216533   3.113   3.547   3.421
 5212SOL     OW16534   0.919   2.080   0.715
 5212SOL    HW116535   0.822   2.055   0.711
 5212SOL    HW216536   0.932   2.167   0.667
 5213SOL     OW16537   4.706   2.422   5.811
 5213SOL    HW116538   4.720   2.408   5.713
 5213SOL    HW216539   4.612   2.400   5.835
 5214SOL     OW16540   5.470   1.672   5.108
 5214SOL    HW116541   5.427   1.738   5.048
 5214SOL    HW216542   5.567   1.695   5.119
 5215SOL     OW16543   5.057   4.388   3.146
 5215SOL    HW116544   5.032   4.458   3.079
 5215SOL    HW216545   5.110   4.429   3.220
 5216SOL     OW16546   5.070   4.670   1.245
 5216SOL    HW116547   4.995   4.605   1.251
 5216SOL    HW216548   5.121   4.653   1.160
 5217SOL     OW16549   3.223   5.216   3.921
 5217SOL    HW116550   3.287   5.184   3.990
 5217SOL    HW216551   3.249   5.307   3.890
 5218SOL     OW16552   1.819   6.380   3.695
 5218SOL    HW116553   1.829   6.326   3.612
 5218SOL    HW216554   1.909   6.412   3.725
 5219SOL     OW16555   3.096   6.795   6.331
 5219SOL    HW116556   3.044   6.734   6.391
 5219SOL    HW216557   3.174   6.834   6.381
 5220SOL     OW16558   1.080   5.829   2.137
 5220SOL    HW116559   1.009   5.845   2.207
 5220SOL    HW216560   1.107   5.733   2.138
 5221SOL     OW16561   5.130   0.924   4.411
 5221SOL    HW116562   5.186   0.965   4.338
 5221SOL    HW216563   5.115   0.992   4.483
 5222SOL     OW16564   2.052   0.508   3.732
 5222SOL    HW116565   2.094   0.485   3.819
 5222SOL    HW216566   2.119   0.497   3.658
 5223SOL     OW16567   4.816   0.190   1.664
 5223SOL    HW116568   4.893   0.234   1.618
 5223SOL    HW216569   4.765   0.259   1.716
 5224SOL     OW16570   6.513   2.069   2.630
 5224SOL    HW116571   6.566   1.991   2.664
 5224SOL    HW216572   6.573   2.147   2.615
 5225SOL     OW16573   6.802   6.891   4.160
 5225SOL    HW116574   6.868   6.892   4.085
 5225SOL    HW216575   6.749   6.806   4.156
 5226SOL     OW16576   0.807   6.165   4.253
 5226SOL    HW116577   0.814   6.262   4.233
 5226SOL    HW216578   0.713   6.143   4.281
 5227SOL     OW16579   6.613   5.583   3.674
 5227SOL    HW116580   6.685   5.533   3.723
 5227SOL    HW216581   6.654   5.654   3.618
 5228SOL     OW16582   5.273   1.707   0.663
 5228SOL    HW116583   5.195   1.648   0.640
 5228SOL    HW216584   5.248   1.765   0.740
 5229SOL     OW16585   0.847   3.918   6.617
 5229SOL    HW116586   0.789   3.978   6.562
 5229SOL    HW216587   0.830   3.823   6.591
 5230SOL     OW16588   0.120   0.690   1.221
 5230SOL    HW116589   0.219   0.688   1.235
 5230SOL    HW216590   0.076   0.631   1.288
 5231SOL     OW16591   3.767   3.218   4.372
 5231SOL    HW116592   3.846   3.236   4.313
 5231SOL    HW216593   3.757   3.292   4.438
 5232SOL     OW16594   4.915   2.357   6.741
 5232SOL    HW116595   4.873   2.282   6.791
 5232SOL    HW216596   4.939   2.431   6.804
 5233SOL     OW16597   6.510   6.079   1.635
 5233SOL    HW116598   6.559   6.090   1.721
 5233SOL    HW216599   6.547   6.142   1.567
 5234SOL     OW16600   3.233   0.313   0.497
 5234SOL    HW116601   3.216   0.371   0.417
 5234SOL    HW216602   3.263   0.223   0.466
 5235SOL     OW16603   2.017   3.327   0.749
 5235SOL    HW116604   1.941   3.262   0.736
 5235SOL    HW216605   1.984   3.406   0.800
 5236SOL     OW16606   5.401   3.237   1.003
 5236SOL    HW116607   5.323   3.243   1.065
 5236SOL    HW216608   5.455   3.321   1.010
 5237SOL     OW16609   2.536   1.930   5.290
 5237SOL    HW116610   2.527   1.966   5.197
 5237SOL    HW216611   2.510   2.002   5.356
 5238SOL     OW16612   1.059   5.174   0.274
 5238SOL    HW116613   1.021   5.261   0.242
 5238SOL    HW216614   1.030   5.158   0.369
 5239SOL     OW16615   3.039   3.145   3.910
 5239SOL    HW116616   3.021   3.154   3.812
 5239SOL    HW216617   3.124   3.193   3.932
 5240SOL     OW16618   2.940   2.487   5.303
 5240SOL    HW116619   2.882   2.462   5.226
 5240SOL    HW216620   3.036   2.478   5.277
 5241SOL     OW16621   1.091   6.356   6.418
 5241SOL    HW116622   0.996   6.376   6.443
 5241SOL    HW216623   1.120   6.271   6.463
 5242SOL     OW16624   6.090   1.261   5.799
 5242SOL    HW116625   6.113   1.201   5.876
 5242SOL    HW216626   6.007   1.312   5.820
 5243SOL     OW16627   1.222   5.881   1.173
 5243SOL    HW116628   1.240   5.954   1.107
 5243SOL    HW216629   1.152   5.820   1.136
 5244SOL     OW16630   3.803   3.922   5.903
 5244SOL    HW116631   3.703   3.917   5.902
 5244SOL    HW216632   3.840   3.854   5.839
 5245SOL     OW16633   4.270   4.033   5.716
 5245SOL    HW116634   4.236   4.102   5.652
 5245SOL    HW216635   4.267   3.943   5.672
 5246SOL     OW16636   0.470   3.207   2.728
 5246SOL    HW116637   0.505   3.272   2.795
 5246SOL    HW216638   0.539   3.193   2.657
 5247SOL     OW16639   6.883   5.226   0.550
 5247SOL    HW116640   6.901   5.211   0.647
 5247SOL    HW216641   6.956   5.186   0.495
 5248SOL     OW16642   5.124   0.697   6.395
 5248SOL    HW116643   5.030   0.693   6.361
 5248SOL    HW216644   5.164   0.786   6.372
 5249SOL     OW16645   0.754   5.270   4.715
 5249SOL    HW116646   0.805   5.290   4.631
 5249SOL    HW216647   0.812   5.215   4.776
 5250SOL     OW16648   0.076   1.586   6.250
 5250SOL    HW116649   0.115   1.641   6.324
 5250SOL    HW216650   0.122   1.609   6.164
 5251SOL     OW16651   6.272   3.616   0.674
 5251SOL    HW116652   6.206   3.541   0.673
 5251SOL    HW216653   6.364   3.580   0.685
 5252SOL     OW16654   2.888   6.261   0.989
 5252SOL    HW116655   2.788   6.263   0.984
 5252SOL    HW216656   2.925   6.346   0.951
 5253SOL     OW16657   5.844   3.663   4.402
 5253SOL    HW116658   5.767   3.601   4.389
 5253SOL    HW216659   5.907   3.655   4.325
 5254SOL     OW16660   4.512   1.126   4.149
 5254SOL    HW116661   4.512   1.043   4.206
 5254SOL    HW216662   4.442   1.189   4.182
 5255SOL     OW16663   3.299   0.252   4.923
 5255SOL    HW116664   3.203   0.241   4.899
 5255SOL    HW216665   3.330   0.343   4.896
 5256SOL     OW16666   5.273   1.101   3.581
 5256SOL    HW116667   5.368   1.085   3.553
 5256SOL    HW216668   5.214   1.103   3.500
 5257SOL     OW16669   3.655   0.020   0.418
 5257SOL    HW116670   3.596   7.010   0.491
 5257SOL    HW216671   3.665   6.974   0.347
 5258SOL     OW16672   5.211   4.196   2.567
 5258SOL    HW116673   5.218   4.108   2.614
 5258SOL    HW216674   5.115   4.223   2.560
 5259SOL     OW16675   4.562   6.199   2.716
 5259SOL    HW116676   4.622   6.162   2.645
 5259SOL    HW216677   4.478   6.232   2.673
 5260SOL     OW16678   5.573   3.708   0.505
 5260SOL    HW116679   5.657   3.760   0.517
 5260SOL    HW216680   5.595   3.610   0.507
 5261SOL     OW16681   0.014   2.418   5.135
 5261SOL    HW116682   7.016   2.505   5.179
 5261SOL    HW216683   0.055   2.356   5.202
 5262SOL     OW16684   2.835   0.132   2.578
 5262SOL    HW116685   2.825   0.202   2.507
 5262SOL    HW216686   2.756   0.071   2.576
 5263SOL     OW16687   1.645   0.179   6.463
 5263SOL    HW116688   1.737   0.176   6.424
 5263SOL    HW216689   1.603   0.088   6.455
 5264SOL     OW16690   6.387   1.298   1.618
 5264SOL    HW116691   6.356   1.248   1.699
 5264SOL    HW216692   6.422   1.387   1.645
 5265SOL     OW16693   5.628   4.545   2.053
 5265SOL    HW116694   5.655   4.499   1.968
 5265SOL    HW216695   5.710   4.580   2.099
 5266SOL     OW16696   1.610   6.266   1.597
 5266SOL    HW116697   1.643   6.281   1.504
 5266SOL    HW216698   1.649   6.182   1.633
 5267SOL     OW16699   4.989   5.083   5.615
 5267SOL    HW116700   4.902   5.126   5.592
 5267SOL    HW216701   5.057   5.153   5.637
 5268SOL     OW16702   6.536   5.413   5.182
 5268SOL    HW116703   6.563   5.483   5.248
 5268SOL    HW216704   6.599   5.336   5.188
 5269SOL     OW16705   1.622   5.874   3.670
 5269SOL    HW116706   1.640   5.962   3.625
 5269SOL    HW216707   1.707   5.836   3.704
 5270SOL     OW16708   5.901   2.557   1.464
 5270SOL    HW116709   5.855   2.642   1.493
 5270SOL    HW216710   5.867   2.481   1.520
 5271SOL     OW16711   4.828   4.888   5.524
 5271SOL    HW116712   4.906   4.950   5.535
 5271SOL    HW216713   4.774   4.887   5.608
 5272SOL     OW16714   0.283   5.765   5.052
 5272SOL    HW116715   0.316   5.842   5.107
 5272SOL    HW216716   0.225   5.706   5.108
 5273SOL     OW16717   0.470   2.137   3.817
 5273SOL    HW116718   0.375   2.153   3.792
 5273SOL    HW216719   0.488   2.177   3.907
 5274SOL     OW16720   6.976   5.101   3.535
 5274SOL    HW116721   7.015   5.130   3.622
 5274SOL    HW216722   6.892   5.049   3.551
 5275SOL     OW16723   2.834   6.965   6.622
 5275SOL    HW116724   2.904   6.924   6.680
 5275SOL    HW216725   2.821   6.908   6.541
 5276SOL     OW16726   0.067   6.902   1.509
 5276SOL    HW116727   0.072   6.929   1.413
 5276SOL    HW216728   0.002   6.827   1.520
 5277SOL     OW16729   1.403   1.996   3.798
 5277SOL    HW116730   1.325   2.009   3.737
 5277SOL    HW216731   1.472   2.066   3.780
 5278SOL     OW16732   6.579   6.882   5.939
 5278SOL    HW116733   6.573   6.866   5.841
 5278SOL    HW216734   6.510   6.949   5.966
 5279SOL     OW16735   1.243   5.712   6.303
 5279SOL    HW116736   1.287   5.799   6.279
 5279SOL    HW216737   1.144   5.720   6.290
 5280SOL     OW16738   3.683   6.338   5.109
 5280SOL    HW116739   3.660   6.418   5.054
 5280SOL    HW216740   3.695   6.259   5.049
 5281SOL     OW16741   1.071   0.275   4.876
 5281SOL    HW116742   1.072   0.181   4.841
 5281SOL    HW216743   1.006   0.329   4.823
 5282SOL     OW16744   1.611   0.071   2.882
 5282SOL    HW116745   1.612   0.044   2.979
 5282SOL    HW216746   1.578   0.165   2.874
 5283SOL     OW16747   0.591   0.668   3.723
 5283SOL    HW116748   0.609   0.633   3.815
 5283SOL    HW216749   0.654   0.627   3.658
 5284SOL     OW16750   5.253   2.330   2.254
 5284SOL    HW116751   5.196   2.257   2.291
 5284SOL    HW216752   5.344   2.294   2.233
 5285SOL     OW16753   0.918   3.112   3.081
 5285SOL    HW116754   0.819   3.118   3.100
 5285SOL    HW216755   0.935   3.037   3.017
 5286SOL     OW16756   6.799   3.501   0.423
 5286SOL    HW116757   6.738   3.579   0.437
 5286SOL    HW216758   6.815   3.489   0.325
 5287SOL     OW16759   3.301   5.321   2.246
 5287SOL    HW116760   3.343   5.374   2.320
 5287SOL    HW216761   3.357   5.240   2.227
 5288SOL     OW16762   5.159   0.241   1.958
 5288SOL    HW116763   5.186   0.331   1.926
 5288SOL    HW216764   5.229   0.204   2.018
 5289SOL     OW16765   2.104   5.470   6.382
 5289SOL    HW116766   2.122   5.453   6.286
 5289SOL    HW216767   2.144   5.397   6.438
 5290SOL     OW16768   1.824   4.307   5.845
 5290SOL    HW116769   1.832   4.380   5.778
 5290SOL    HW216770   1.806   4.346   5.935
 5291SOL     OW16771   2.836   4.764   5.629
 5291SOL    HW116772   2.807   4.668   5.627
 5291SOL    HW216773   2.762   4.822   5.595
 5292SOL     OW16774   6.429   4.004   6.233
 5292SOL    HW116775   6.378   3.955   6.162
 5292SOL    HW216776   6.424   4.102   6.216
 5293SOL     OW16777   2.294   5.188   4.443
 5293SOL    HW116778   2.371   5.124   4.447
 5293SOL    HW216779   2.209   5.137   4.456
 5294SOL     OW16780   4.484   0.765   5.383
 5294SOL    HW116781   4.453   0.798   5.294
 5294SOL    HW216782   4.556   0.697   5.369
 5295SOL     OW16783   3.954   0.868   3.459
 5295SOL    HW116784   4.013   0.820   3.523
 5295SOL    HW216785   3.954   0.820   3.371
 5296SOL     OW16786   3.774   4.079   0.581
 5296SOL    HW116787   3.787   4.175   0.559
 5296SOL    HW216788   3.728   4.033   0.506
 5297SOL     OW16789   2.327   3.688   0.363
 5297SOL    HW116790   2.361   3.718   0.452
 5297SOL    HW216791   2.371   3.602   0.338
 5298SOL     OW16792   2.354   6.004   6.965
 5298SOL    HW116793   2.452   5.990   6.956
 5298SOL    HW216794   2.337   6.089   7.017
 5299SOL     OW16795   3.336   2.264   0.605
 5299SOL    HW116796   3.435   2.268   0.588
 5299SOL    HW216797   3.321   2.226   0.697
 5300SOL     OW16798   1.209   5.091   1.089
 5300SOL    HW116799   1.222   5.034   1.008
 5300SOL    HW216800   1.267   5.057   1.163
 5301SOL     OW16801   4.165   6.949   6.800
 5301SOL    HW116802   4.252   6.990   6.774
 5301SOL    HW216803   4.127   6.998   6.878
 5302SOL     OW16804   5.012   5.811   3.916
 5302SOL    HW116805   4.979   5.901   3.889
 5302SOL    HW216806   4.970   5.741   3.858
 5303SOL     OW16807   0.042   5.242   5.947
 5303SOL    HW116808   6.972   5.209   5.960
 5303SOL    HW216809   0.069   5.225   5.852
 5304SOL     OW16810   6.286   1.017   0.904
 5304SOL    HW116811   6.235   1.087   0.954
 5304SOL    HW216812   6.365   1.059   0.859
 5305SOL     OW16813   1.759   5.199   2.593
 5305SOL    HW116814   1.667   5.190   2.556
 5305SOL    HW216815   1.807   5.274   2.547
 5306SOL     OW16816   0.111   4.379   5.786
 5306SOL    HW116817   0.205   4.413   5.778
 5306SOL    HW216818   0.072   4.368   5.694
 5307SOL     OW16819   4.603   1.970   0.436
 5307SOL    HW116820   4.662   1.907   0.486
 5307SOL    HW216821   4.574   2.045   0.497
 5308SOL     OW16822   1.265   4.414   2.899
 5308SOL    HW116823   1.260   4.341   2.831
 5308SOL    HW216824   1.259   4.503   2.853
 5309SOL     OW16825   3.770   6.057   2.195
 5309SOL    HW116826   3.736   6.004   2.273
 5309SOL    HW216827   3.738   6.151   2.202
 5310SOL     OW16828   6.313   3.276   2.604
 5310SOL    HW116829   6.333   3.193   2.553
 5310SOL    HW216830   6.242   3.329   2.556
 5311SOL     OW16831   5.901   0.667   6.970
 5311SOL    HW116832   5.925   0.622   6.885
 5311SOL    HW216833   5.933   0.613   0.024
 5312SOL     OW16834   0.529   5.919   1.794
 5312SOL    HW116835   0.461   5.967   1.850
 5312SOL    HW216836   0.560   5.979   1.720
 5313SOL     OW16837   0.684   4.804   5.354
 5313SOL    HW116838   0.642   4.779   5.441
 5313SOL    HW216839   0.783   4.810   5.365
 5314SOL     OW16840   5.006   0.186   0.845
 5314SOL    HW116841   5.028   0.117   0.777
 5314SOL    HW216842   4.909   0.208   0.841
 5315SOL     OW16843   4.957   2.735   3.211
 5315SOL    HW116844   4.974   2.742   3.309
 5315SOL    HW216845   4.935   2.640   3.188
 5316SOL     OW16846   0.875   4.103   5.471
 5316SOL    HW116847   0.940   4.027   5.467
 5316SOL    HW216848   0.810   4.087   5.545
 5317SOL     OW16849   6.492   1.364   5.115
 5317SOL    HW116850   6.547   1.319   5.185
 5317SOL    HW216851   6.549   1.429   5.065
 5318SOL     OW16852   0.693   2.702   1.109
 5318SOL    HW116853   0.729   2.642   1.037
 5318SOL    HW216854   0.595   2.685   1.120
 5319SOL     OW16855   4.758   6.515   1.088
 5319SOL    HW116856   4.705   6.503   1.172
 5319SOL    HW216857   4.707   6.572   1.024
 5320SOL     OW16858   4.287   5.747   1.406
 5320SOL    HW116859   4.203   5.749   1.460
 5320SOL    HW216860   4.286   5.823   1.341
 5321SOL     OW16861   2.416   4.545   4.968
 5321SOL    HW116862   2.356   4.626   4.965
 5321SOL    HW216863   2.360   4.462   4.960
 5322SOL     OW16864   5.821   0.185   0.394
 5322SOL    HW116865   5.808   0.184   0.493
 5322SOL    HW216866   5.915   0.212   0.373
 5323SOL     OW16867   4.145   0.900   5.867
 5323SOL    HW116868   4.082   0.822   5.863
 5323SOL    HW216869   4.128   0.960   5.788
 5324SOL     OW16870   2.836   2.134   0.317
 5324SOL    HW116871   2.907   2.173   0.375
 5324SOL    HW216872   2.749   2.136   0.365
 5325SOL     OW16873   2.917   1.315   5.074
 5325SOL    HW116874   2.866   1.399   5.091
 5325SOL    HW216875   3.013   1.337   5.057
 5326SOL     OW16876   6.650   5.832   3.286
 5326SOL    HW116877   6.704   5.805   3.365
 5326SOL    HW216878   6.710   5.857   3.211
 5327SOL     OW16879   5.790   2.543   4.858
 5327SOL    HW116880   5.884   2.565   4.884
 5327SOL    HW216881   5.773   2.446   4.873
 5328SOL     OW16882   3.506   3.435   5.876
 5328SOL    HW116883   3.536   3.446   5.971
 5328SOL    HW216884   3.584   3.406   5.821
 5329SOL     OW16885   0.640   5.402   6.676
 5329SOL    HW116886   0.618   5.448   6.590
 5329SOL    HW216887   0.623   5.304   6.667
 5330SOL     OW16888   3.859   4.722   0.141
 5330SOL    HW116889   3.845   4.820   0.127
 5330SOL    HW216890   3.864   4.704   0.239
 5331SOL     OW16891   6.256   2.042   6.787
 5331SOL    HW116892   6.214   2.098   6.716
 5331SOL    HW216893   6.193   2.035   6.865
 5332SOL     OW16894   1.319   3.863   1.626
 5332SOL    HW116895   1.335   3.778   1.576
 5332SOL    HW216896   1.243   3.913   1.584
 5333SOL     OW16897   1.700   1.199   2.926
 5333SOL    HW116898   1.724   1.253   3.006
 5333SOL    HW216899   1.611   1.230   2.891
 5334SOL     OW16900   3.053   0.571   5.258
 5334SOL    HW116901   3.113   0.558   5.337
 5334SOL    HW216902   3.051   0.669   5.234
 5335SOL     OW16903   6.533   6.170   0.983
 5335SOL    HW116904   6.456   6.146   1.042
 5335SOL    HW216905   6.614   6.117   1.009
 5336SOL     OW16906   1.715   3.532   2.385
 5336SOL    HW116907   1.676   3.624   2.392
 5336SOL    HW216908   1.752   3.518   2.293
 5337SOL     OW16909   5.042   3.750   1.273
 5337SOL    HW116910   5.013   3.736   1.178
 5337SOL    HW216911   4.977   3.706   1.335
 5338SOL     OW16912   5.564   1.386   6.637
 5338SOL    HW116913   5.559   1.474   6.685
 5338SOL    HW216914   5.651   1.342   6.656
 5339SOL     OW16915   6.557   1.419   3.773
 5339SOL    HW116916   6.655   1.402   3.775
 5339SOL    HW216917   6.531   1.477   3.850
 5340SOL     OW16918   6.270   3.181   0.435
 5340SOL    HW116919   6.182   3.210   0.472
 5340SOL    HW216920   6.284   3.084   0.456
 5341SOL     OW16921   3.887   2.341   6.100
 5341SOL    HW116922   3.904   2.283   6.180
 5341SOL    HW216923   3.963   2.406   6.089
 5342SOL     OW16924   3.946   0.516   4.924
 5342SOL    HW116925   3.937   0.610   4.957
 5342SOL    HW216926   3.884   0.502   4.847
 5343SOL     OW16927   3.372   3.514   3.643
 5343SOL    HW116928   3.309   3.575   3.595
 5343SOL    HW216929   3.355   3.420   3.617
 5344SOL     OW16930   1.836   2.723   2.671
 5344SOL    HW116931   1.741   2.703   2.647
 5344SOL    HW216932   1.852   2.822   2.666
 5345SOL     OW16933   4.529   5.843   1.545
 5345SOL    HW116934   4.579   5.757   1.532
 5345SOL    HW216935   4.438   5.834   1.504
 5346SOL     OW16936   2.952   6.249   3.480
 5346SOL    HW116937   3.043   6.244   3.519
 5346SOL    HW216938   2.926   6.160   3.442
 5347SOL     OW16939   0.057   2.272   2.493
 5347SOL    HW116940   0.123   2.198   2.483
 5347SOL    HW216941   0.103   2.353   2.529
 5348SOL     OW16942   0.964   1.678   0.639
 5348SOL    HW116943   1.024   1.757   0.627
 5348SOL    HW216944   0.918   1.657   0.552
 5349SOL     OW16945   1.146   2.488   0.612
 5349SOL    HW116946   1.081   2.412   0.602
 5349SOL    HW216947   1.144   2.545   0.531
 5350SOL     OW16948   2.261   0.323   6.206
 5350SOL    HW116949   2.193   0.329   6.279
 5350SOL    HW216950   2.349   0.295   6.244
 5351SOL     OW16951   5.372   5.658   1.659
 5351SOL    HW116952   5.339   5.662   1.753
 5351SOL    HW216953   5.426   5.575   1.646
 5352SOL     OW16954   1.900   5.772   3.710
 5352SOL    HW116955   1.960   5.692   3.714
 5352SOL    HW216956   1.954   5.853   3.687
 5353SOL     OW16957   3.907   5.903   4.701
 5353SOL    HW116958   3.843   5.832   4.731
 5353SOL    HW216959   3.985   5.905   4.764
 5354SOL     OW16960   2.144   4.607   2.275
 5354SOL    HW116961   2.242   4.623   2.264
 5354SOL    HW216962   2.093   4.667   2.213
 5355SOL     OW16963   4.860   2.507   4.006
 5355SOL    HW116964   4.865   2.581   3.939
 5355SOL    HW216965   4.858   2.419   3.958
 5356SOL     OW16966   5.975   4.080   1.442
 5356SOL    HW116967   5.963   4.009   1.373
 5356SOL    HW216968   6.038   4.150   1.408
 5357SOL     OW16969   3.803   0.618   1.291
 5357SOL    HW116970   3.731   0.659   1.235
 5357SOL    HW216971   3.853   0.691   1.339
 5358SOL     OW16972   4.364   2.200   1.314
 5358SOL    HW116973   4.429   2.234   1.247
 5358SOL    HW216974   4.277   2.250   1.304
 5359SOL     OW16975   2.111   1.819   0.127
 5359SOL    HW116976   2.206   1.843   0.150
 5359SOL    HW216977   2.109   1.725   0.091
 5360SOL     OW16978   3.846   6.560   4.791
 5360SOL    HW116979   3.789   6.521   4.718
 5360SOL    HW216980   3.908   6.628   4.752
 5361SOL     OW16981   2.350   0.041   4.996
 5361SOL    HW116982   2.356   0.136   4.963
 5361SOL    HW216983   2.313   0.040   5.089
 5362SOL     OW16984   5.004   4.424   3.543
 5362SOL    HW116985   5.017   4.326   3.561
 5362SOL    HW216986   5.068   4.454   3.473
 5363SOL     OW16987   0.807   6.203   6.118
 5363SOL    HW116988   0.831   6.168   6.208
 5363SOL    HW216989   0.771   6.296   6.126
 5364SOL     OW16990   6.519   5.588   1.036
 5364SOL    HW116991   6.550   5.671   0.989
 5364SOL    HW216992   6.445   5.612   1.099
 5365SOL     OW16993   4.077   3.183   6.709
 5365SOL    HW116994   4.008   3.132   6.759
 5365SOL    HW216995   4.112   3.128   6.633
 5366SOL     OW16996   5.128   4.639   0.965
 5366SOL    HW116997   5.224   4.665   0.964
 5366SOL    HW216998   5.107   4.585   0.883
 5367SOL     OW16999   0.332   5.135   0.571
 5367SOL    HW117000   0.345   5.211   0.635
 5367SOL    HW217001   0.361   5.163   0.480
 5368SOL     OW17002   5.100   1.521   3.054
 5368SOL    HW117003   5.092   1.449   2.985
 5368SOL    HW217004   5.011   1.562   3.069
 5369SOL     OW17005   2.847   6.387   3.259
 5369SOL    HW117006   2.909   6.398   3.182
 5369SOL    HW217007   2.896   6.345   3.336
 5370SOL     OW17008   3.925   3.191   1.692
 5370SOL    HW117009   3.825   3.186   1.694
 5370SOL    HW217010   3.963   3.110   1.737
 5371SOL     OW17011   1.859   3.718   4.468
 5371SOL    HW117012   1.946   3.755   4.502
 5371SOL    HW217013   1.845   3.626   4.505
 5372SOL     OW17014   2.350   5.448   2.372
 5372SOL    HW117015   2.293   5.481   2.447
 5372SOL    HW217016   2.293   5.402   2.304
 5373SOL     OW17017   3.090   4.959   4.005
 5373SOL    HW117018   3.160   4.975   4.074
 5373SOL    HW217019   3.092   5.033   3.938
 5374SOL     OW17020   1.184   3.466   0.007
 5374SOL    HW117021   1.203   3.496   6.938
 5374SOL    HW217022   1.212   3.537   0.072
 5375SOL     OW17023   0.927   4.959   5.116
 5375SOL    HW117024   0.916   4.971   5.214
 5375SOL    HW217025   0.898   4.867   5.090
 5376SOL     OW17026   1.612   3.051   1.328
 5376SOL    HW117027   1.613   3.094   1.238
 5376SOL    HW217028   1.680   3.095   1.387
 5377SOL     OW17029   6.993   6.906   1.818
 5377SOL    HW117030   0.060   6.945   1.833
 5377SOL    HW217031   6.944   6.960   1.749
 5378SOL     OW17032   6.805   0.607   1.564
 5378SOL    HW117033   6.790   0.703   1.540
 5378SOL    HW217034   6.749   0.584   1.643
 5379SOL     OW17035   0.555   5.387   4.196
 5379SOL    HW117036   0.472   5.332   4.180
 5379SOL    HW217037   0.530   5.484   4.201
 5380SOL     OW17038   1.966   1.102   3.309
 5380SOL    HW117039   2.030   1.174   3.334
 5380SOL    HW217040   1.894   1.140   3.252
 5381SOL     OW17041   6.683   3.728   0.117
 5381SOL    HW117042   6.612   3.669   0.155
 5381SOL    HW217043   6.672   3.733   0.018
 5382SOL     OW17044   3.130   0.201   2.105
 5382SOL    HW117045   3.227   0.220   2.117
 5382SOL    HW217046   3.117   0.149   2.021
 5383SOL     OW17047   2.945   2.115   5.187
 5383SOL    HW117048   2.953   2.101   5.286
 5383SOL    HW217049   3.014   2.180   5.157
 5384SOL     OW17050   6.165   1.066   3.877
 5384SOL    HW117051   6.121   0.978   3.856
 5384SOL    HW217052   6.213   1.099   3.795
 5385SOL     OW17053   3.248   3.959   3.031
 5385SOL    HW117054   3.310   4.001   3.097
 5385SOL    HW217055   3.188   4.029   2.991
 5386SOL     OW17056   5.102   6.535   4.027
 5386SOL    HW117057   5.177   6.482   4.067
 5386SOL    HW217058   5.039   6.472   3.979
 5387SOL     OW17059   2.094   6.038   3.405
 5387SOL    HW117060   2.049   6.123   3.431
 5387SOL    HW217061   2.040   5.991   3.335
 5388SOL     OW17062   5.067   6.565   3.119
 5388SOL    HW117063   4.974   6.533   3.137
 5388SOL    HW217064   5.066   6.664   3.104
 5389SOL     OW17065   4.858   0.793   1.492
 5389SOL    HW117066   4.943   0.821   1.447
 5389SOL    HW217067   4.831   0.863   1.558
 5390SOL     OW17068   4.425   5.173   4.240
 5390SOL    HW117069   4.346   5.162   4.300
 5390SOL    HW217070   4.508   5.150   4.290
 5391SOL     OW17071   2.441   2.046   0.686
 5391SOL    HW117072   2.468   2.029   0.781
 5391SOL    HW217073   2.523   2.061   0.631
 5392SOL     OW17074   6.439   3.891   0.521
 5392SOL    HW117075   6.368   3.905   0.591
 5392SOL    HW217076   6.499   3.971   0.518
 5393SOL     OW17077   6.417   6.681   6.843
 5393SOL    HW117078   6.333   6.682   6.898
 5393SOL    HW217079   6.460   6.771   6.846
 5394SOL     OW17080   6.881   3.756   6.122
 5394SOL    HW117081   6.831   3.821   6.179
 5394SOL    HW217082   6.846   3.759   6.029
 5395SOL     OW17083   4.540   0.870   1.845
 5395SOL    HW117084   4.465   0.937   1.847
 5395SOL    HW217085   4.615   0.907   1.791
 5396SOL     OW17086   4.991   3.470   2.781
 5396SOL    HW117087   4.961   3.484   2.875
 5396SOL    HW217088   4.971   3.376   2.753
 5397SOL     OW17089   6.840   3.150   1.519
 5397SOL    HW117090   6.927   3.124   1.479
 5397SOL    HW217091   6.855   3.213   1.596
 5398SOL     OW17092   3.742   1.586   1.705
 5398SOL    HW117093   3.752   1.552   1.798
 5398SOL    HW217094   3.829   1.623   1.673
 5399SOL     OW17095   1.909   6.380   0.536
 5399SOL    HW117096   1.951   6.467   0.508
 5399SOL    HW217097   1.980   6.310   0.545
 5400SOL     OW17098   3.048   4.031   0.960
 5400SOL    HW117099   3.092   4.015   0.872
 5400SOL    HW217100   2.957   4.069   0.945
 5401SOL     OW17101   5.727   3.273   1.119
 5401SOL    HW117102   5.799   3.269   1.050
 5401SOL    HW217103   5.667   3.351   1.101
 5402SOL     OW17104   2.479   5.887   1.995
 5402SOL    HW117105   2.439   5.827   2.064
 5402SOL    HW217106   2.452   5.856   1.904
 5403SOL     OW17107   6.437   3.042   6.437
 5403SOL    HW117108   6.436   3.038   6.337
 5403SOL    HW217109   6.528   3.019   6.471
 5404SOL     OW17110   0.959   2.141   3.118
 5404SOL    HW117111   0.903   2.059   3.129
 5404SOL    HW217112   0.909   2.208   3.064
 5405SOL     OW17113   6.364   5.916   0.266
 5405SOL    HW117114   6.458   5.890   0.246
 5405SOL    HW217115   6.342   5.893   0.361
 5406SOL     OW17116   2.415   1.628   6.203
 5406SOL    HW117117   2.369   1.546   6.168
 5406SOL    HW217118   2.364   1.710   6.174
 5407SOL     OW17119   4.759   3.499   0.405
 5407SOL    HW117120   4.779   3.542   0.493
 5407SOL    HW217121   4.661   3.507   0.386
 5408SOL     OW17122   2.448   1.350   5.945
 5408SOL    HW117123   2.529   1.328   5.892
 5408SOL    HW217124   2.366   1.322   5.894
 5409SOL     OW17125   5.196   6.997   3.475
 5409SOL    HW117126   5.132   0.043   3.445
 5409SOL    HW217127   5.285   0.016   3.495
 5410SOL     OW17128   2.732   2.386   1.733
 5410SOL    HW117129   2.670   2.376   1.811
 5410SOL    HW217130   2.824   2.406   1.766
 5411SOL     OW17131   6.646   4.848   5.807
 5411SOL    HW117132   6.742   4.837   5.831
 5411SOL    HW217133   6.634   4.831   5.709
 5412SOL     OW17134   5.107   2.132   0.755
 5412SOL    HW117135   5.206   2.123   0.763
 5412SOL    HW217136   5.074   2.200   0.821
 5413SOL     OW17137   2.971   1.183   1.238
 5413SOL    HW117138   2.983   1.271   1.283
 5413SOL    HW217139   2.993   1.191   1.141
 5414SOL     OW17140   5.317   2.092   4.713
 5414SOL    HW117141   5.229   2.122   4.751
 5414SOL    HW217142   5.354   2.165   4.655
 5415SOL     OW17143   0.498   5.882   1.433
 5415SOL    HW117144   0.540   5.968   1.461
 5415SOL    HW217145   0.537   5.852   1.346
 5416SOL     OW17146   5.013   5.332   6.009
 5416SOL    HW117147   4.949   5.405   6.029
 5416SOL    HW217148   4.966   5.258   5.961
 5417SOL     OW17149   3.569   6.869   5.737
 5417SOL    HW117150   3.646   6.808   5.720
 5417SOL    HW217151   3.596   6.939   5.803
 5418SOL     OW17152   3.446   0.456   3.413
 5418SOL    HW117153   3.493   0.544   3.424
 5418SOL    HW217154   3.357   0.471   3.369
 5419SOL     OW17155   3.331   5.377   0.308
 5419SOL    HW117156   3.234   5.362   0.291
 5419SOL    HW217157   3.370   5.432   0.234
 5420SOL     OW17158   2.134   3.242   2.795
 5420SOL    HW117159   2.172   3.252   2.703
 5420SOL    HW217160   2.114   3.146   2.812
 5421SOL     OW17161   1.408   3.480   1.949
 5421SOL    HW117162   1.433   3.537   2.028
 5421SOL    HW217163   1.330   3.520   1.903
 5422SOL     OW17164   0.106   4.957   0.706
 5422SOL    HW117165   0.067   4.900   0.634
 5422SOL    HW217166   0.171   5.022   0.665
 5423SOL     OW17167   6.997   3.391   6.791
 5423SOL    HW117168   6.899   3.380   6.802
 5423SOL    HW217169   7.016   3.471   6.734
 5424SOL     OW17170   5.393   2.938   3.404
 5424SOL    HW117171   5.316   2.990   3.441
 5424SOL    HW217172   5.471   2.999   3.389
 5425SOL     OW17173   4.069   1.067   4.772
 5425SOL    HW117174   4.166   1.057   4.797
 5425SOL    HW217175   4.063   1.099   4.677
 5426SOL     OW17176   6.056   5.691   4.436
 5426SOL    HW117177   6.012   5.638   4.363
 5426SOL    HW217178   6.132   5.639   4.474
 5427SOL     OW17179   5.008   5.374   6.532
 5427SOL    HW117180   5.098   5.363   6.491
 5427SOL    HW217181   4.967   5.460   6.502
 5428SOL     OW17182   6.820   0.000   1.342
 5428SOL    HW117183   6.841   0.048   1.427
 5428SOL    HW217184   6.857   0.052   1.265
 5429SOL     OW17185   2.278   2.054   6.541
 5429SOL    HW117186   2.376   2.042   6.556
 5429SOL    HW217187   2.261   2.143   6.497
 5430SOL     OW17188   0.227   3.026   5.747
 5430SOL    HW117189   0.257   3.066   5.661
 5430SOL    HW217190   0.143   2.974   5.732
 5431SOL     OW17191   3.112   6.115   1.003
 5431SOL    HW117192   3.113   6.036   1.065
 5431SOL    HW217193   3.032   6.171   1.023
 5432SOL     OW17194   5.509   0.692   6.557
 5432SOL    HW117195   5.593   0.742   6.576
 5432SOL    HW217196   5.430   0.748   6.584
 5433SOL     OW17197   0.222   1.924   4.586
 5433SOL    HW117198   0.243   1.986   4.510
 5433SOL    HW217199   0.124   1.927   4.605
 5434SOL     OW17200   3.199   0.875   5.643
 5434SOL    HW117201   3.193   0.781   5.610
 5434SOL    HW217202   3.160   0.937   5.575
 5435SOL     OW17203   6.068   6.763   1.912
 5435SOL    HW117204   6.032   6.688   1.968
 5435SOL    HW217205   6.163   6.744   1.888
 5436SOL     OW17206   5.267   3.693   4.033
 5436SOL    HW117207   5.170   3.693   4.058
 5436SOL    HW217208   5.301   3.599   4.032
 5437SOL     OW17209   2.743   4.039   0.293
 5437SOL    HW117210   2.814   4.009   0.229
 5437SOL    HW217211   2.775   4.028   0.386
 5438SOL     OW17212   6.751   2.729   2.087
 5438SOL    HW117213   6.815   2.802   2.066
 5438SOL    HW217214   6.776   2.686   2.174
 5439SOL     OW17215   1.155   2.223   1.678
 5439SOL    HW117216   1.089   2.150   1.662
 5439SOL    HW217217   1.177   2.268   1.591
 5440SOL     OW17218   1.169   1.383   0.808
 5440SOL    HW117219   1.230   1.312   0.773
 5440SOL    HW217220   1.216   1.471   0.808
 5441SOL     OW17221   4.423   2.302   3.499
 5441SOL    HW117222   4.518   2.272   3.510
 5441SOL    HW217223   4.402   2.312   3.402
 5442SOL     OW17224   3.841   6.416   3.300
 5442SOL    HW117225   3.926   6.453   3.336
 5442SOL    HW217226   3.810   6.340   3.358
 5443SOL     OW17227   3.966   0.131   4.366
 5443SOL    HW117228   4.039   0.182   4.320
 5443SOL    HW217229   3.928   0.063   4.303
 5444SOL     OW17230   1.137   0.607   4.439
 5444SOL    HW117231   1.138   0.605   4.339
 5444SOL    HW217232   1.143   0.701   4.471
 5445SOL     OW17233   6.494   3.800   3.357
 5445SOL    HW117234   6.552   3.733   3.404
 5445SOL    HW217235   6.551   3.858   3.298
 5446SOL     OW17236   6.583   5.251   4.620
 5446SOL    HW117237   6.558   5.345   4.599
 5446SOL    HW217238   6.537   5.189   4.556
 5447SOL     OW17239   3.009   2.120   6.972
 5447SOL    HW117240   3.010   2.120   0.048
 5447SOL    HW217241   2.992   2.212   6.939
 5448SOL     OW17242   4.077   3.163   5.419
 5448SOL    HW117243   4.041   3.114   5.498
 5448SOL    HW217244   4.039   3.125   5.335
 5449SOL     OW17245   1.565   3.202   6.507
 5449SOL    HW117246   1.531   3.138   6.437
 5449SOL    HW217247   1.594   3.287   6.462
 5450SOL     OW17248   1.936   0.843   1.895
 5450SOL    HW117249   2.032   0.872   1.890
 5450SOL    HW217250   1.931   0.753   1.938
 5451SOL     OW17251   1.982   5.933   3.187
 5451SOL    HW117252   1.919   5.857   3.200
 5451SOL    HW217253   1.932   6.014   3.159
 5452SOL     OW17254   2.376   4.791   6.908
 5452SOL    HW117255   2.380   4.749   6.818
 5452SOL    HW217256   2.287   4.836   6.920
 5453SOL     OW17257   6.151   4.097   0.529
 5453SOL    HW117258   6.222   4.115   0.460
 5453SOL    HW217259   6.184   4.028   0.594
 5454SOL     OW17260   0.115   4.339   6.696
 5454SOL    HW117261   0.079   4.323   6.787
 5454SOL    HW217262   0.164   4.426   6.694
 5455SOL     OW17263   6.360   3.268   6.561
 5455SOL    HW117264   6.395   3.205   6.491
 5455SOL    HW217265   6.385   3.361   6.537
 5456SOL     OW17266   3.418   6.553   6.961
 5456SOL    HW117267   3.439   6.543   6.864
 5456SOL    HW217268   3.487   6.507   7.016
 5457SOL     OW17269   5.631   2.273   0.797
 5457SOL    HW117270   5.709   2.322   0.836
 5457SOL    HW217271   5.665   2.201   0.736
 5458SOL     OW17272   0.402   4.857   0.090
 5458SOL    HW117273   0.464   4.788   0.051
 5458SOL    HW217274   0.454   4.919   0.149
 5459SOL     OW17275   2.056   4.868   6.894
 5459SOL    HW117276   2.110   4.850   6.976
 5459SOL    HW217277   1.961   4.886   6.920
 5460SOL     OW17278   3.110   0.079   2.618
 5460SOL    HW117279   3.146   0.116   2.532
 5460SOL    HW217280   3.011   0.094   2.622
 5461SOL     OW17281   6.265   6.196   5.080
 5461SOL    HW117282   6.301   6.179   5.172
 5461SOL    HW217283   6.288   6.290   5.052
 5462SOL     OW17284   1.076   0.464   0.336
 5462SOL    HW117285   1.072   0.365   0.324
 5462SOL    HW217286   1.141   0.486   0.409
 5463SOL     OW17287   6.079   2.022   0.001
 5463SOL    HW117288   6.118   1.931   0.016
 5463SOL    HW217289   6.042   2.057   0.087
 5464SOL     OW17290   1.734   0.342   4.337
 5464SOL    HW117291   1.729   0.440   4.318
 5464SOL    HW217292   1.796   0.326   4.413
 5465SOL     OW17293   3.484   7.004   3.337
 5465SOL    HW117294   3.556   6.937   3.318
 5465SOL    HW217295   3.499   0.020   3.427
 5466SOL     OW17296   5.721   4.427   5.060
 5466SOL    HW117297   5.716   4.332   5.031
 5466SOL    HW217298   5.629   4.460   5.081
 5467SOL     OW17299   5.122   2.110   3.394
 5467SOL    HW117300   5.221   2.108   3.413
 5467SOL    HW217301   5.107   2.119   3.296
 5468SOL     OW17302   5.291   1.648   4.659
 5468SOL    HW117303   5.261   1.744   4.656
 5468SOL    HW217304   5.353   1.631   4.582
 5469SOL     OW17305   3.807   5.441   6.845
 5469SOL    HW117306   3.877   5.446   6.774
 5469SOL    HW217307   3.733   5.381   6.815
 5470SOL     OW17308   2.193   5.346   3.034
 5470SOL    HW117309   2.138   5.366   3.115
 5470SOL    HW217310   2.168   5.256   2.999
 5471SOL     OW17311   5.861   0.014   1.398
 5471SOL    HW117312   5.857   6.938   1.393
 5471SOL    HW217313   5.777   0.053   1.360
 5472SOL     OW17314   4.057   4.209   5.906
 5472SOL    HW117315   4.155   4.221   5.889
 5472SOL    HW217316   4.030   4.117   5.881
 5473SOL     OW17317   0.674   3.732   3.493
 5473SOL    HW117318   0.714   3.797   3.428
 5473SOL    HW217319   0.748   3.678   3.535
 5474SOL     OW17320   1.418   4.477   4.417
 5474SOL    HW117321   1.351   4.527   4.361
 5474SOL    HW217322   1.370   4.410   4.473
 5475SOL     OW17323   3.162   2.523   0.538
 5475SOL    HW117324   3.137   2.563   0.627
 5475SOL    HW217325   3.201   2.432   0.552
 5476SOL     OW17326   2.396   3.564   6.475
 5476SOL    HW117327   2.390   3.663   6.464
 5476SOL    HW217328   2.481   3.541   6.521
 5477SOL     OW17329   1.798   3.558   3.347
 5477SOL    HW117330   1.851   3.637   3.381
 5477SOL    HW217331   1.856   3.501   3.290
 5478SOL     OW17332   5.248   5.524   5.266
 5478SOL    HW117333   5.334   5.498   5.224
 5478SOL    HW217334   5.173   5.477   5.221
 5479SOL     OW17335   4.698   0.945   5.394
 5479SOL    HW117336   4.611   0.898   5.406
 5479SOL    HW217337   4.685   1.024   5.334
 5480SOL     OW17338   0.153   3.401   4.043
 5480SOL    HW117339   0.103   3.331   3.993
 5480SOL    HW217340   0.176   3.366   4.134
 5481SOL     OW17341   3.384   0.545   4.269
 5481SOL    HW117342   3.403   0.447   4.260
 5481SOL    HW217343   3.438   0.596   4.202
 5482SOL     OW17344   3.781   4.210   1.658
 5482SOL    HW117345   3.850   4.282   1.674
 5482SOL    HW217346   3.809   4.154   1.581
 5483SOL     OW17347   0.929   3.211   5.351
 5483SOL    HW117348   0.934   3.309   5.333
 5483SOL    HW217349   1.017   3.179   5.386
 5484SOL     OW17350   4.787   0.237   4.932
 5484SOL    HW117351   4.717   0.231   5.004
 5484SOL    HW217352   4.753   0.193   4.849
 5485SOL     OW17353   3.290   6.734   5.394
 5485SOL    HW117354   3.324   6.640   5.383
 5485SOL    HW217355   3.215   6.734   5.460
 5486SOL     OW17356   2.529   5.828   5.062
 5486SOL    HW117357   2.497   5.904   5.005
 5486SOL    HW217358   2.603   5.780   5.015
 5487SOL     OW17359   2.784   4.557   6.038
 5487SOL    HW117360   2.687   4.538   6.049
 5487SOL    HW217361   2.796   4.645   5.993
 5488SOL     OW17362   6.944   1.204   0.549
 5488SOL    HW117363   6.960   1.202   0.648
 5488SOL    HW217364   6.860   1.155   0.528
 5489SOL     OW17365   6.367   3.392   2.346
 5489SOL    HW117366   6.306   3.435   2.413
 5489SOL    HW217367   6.453   3.442   2.344
 5490SOL     OW17368   2.065   6.932   2.610
 5490SOL    HW117369   2.147   6.898   2.565
 5490SOL    HW217370   2.046   0.002   2.581
 5491SOL     OW17371   6.892   3.041   0.800
 5491SOL    HW117372   6.913   3.077   0.710
 5491SOL    HW217373   6.824   3.099   0.844
 5492SOL     OW17374   1.308   3.675   5.869
 5492SOL    HW117375   1.357   3.597   5.831
 5492SOL    HW217376   1.221   3.688   5.822
 5493SOL     OW17377   4.084   3.637   2.139
 5493SOL    HW117378   4.045   3.598   2.222
 5493SOL    HW217379   4.140   3.717   2.162
 5494SOL     OW17380   5.944   4.300   5.408
 5494SOL    HW117381   5.964   4.293   5.310
 5494SOL    HW217382   5.908   4.391   5.429
 5495SOL     OW17383   6.072   1.072   0.597
 5495SOL    HW117384   6.069   0.981   0.639
 5495SOL    HW217385   5.981   1.114   0.602
 5496SOL     OW17386   4.025   0.774   4.152
 5496SOL    HW117387   4.073   0.841   4.208
 5496SOL    HW217388   3.998   0.696   4.210
 5497SOL     OW17389   0.346   1.191   5.700
 5497SOL    HW117390   0.314   1.107   5.746
 5497SOL    HW217391   0.445   1.192   5.696
 5498SOL     OW17392   0.248   5.085   1.678
 5498SOL    HW117393   0.334   5.132   1.662
 5498SOL    HW217394   0.172   5.149   1.670
 5499SOL     OW17395   0.295   0.939   3.862
 5499SOL    HW117396   0.311   0.922   3.764
 5499SOL    HW217397   0.349   1.018   3.891
 5500SOL     OW17398   1.913   1.190   0.056
 5500SOL    HW117399   1.901   1.105   0.106
 5500SOL    HW217400   1.831   1.211   0.004
 5501SOL     OW17401   3.995   2.209   0.215
 5501SOL    HW117402   3.942   2.169   0.290
 5501SOL    HW217403   4.058   2.277   0.251
 5502SOL     OW17404   5.055   3.752   6.397
 5502SOL    HW117405   5.098   3.843   6.402
 5502SOL    HW217406   5.064   3.716   6.305
 5503SOL     OW17407   0.427   3.823   0.309
 5503SOL    HW117408   0.482   3.839   0.391
 5503SOL    HW217409   0.331   3.837   0.330
 5504SOL     OW17410   4.004   0.947   6.452
 5504SOL    HW117411   3.991   0.927   6.355
 5504SOL    HW217412   4.006   0.861   6.504
 5505SOL     OW17413   2.300   4.173   4.111
 5505SOL    HW117414   2.325   4.185   4.207
 5505SOL    HW217415   2.264   4.081   4.096
 5506SOL     OW17416   0.162   3.717   6.056
 5506SOL    HW117417   0.071   3.758   6.061
 5506SOL    HW217418   0.158   3.622   6.085
 5507SOL     OW17419   3.543   0.568   5.944
 5507SOL    HW117420   3.482   0.573   6.023
 5507SOL    HW217421   3.574   0.660   5.920
 5508SOL     OW17422   1.118   1.159   6.997
 5508SOL    HW117423   1.020   1.175   6.982
 5508SOL    HW217424   1.138   1.062   6.982
 5509SOL     OW17425   0.341   5.175   1.391
 5509SOL    HW117426   0.261   5.222   1.352
 5509SOL    HW217427   0.369   5.222   1.475
 5510SOL     OW17428   4.947   5.583   0.385
 5510SOL    HW117429   4.914   5.497   0.345
 5510SOL    HW217430   5.016   5.623   0.324
 5511SOL     OW17431   0.424   1.729   4.942
 5511SOL    HW117432   0.463   1.819   4.923
 5511SOL    HW217433   0.347   1.712   4.879
 5512SOL     OW17434   3.259   1.117   1.792
 5512SOL    HW117435   3.203   1.080   1.866
 5512SOL    HW217436   3.216   1.099   1.704
 5513SOL     OW17437   3.882   4.822   6.318
 5513SOL    HW117438   3.843   4.730   6.308
 5513SOL    HW217439   3.962   4.818   6.378
 5514SOL     OW17440   3.309   6.445   5.351
 5514SOL    HW117441   3.304   6.418   5.254
 5514SOL    HW217442   3.217   6.452   5.388
 5515SOL     OW17443   2.055   5.724   2.061
 5515SOL    HW117444   2.034   5.674   1.977
 5515SOL    HW217445   2.151   5.708   2.087
 5516SOL     OW17446   2.518   2.736   5.203
 5516SOL    HW117447   2.515   2.728   5.103
 5516SOL    HW217448   2.489   2.828   5.230
 5517SOL     OW17449   1.725   3.827   2.526
 5517SOL    HW117450   1.773   3.893   2.584
 5517SOL    HW217451   1.645   3.871   2.485
 5518SOL     OW17452   5.035   4.488   5.607
 5518SOL    HW117453   4.948   4.529   5.633
 5518SOL    HW217454   5.065   4.527   5.520
 5519SOL     OW17455   4.655   2.686   3.755
 5519SOL    HW117456   4.609   2.649   3.674
 5519SOL    HW217457   4.754   2.682   3.742
 5520SOL     OW17458   5.786   6.355   2.267
 5520SOL    HW117459   5.751   6.282   2.325
 5520SOL    HW217460   5.874   6.327   2.228
 5521SOL     OW17461   6.311   4.920   2.115
 5521SOL    HW117462   6.370   4.992   2.079
 5521SOL    HW217463   6.312   4.842   2.051
 5522SOL     OW17464   5.716   5.317   1.879
 5522SOL    HW117465   5.636   5.258   1.869
 5522SOL    HW217466   5.688   5.413   1.874
 5523SOL     OW17467   5.670   0.918   2.676
 5523SOL    HW117468   5.752   0.916   2.734
 5523SOL    HW217469   5.696   0.925   2.580
 5524SOL     OW17470   3.406   0.647   5.179
 5524SOL    HW117471   3.333   0.583   5.154
 5524SOL    HW217472   3.492   0.615   5.139
 5525SOL     OW17473   6.419   2.762   0.919
 5525SOL    HW117474   6.428   2.853   0.960
 5525SOL    HW217475   6.500   2.742   0.864
 5526SOL     OW17476   4.804   4.282   2.992
 5526SOL    HW117477   4.872   4.310   2.924
 5526SOL    HW217478   4.823   4.188   3.021
 5527SOL     OW17479   5.014   2.800   4.020
 5527SOL    HW117480   5.048   2.802   4.114
 5527SOL    HW217481   4.917   2.826   4.019
 5528SOL     OW17482   1.209   1.800   1.570
 5528SOL    HW117483   1.222   1.879   1.510
 5528SOL    HW217484   1.115   1.767   1.562
 5529SOL     OW17485   2.567   0.814   2.660
 5529SOL    HW117486   2.599   0.907   2.679
 5529SOL    HW217487   2.501   0.817   2.586
 5530SOL     OW17488   6.543   2.465   1.353
 5530SOL    HW117489   6.612   2.536   1.338
 5530SOL    HW217490   6.483   2.458   1.273
 5531SOL     OW17491   3.673   3.637   1.258
 5531SOL    HW117492   3.578   3.619   1.234
 5531SOL    HW217493   3.721   3.550   1.270
 5532SOL     OW17494   2.199   2.513   1.267
 5532SOL    HW117495   2.243   2.424   1.262
 5532SOL    HW217496   2.242   2.576   1.203
 5533SOL     OW17497   4.322   1.238   4.496
 5533SOL    HW117498   4.324   1.337   4.502
 5533SOL    HW217499   4.403   1.200   4.541
 5534SOL     OW17500   0.799   1.076   5.295
 5534SOL    HW117501   0.720   1.125   5.258
 5534SOL    HW217502   0.779   1.044   5.387
 5535SOL     OW17503   1.040   1.627   2.691
 5535SOL    HW117504   0.957   1.598   2.740
 5535SOL    HW217505   1.084   1.700   2.743
 5536SOL     OW17506   2.545   1.225   5.415
 5536SOL    HW117507   2.503   1.311   5.384
 5536SOL    HW217508   2.644   1.234   5.413
 5537SOL     OW17509   3.666   1.505   2.867
 5537SOL    HW117510   3.648   1.603   2.859
 5537SOL    HW217511   3.764   1.489   2.875
 5538SOL     OW17512   4.704   5.758   4.798
 5538SOL    HW117513   4.803   5.750   4.791
 5538SOL    HW217514   4.681   5.848   4.836
 5539SOL     OW17515   2.521   2.681   0.641
 5539SOL    HW117516   2.452   2.731   0.694
 5539SOL    HW217517   2.494   2.585   0.634
 5540SOL     OW17518   5.233   5.126   2.912
 5540SOL    HW117519   5.273   5.149   3.001
 5540SOL    HW217520   5.298   5.148   2.839
 5541SOL     OW17521   5.004   1.543   6.170
 5541SOL    HW117522   5.039   1.629   6.133
 5541SOL    HW217523   5.064   1.510   6.242
 5542SOL     OW17524   3.685   5.141   6.335
 5542SOL    HW117525   3.683   5.241   6.338
 5542SOL    HW217526   3.617   5.108   6.270
 5543SOL     OW17527   6.089   3.122   6.414
 5543SOL    HW117528   6.094   3.196   6.482
 5543SOL    HW217529   6.112   3.159   6.324
 5544SOL     OW17530   5.840   1.077   5.465
 5544SOL    HW117531   5.793   1.057   5.551
 5544SOL    HW217532   5.919   1.016   5.455
 5545SOL     OW17533   3.932   2.082   2.420
 5545SOL    HW117534   3.919   2.111   2.325
 5545SOL    HW217535   4.007   2.016   2.424
 5546SOL     OW17536   1.715   5.312   5.863
 5546SOL    HW117537   1.752   5.380   5.926
 5546SOL    HW217538   1.628   5.277   5.898
 5547SOL     OW17539   3.279   5.179   5.796
 5547SOL    HW117540   3.189   5.149   5.766
 5547SOL    HW217541   3.342   5.101   5.799
 5548SOL     OW17542   6.379   3.583   5.149
 5548SOL    HW117543   6.349   3.488   5.143
 5548SOL    HW217544   6.301   3.641   5.174
 5549SOL     OW17545   2.799   4.830   0.032
 5549SOL    HW117546   2.736   4.758   0.063
 5549SOL    HW217547   2.747   4.909   7.024
 5550SOL     OW17548   3.640   6.146   1.369
 5550SOL    HW117549   3.547   6.137   1.403
 5550SOL    HW217550   3.674   6.238   1.390
 5551SOL     OW17551   1.518   1.978   3.410
 5551SOL    HW117552   1.564   2.067   3.416
 5551SOL    HW217553   1.494   1.960   3.315
 5552SOL     OW17554   0.173   2.407   1.438
 5552SOL    HW117555   0.135   2.315   1.425
 5552SOL    HW217556   0.264   2.400   1.480
 5553SOL     OW17557   5.134   6.132   0.741
 5553SOL    HW117558   5.039   6.150   0.717
 5553SOL    HW217559   5.157   6.037   0.718
 5554SOL     OW17560   2.762   1.793   5.040
 5554SOL    HW117561   2.847   1.822   4.996
 5554SOL    HW217562   2.726   1.869   5.095
 5555SOL     OW17563   0.133   4.951   3.297
 5555SOL    HW117564   0.056   4.964   3.360
 5555SOL    HW217565   0.102   4.963   3.203
 5556SOL     OW17566   0.586   2.090   5.339
 5556SOL    HW117567   0.683   2.068   5.340
 5556SOL    HW217568   0.535   2.017   5.384
 5557SOL     OW17569   2.050   6.771   3.875
 5557SOL    HW117570   2.131   6.802   3.925
 5557SOL    HW217571   2.072   6.687   3.826
 5558SOL     OW17572   5.104   2.905   5.166
 5558SOL    HW117573   5.174   2.959   5.118
 5558SOL    HW217574   5.104   2.930   5.263
 5559SOL     OW17575   2.034   0.669   0.763
 5559SOL    HW117576   2.111   0.718   0.806
 5559SOL    HW217577   1.960   0.733   0.746
 5560SOL     OW17578   0.218   1.186   3.573
 5560SOL    HW117579   0.200   1.214   3.668
 5560SOL    HW217580   0.153   1.115   3.547
 5561SOL     OW17581   1.388   2.861   3.533
 5561SOL    HW117582   1.455   2.896   3.467
 5561SOL    HW217583   1.304   2.915   3.528
 5562SOL     OW17584   2.822   3.272   6.266
 5562SOL    HW117585   2.810   3.371   6.258
 5562SOL    HW217586   2.784   3.227   6.186
 5563SOL     OW17587   4.826   5.869   2.301
 5563SOL    HW117588   4.893   5.832   2.365
 5563SOL    HW217589   4.737   5.877   2.347
 5564SOL     OW17590   5.161   3.704   1.593
 5564SOL    HW117591   5.097   3.762   1.644
 5564SOL    HW217592   5.185   3.624   1.648
 5565SOL     OW17593   3.264   2.616   5.643
 5565SOL    HW117594   3.330   2.629   5.718
 5565SOL    HW217595   3.311   2.576   5.564
 5566SOL     OW17596   1.928   4.764   1.031
 5566SOL    HW117597   1.873   4.715   0.963
 5566SOL    HW217598   1.963   4.849   0.992
 5567SOL     OW17599   1.426   5.255   2.103
 5567SOL    HW117600   1.430   5.208   2.015
 5567SOL    HW217601   1.426   5.354   2.088
 5568SOL     OW17602   3.494   1.262   1.804
 5568SOL    HW117603   3.549   1.194   1.853
 5568SOL    HW217604   3.399   1.232   1.800
 5569SOL     OW17605   4.493   1.979   6.990
 5569SOL    HW117606   4.411   1.956   6.938
 5569SOL    HW217607   4.546   1.895   7.007
 5570SOL     OW17608   6.807   4.362   5.802
 5570SOL    HW117609   6.904   4.337   5.804
 5570SOL    HW217610   6.798   4.459   5.823
 5571SOL     OW17611   6.733   5.338   6.750
 5571SOL    HW117612   6.646   5.310   6.790
 5571SOL    HW217613   6.807   5.320   6.815
 5572SOL     OW17614   4.626   2.592   6.392
 5572SOL    HW117615   4.542   2.542   6.370
 5572SOL    HW217616   4.611   2.690   6.378
 5573SOL     OW17617   1.463   3.627   0.616
 5573SOL    HW117618   1.549   3.583   0.593
 5573SOL    HW217619   1.421   3.580   0.694
 5574SOL     OW17620   0.777   5.830   5.424
 5574SOL    HW117621   0.758   5.925   5.451
 5574SOL    HW217622   0.869   5.805   5.453
 5575SOL     OW17623   1.491   1.425   0.866
 5575SOL    HW117624   1.534   1.335   0.855
 5575SOL    HW217625   1.545   1.480   0.931
 5576SOL     OW17626   6.116   6.521   0.301
 5576SOL    HW117627   6.052   6.445   0.311
 5576SOL    HW217628   6.209   6.485   0.296
 5577SOL     OW17629   1.989   3.966   5.300
 5577SOL    HW117630   1.942   4.024   5.366
 5577SOL    HW217631   2.031   3.888   5.346
 5578SOL     OW17632   4.235   2.634   0.103
 5578SOL    HW117633   4.316   2.676   0.143
 5578SOL    HW217634   4.250   2.616   0.006
 5579SOL     OW17635   4.866   4.062   6.668
 5579SOL    HW117636   4.871   3.963   6.661
 5579SOL    HW217637   4.805   4.087   6.743
 5580SOL     OW17638   6.081   1.617   0.484
 5580SOL    HW117639   6.130   1.675   0.549
 5580SOL    HW217640   5.998   1.581   0.527
 5581SOL     OW17641   2.550   2.054   6.546
 5581SOL    HW117642   2.556   2.048   6.447
 5581SOL    HW217643   2.628   2.107   6.581
 5582SOL     OW17644   3.940   3.126   3.726
 5582SOL    HW117645   3.879   3.176   3.666
 5582SOL    HW217646   3.893   3.046   3.764
 5583SOL     OW17647   3.832   0.030   1.293
 5583SOL    HW117648   3.868   6.989   1.227
 5583SOL    HW217649   3.799   0.112   1.246
 5584SOL     OW17650   6.590   3.026   3.222
 5584SOL    HW117651   6.539   3.043   3.138
 5584SOL    HW217652   6.618   2.930   3.224
 5585SOL     OW17653   6.048   0.248   4.358
 5585SOL    HW117654   5.963   0.200   4.380
 5585SOL    HW217655   6.126   0.192   4.385
 5586SOL     OW17656   1.825   0.847   5.808
 5586SOL    HW117657   1.911   0.893   5.831
 5586SOL    HW217658   1.749   0.902   5.842
 5587SOL     OW17659   3.572   0.055   4.027
 5587SOL    HW117660   3.557   6.980   4.020
 5587SOL    HW217661   3.655   0.080   3.977
 5588SOL     OW17662   3.445   0.071   6.075
 5588SOL    HW117663   3.388   7.017   6.049
 5588SOL    HW217664   3.536   0.061   6.035
 5589SOL     OW17665   4.537   2.866   6.703
 5589SOL    HW117666   4.524   2.960   6.735
 5589SOL    HW217667   4.632   2.838   6.720
 5590SOL     OW17668   6.900   6.119   3.722
 5590SOL    HW117669   6.979   6.122   3.783
 5590SOL    HW217670   6.824   6.073   3.767
 5591SOL     OW17671   5.143   1.024   0.328
 5591SOL    HW117672   5.111   1.092   0.262
 5591SOL    HW217673   5.094   1.035   0.414
 5592SOL     OW17674   1.942   3.423   2.749
 5592SOL    HW117675   2.014   3.357   2.767
 5592SOL    HW217676   1.979   3.501   2.699
 5593SOL     OW17677   1.854   3.205   5.888
 5593SOL    HW117678   1.771   3.220   5.942
 5593SOL    HW217679   1.926   3.267   5.921
 5594SOL     OW17680   1.806   0.870   6.890
 5594SOL    HW117681   1.884   0.859   6.828
 5594SOL    HW217682   1.838   0.901   6.979
 5595SOL     OW17683   6.733   2.258   5.743
 5595SOL    HW117684   6.823   2.223   5.768
 5595SOL    HW217685   6.662   2.194   5.775
 5596SOL     OW17686   4.856   0.935   3.473
 5596SOL    HW117687   4.846   0.839   3.498
 5596SOL    HW217688   4.766   0.976   3.457
 5597SOL     OW17689   0.191   0.865   6.159
 5597SOL    HW117690   0.163   0.908   6.073
 5597SOL    HW217691   0.125   0.794   6.184
 5598SOL     OW17692   6.403   1.841   3.553
 5598SOL    HW117693   6.356   1.754   3.539
 5598SOL    HW217694   6.477   1.828   3.619
 5599SOL     OW17695   4.999   3.119   3.007
 5599SOL    HW117696   4.934   3.043   3.002
 5599SOL    HW217697   5.008   3.149   3.102
 5600SOL     OW17698   2.591   1.777   2.238
 5600SOL    HW117699   2.508   1.730   2.210
 5600SOL    HW217700   2.662   1.710   2.260
 5601SOL     OW17701   5.588   2.442   5.589
 5601SOL    HW117702   5.584   2.432   5.688
 5601SOL    HW217703   5.517   2.506   5.559
 5602SOL     OW17704   0.406   1.950   2.686
 5602SOL    HW117705   0.315   1.956   2.644
 5602SOL    HW217706   0.421   2.029   2.746
 5603SOL     OW17707   3.962   2.016   4.724
 5603SOL    HW117708   3.906   1.948   4.676
 5603SOL    HW217709   4.006   1.973   4.803
 5604SOL     OW17710   0.958   0.412   4.284
 5604SOL    HW117711   0.897   0.467   4.341
 5604SOL    HW217712   1.035   0.379   4.339
 5605SOL     OW17713   2.739   6.286   4.206
 5605SOL    HW117714   2.815   6.333   4.161
 5605SOL    HW217715   2.699   6.219   4.143
 5606SOL     OW17716   4.665   2.324   0.736
 5606SOL    HW117717   4.742   2.386   0.748
 5606SOL    HW217718   4.580   2.370   0.761
 5607SOL     OW17719   6.457   2.388   2.632
 5607SOL    HW117720   6.424   2.340   2.551
 5607SOL    HW217721   6.379   2.422   2.685
 5608SOL     OW17722   5.091   0.766   3.890
 5608SOL    HW117723   5.055   0.750   3.982
 5608SOL    HW217724   5.059   0.854   3.856
 5609SOL     OW17725   6.452   0.235   0.828
 5609SOL    HW117726   6.377   0.277   0.777
 5609SOL    HW217727   6.509   0.306   0.870
 5610SOL     OW17728   5.229   4.714   0.033
 5610SOL    HW117729   5.223   4.668   6.968
 5610SOL    HW217730   5.265   4.650   0.101
 5611SOL     OW17731   6.922   4.702   1.106
 5611SOL    HW117732   6.901   4.612   1.067
 5611SOL    HW217733   6.840   4.740   1.148
 5612SOL     OW17734   2.865   1.199   0.511
 5612SOL    HW117735   2.857   1.175   0.414
 5612SOL    HW217736   2.960   1.190   0.540
 5613SOL     OW17737   6.767   5.486   5.599
 5613SOL    HW117738   6.852   5.485   5.653
 5613SOL    HW217739   6.708   5.560   5.632
 5614SOL     OW17740   5.463   2.433   3.877
 5614SOL    HW117741   5.503   2.344   3.899
 5614SOL    HW217742   5.381   2.448   3.932
 5615SOL     OW17743   0.207   3.100   3.230
 5615SOL    HW117744   0.242   3.060   3.315
 5615SOL    HW217745   0.227   3.040   3.153
 5616SOL     OW17746   1.498   3.378   2.794
 5616SOL    HW117747   1.555   3.375   2.876
 5616SOL    HW217748   1.557   3.380   2.713
 5617SOL     OW17749   1.658   5.025   6.312
 5617SOL    HW117750   1.722   5.094   6.279
 5617SOL    HW217751   1.592   5.004   6.240
 5618SOL     OW17752   6.798   5.880   3.058
 5618SOL    HW117753   6.760   5.958   3.010
 5618SOL    HW217754   6.895   5.894   3.074
 5619SOL     OW17755   3.654   2.952   4.331
 5619SOL    HW117756   3.649   3.049   4.355
 5619SOL    HW217757   3.565   2.909   4.346
 5620SOL     OW17758   4.714   4.724   5.072
 5620SOL    HW117759   4.692   4.632   5.041
 5620SOL    HW217760   4.762   4.719   5.160
 5621SOL     OW17761   1.419   2.349   5.547
 5621SOL    HW117762   1.369   2.410   5.485
 5621SOL    HW217763   1.354   2.303   5.607
 5622SOL     OW17764   4.418   6.214   4.620
 5622SOL    HW117765   4.397   6.290   4.559
 5622SOL    HW217766   4.513   6.221   4.652
 5623SOL     OW17767   4.871   5.605   3.788
 5623SOL    HW117768   4.877   5.516   3.743
 5623SOL    HW217769   4.792   5.656   3.753
 5624SOL     OW17770   6.530   5.550   4.279
 5624SOL    HW117771   6.457   5.612   4.252
 5624SOL    HW217772   6.544   5.482   4.206
 5625SOL     OW17773   0.781   6.109   5.515
 5625SOL    HW117774   0.764   6.204   5.544
 5625SOL    HW217775   0.878   6.098   5.495
 5626SOL     OW17776   1.104   4.522   4.950
 5626SOL    HW117777   1.190   4.529   4.901
 5626SOL    HW217778   1.106   4.441   5.009
 5627SOL     OW17779   1.047   5.553   6.885
 5627SOL    HW117780   1.135   5.506   6.876
 5627SOL    HW217781   1.056   5.630   6.948
 5628SOL     OW17782   2.116   2.283   2.028
 5628SOL    HW117783   2.159   2.222   1.961
 5628SOL    HW217784   2.131   2.248   2.120
 5629SOL     OW17785   5.353   3.829   1.429
 5629SOL    HW117786   5.302   3.870   1.354
 5629SOL    HW217787   5.289   3.780   1.490
 5630SOL     OW17788   1.226   4.421   0.011
 5630SOL    HW117789   1.182   4.507   7.011
 5630SOL    HW217790   1.293   4.436   0.084
 5631SOL     OW17791   3.944   1.092   1.612
 5631SOL    HW117792   3.883   1.107   1.533
 5631SOL    HW217793   4.024   1.151   1.604
 5632SOL     OW17794   5.601   6.837   5.817
 5632SOL    HW117795   5.531   6.829   5.747
 5632SOL    HW217796   5.650   6.924   5.805
 5633SOL     OW17797   0.833   5.489   6.039
 5633SOL    HW117798   0.820   5.394   6.064
 5633SOL    HW217799   0.819   5.500   5.940
 5634SOL     OW17800   2.443   6.884   0.902
 5634SOL    HW117801   2.521   6.835   0.942
 5634SOL    HW217802   2.473   6.932   0.820
 5635SOL     OW17803   1.640   0.913   6.144
 5635SOL    HW117804   1.711   0.984   6.139
 5635SOL    HW217805   1.599   0.901   6.054
 5636SOL     OW17806   6.013   1.517   5.318
 5636SOL    HW117807   5.980   1.440   5.374
 5636SOL    HW217808   6.113   1.518   5.319
 5637SOL     OW17809   4.380   6.447   4.788
 5637SOL    HW117810   4.370   6.428   4.886
 5637SOL    HW217811   4.392   6.362   4.738
 5638SOL     OW17812   6.140   5.498   1.105
 5638SOL    HW117813   6.139   5.597   1.087
 5638SOL    HW217814   6.169   5.450   1.023
 5639SOL     OW17815   1.193   0.414   0.945
 5639SOL    HW117816   1.194   0.509   0.978
 5639SOL    HW217817   1.229   0.411   0.852
 5640SOL     OW17818   2.698   5.657   2.962
 5640SOL    HW117819   2.644   5.668   2.878
 5640SOL    HW217820   2.635   5.650   3.040
 5641SOL     OW17821   0.680   4.381   4.135
 5641SOL    HW117822   0.652   4.455   4.195
 5641SOL    HW217823   0.674   4.294   4.184
 5642SOL     OW17824   1.378   4.809   0.088
 5642SOL    HW117825   1.292   4.771   0.053
 5642SOL    HW217826   1.453   4.784   0.028
 5643SOL     OW17827   4.348   1.870   4.756
 5643SOL    HW117828   4.295   1.875   4.671
 5643SOL    HW217829   4.401   1.955   4.766
 5644SOL     OW17830   3.929   0.768   5.075
 5644SOL    HW117831   3.900   0.859   5.047
 5644SOL    HW217832   3.941   0.766   5.174
 5645SOL     OW17833   5.289   5.152   4.055
 5645SOL    HW117834   5.259   5.057   4.062
 5645SOL    HW217835   5.209   5.210   4.039
 5646SOL     OW17836   0.576   6.462   4.475
 5646SOL    HW117837   0.584   6.368   4.507
 5646SOL    HW217838   0.479   6.485   4.462
 5647SOL     OW17839   5.657   5.362   5.931
 5647SOL    HW117840   5.685   5.362   6.027
 5647SOL    HW217841   5.597   5.440   5.914
 5648SOL     OW17842   1.553   1.899   4.298
 5648SOL    HW117843   1.533   1.995   4.314
 5648SOL    HW217844   1.486   1.861   4.234
 5649SOL     OW17845   0.473   0.988   5.182
 5649SOL    HW117846   0.536   1.040   5.123
 5649SOL    HW217847   0.383   0.985   5.139
 5650SOL     OW17848   6.208   5.005   6.590
 5650SOL    HW117849   6.151   5.037   6.514
 5650SOL    HW217850   6.250   4.917   6.565
 5651SOL     OW17851   0.047   0.271   2.909
 5651SOL    HW117852   7.006   0.329   2.859
 5651SOL    HW217853   7.020   0.208   2.968
 5652SOL     OW17854   4.742   5.253   0.825
 5652SOL    HW117855   4.774   5.192   0.897
 5652SOL    HW217856   4.811   5.257   0.752
 5653SOL     OW17857   0.661   5.849   6.362
 5653SOL    HW117858   0.658   5.774   6.297
 5653SOL    HW217859   0.580   5.844   6.422
 5654SOL     OW17860   6.513   6.931   5.442
 5654SOL    HW117861   6.577   7.005   5.463
 5654SOL    HW217862   6.467   6.951   5.356
 5655SOL     OW17863   6.638   3.319   4.457
 5655SOL    HW117864   6.616   3.364   4.543
 5655SOL    HW217865   6.556   3.274   4.421
 5656SOL     OW17866   3.277   4.624   0.389
 5656SOL    HW117867   3.197   4.620   0.329
 5656SOL    HW217868   3.254   4.583   0.477
 5657SOL     OW17869   3.832   0.272   1.711
 5657SOL    HW117870   3.838   0.352   1.651
 5657SOL    HW217871   3.755   0.215   1.683
 5658SOL     OW17872   3.696   0.035   5.898
 5658SOL    HW117873   3.710   0.129   5.867
 5658SOL    HW217874   3.752   0.017   5.979
 5659SOL     OW17875   2.983   3.896   2.737
 5659SOL    HW117876   2.961   3.901   2.640
 5659SOL    HW217877   3.060   3.957   2.757
 5660SOL     OW17878   5.168   6.734   6.888
 5660SOL    HW117879   5.265   6.745   6.869
 5660SOL    HW217880   5.136   6.647   6.850
 5661SOL     OW17881   5.761   5.394   4.104
 5661SOL    HW117882   5.843   5.370   4.051
 5661SOL    HW217883   5.681   5.392   4.044
 5662SOL     OW17884   2.122   4.798   4.022
 5662SOL    HW117885   2.095   4.826   3.930
 5662SOL    HW217886   2.162   4.877   4.070
 5663SOL     OW17887   1.538   4.403   0.877
 5663SOL    HW117888   1.501   4.494   0.859
 5663SOL    HW217889   1.589   4.372   0.797
 5664SOL     OW17890   6.993   4.642   2.320
 5664SOL    HW117891   6.918   4.603   2.266
 5664SOL    HW217892   0.000   4.727   2.277
 5665SOL     OW17893   2.520   3.267   5.684
 5665SOL    HW117894   2.508   3.168   5.682
 5665SOL    HW217895   2.617   3.289   5.671
 5666SOL     OW17896   5.763   4.454   0.970
 5666SOL    HW117897   5.833   4.392   1.004
 5666SOL    HW217898   5.776   4.544   1.011
 5667SOL     OW17899   0.162   4.814   2.930
 5667SOL    HW117900   0.243   4.780   2.977
 5667SOL    HW217901   0.101   4.858   2.996
 5668SOL     OW17902   5.668   1.872   6.675
 5668SOL    HW117903   5.680   1.891   6.773
 5668SOL    HW217904   5.715   1.943   6.622
 5669SOL     OW17905   0.684   4.679   6.228
 5669SOL    HW117906   0.776   4.660   6.193
 5669SOL    HW217907   0.670   4.778   6.234
 5670SOL     OW17908   0.458   3.695   4.201
 5670SOL    HW117909   0.470   3.782   4.248
 5670SOL    HW217910   0.390   3.705   4.128
 5671SOL     OW17911   1.317   0.485   5.840
 5671SOL    HW117912   1.273   0.574   5.823
 5671SOL    HW217913   1.256   0.428   5.896
 5672SOL     OW17914   4.782   4.575   5.622
 5672SOL    HW117915   4.727   4.634   5.682
 5672SOL    HW217916   4.811   4.628   5.542
 5673SOL     OW17917   0.591   0.455   1.998
 5673SOL    HW117918   0.588   0.462   2.098
 5673SOL    HW217919   0.505   0.418   1.965
 5674SOL     OW17920   6.555   3.621   1.339
 5674SOL    HW117921   6.500   3.673   1.273
 5674SOL    HW217922   6.565   3.675   1.423
 5675SOL     OW17923   4.374   2.284   5.384
 5675SOL    HW117924   4.299   2.340   5.418
 5675SOL    HW217925   4.385   2.298   5.286
 5676SOL     OW17926   2.068   0.357   1.990
 5676SOL    HW117927   2.002   0.290   2.022
 5676SOL    HW217928   2.127   0.316   1.920
 5677SOL     OW17929   6.494   1.046   3.529
 5677SOL    HW117930   6.426   0.974   3.536
 5677SOL    HW217931   6.549   1.032   3.447
 5678SOL     OW17932   3.272   6.986   3.158
 5678SOL    HW117933   3.317   6.950   3.077
 5678SOL    HW217934   3.341   7.012   3.226
 5679SOL     OW17935   1.883   6.804   5.067
 5679SOL    HW117936   1.847   6.813   4.974
 5679SOL    HW217937   1.875   6.709   5.097
 5680SOL     OW17938   1.807   5.224   6.177
 5680SOL    HW117939   1.872   5.165   6.223
 5680SOL    HW217940   1.857   5.297   6.128
 5681SOL     OW17941   1.467   3.141   0.021
 5681SOL    HW117942   1.426   3.088   0.096
 5681SOL    HW217943   1.400   3.151   6.971
 5682SOL     OW17944   1.309   3.351   5.572
 5682SOL    HW117945   1.357   3.305   5.647
 5682SOL    HW217946   1.261   3.431   5.608
 5683SOL     OW17947   3.419   2.120   5.834
 5683SOL    HW117948   3.381   2.048   5.776
 5683SOL    HW217949   3.518   2.124   5.821
 5684SOL     OW17950   3.736   3.836   3.768
 5684SOL    HW117951   3.687   3.861   3.851
 5684SOL    HW217952   3.776   3.918   3.727
 5685SOL     OW17953   0.068   4.853   2.177
 5685SOL    HW117954   0.002   4.927   2.159
 5685SOL    HW217955   0.132   4.846   2.101
 5686SOL     OW17956   3.552   0.247   0.597
 5686SOL    HW117957   3.515   0.238   0.504
 5686SOL    HW217958   3.651   0.243   0.594
 5687SOL     OW17959   5.503   5.183   5.640
 5687SOL    HW117960   5.476   5.191   5.544
 5687SOL    HW217961   5.593   5.139   5.645
 5688SOL     OW17962   5.842   1.987   1.456
 5688SOL    HW117963   5.857   2.085   1.473
 5688SOL    HW217964   5.748   1.963   1.482
 5689SOL     OW17965   3.896   1.842   0.681
 5689SOL    HW117966   3.828   1.896   0.731
 5689SOL    HW217967   3.857   1.754   0.655
 5690SOL     OW17968   4.327   5.975   0.997
 5690SOL    HW117969   4.394   6.047   0.983
 5690SOL    HW217970   4.271   5.965   0.915
 5691SOL     OW17971   1.998   0.197   1.691
 5691SOL    HW117972   1.998   0.218   1.593
 5691SOL    HW217973   2.079   0.237   1.734
 5692SOL     OW17974   6.902   3.057   6.787
 5692SOL    HW117975   6.934   2.964   6.768
 5692SOL    HW217976   6.828   3.054   6.854
 5693SOL     OW17977   4.535   2.469   2.721
 5693SOL    HW117978   4.452   2.415   2.711
 5693SOL    HW217979   4.545   2.497   2.817
 5694SOL     OW17980   0.430   1.036   3.464
 5694SOL    HW117981   0.407   1.003   3.373
 5694SOL    HW217982   0.362   1.102   3.494
 5695SOL     OW17983   1.619   3.220   3.166
 5695SOL    HW117984   1.715   3.247   3.181
 5695SOL    HW217985   1.602   3.131   3.208
 5696SOL     OW17986   2.730   0.825   4.889
 5696SOL    HW117987   2.772   0.734   4.881
 5696SOL    HW217988   2.802   0.894   4.894
 5697SOL     OW17989   6.689   2.659   0.125
 5697SOL    HW117990   6.717   2.754   0.115
 5697SOL    HW217991   6.770   2.601   0.136
 5698SOL     OW17992   0.741   3.658   1.958
 5698SOL    HW117993   0.720   3.629   2.052
 5698SOL    HW217994   0.684   3.607   1.894
 5699SOL     OW17995   5.789   0.725   5.075
 5699SOL    HW117996   5.793   0.709   5.173
 5699SOL    HW217997   5.876   0.697   5.033
 5700SOL     OW17998   1.438   6.047   4.795
 5700SOL    HW117999   1.371   6.057   4.869
 5700SOL    HW218000   1.518   6.103   4.814
 5701SOL     OW18001   6.240   5.566   2.150
 5701SOL    HW118002   6.229   5.627   2.072
 5701SOL    HW218003   6.226   5.471   2.120
 5702SOL     OW18004   2.489   6.922   6.668
 5702SOL    HW118005   2.414   6.986   6.689
 5702SOL    HW218006   2.544   6.908   6.750
 5703SOL     OW18007   4.219   4.840   0.324
 5703SOL    HW118008   4.233   4.804   0.232
 5703SOL    HW218009   4.121   4.847   0.342
 5704SOL     OW18010   4.524   5.218   3.995
 5704SOL    HW118011   4.477   5.183   4.076
 5704SOL    HW218012   4.519   5.318   3.993
 5705SOL     OW18013   5.965   0.413   1.214
 5705SOL    HW118014   5.971   0.315   1.195
 5705SOL    HW218015   6.009   0.433   1.301
 5706SOL     OW18016   1.325   1.529   6.806
 5706SOL    HW118017   1.289   1.462   6.741
 5706SOL    HW218018   1.346   1.483   6.892
 5707SOL     OW18019   1.784   1.231   6.148
 5707SOL    HW118020   1.770   1.306   6.213
 5707SOL    HW218021   1.851   1.167   6.186
 5708SOL     OW18022   5.051   6.943   2.850
 5708SOL    HW118023   4.984   6.979   2.915
 5708SOL    HW218024   5.098   6.865   2.892
 5709SOL     OW18025   0.456   6.515   3.107
 5709SOL    HW118026   0.551   6.515   3.139
 5709SOL    HW218027   0.421   6.422   3.106
 5710SOL     OW18028   3.340   3.195   6.023
 5710SOL    HW118029   3.307   3.288   6.038
 5710SOL    HW218030   3.440   3.194   6.028
 5711SOL     OW18031   4.749   1.261   4.119
 5711SOL    HW118032   4.672   1.222   4.068
 5711SOL    HW218033   4.826   1.197   4.119
 5712SOL     OW18034   0.017   6.516   5.855
 5712SOL    HW118035   0.030   6.610   5.885
 5712SOL    HW218036   0.021   6.512   5.755
 5713SOL     OW18037   7.011   2.821   2.386
 5713SOL    HW118038   0.003   2.754   2.458
 5713SOL    HW218039   0.053   2.896   2.396
 5714SOL     OW18040   1.174   0.711   5.762
 5714SOL    HW118041   1.220   0.798   5.783
 5714SOL    HW218042   1.096   0.728   5.702
 5715SOL     OW18043   1.729   6.616   2.288
 5715SOL    HW118044   1.746   6.668   2.205
 5715SOL    HW218045   1.650   6.654   2.337
 5716SOL     OW18046   1.525   3.837   6.131
 5716SOL    HW118047   1.566   3.830   6.040
 5716SOL    HW218048   1.596   3.828   6.201
 5717SOL     OW18049   1.064   4.096   0.859
 5717SOL    HW118050   1.154   4.063   0.889
 5717SOL    HW218051   1.043   4.182   0.906
 5718SOL     OW18052   2.982   4.751   6.772
 5718SOL    HW118053   2.929   4.689   6.715
 5718SOL    HW218054   3.080   4.736   6.757
 5719SOL     OW18055   3.362   0.378   6.774
 5719SOL    HW118056   3.354   0.347   6.679
 5719SOL    HW218057   3.435   0.446   6.780
 5720SOL     OW18058   1.546   5.472   5.482
 5720SOL    HW118059   1.455   5.510   5.502
 5720SOL    HW218060   1.598   5.539   5.429
 5721SOL     OW18061   0.619   3.280   1.529
 5721SOL    HW118062   0.535   3.334   1.533
 5721SOL    HW218063   0.601   3.194   1.481
 5722SOL     OW18064   5.391   6.688   5.003
 5722SOL    HW118065   5.308   6.690   4.948
 5722SOL    HW218066   5.420   6.782   5.022
 5723SOL     OW18067   3.590   5.658   0.560
 5723SOL    HW118068   3.683   5.632   0.535
 5723SOL    HW218069   3.549   5.710   0.485
 5724SOL     OW18070   5.463   2.040   6.082
 5724SOL    HW118071   5.401   2.110   6.118
 5724SOL    HW218072   5.556   2.057   6.114
 5725SOL     OW18073   5.437   4.850   5.082
 5725SOL    HW118074   5.389   4.904   5.151
 5725SOL    HW218075   5.523   4.895   5.058
 5726SOL     OW18076   5.883   3.859   5.875
 5726SOL    HW118077   5.826   3.836   5.954
 5726SOL    HW218078   5.840   3.825   5.792
 5727SOL     OW18079   5.497   1.897   3.635
 5727SOL    HW118080   5.556   1.975   3.650
 5727SOL    HW218081   5.514   1.828   3.705
 5728SOL     OW18082   6.066   0.651   5.244
 5728SOL    HW118083   6.041   0.582   5.312
 5728SOL    HW218084   5.984   0.699   5.213
 5729SOL     OW18085   0.078   1.305   6.279
 5729SOL    HW118086   0.047   1.284   6.372
 5729SOL    HW218087   0.084   1.404   6.267
 5730SOL     OW18088   4.064   5.291   5.707
 5730SOL    HW118089   4.062   5.275   5.608
 5730SOL    HW218090   3.986   5.245   5.750
 5731SOL     OW18091   2.799   1.188   4.148
 5731SOL    HW118092   2.726   1.177   4.215
 5731SOL    HW218093   2.795   1.115   4.080
 5732SOL     OW18094   6.186   4.838   5.023
 5732SOL    HW118095   6.277   4.796   5.024
 5732SOL    HW218096   6.195   4.937   5.034
 5733SOL     OW18097   3.595   0.919   6.855
 5733SOL    HW118098   3.520   0.981   6.831
 5733SOL    HW218099   3.637   0.948   6.941
 5734SOL     OW18100   1.525   6.954   5.788
 5734SOL    HW118101   1.527   6.883   5.859
 5734SOL    HW218102   1.595   7.023   5.807
 5735SOL     OW18103   4.099   0.787   2.063
 5735SOL    HW118104   4.196   0.778   2.040
 5735SOL    HW218105   4.085   0.872   2.114
 5736SOL     OW18106   4.622   4.205   6.828
 5736SOL    HW118107   4.570   4.137   6.879
 5736SOL    HW218108   4.571   4.233   6.748
 5737SOL     OW18109   4.836   5.420   1.457
 5737SOL    HW118110   4.930   5.451   1.447
 5737SOL    HW218111   4.775   5.499   1.462
 5738SOL     OW18112   3.502   1.171   6.486
 5738SOL    HW118113   3.600   1.162   6.504
 5738SOL    HW218114   3.472   1.098   6.425
 5739SOL     OW18115   2.824   0.753   5.943
 5739SOL    HW118116   2.851   0.797   5.858
 5739SOL    HW218117   2.729   0.722   5.936
 5740SOL     OW18118   5.529   3.470   1.066
 5740SOL    HW118119   5.463   3.526   1.015
 5740SOL    HW218120   5.547   3.514   1.155
 5741SOL     OW18121   0.646   3.542   4.360
 5741SOL    HW118122   0.605   3.597   4.287
 5741SOL    HW218123   0.575   3.511   4.423
 5742SOL     OW18124   4.452   0.177   3.499
 5742SOL    HW118125   4.546   0.208   3.486
 5742SOL    HW218126   4.391   0.255   3.498
 5743SOL     OW18127   3.465   3.957   5.355
 5743SOL    HW118128   3.560   3.986   5.352
 5743SOL    HW218129   3.417   3.992   5.275
 5744SOL     OW18130   5.798   6.273   2.986
 5744SOL    HW118131   5.846   6.214   3.051
 5744SOL    HW218132   5.713   6.307   3.028
 5745SOL     OW18133   2.413   2.680   3.756
 5745SOL    HW118134   2.351   2.648   3.685
 5745SOL    HW218135   2.370   2.754   3.808
 5746SOL     OW18136   4.147   0.305   3.707
 5746SOL    HW118137   4.170   0.316   3.610
 5746SOL    HW218138   4.070   0.241   3.716
 5747SOL     OW18139   1.188   5.777   1.644
 5747SOL    HW118140   1.220   5.719   1.719
 5747SOL    HW218141   1.120   5.841   1.679
 5748SOL     OW18142   0.412   6.034   1.003
 5748SOL    HW118143   0.496   6.040   1.056
 5748SOL    HW218144   0.390   6.123   0.965
 5749SOL     OW18145   1.505   6.363   5.009
 5749SOL    HW118146   1.456   6.279   5.031
 5749SOL    HW218147   1.568   6.347   4.933
 5750SOL     OW18148   6.944   4.251   4.319
 5750SOL    HW118149   6.924   4.177   4.254
 5750SOL    HW218150   6.862   4.272   4.372
 5751SOL     OW18151   2.151   3.693   4.307
 5751SOL    HW118152   2.157   3.597   4.332
 5751SOL    HW218153   2.145   3.749   4.390
 5752SOL     OW18154   5.608   0.341   0.755
 5752SOL    HW118155   5.596   0.355   0.657
 5752SOL    HW218156   5.611   0.243   0.775
 5753SOL     OW18157   3.250   4.043   4.939
 5753SOL    HW118158   3.195   3.971   4.896
 5753SOL    HW218159   3.294   4.098   4.868
 5754SOL     OW18160   1.012   6.254   1.860
 5754SOL    HW118161   0.949   6.177   1.874
 5754SOL    HW218162   1.079   6.229   1.790
 5755SOL     OW18163   2.553   2.304   0.091
 5755SOL    HW118164   2.570   2.359   0.009
 5755SOL    HW218165   2.471   2.338   0.137
 5756SOL     OW18166   6.116   6.165   1.827
 5756SOL    HW118167   6.120   6.262   1.805
 5756SOL    HW218168   6.203   6.136   1.867
 5757SOL     OW18169   0.126   6.652   3.595
 5757SOL    HW118170   0.044   6.603   3.624
 5757SOL    HW218171   0.124   6.665   3.496
 5758SOL     OW18172   1.412   6.622   3.368
 5758SOL    HW118173   1.405   6.610   3.467
 5758SOL    HW218174   1.508   6.627   3.341
 5759SOL     OW18175   4.195   6.620   1.939
 5759SOL    HW118176   4.164   6.525   1.928
 5759SOL    HW218177   4.122   6.675   1.979
 5760SOL     OW18178   6.456   3.136   1.894
 5760SOL    HW118179   6.440   3.172   1.802
 5760SOL    HW218180   6.518   3.058   1.889
 5761SOL     OW18181   5.373   5.592   4.820
 5761SOL    HW118182   5.392   5.678   4.867
 5761SOL    HW218183   5.450   5.569   4.760
 5762SOL     OW18184   5.632   4.199   6.695
 5762SOL    HW118185   5.641   4.293   6.662
 5762SOL    HW218186   5.723   4.161   6.711
 5763SOL     OW18187   5.514   0.460   0.476
 5763SOL    HW118188   5.575   0.531   0.440
 5763SOL    HW218189   5.448   0.434   0.405
 5764SOL     OW18190   4.448   5.044   3.408
 5764SOL    HW118191   4.469   5.030   3.311
 5764SOL    HW218192   4.349   5.034   3.422
 5765SOL     OW18193   6.140   5.143   1.139
 5765SOL    HW118194   6.214   5.086   1.174
 5765SOL    HW218195   6.093   5.187   1.216
 5766SOL     OW18196   0.964   1.523   4.625
 5766SOL    HW118197   0.892   1.535   4.557
 5766SOL    HW218198   0.999   1.429   4.621
 5767SOL     OW18199   2.060   0.469   0.571
 5767SOL    HW118200   1.973   0.425   0.551
 5767SOL    HW218201   2.050   0.526   0.653
 5768SOL     OW18202   6.758   6.418   3.914
 5768SOL    HW118203   6.804   6.335   3.946
 5768SOL    HW218204   6.660   6.400   3.901
 5769SOL     OW18205   1.459   5.172   6.464
 5769SOL    HW118206   1.521   5.135   6.395
 5769SOL    HW218207   1.512   5.202   6.544
 5770SOL     OW18208   0.882   6.061   1.061
 5770SOL    HW118209   0.889   5.984   1.125
 5770SOL    HW218210   0.812   6.125   1.094
 5771SOL     OW18211   1.978   5.439   3.985
 5771SOL    HW118212   1.897   5.497   3.998
 5771SOL    HW218213   2.042   5.455   4.059
 5772SOL     OW18214   4.543   0.286   1.993
 5772SOL    HW118215   4.461   0.316   2.042
 5772SOL    HW218216   4.622   0.338   2.025
 5773SOL     OW18217   4.358   2.004   1.813
 5773SOL    HW118218   4.267   1.973   1.787
 5773SOL    HW218219   4.353   2.099   1.846
 5774SOL     OW18220   1.095   6.561   3.777
 5774SOL    HW118221   1.154   6.484   3.801
 5774SOL    HW218222   1.054   6.545   3.687
 5775SOL     OW18223   0.817   5.603   2.882
 5775SOL    HW118224   0.727   5.615   2.924
 5775SOL    HW218225   0.838   5.682   2.825
 5776SOL     OW18226   2.135   0.183   3.123
 5776SOL    HW118227   2.179   0.179   3.212
 5776SOL    HW218228   2.152   0.098   3.073
 5777SOL     OW18229   1.331   0.494   3.234
 5777SOL    HW118230   1.399   0.521   3.302
 5777SOL    HW218231   1.315   0.569   3.170
 5778SOL     OW18232   0.997   1.631   6.673
 5778SOL    HW118233   1.001   1.642   6.772
 5778SOL    HW218234   0.946   1.548   6.650
 5779SOL     OW18235   4.482   2.478   6.954
 5779SOL    HW118236   4.410   2.413   6.979
 5779SOL    HW218237   4.493   2.479   6.855
 5780SOL     OW18238   5.293   5.251   4.452
 5780SOL    HW118239   5.324   5.244   4.547
 5780SOL    HW218240   5.365   5.220   4.391
 5781SOL     OW18241   0.204   4.402   4.974
 5781SOL    HW118242   0.213   4.483   5.031
 5781SOL    HW218243   0.293   4.355   4.969
 5782SOL     OW18244   1.176   1.679   0.367
 5782SOL    HW118245   1.219   1.769   0.361
 5782SOL    HW218246   1.237   1.615   0.415
 5783SOL     OW18247   1.822   1.606   1.811
 5783SOL    HW118248   1.909   1.565   1.785
 5783SOL    HW218249   1.777   1.549   1.880
 5784SOL     OW18250   0.195   6.285   7.016
 5784SOL    HW118251   0.124   6.215   7.012
 5784SOL    HW218252   0.214   6.320   6.924
 5785SOL     OW18253   2.527   1.524   0.700
 5785SOL    HW118254   2.516   1.491   0.606
 5785SOL    HW218255   2.525   1.624   0.700
 5786SOL     OW18256   0.167   4.028   6.970
 5786SOL    HW118257   0.122   4.113   6.943
 5786SOL    HW218258   0.258   4.049   7.006
 5787SOL     OW18259   2.185   2.073   5.484
 5787SOL    HW118260   2.214   2.041   5.574
 5787SOL    HW218261   2.169   2.172   5.488
 5788SOL     OW18262   2.158   1.184   2.586
 5788SOL    HW118263   2.202   1.202   2.498
 5788SOL    HW218264   2.125   1.090   2.588
 5789SOL     OW18265   3.274   5.636   6.896
 5789SOL    HW118266   3.284   5.537   6.886
 5789SOL    HW218267   3.225   5.672   6.817
 5790SOL     OW18268   0.063   3.382   4.534
 5790SOL    HW118269   0.034   3.466   4.579
 5790SOL    HW218270   7.008   3.323   4.519
 5791SOL     OW18271   2.952   0.244   2.890
 5791SOL    HW118272   2.928   0.198   2.804
 5791SOL    HW218273   2.944   0.180   2.966
 5792SOL     OW18274   0.159   2.096   3.020
 5792SOL    HW118275   0.102   2.016   3.039
 5792SOL    HW218276   0.102   2.178   3.019
 5793SOL     OW18277   7.006   1.109   3.718
 5793SOL    HW118278   6.962   1.181   3.664
 5793SOL    HW218279   6.947   1.084   3.794
 5794SOL     OW18280   3.647   2.690   0.476
 5794SOL    HW118281   3.555   2.653   0.487
 5794SOL    HW218282   3.672   2.741   0.558
 5795SOL     OW18283   6.154   5.089   5.587
 5795SOL    HW118284   6.177   5.134   5.674
 5795SOL    HW218285   6.141   5.157   5.516
 5796SOL     OW18286   3.255   0.656   0.548
 5796SOL    HW118287   3.267   0.565   0.588
 5796SOL    HW218288   3.343   0.691   0.517
 5797SOL     OW18289   3.511   2.012   5.074
 5797SOL    HW118290   3.531   1.931   5.128
 5797SOL    HW218291   3.576   2.019   4.998
 5798SOL     OW18292   0.580   4.360   5.135
 5798SOL    HW118293   0.667   4.313   5.151
 5798SOL    HW218294   0.582   4.450   5.180
 5799SOL     OW18295   5.781   0.409   3.715
 5799SOL    HW118296   5.846   0.336   3.695
 5799SOL    HW218297   5.746   0.398   3.808
 5800SOL     OW18298   5.693   5.598   1.175
 5800SOL    HW118299   5.731   5.650   1.252
 5800SOL    HW218300   5.632   5.656   1.122
 5801SOL     OW18301   0.892   2.136   3.680
 5801SOL    HW118302   0.870   2.215   3.622
 5801SOL    HW218303   0.814   2.073   3.681
 5802SOL     OW18304   0.456   4.470   6.300
 5802SOL    HW118305   0.372   4.506   6.257
 5802SOL    HW218306   0.501   4.543   6.350
 5803SOL     OW18307   1.803   4.894   1.515
 5803SOL    HW118308   1.876   4.856   1.572
 5803SOL    HW218309   1.763   4.822   1.459
 5804SOL     OW18310   6.198   4.069   4.109
 5804SOL    HW118311   6.254   4.025   4.040
 5804SOL    HW218312   6.139   4.002   4.153
 5805SOL     OW18313   3.793   4.407   6.672
 5805SOL    HW118314   3.735   4.400   6.591
 5805SOL    HW218315   3.767   4.338   6.739
 5806SOL     OW18316   0.919   6.843   0.121
 5806SOL    HW118317   0.995   6.903   0.096
 5806SOL    HW218318   0.946   6.748   0.105
 5807SOL     OW18319   1.123   3.980   1.453
 5807SOL    HW118320   1.151   4.073   1.427
 5807SOL    HW218321   1.147   3.917   1.380
 5808SOL     OW18322   5.297   3.766   2.737
 5808SOL    HW118323   5.200   3.746   2.729
 5808SOL    HW218324   5.345   3.735   2.655
 5809SOL     OW18325   6.537   2.908   4.132
 5809SOL    HW118326   6.514   2.908   4.034
 5809SOL    HW218327   6.454   2.905   4.186
 5810SOL     OW18328   2.964   1.016   4.390
 5810SOL    HW118329   3.018   0.960   4.327
 5810SOL    HW218330   2.929   1.096   4.341
 5811SOL     OW18331   3.034   0.227   4.873
 5811SOL    HW118332   3.050   0.244   4.970
 5811SOL    HW218333   2.979   0.301   4.835
 5812SOL     OW18334   5.108   6.980   4.134
 5812SOL    HW118335   5.021   6.953   4.094
 5812SOL    HW218336   5.110   0.055   4.147
 5813SOL     OW18337   1.295   0.942   5.959
 5813SOL    HW118338   1.296   1.015   6.027
 5813SOL    HW218339   1.383   0.940   5.911
 5814SOL     OW18340   6.601   4.097   0.438
 5814SOL    HW118341   6.622   4.195   0.438
 5814SOL    HW218342   6.678   4.047   0.397
 5815SOL     OW18343   4.566   2.122   3.054
 5815SOL    HW118344   4.584   2.220   3.066
 5815SOL    HW218345   4.620   2.071   3.122
 5816SOL     OW18346   5.875   6.863   0.425
 5816SOL    HW118347   5.780   6.880   0.449
 5816SOL    HW218348   5.909   6.783   0.475
 5817SOL     OW18349   6.065   3.263   5.690
 5817SOL    HW118350   5.982   3.313   5.711
 5817SOL    HW218351   6.108   3.231   5.775
 5818SOL     OW18352   6.383   5.773   4.923
 5818SOL    HW118353   6.356   5.818   4.838
 5818SOL    HW218354   6.315   5.704   4.947
 5819SOL     OW18355   4.343   0.357   0.918
 5819SOL    HW118356   4.300   0.363   0.828
 5819SOL    HW218357   4.299   0.421   0.980
 5820SOL     OW18358   5.056   0.027   3.754
 5820SOL    HW118359   5.033   0.117   3.791
 5820SOL    HW218360   5.029   0.023   3.658
 5821SOL     OW18361   2.243   0.687   1.799
 5821SOL    HW118362   2.150   0.652   1.794
 5821SOL    HW218363   2.241   0.786   1.815
 5822SOL     OW18364   0.593   2.571   1.963
 5822SOL    HW118365   0.598   2.514   1.882
 5822SOL    HW218366   0.538   2.525   2.033
 5823SOL     OW18367   0.872   0.749   5.305
 5823SOL    HW118368   0.785   0.785   5.272
 5823SOL    HW218369   0.855   0.681   5.377
 5824SOL     OW18370   6.617   6.501   2.924
 5824SOL    HW118371   6.598   6.584   2.976
 5824SOL    HW218372   6.698   6.456   2.961
 5825SOL     OW18373   1.985   1.931   6.105
 5825SOL    HW118374   2.001   1.983   6.188
 5825SOL    HW218375   1.949   1.993   6.034
 5826SOL     OW18376   6.858   6.109   5.660
 5826SOL    HW118377   6.813   6.139   5.576
 5826SOL    HW218378   6.955   6.093   5.642
 5827SOL     OW18379   1.005   5.626   5.109
 5827SOL    HW118380   0.912   5.617   5.145
 5827SOL    HW218381   1.034   5.538   5.071
 5828SOL     OW18382   0.550   3.492   1.844
 5828SOL    HW118383   0.530   3.564   1.776
 5828SOL    HW218384   0.464   3.460   1.884
 5829SOL     OW18385   2.703   1.196   2.550
 5829SOL    HW118386   2.793   1.234   2.530
 5829SOL    HW218387   2.665   1.155   2.468
 5830SOL     OW18388   3.799   0.446   5.972
 5830SOL    HW118389   3.719   0.493   6.009
 5830SOL    HW218390   3.770   0.384   5.899
 5831SOL     OW18391   6.033   6.412   3.882
 5831SOL    HW118392   6.129   6.388   3.894
 5831SOL    HW218393   5.978   6.365   3.951
 5832SOL     OW18394   4.145   3.552   5.340
 5832SOL    HW118395   4.185   3.532   5.429
 5832SOL    HW218396   4.142   3.652   5.327
 5833SOL     OW18397   3.182   3.611   4.207
 5833SOL    HW118398   3.264   3.583   4.156
 5833SOL    HW218399   3.210   3.653   4.293
 5834SOL     OW18400   5.825   1.709   0.733
 5834SOL    HW118401   5.753   1.661   0.683
 5834SOL    HW218402   5.786   1.751   0.815
 5835SOL     OW18403   5.387   2.752   3.190
 5835SOL    HW118404   5.413   2.812   3.266
 5835SOL    HW218405   5.302   2.784   3.150
 5836SOL     OW18406   2.960   5.734   2.979
 5836SOL    HW118407   2.999   5.665   3.040
 5836SOL    HW218408   2.861   5.721   2.974
 5837SOL     OW18409   4.216   4.392   0.002
 5837SOL    HW118410   4.251   4.425   6.938
 5837SOL    HW218411   4.169   4.304   7.012
 5838SOL     OW18412   1.664   1.820   6.204
 5838SOL    HW118413   1.728   1.879   6.253
 5838SOL    HW218414   1.713   1.773   6.130
 5839SOL     OW18415   0.275   2.774   2.526
 5839SOL    HW118416   0.303   2.804   2.435
 5839SOL    HW218417   0.307   2.840   2.595
 5840SOL     OW18418   1.290   5.352   6.976
 5840SOL    HW118419   1.351   5.420   6.935
 5840SOL    HW218420   1.260   5.385   0.042
 5841SOL     OW18421   5.848   3.179   2.156
 5841SOL    HW118422   5.775   3.246   2.170
 5841SOL    HW218423   5.807   3.090   2.136
 5842SOL     OW18424   3.884   3.020   0.547
 5842SOL    HW118425   3.856   2.942   0.603
 5842SOL    HW218426   3.913   3.095   0.607
 5843SOL     OW18427   2.163   3.678   2.468
 5843SOL    HW118428   2.093   3.663   2.537
 5843SOL    HW218429   2.136   3.634   2.382
 5844SOL     OW18430   0.140   6.656   6.165
 5844SOL    HW118431   0.063   6.719   6.161
 5844SOL    HW218432   0.203   6.685   6.237
 5845SOL     OW18433   0.945   1.294   3.187
 5845SOL    HW118434   0.885   1.358   3.235
 5845SOL    HW218435   0.903   1.203   3.187
 5846SOL     OW18436   6.724   2.941   5.033
 5846SOL    HW118437   6.638   2.937   4.982
 5846SOL    HW218438   6.801   2.935   4.970
 5847SOL     OW18439   1.949   1.786   2.282
 5847SOL    HW118440   2.006   1.861   2.249
 5847SOL    HW218441   1.919   1.806   2.375
 5848SOL     OW18442   2.064   4.803   3.497
 5848SOL    HW118443   2.005   4.724   3.478
 5848SOL    HW218444   2.027   4.884   3.451
 5849SOL     OW18445   0.869   0.562   5.747
 5849SOL    HW118446   0.954   0.550   5.798
 5849SOL    HW218447   0.829   0.651   5.771
 5850SOL     OW18448   0.923   3.599   2.160
 5850SOL    HW118449   0.903   3.616   2.063
 5850SOL    HW218450   1.020   3.580   2.171
 5851SOL     OW18451   5.554   3.417   2.383
 5851SOL    HW118452   5.534   3.332   2.335
 5851SOL    HW218453   5.651   3.440   2.370
 5852SOL     OW18454   4.362   6.253   2.957
 5852SOL    HW118455   4.265   6.261   2.933
 5852SOL    HW218456   4.417   6.271   2.876
 5853SOL     OW18457   2.676   5.776   6.207
 5853SOL    HW118458   2.643   5.868   6.190
 5853SOL    HW218459   2.640   5.714   6.137
 5854SOL     OW18460   6.358   3.394   5.749
 5854SOL    HW118461   6.327   3.326   5.815
 5854SOL    HW218462   6.309   3.480   5.762
 5855SOL     OW18463   1.410   0.996   4.502
 5855SOL    HW118464   1.458   0.944   4.573
 5855SOL    HW218465   1.420   1.094   4.520
 5856SOL     OW18466   2.141   5.439   3.356
 5856SOL    HW118467   2.083   5.364   3.325
 5856SOL    HW218468   2.089   5.499   3.417
 5857SOL     OW18469   6.053   2.953   4.851
 5857SOL    HW118470   6.138   3.000   4.826
 5857SOL    HW218471   6.063   2.911   4.941
 5858SOL     OW18472   2.675   1.945   2.016
 5858SOL    HW118473   2.645   2.040   2.030
 5858SOL    HW218474   2.628   1.886   2.082
 5859SOL     OW18475   6.036   6.368   0.970
 5859SOL    HW118476   5.938   6.362   0.952
 5859SOL    HW218477   6.079   6.280   0.949
 5860SOL     OW18478   2.105   4.244   1.843
 5860SOL    HW118479   2.167   4.204   1.911
 5860SOL    HW218480   2.158   4.292   1.773
 5861SOL     OW18481   5.112   1.575   3.634
 5861SOL    HW118482   5.173   1.573   3.713
 5861SOL    HW218483   5.151   1.634   3.563
 5862SOL     OW18484   3.902   5.381   3.160
 5862SOL    HW118485   3.816   5.420   3.127
 5862SOL    HW218486   3.919   5.411   3.254
 5863SOL     OW18487   2.502   0.618   5.278
 5863SOL    HW118488   2.602   0.617   5.270
 5863SOL    HW218489   2.475   0.693   5.338
 5864SOL     OW18490   4.199   3.792   1.674
 5864SOL    HW118491   4.163   3.733   1.747
 5864SOL    HW218492   4.295   3.771   1.659
 5865SOL     OW18493   5.400   0.678   4.338
 5865SOL    HW118494   5.452   0.602   4.378
 5865SOL    HW218495   5.302   0.658   4.343
 5866SOL     OW18496   4.215   6.144   6.715
 5866SOL    HW118497   4.191   6.047   6.727
 5866SOL    HW218498   4.131   6.199   6.717
 5867SOL     OW18499   0.513   2.557   0.828
 5867SOL    HW118500   0.504   2.461   0.801
 5867SOL    HW218501   0.448   2.612   0.776
 5868SOL     OW18502   0.447   0.281   5.209
 5868SOL    HW118503   0.477   0.320   5.296
 5868SOL    HW218504   0.417   0.355   5.148
 5869SOL     OW18505   2.038   4.949   3.803
 5869SOL    HW118506   2.033   5.045   3.775
 5869SOL    HW218507   2.035   4.891   3.721
 5870SOL     OW18508   5.142   5.063   4.858
 5870SOL    HW118509   5.073   5.025   4.920
 5870SOL    HW218510   5.198   4.989   4.820
 5871SOL     OW18511   3.672   4.238   0.130
 5871SOL    HW118512   3.722   4.324   0.132
 5871SOL    HW218513   3.607   4.235   0.206
 5872SOL     OW18514   4.262   5.692   0.056
 5872SOL    HW118515   4.327   5.748   0.108
 5872SOL    HW218516   4.179   5.744   0.039
 5873SOL     OW18517   2.334   2.860   0.399
 5873SOL    HW118518   2.245   2.816   0.416
 5873SOL    HW218519   2.327   2.957   0.425
 5874SOL     OW18520   2.723   3.295   1.284
 5874SOL    HW118521   2.796   3.316   1.219
 5874SOL    HW218522   2.698   3.199   1.277
 5875SOL     OW18523   3.545   1.492   0.200
 5875SOL    HW118524   3.575   1.463   0.109
 5875SOL    HW218525   3.544   1.413   0.262
 5876SOL     OW18526   3.368   3.187   6.428
 5876SOL    HW118527   3.274   3.186   6.393
 5876SOL    HW218528   3.432   3.185   6.352
 5877SOL     OW18529   6.357   6.834   1.481
 5877SOL    HW118530   6.367   6.787   1.569
 5877SOL    HW218531   6.445   6.873   1.454
 5878SOL     OW18532   5.091   5.774   2.713
 5878SOL    HW118533   5.146   5.827   2.777
 5878SOL    HW218534   5.071   5.684   2.752
 5879SOL     OW18535   3.626   3.179   5.987
 5879SOL    HW118536   3.720   3.146   5.986
 5879SOL    HW218537   3.586   3.169   5.895
 5880SOL     OW18538   4.733   3.308   5.520
 5880SOL    HW118539   4.662   3.245   5.551
 5880SOL    HW218540   4.731   3.313   5.420
 5881SOL     OW18541   1.450   6.363   2.536
 5881SOL    HW118542   1.528   6.301   2.523
 5881SOL    HW218543   1.401   6.372   2.449
 5882SOL     OW18544   1.214   6.639   5.660
 5882SOL    HW118545   1.129   6.688   5.644
 5882SOL    HW218546   1.228   6.570   5.589
 5883SOL     OW18547   0.382   3.030   0.635
 5883SOL    HW118548   0.448   3.059   0.567
 5883SOL    HW218549   0.393   3.085   0.718
 5884SOL     OW18550   6.230   1.178   3.370
 5884SOL    HW118551   6.134   1.201   3.386
 5884SOL    HW218552   6.277   1.169   3.458
 5885SOL     OW18553   0.415   5.427   0.723
 5885SOL    HW118554   0.447   5.341   0.763
 5885SOL    HW218555   0.451   5.504   0.776
 5886SOL     OW18556   1.251   3.227   2.837
 5886SOL    HW118557   1.184   3.262   2.901
 5886SOL    HW218558   1.320   3.297   2.818
 5887SOL     OW18559   2.572   1.770   1.372
 5887SOL    HW118560   2.508   1.747   1.299
 5887SOL    HW218561   2.648   1.824   1.334
 5888SOL     OW18562   2.613   6.754   1.059
 5888SOL    HW118563   2.703   6.776   1.098
 5888SOL    HW218564   2.581   6.667   1.098
 5889SOL     OW18565   0.009   1.556   1.341
 5889SOL    HW118566   0.026   1.649   1.374
 5889SOL    HW218567   0.019   1.491   1.417
 5890SOL     OW18568   2.398   6.233   2.348
 5890SOL    HW118569   2.375   6.282   2.432
 5890SOL    HW218570   2.381   6.135   2.360
 5891SOL     OW18571   3.217   3.151   0.617
 5891SOL    HW118572   3.161   3.157   0.535
 5891SOL    HW218573   3.167   3.189   0.695
 5892SOL     OW18574   0.293   3.702   0.590
 5892SOL    HW118575   0.285   3.604   0.574
 5892SOL    HW218576   0.377   3.721   0.641
 5893SOL     OW18577   1.213   5.605   1.835
 5893SOL    HW118578   1.177   5.595   1.928
 5893SOL    HW218579   1.266   5.524   1.810
 5894SOL     OW18580   0.838   5.732   5.764
 5894SOL    HW118581   0.800   5.640   5.776
 5894SOL    HW218582   0.886   5.736   5.676
 5895SOL     OW18583   5.871   3.056   5.162
 5895SOL    HW118584   5.917   3.019   5.242
 5895SOL    HW218585   5.933   3.118   5.113
 5896SOL     OW18586   5.485   1.778   1.959
 5896SOL    HW118587   5.416   1.757   1.890
 5896SOL    HW218588   5.576   1.770   1.918
 5897SOL     OW18589   4.163   1.326   1.872
 5897SOL    HW118590   4.132   1.238   1.908
 5897SOL    HW218591   4.094   1.396   1.892
 5898SOL     OW18592   1.654   1.347   5.628
 5898SOL    HW118593   1.712   1.398   5.565
 5898SOL    HW218594   1.574   1.313   5.579
 5899SOL     OW18595   6.674   5.769   6.260
 5899SOL    HW118596   6.669   5.786   6.161
 5899SOL    HW218597   6.757   5.810   6.297
 5900SOL     OW18598   7.018   5.529   3.424
 5900SOL    HW118599   0.005   5.443   3.374
 5900SOL    HW218600   0.067   5.538   3.492
 5901SOL     OW18601   1.341   0.055   6.776
 5901SOL    HW118602   1.245   0.027   6.774
 5901SOL    HW218603   1.346   0.154   6.792
 5902SOL     OW18604   5.931   3.902   4.543
 5902SOL    HW118605   6.023   3.881   4.573
 5902SOL    HW218606   5.900   3.830   4.480
 5903SOL     OW18607   5.544   2.734   6.772
 5903SOL    HW118608   5.476   2.664   6.790
 5903SOL    HW218609   5.612   2.734   6.845
 5904SOL     OW18610   1.433   5.014   2.216
 5904SOL    HW118611   1.478   4.975   2.135
 5904SOL    HW218612   1.414   5.110   2.200
 5905SOL     OW18613   5.584   0.796   3.594
 5905SOL    HW118614   5.578   0.830   3.688
 5905SOL    HW218615   5.566   0.871   3.530
 5906SOL     OW18616   5.398   1.235   5.309
 5906SOL    HW118617   5.409   1.288   5.225
 5906SOL    HW218618   5.302   1.215   5.324
 5907SOL     OW18619   1.582   1.147   0.418
 5907SOL    HW118620   1.613   1.189   0.333
 5907SOL    HW218621   1.639   1.179   0.494
 5908SOL     OW18622   4.231   3.410   6.701
 5908SOL    HW118623   4.164   3.335   6.706
 5908SOL    HW218624   4.201   3.477   6.634
 5909SOL     OW18625   0.201   4.704   5.522
 5909SOL    HW118626   0.112   4.682   5.563
 5909SOL    HW218627   0.250   4.619   5.502
 5910SOL     OW18628   1.948   3.825   1.569
 5910SOL    HW118629   2.002   3.909   1.573
 5910SOL    HW218630   1.935   3.790   1.662
 5911SOL     OW18631   6.575   5.181   6.159
 5911SOL    HW118632   6.505   5.202   6.091
 5911SOL    HW218633   6.559   5.235   6.241
 5912SOL     OW18634   6.186   3.289   6.932
 5912SOL    HW118635   6.093   3.255   6.929
 5912SOL    HW218636   6.248   3.214   6.956
 5913SOL     OW18637   2.159   2.767   5.602
 5913SOL    HW118638   2.163   2.822   5.519
 5913SOL    HW218639   2.222   2.690   5.594
 5914SOL     OW18640   2.502   5.709   0.493
 5914SOL    HW118641   2.465   5.709   0.586
 5914SOL    HW218642   2.601   5.721   0.497
 5915SOL     OW18643   5.196   2.814   2.806
 5915SOL    HW118644   5.194   2.844   2.901
 5915SOL    HW218645   5.173   2.892   2.747
 5916SOL     OW18646   4.178   0.392   5.689
 5916SOL    HW118647   4.236   0.466   5.724
 5916SOL    HW218648   4.091   0.431   5.657
 5917SOL     OW18649   3.749   2.889   3.156
 5917SOL    HW118650   3.666   2.850   3.114
 5917SOL    HW218651   3.741   2.884   3.255
 5918SOL     OW18652   1.532   3.503   4.077
 5918SOL    HW118653   1.588   3.585   4.090
 5918SOL    HW218654   1.564   3.452   3.998
 5919SOL     OW18655   2.982   2.499   0.758
 5919SOL    HW118656   2.926   2.555   0.699
 5919SOL    HW218657   2.932   2.415   0.782
 5920SOL     OW18658   3.483   6.937   6.842
 5920SOL    HW118659   3.388   6.941   6.811
 5920SOL    HW218660   3.534   6.873   6.784
 5921SOL     OW18661   3.907   5.125   5.876
 5921SOL    HW118662   3.823   5.138   5.823
 5921SOL    HW218663   3.884   5.084   5.965
 5922SOL     OW18664   6.553   4.795   2.959
 5922SOL    HW118665   6.648   4.771   2.938
 5922SOL    HW218666   6.542   4.806   3.058
 5923SOL     OW18667   6.583   0.497   3.730
 5923SOL    HW118668   6.590   0.471   3.826
 5923SOL    HW218669   6.673   0.489   3.687
 5924SOL     OW18670   5.163   2.548   4.634
 5924SOL    HW118671   5.079   2.568   4.583
 5924SOL    HW218672   5.158   2.589   4.725
 5925SOL     OW18673   5.433   5.696   2.124
 5925SOL    HW118674   5.468   5.695   2.217
 5925SOL    HW218675   5.505   5.667   2.061
 5926SOL     OW18676   3.685   5.092   1.635
 5926SOL    HW118677   3.665   5.013   1.693
 5926SOL    HW218678   3.736   5.160   1.688
 5927SOL     OW18679   2.748   5.747   1.302
 5927SOL    HW118680   2.809   5.816   1.261
 5927SOL    HW218681   2.717   5.683   1.231
 5928SOL     OW18682   1.650   0.662   2.456
 5928SOL    HW118683   1.641   0.735   2.524
 5928SOL    HW218684   1.729   0.681   2.398
 5929SOL     OW18685   0.965   6.778   5.621
 5929SOL    HW118686   0.990   6.854   5.561
 5929SOL    HW218687   0.867   6.778   5.635
 5930SOL     OW18688   6.194   1.562   4.098
 5930SOL    HW118689   6.235   1.471   4.098
 5930SOL    HW218690   6.201   1.602   4.190
 5931SOL     OW18691   5.822   5.472   2.155
 5931SOL    HW118692   5.839   5.528   2.237
 5931SOL    HW218693   5.750   5.514   2.101
 5932SOL     OW18694   1.970   6.702   0.903
 5932SOL    HW118695   2.066   6.727   0.921
 5932SOL    HW218696   1.943   6.630   0.967
 5933SOL     OW18697   0.153   3.901   2.232
 5933SOL    HW118698   0.113   3.821   2.189
 5933SOL    HW218699   0.240   3.876   2.275
 5934SOL     OW18700   3.559   3.474   3.137
 5934SOL    HW118701   3.632   3.445   3.075
 5934SOL    HW218702   3.589   3.462   3.231
 5935SOL     OW18703   3.447   4.181   4.769
 5935SOL    HW118704   3.537   4.197   4.728
 5935SOL    HW218705   3.421   4.259   4.825
 5936SOL     OW18706   5.062   4.456   6.524
 5936SOL    HW118707   4.977   4.406   6.541
 5936SOL    HW218708   5.043   4.554   6.519
 5937SOL     OW18709   0.688   3.885   1.291
 5937SOL    HW118710   0.770   3.922   1.248
 5937SOL    HW218711   0.621   3.861   1.221
 5938SOL     OW18712   1.863   4.624   3.422
 5938SOL    HW118713   1.892   4.530   3.440
 5938SOL    HW218714   1.774   4.640   3.465
 5939SOL     OW18715   3.361   0.840   3.204
 5939SOL    HW118716   3.314   0.920   3.166
 5939SOL    HW218717   3.405   0.789   3.130
 5940SOL     OW18718   3.433   6.812   2.538
 5940SOL    HW118719   3.531   6.803   2.517
 5940SOL    HW218720   3.385   6.847   2.458
 5941SOL     OW18721   6.420   5.213   2.053
 5941SOL    HW118722   6.326   5.247   2.053
 5941SOL    HW218723   6.460   5.229   2.143
 5942SOL     OW18724   3.919   3.152   5.971
 5942SOL    HW118725   4.009   3.174   5.935
 5942SOL    HW218726   3.890   3.061   5.938
 5943SOL     OW18727   1.971   5.713   0.490
 5943SOL    HW118728   1.915   5.684   0.568
 5943SOL    HW218729   1.975   5.639   0.423
 5944SOL     OW18730   4.862   1.612   2.434
 5944SOL    HW118731   4.920   1.570   2.504
 5944SOL    HW218732   4.772   1.566   2.433
 5945SOL     OW18733   6.520   4.811   4.716
 5945SOL    HW118734   6.487   4.814   4.810
 5945SOL    HW218735   6.457   4.862   4.657
 5946SOL     OW18736   3.370   4.087   5.590
 5946SOL    HW118737   3.387   4.029   5.510
 5946SOL    HW218738   3.351   4.029   5.670
 5947SOL     OW18739   4.266   3.359   1.815
 5947SOL    HW118740   4.294   3.289   1.749
 5947SOL    HW218741   4.173   3.340   1.846
 5948SOL     OW18742   3.428   4.901   3.191
 5948SOL    HW118743   3.528   4.902   3.196
 5948SOL    HW218744   3.390   4.866   3.277
 5949SOL     OW18745   3.930   4.725   1.204
 5949SOL    HW118746   3.855   4.658   1.203
 5949SOL    HW218747   3.892   4.816   1.217
 5950SOL     OW18748   6.006   2.206   4.206
 5950SOL    HW118749   6.050   2.281   4.157
 5950SOL    HW218750   6.028   2.212   4.304
 5951SOL     OW18751   1.686   6.565   4.141
 5951SOL    HW118752   1.753   6.513   4.194
 5951SOL    HW218753   1.593   6.541   4.171
 5952SOL     OW18754   6.655   6.002   3.796
 5952SOL    HW118755   6.627   5.918   3.750
 5952SOL    HW218756   6.620   6.081   3.746
 5953SOL     OW18757   0.002   3.187   5.448
 5953SOL    HW118758   6.997   3.207   5.541
 5953SOL    HW218759   0.076   3.248   5.422
 5954SOL     OW18760   6.926   4.858   5.940
 5954SOL    HW118761   6.997   4.891   5.878
 5954SOL    HW218762   6.961   4.859   6.034
 5955SOL     OW18763   5.364   5.353   1.855
 5955SOL    HW118764   5.404   5.267   1.886
 5955SOL    HW218765   5.316   5.397   1.931
 5956SOL     OW18766   3.946   2.157   6.982
 5956SOL    HW118767   3.954   2.063   6.950
 5956SOL    HW218768   3.987   2.166   0.048
 5957SOL     OW18769   5.184   6.421   6.222
 5957SOL    HW118770   5.168   6.476   6.140
 5957SOL    HW218771   5.229   6.477   6.292
 5958SOL     OW18772   6.823   6.526   1.996
 5958SOL    HW118773   6.839   6.441   2.046
 5958SOL    HW218774   6.867   6.522   1.907
 5959SOL     OW18775   2.760   1.957   5.656
 5959SOL    HW118776   2.785   2.053   5.662
 5959SOL    HW218777   2.760   1.928   5.560
 5960SOL     OW18778   2.777   0.305   3.828
 5960SOL    HW118779   2.791   0.397   3.791
 5960SOL    HW218780   2.766   0.309   3.927
 5961SOL     OW18781   3.365   0.761   4.923
 5961SOL    HW118782   3.305   0.730   4.998
 5961SOL    HW218783   3.330   0.847   4.886
 5962SOL     OW18784   4.904   5.722   2.549
 5962SOL    HW118785   4.978   5.774   2.593
 5962SOL    HW218786   4.818   5.742   2.596
 5963SOL     OW18787   4.086   3.626   2.969
 5963SOL    HW118788   4.183   3.605   2.957
 5963SOL    HW218789   4.068   3.651   3.064
 5964SOL     OW18790   0.007   5.148   0.342
 5964SOL    HW118791   0.044   5.055   0.331
 5964SOL    HW218792   6.962   5.165   0.272
 5965SOL     OW18793   1.683   2.676   6.398
 5965SOL    HW118794   1.688   2.577   6.394
 5965SOL    HW218795   1.670   2.705   6.493
 5966SOL     OW18796   3.364   5.680   4.857
 5966SOL    HW118797   3.395   5.592   4.892
 5966SOL    HW218798   3.444   5.738   4.840
 5967SOL     OW18799   4.162   6.833   2.625
 5967SOL    HW118800   4.253   6.809   2.659
 5967SOL    HW218801   4.151   6.798   2.532
 5968SOL     OW18802   6.258   1.948   2.921
 5968SOL    HW118803   6.262   1.979   2.826
 5968SOL    HW218804   6.194   1.872   2.930
 5969SOL     OW18805   5.886   2.966   4.217
 5969SOL    HW118806   5.929   3.039   4.271
 5969SOL    HW218807   5.834   3.007   4.141
 5970SOL     OW18808   1.092   3.558   2.903
 5970SOL    HW118809   1.090   3.465   2.942
 5970SOL    HW218810   1.039   3.619   2.962
 5971SOL     OW18811   2.329   6.918   2.993
 5971SOL    HW118812   2.378   6.964   2.919
 5971SOL    HW218813   2.252   6.866   2.955
 5972SOL     OW18814   4.861   6.478   0.628
 5972SOL    HW118815   4.888   6.482   0.532
 5972SOL    HW218816   4.925   6.533   0.682
 5973SOL     OW18817   1.760   4.566   2.759
 5973SOL    HW118818   1.670   4.537   2.793
 5973SOL    HW218819   1.831   4.514   2.805
 5974SOL     OW18820   6.735   3.948   6.260
 5974SOL    HW118821   6.761   4.041   6.235
 5974SOL    HW218822   6.636   3.945   6.277
 5975SOL     OW18823   3.981   2.194   1.074
 5975SOL    HW118824   4.067   2.229   1.111
 5975SOL    HW218825   3.905   2.231   1.128
 5976SOL     OW18826   3.015   3.095   4.347
 5976SOL    HW118827   2.951   3.019   4.358
 5976SOL    HW218828   2.982   3.156   4.275
 5977SOL     OW18829   1.680   4.370   2.214
 5977SOL    HW118830   1.717   4.314   2.139
 5977SOL    HW218831   1.703   4.466   2.198
 5978SOL     OW18832   5.304   4.347   2.785
 5978SOL    HW118833   5.286   4.299   2.699
 5978SOL    HW218834   5.261   4.437   2.783
 5979SOL     OW18835   6.203   0.382   3.622
 5979SOL    HW118836   6.296   0.352   3.598
 5979SOL    HW218837   6.203   0.480   3.640
 5980SOL     OW18838   4.593   4.647   0.226
 5980SOL    HW118839   4.626   4.607   0.311
 5980SOL    HW218840   4.551   4.575   0.170
 5981SOL     OW18841   6.475   1.477   2.078
 5981SOL    HW118842   6.570   1.448   2.089
 5981SOL    HW218843   6.422   1.449   2.158
 5982SOL     OW18844   6.548   1.973   6.530
 5982SOL    HW118845   6.536   2.034   6.607
 5982SOL    HW218846   6.458   1.939   6.500
 5983SOL     OW18847   1.867   2.562   3.873
 5983SOL    HW118848   1.780   2.533   3.912
 5983SOL    HW218849   1.894   2.499   3.800
 5984SOL     OW18850   6.512   6.207   4.531
 5984SOL    HW118851   6.421   6.187   4.495
 5984SOL    HW218852   6.569   6.244   4.458
 5985SOL     OW18853   5.393   2.052   3.407
 5985SOL    HW118854   5.407   2.003   3.493
 5985SOL    HW218855   5.445   2.138   3.409
 5986SOL     OW18856   3.220   2.957   3.208
 5986SOL    HW118857   3.225   2.877   3.267
 5986SOL    HW218858   3.204   3.039   3.263
 5987SOL     OW18859   4.452   0.442   5.217
 5987SOL    HW118860   4.485   0.350   5.199
 5987SOL    HW218861   4.439   0.455   5.315
 5988SOL     OW18862   4.519   6.978   4.643
 5988SOL    HW118863   4.424   6.964   4.673
 5988SOL    HW218864   4.557   6.891   4.613
 5989SOL     OW18865   2.206   6.884   6.403
 5989SOL    HW118866   2.120   6.898   6.453
 5989SOL    HW218867   2.274   6.949   6.436
 5990SOL     OW18868   3.474   4.289   0.667
 5990SOL    HW118869   3.390   4.284   0.614
 5990SOL    HW218870   3.553   4.292   0.606
 5991SOL     OW18871   3.760   5.371   5.252
 5991SOL    HW118872   3.699   5.413   5.318
 5991SOL    HW218873   3.709   5.351   5.168
 5992SOL     OW18874   3.607   1.011   4.061
 5992SOL    HW118875   3.612   1.072   4.141
 5992SOL    HW218876   3.696   0.969   4.046
 5993SOL     OW18877   2.808   6.235   5.567
 5993SOL    HW118878   2.827   6.140   5.542
 5993SOL    HW218879   2.804   6.291   5.484
 5994SOL     OW18880   6.082   2.261   2.022
 5994SOL    HW118881   6.174   2.278   1.987
 5994SOL    HW218882   6.065   2.162   2.024
 5995SOL     OW18883   6.906   5.176   1.365
 5995SOL    HW118884   6.811   5.191   1.337
 5995SOL    HW218885   6.909   5.154   1.462
 5996SOL     OW18886   0.140   5.862   0.066
 5996SOL    HW118887   0.085   5.945   0.055
 5996SOL    HW218888   0.236   5.883   0.049
 5997SOL     OW18889   0.366   0.120   1.702
 5997SOL    HW118890   0.357   0.020   1.701
 5997SOL    HW218891   0.277   0.161   1.718
 5998SOL     OW18892   5.347   2.080   2.433
 5998SOL    HW118893   5.398   2.148   2.485
 5998SOL    HW218894   5.409   2.007   2.404
 5999SOL     OW18895   1.535   1.691   3.414
 5999SOL    HW118896   1.536   1.790   3.426
 5999SOL    HW218897   1.480   1.649   3.486
 6000SOL     OW18898   4.102   4.811   2.216
 6000SOL    HW118899   4.004   4.800   2.204
 6000SOL    HW218900   4.149   4.730   2.180
 6001SOL     OW18901   0.141   3.180   6.992
 6001SOL    HW118902   0.191   3.098   6.965
 6001SOL    HW218903   0.072   3.201   6.922
 6002SOL     OW18904   1.283   0.318   1.424
 6002SOL    HW118905   1.283   0.292   1.327
 6002SOL    HW218906   1.277   0.417   1.431
 6003SOL     OW18907   5.400   3.875   4.652
 6003SOL    HW118908   5.450   3.879   4.738
 6003SOL    HW218909   5.464   3.862   4.576
 6004SOL     OW18910   0.559   3.387   3.099
 6004SOL    HW118911   0.546   3.422   3.192
 6004SOL    HW218912   0.493   3.431   3.038
 6005SOL     OW18913   3.796   5.476   4.199
 6005SOL    HW118914   3.761   5.490   4.292
 6005SOL    HW218915   3.895   5.466   4.202
 6006SOL     OW18916   2.969   6.616   6.492
 6006SOL    HW118917   2.941   6.531   6.537
 6006SOL    HW218918   2.887   6.669   6.469
 6007SOL     OW18919   5.363   2.510   3.522
 6007SOL    HW118920   5.459   2.491   3.502
 6007SOL    HW218921   5.308   2.499   3.439
 6008SOL     OW18922   3.141   5.362   6.010
 6008SOL    HW118923   3.214   5.430   6.000
 6008SOL    HW218924   3.168   5.278   5.962
 6009SOL     OW18925   2.806   1.964   4.643
 6009SOL    HW118926   2.904   1.947   4.644
 6009SOL    HW218927   2.787   2.049   4.594
 6010SOL     OW18928   2.216   4.213   2.466
 6010SOL    HW118929   2.129   4.226   2.418
 6010SOL    HW218930   2.227   4.116   2.488
 6011SOL     OW18931   5.365   2.792   1.911
 6011SOL    HW118932   5.457   2.759   1.931
 6011SOL    HW218933   5.370   2.872   1.850
 6012SOL     OW18934   7.023   2.164   6.729
 6012SOL    HW118935   0.001   2.196   6.824
 6012SOL    HW218936   6.928   2.162   6.697
 6013SOL     OW18937   6.529   1.207   2.132
 6013SOL    HW118938   6.626   1.187   2.148
 6013SOL    HW218939   6.491   1.253   2.213
 6014SOL     OW18940   6.238   1.437   0.866
 6014SOL    HW118941   6.255   1.379   0.787
 6014SOL    HW218942   6.309   1.506   0.873
 6015SOL     OW18943   5.599   2.321   4.619
 6015SOL    HW118944   5.663   2.286   4.687
 6015SOL    HW218945   5.650   2.358   4.542
 6016SOL     OW18946   0.608   0.491   5.355
 6016SOL    HW118947   0.571   0.584   5.355
 6016SOL    HW218948   0.700   0.491   5.392
 6017SOL     OW18949   5.899   5.153   3.563
 6017SOL    HW118950   5.838   5.160   3.642
 6017SOL    HW218951   5.992   5.177   3.591
 6018SOL     OW18952   3.423   3.041   0.173
 6018SOL    HW118953   3.513   3.037   0.129
 6018SOL    HW218954   3.387   2.948   0.181
 6019SOL     OW18955   4.641   1.393   3.751
 6019SOL    HW118956   4.592   1.423   3.832
 6019SOL    HW218957   4.703   1.465   3.720
 6020SOL     OW18958   3.380   0.448   2.347
 6020SOL    HW118959   3.458   0.431   2.408
 6020SOL    HW218960   3.301   0.475   2.402
 6021SOL     OW18961   4.748   0.794   2.870
 6021SOL    HW118962   4.839   0.819   2.904
 6021SOL    HW218963   4.694   0.756   2.945
 6022SOL     OW18964   4.785   1.111   3.084
 6022SOL    HW118965   4.878   1.078   3.068
 6022SOL    HW218966   4.758   1.172   3.009
 6023SOL     OW18967   6.997   0.949   3.243
 6023SOL    HW118968   6.982   0.889   3.322
 6023SOL    HW218969   6.979   0.899   3.159
 6024SOL     OW18970   0.449   4.892   2.219
 6024SOL    HW118971   0.537   4.906   2.264
 6024SOL    HW218972   0.443   4.951   2.138
 6025SOL     OW18973   4.492   1.114   2.084
 6025SOL    HW118974   4.577   1.161   2.105
 6025SOL    HW218975   4.493   1.023   2.124
 6026SOL     OW18976   6.984   5.007   5.138
 6026SOL    HW118977   7.011   5.103   5.141
 6026SOL    HW218978   0.005   4.962   5.061
 6027SOL     OW18979   2.161   3.926   6.221
 6027SOL    HW118980   2.100   4.005   6.214
 6027SOL    HW218981   2.145   3.865   6.143
 6028SOL     OW18982   1.658   4.430   0.627
 6028SOL    HW118983   1.654   4.402   0.531
 6028SOL    HW218984   1.657   4.529   0.632
 6029SOL     OW18985   1.687   5.997   0.533
 6029SOL    HW118986   1.633   5.944   0.468
 6029SOL    HW218987   1.704   6.088   0.497
 6030SOL     OW18988   2.406   1.144   2.060
 6030SOL    HW118989   2.492   1.124   2.014
 6030SOL    HW218990   2.405   1.240   2.089
 6031SOL     OW18991   5.121   6.616   6.030
 6031SOL    HW118992   5.203   6.630   5.975
 6031SOL    HW218993   5.098   6.701   6.078
 6032SOL     OW18994   1.527   4.000   2.459
 6032SOL    HW118995   1.480   4.071   2.407
 6032SOL    HW218996   1.556   4.036   2.547
 6033SOL     OW18997   2.082   1.908   3.240
 6033SOL    HW118998   2.087   1.987   3.178
 6033SOL    HW218999   1.987   1.894   3.267
 6034SOL     OW19000   2.377   4.431   4.611
 6034SOL    HW119001   2.372   4.493   4.689
 6034SOL    HW219002   2.330   4.345   4.634
 6035SOL     OW19003   4.901   0.777   4.160
 6035SOL    HW119004   4.814   0.764   4.112
 6035SOL    HW219005   4.884   0.822   4.247
 6036SOL     OW19006   7.016   6.891   5.044
 6036SOL    HW119007   6.983   6.853   4.958
 6036SOL    HW219008   0.056   6.965   5.025
 6037SOL     OW19009   4.680   4.761   5.788
 6037SOL    HW119010   4.632   4.728   5.870
 6037SOL    HW219011   4.749   4.828   5.815
 6038SOL     OW19012   6.760   3.534   5.818
 6038SOL    HW119013   6.831   3.604   5.815
 6038SOL    HW219014   6.761   3.489   5.908
 6039SOL     OW19015   3.357   3.626   2.429
 6039SOL    HW119016   3.310   3.704   2.386
 6039SOL    HW219017   3.455   3.643   2.430
 6040SOL     OW19018   0.936   1.674   5.995
 6040SOL    HW119019   1.018   1.617   6.005
 6040SOL    HW219020   0.909   1.675   5.899
 6041SOL     OW19021   1.066   1.771   0.130
 6041SOL    HW119022   1.126   1.843   0.095
 6041SOL    HW219023   1.113   1.721   0.203
 6042SOL     OW19024   5.599   4.814   2.199
 6042SOL    HW119025   5.562   4.721   2.199
 6042SOL    HW219026   5.669   4.822   2.128
 6043SOL     OW19027   1.449   5.061   4.527
 6043SOL    HW119028   1.548   5.070   4.526
 6043SOL    HW219029   1.410   5.130   4.588
 6044SOL     OW19030   0.553   1.357   1.140
 6044SOL    HW119031   0.625   1.288   1.151
 6044SOL    HW219032   0.509   1.373   1.228
 6045SOL     OW19033   5.569   5.373   0.634
 6045SOL    HW119034   5.624   5.446   0.674
 6045SOL    HW219035   5.483   5.365   0.685
 6046SOL     OW19036   2.837   2.357   0.128
 6046SOL    HW119037   2.817   2.271   0.175
 6046SOL    HW219038   2.759   2.382   0.070
 6047SOL     OW19039   6.248   0.756   3.908
 6047SOL    HW119040   6.155   0.766   3.943
 6047SOL    HW219041   6.310   0.810   3.963
 6048SOL     OW19042   3.787   0.573   3.670
 6048SOL    HW119043   3.849   0.556   3.747
 6048SOL    HW219044   3.831   0.546   3.585
 6049SOL     OW19045   4.632   3.817   6.310
 6049SOL    HW119046   4.600   3.723   6.302
 6049SOL    HW219047   4.614   3.851   6.402
 6050SOL     OW19048   3.786   4.279   5.548
 6050SOL    HW119049   3.769   4.297   5.451
 6050SOL    HW219050   3.850   4.203   5.557
 6051SOL     OW19051   2.276   2.566   2.506
 6051SOL    HW119052   2.193   2.595   2.459
 6051SOL    HW219053   2.280   2.608   2.597
 6052SOL     OW19054   6.868   1.381   0.268
 6052SOL    HW119055   6.949   1.425   0.307
 6052SOL    HW219056   6.888   1.285   0.248
 6053SOL     OW19057   3.538   0.589   6.758
 6053SOL    HW119058   3.576   0.678   6.785
 6053SOL    HW219059   3.586   0.557   6.676
 6054SOL     OW19060   1.669   4.895   1.057
 6054SOL    HW119061   1.667   4.993   1.035
 6054SOL    HW219062   1.765   4.866   1.067
 6055SOL     OW19063   5.129   1.132   5.371
 6055SOL    HW119064   5.050   1.134   5.431
 6055SOL    HW219065   5.106   1.083   5.287
 6056SOL     OW19066   4.193   1.377   6.068
 6056SOL    HW119067   4.171   1.282   6.087
 6056SOL    HW219068   4.276   1.403   6.116
 6057SOL     OW19069   3.970   1.053   5.425
 6057SOL    HW119070   3.943   1.092   5.336
 6057SOL    HW219071   3.888   1.023   5.474
 6058SOL     OW19072   5.240   3.042   4.422
 6058SOL    HW119073   5.148   3.081   4.426
 6058SOL    HW219074   5.255   2.984   4.502
 6059SOL     OW19075   4.602   4.873   6.188
 6059SOL    HW119076   4.674   4.929   6.145
 6059SOL    HW219077   4.631   4.847   6.280
 6060SOL     OW19078   4.074   4.405   5.700
 6060SOL    HW119079   3.997   4.468   5.687
 6060SOL    HW219080   4.059   4.351   5.782
 6061SOL     OW19081   3.464   2.091   6.588
 6061SOL    HW119082   3.393   2.101   6.657
 6061SOL    HW219083   3.454   2.162   6.518
 6062SOL     OW19084   1.894   1.173   5.000
 6062SOL    HW119085   1.887   1.079   4.967
 6062SOL    HW219086   1.987   1.207   4.987
 6063SOL     OW19087   4.280   0.440   6.496
 6063SOL    HW119088   4.312   0.529   6.463
 6063SOL    HW219089   4.220   0.453   6.575
 6064SOL     OW19090   1.504   5.856   3.006
 6064SOL    HW119091   1.447   5.910   2.943
 6064SOL    HW219092   1.501   5.897   3.097
 6065SOL     OW19093   6.141   7.007   1.010
 6065SOL    HW119094   6.232   0.023   0.997
 6065SOL    HW219095   6.145   6.939   1.083
 6066SOL     OW19096   4.399   1.922   1.280
 6066SOL    HW119097   4.436   2.014   1.274
 6066SOL    HW219098   4.353   1.899   1.194
 6067SOL     OW19099   6.557   1.511   5.736
 6067SOL    HW119100   6.548   1.532   5.833
 6067SOL    HW219101   6.533   1.415   5.720
 6068SOL     OW19102   5.020   3.087   4.807
 6068SOL    HW119103   5.117   3.084   4.832
 6068SOL    HW219104   5.000   3.174   4.762
 6069SOL     OW19105   0.164   3.786   5.594
 6069SOL    HW119106   0.081   3.826   5.556
 6069SOL    HW219107   0.179   3.696   5.555
 6070SOL     OW19108   4.240   2.057   6.483
 6070SOL    HW119109   4.155   2.110   6.483
 6070SOL    HW219110   4.294   2.080   6.402
 6071SOL     OW19111   4.203   5.985   5.663
 6071SOL    HW119112   4.138   6.061   5.652
 6071SOL    HW219113   4.169   5.905   5.613
 6072SOL     OW19114   1.413   2.147   1.871
 6072SOL    HW119115   1.353   2.105   1.939
 6072SOL    HW219116   1.414   2.092   1.788
 6073SOL     OW19117   6.355   3.086   0.024
 6073SOL    HW119118   6.294   3.007   0.014
 6073SOL    HW219119   6.440   3.068   6.998
 6074SOL     OW19120   0.871   6.462   4.208
 6074SOL    HW119121   0.932   6.518   4.151
 6074SOL    HW219122   0.780   6.502   4.208
 6075SOL     OW19123   6.515   3.374   7.021
 6075SOL    HW119124   6.501   3.377   0.096
 6075SOL    HW219125   6.427   3.379   6.974
 6076SOL     OW19126   2.191   6.750   4.355
 6076SOL    HW119127   2.247   6.829   4.329
 6076SOL    HW219128   2.094   6.776   4.352
 6077SOL     OW19129   6.069   5.656   2.780
 6077SOL    HW119130   6.049   5.708   2.863
 6077SOL    HW219131   6.082   5.718   2.703
 6078SOL     OW19132   2.981   5.290   3.756
 6078SOL    HW119133   3.040   5.230   3.810
 6078SOL    HW219134   3.034   5.368   3.723
 6079SOL     OW19135   2.475   3.067   0.088
 6079SOL    HW119136   2.380   3.066   0.118
 6079SOL    HW219137   2.495   2.982   0.039
 6080SOL     OW19138   6.202   1.934   1.239
 6080SOL    HW119139   6.297   1.966   1.237
 6080SOL    HW219140   6.194   1.852   1.182
 6081SOL     OW19141   6.422   3.229   3.896
 6081SOL    HW119142   6.405   3.282   3.813
 6081SOL    HW219143   6.372   3.270   3.972
 6082SOL     OW19144   4.125   0.533   2.813
 6082SOL    HW119145   4.043   0.590   2.803
 6082SOL    HW219146   4.133   0.501   2.907
 6083SOL     OW19147   1.028   5.469   6.613
 6083SOL    HW119148   0.967   5.524   6.671
 6083SOL    HW219149   1.118   5.513   6.610
 6084SOL     OW19150   6.228   5.162   4.804
 6084SOL    HW119151   6.135   5.129   4.785
 6084SOL    HW219152   6.278   5.093   4.855
 6085SOL     OW19153   6.862   3.503   0.161
 6085SOL    HW119154   6.908   3.485   0.074
 6085SOL    HW219155   6.795   3.576   0.149
 6086SOL     OW19156   4.266   1.257   4.219
 6086SOL    HW119157   4.172   1.269   4.184
 6086SOL    HW219158   4.265   1.255   4.318
 6087SOL     OW19159   5.455   6.970   6.919
 6087SOL    HW119160   5.545   6.967   6.964
 6087SOL    HW219161   5.395   0.009   6.969
 6088SOL     OW19162   0.368   6.797   5.002
 6088SOL    HW119163   0.435   6.750   5.059
 6088SOL    HW219164   0.361   6.892   5.030
 6089SOL     OW19165   0.659   3.613   0.989
 6089SOL    HW119166   0.630   3.605   1.085
 6089SOL    HW219167   0.746   3.565   0.976
 6090SOL     OW19168   0.657   5.888   6.006
 6090SOL    HW119169   0.752   5.877   6.034
 6090SOL    HW219170   0.601   5.819   6.052
 6091SOL     OW19171   6.762   1.719   1.824
 6091SOL    HW119172   6.755   1.622   1.846
 6091SOL    HW219173   6.822   1.764   1.889
 6092SOL     OW19174   2.557   1.150   2.319
 6092SOL    HW119175   2.475   1.207   2.317
 6092SOL    HW219176   2.543   1.069   2.263
 6093SOL     OW19177   1.925   3.253   1.142
 6093SOL    HW119178   1.995   3.318   1.114
 6093SOL    HW219179   1.963   3.190   1.210
 6094SOL     OW19180   1.465   1.521   1.248
 6094SOL    HW119181   1.476   1.423   1.264
 6094SOL    HW219182   1.376   1.551   1.282
 6095SOL     OW19183   5.537   3.057   6.746
 6095SOL    HW119184   5.563   3.008   6.662
 6095SOL    HW219185   5.527   2.992   6.821
 6096SOL     OW19186   5.092   1.315   3.897
 6096SOL    HW119187   5.020   1.258   3.857
 6096SOL    HW219188   5.172   1.316   3.836
 6097SOL     OW19189   2.404   0.811   2.430
 6097SOL    HW119190   2.338   0.863   2.376
 6097SOL    HW219191   2.369   0.719   2.446
 6098SOL     OW19192   2.478   2.567   5.958
 6098SOL    HW119193   2.379   2.568   5.974
 6098SOL    HW219194   2.496   2.582   5.860
 6099SOL     OW19195   5.852   5.815   5.148
 6099SOL    HW119196   5.847   5.899   5.201
 6099SOL    HW219197   5.943   5.805   5.109
 6100SOL     OW19198   6.579   3.146   6.707
 6100SOL    HW119199   6.588   3.117   6.803
 6100SOL    HW219200   6.482   3.149   6.683
 6101SOL     OW19201   6.984   2.155   5.387
 6101SOL    HW119202   6.888   2.129   5.399
 6101SOL    HW219203   0.007   2.152   5.475
 6102SOL     OW19204   3.027   0.826   5.129
 6102SOL    HW119205   2.975   0.905   5.096
 6102SOL    HW219206   3.054   0.769   5.051
 6103SOL     OW19207   0.250   0.380   3.858
 6103SOL    HW119208   0.302   0.403   3.940
 6103SOL    HW219209   0.287   0.296   3.817
 6104SOL     OW19210   5.825   1.914   6.903
 6104SOL    HW119211   5.904   1.973   6.921
 6104SOL    HW219212   5.857   1.820   6.889
 6105SOL     OW19213   3.503   5.981   6.226
 6105SOL    HW119214   3.569   6.051   6.198
 6105SOL    HW219215   3.538   5.932   6.306
 6106SOL     OW19216   3.237   5.343   6.800
 6106SOL    HW119217   3.195   5.373   6.885
 6106SOL    HW219218   3.166   5.328   6.731
 6107SOL     OW19219   2.130   4.681   4.946
 6107SOL    HW119220   2.078   4.606   4.904
 6107SOL    HW219221   2.176   4.734   4.875
 6108SOL     OW19222   0.746   2.276   4.129
 6108SOL    HW119223   0.757   2.318   4.038
 6108SOL    HW219224   0.837   2.261   4.169
 6109SOL     OW19225   5.237   2.859   0.339
 6109SOL    HW119226   5.324   2.817   0.365
 6109SOL    HW219227   5.248   2.958   0.332
 6110SOL     OW19228   3.101   2.055   5.788
 6110SOL    HW119229   3.040   1.979   5.809
 6110SOL    HW219230   3.099   2.121   5.862
 6111SOL     OW19231   0.966   4.690   3.041
 6111SOL    HW119232   0.977   4.788   3.028
 6111SOL    HW219233   0.957   4.670   3.139
 6112SOL     OW19234   1.754   1.603   3.056
 6112SOL    HW119235   1.696   1.683   3.043
 6112SOL    HW219236   1.849   1.628   3.034
 6113SOL     OW19237   1.301   0.676   6.116
 6113SOL    HW119238   1.281   0.753   6.176
 6113SOL    HW219239   1.271   0.697   6.023
 6114SOL     OW19240   5.242   5.663   0.290
 6114SOL    HW119241   5.277   5.753   0.264
 6114SOL    HW219242   5.318   5.598   0.295
 6115SOL     OW19243   4.991   5.278   2.952
 6115SOL    HW119244   5.060   5.206   2.954
 6115SOL    HW219245   4.901   5.240   2.974
 6116SOL     OW19246   3.119   1.014   1.568
 6116SOL    HW119247   3.070   1.101   1.576
 6116SOL    HW219248   3.183   1.019   1.491
 6117SOL     OW19249   5.758   0.061   4.272
 6117SOL    HW119250   5.675   0.111   4.296
 6117SOL    HW219251   5.739   7.018   4.201
 6118SOL     OW19252   6.488   1.526   3.062
 6118SOL    HW119253   6.431   1.447   3.083
 6118SOL    HW219254   6.493   1.539   2.963
 6119SOL     OW19255   0.318   5.266   4.879
 6119SOL    HW119256   0.292   5.319   4.959
 6119SOL    HW219257   0.310   5.324   4.797
 6120SOL     OW19258   3.508   0.049   3.646
 6120SOL    HW119259   3.472   6.984   3.672
 6120SOL    HW219260   3.444   0.121   3.675
 6121SOL     OW19261   0.383   2.616   3.391
 6121SOL    HW119262   0.336   2.676   3.326
 6121SOL    HW219263   0.398   2.666   3.476
 6122SOL     OW19264   3.911   5.847   3.273
 6122SOL    HW119265   3.825   5.799   3.253
 6122SOL    HW219266   3.940   5.898   3.192
 6123SOL     OW19267   0.007   1.040   1.386
 6123SOL    HW119268   6.975   1.021   1.306
 6123SOL    HW219269   0.101   1.058   1.358
 6124SOL     OW19270   3.291   0.384   5.358
 6124SOL    HW119271   3.288   0.316   5.285
 6124SOL    HW219272   3.386   0.396   5.388
 6125SOL     OW19273   1.685   6.025   1.737
 6125SOL    HW119274   1.739   5.985   1.811
 6125SOL    HW219275   1.720   5.992   1.649
 6126SOL     OW19276   4.845   4.865   3.605
 6126SOL    HW119277   4.794   4.950   3.623
 6126SOL    HW219278   4.932   4.867   3.654
 6127SOL     OW19279   2.063   6.331   1.237
 6127SOL    HW119280   2.118   6.247   1.237
 6127SOL    HW219281   2.013   6.337   1.323
 6128SOL     OW19282   0.387   2.716   0.658
 6128SOL    HW119283   0.386   2.687   0.562
 6128SOL    HW219284   0.311   2.779   0.674
 6129SOL     OW19285   6.274   3.613   2.708
 6129SOL    HW119286   6.182   3.650   2.692
 6129SOL    HW219287   6.269   3.513   2.717
 6130SOL     OW19288   5.340   2.757   3.621
 6130SOL    HW119289   5.353   2.826   3.549
 6130SOL    HW219290   5.348   2.666   3.581
 6131SOL     OW19291   6.938   1.514   5.996
 6131SOL    HW119292   6.943   1.584   5.925
 6131SOL    HW219293   6.977   1.550   6.081
 6132SOL     OW19294   3.772   2.488   0.356
 6132SOL    HW119295   3.832   2.495   0.276
 6132SOL    HW219296   3.753   2.579   0.391
 6133SOL     OW19297   0.431   3.490   1.509
 6133SOL    HW119298   0.449   3.505   1.412
 6133SOL    HW219299   0.437   3.578   1.558
 6134SOL     OW19300   3.273   3.735   6.510
 6134SOL    HW119301   3.271   3.835   6.508
 6134SOL    HW219302   3.211   3.701   6.581
 6135SOL     OW19303   6.538   6.902   1.145
 6135SOL    HW119304   6.469   6.974   1.139
 6135SOL    HW219305   6.506   6.821   1.096
 6136SOL     OW19306   1.218   1.832   2.553
 6136SOL    HW119307   1.281   1.866   2.483
 6136SOL    HW219308   1.155   1.766   2.512
 6137SOL     OW19309   3.314   6.729   5.763
 6137SOL    HW119310   3.327   6.634   5.791
 6137SOL    HW219311   3.393   6.760   5.710
 6138SOL     OW19312   3.665   6.736   2.410
 6138SOL    HW119313   3.681   6.709   2.315
 6138SOL    HW219314   3.753   6.751   2.455
 6139SOL     OW19315   1.553   4.501   5.094
 6139SOL    HW119316   1.553   4.427   5.027
 6139SOL    HW219317   1.626   4.566   5.071
 6140SOL     OW19318   1.049   0.310   1.940
 6140SOL    HW119319   1.063   0.403   1.976
 6140SOL    HW219320   1.123   0.287   1.877
 6141SOL     OW19321   0.029   5.506   5.737
 6141SOL    HW119322   0.060   5.521   5.831
 6141SOL    HW219323   0.040   5.410   5.714
 6142SOL     OW19324   6.828   3.853   0.750
 6142SOL    HW119325   6.876   3.798   0.681
 6142SOL    HW219326   6.770   3.793   0.806
 6143SOL     OW19327   6.157   5.202   6.339
 6143SOL    HW119328   6.134   5.298   6.353
 6143SOL    HW219329   6.099   5.163   6.268
 6144SOL     OW19330   0.247   4.133   3.225
 6144SOL    HW119331   0.342   4.131   3.258
 6144SOL    HW219332   0.220   4.042   3.196
 6145SOL     OW19333   5.130   5.441   3.133
 6145SOL    HW119334   5.059   5.431   3.203
 6145SOL    HW219335   5.093   5.418   3.043
 6146SOL     OW19336   5.316   1.473   3.204
 6146SOL    HW119337   5.342   1.377   3.193
 6146SOL    HW219338   5.240   1.494   3.143
 6147SOL     OW19339   2.218   4.444   2.936
 6147SOL    HW119340   2.281   4.515   2.969
 6147SOL    HW219341   2.262   4.391   2.864
 6148SOL     OW19342   5.897   6.209   4.448
 6148SOL    HW119343   5.903   6.219   4.349
 6148SOL    HW219344   5.941   6.287   4.492
 6149SOL     OW19345   3.225   4.972   2.987
 6149SOL    HW119346   3.271   4.948   3.072
 6149SOL    HW219347   3.152   4.906   2.968
 6150SOL     OW19348   4.692   5.916   6.766
 6150SOL    HW119349   4.636   5.923   6.684
 6150SOL    HW219350   4.712   5.820   6.785
 6151SOL     OW19351   4.736   2.361   5.536
 6151SOL    HW119352   4.722   2.430   5.464
 6151SOL    HW219353   4.774   2.278   5.495
 6152SOL     OW19354   5.776   4.528   6.619
 6152SOL    HW119355   5.828   4.500   6.539
 6152SOL    HW219356   5.836   4.526   6.700
 6153SOL     OW19357   4.586   4.059   1.382
 6153SOL    HW119358   4.519   3.987   1.401
 6153SOL    HW219359   4.585   4.081   1.285
 6154SOL     OW19360   5.988   1.958   2.367
 6154SOL    HW119361   5.897   1.985   2.398
 6154SOL    HW219362   6.044   1.931   2.445
 6155SOL     OW19363   0.376   3.440   4.556
 6155SOL    HW119364   0.284   3.417   4.590
 6155SOL    HW219365   0.428   3.356   4.543
 6156SOL     OW19366   5.476   6.521   3.144
 6156SOL    HW119367   5.440   6.478   3.061
 6156SOL    HW219368   5.497   6.617   3.126
 6157SOL     OW19369   2.068   2.019   3.802
 6157SOL    HW119370   2.081   2.039   3.705
 6157SOL    HW219371   2.064   1.920   3.815
 6158SOL     OW19372   4.235   0.849   6.901
 6158SOL    HW119373   4.305   0.815   6.838
 6158SOL    HW219374   4.248   0.805   6.990
 6159SOL     OW19375   5.166   2.208   0.065
 6159SOL    HW119376   5.078   2.232   0.023
 6159SOL    HW219377   5.238   2.263   0.024
 6160SOL     OW19378   5.564   5.771   0.904
 6160SOL    HW119379   5.517   5.806   0.986
 6160SOL    HW219380   5.602   5.847   0.853
 6161SOL     OW19381   5.971   0.579   5.733
 6161SOL    HW119382   5.872   0.590   5.727
 6161SOL    HW219383   6.010   0.652   5.789
 6162SOL     OW19384   0.945   5.311   4.529
 6162SOL    HW119385   0.952   5.233   4.467
 6162SOL    HW219386   1.030   5.363   4.527
 6163SOL     OW19387   5.901   4.145   0.550
 6163SOL    HW119388   6.001   4.138   0.543
 6163SOL    HW219389   5.877   4.234   0.590
 6164SOL     OW19390   2.952   1.350   0.963
 6164SOL    HW119391   2.879   1.329   0.899
 6164SOL    HW219392   3.027   1.285   0.950
 6165SOL     OW19393   4.143   6.032   0.387
 6165SOL    HW119394   4.220   6.084   0.349
 6165SOL    HW219395   4.114   6.075   0.472
 6166SOL     OW19396   2.948   1.814   5.825
 6166SOL    HW119397   2.947   1.800   5.924
 6166SOL    HW219398   2.866   1.863   5.797
 6167SOL     OW19399   0.476   4.455   2.602
 6167SOL    HW119400   0.485   4.357   2.583
 6167SOL    HW219401   0.383   4.485   2.580
 6168SOL     OW19402   0.263   4.007   1.807
 6168SOL    HW119403   0.346   3.988   1.754
 6168SOL    HW219404   0.289   4.042   1.897
 6169SOL     OW19405   2.294   4.089   2.070
 6169SOL    HW119406   2.346   4.051   1.993
 6169SOL    HW219407   2.249   4.014   2.119
 6170SOL     OW19408   0.121   3.370   5.241
 6170SOL    HW119409   0.171   3.290   5.210
 6170SOL    HW219410   0.026   3.363   5.212
 6171SOL     OW19411   0.633   0.565   0.474
 6171SOL    HW119412   0.583   0.621   0.540
 6171SOL    HW219413   0.712   0.522   0.519
 6172SOL     OW19414   0.701   2.830   2.781
 6172SOL    HW119415   0.702   2.800   2.686
 6172SOL    HW219416   0.745   2.920   2.788
 6173SOL     OW19417   6.532   6.756   2.982
 6173SOL    HW119418   6.434   6.766   2.963
 6173SOL    HW219419   6.584   6.818   2.924
 6174SOL     OW19420   5.441   4.369   2.501
 6174SOL    HW119421   5.516   4.375   2.567
 6174SOL    HW219422   5.362   4.326   2.545
 6175SOL     OW19423   2.476   1.421   5.246
 6175SOL    HW119424   2.387   1.450   5.211
 6175SOL    HW219425   2.536   1.500   5.251
 6176SOL     OW19426   4.342   4.268   5.316
 6176SOL    HW119427   4.317   4.346   5.259
 6176SOL    HW219428   4.440   4.249   5.304
 6177SOL     OW19429   5.589   1.077   1.908
 6177SOL    HW119430   5.562   1.143   1.839
 6177SOL    HW219431   5.686   1.054   1.897
 6178SOL     OW19432   5.332   4.246   2.235
 6178SOL    HW119433   5.378   4.278   2.318
 6178SOL    HW219434   5.311   4.148   2.245
 6179SOL     OW19435   6.545   5.189   2.300
 6179SOL    HW119436   6.556   5.152   2.392
 6179SOL    HW219437   6.635   5.212   2.262
 6180SOL     OW19438   2.831   4.879   0.660
 6180SOL    HW119439   2.884   4.891   0.577
 6180SOL    HW219440   2.880   4.818   0.723
 6181SOL     OW19441   4.718   5.126   6.572
 6181SOL    HW119442   4.621   5.146   6.575
 6181SOL    HW219443   4.754   5.145   6.481
 6182SOL     OW19444   3.166   3.312   0.247
 6182SOL    HW119445   3.266   3.305   0.241
 6182SOL    HW219446   3.126   3.285   0.160
 6183SOL     OW19447   1.089   2.049   1.192
 6183SOL    HW119448   1.173   2.028   1.144
 6183SOL    HW219449   1.017   2.070   1.126
 6184SOL     OW19450   2.811   0.839   6.208
 6184SOL    HW119451   2.857   0.772   6.266
 6184SOL    HW219452   2.816   0.809   6.113
 6185SOL     OW19453   3.628   2.907   5.127
 6185SOL    HW119454   3.576   2.935   5.047
 6185SOL    HW219455   3.576   2.838   5.178
 6186SOL     OW19456   5.963   1.991   1.945
 6186SOL    HW119457   6.000   1.922   2.006
 6186SOL    HW219458   5.994   1.974   1.851
 6187SOL     OW19459   5.227   2.466   5.219
 6187SOL    HW119460   5.218   2.375   5.178
 6187SOL    HW219461   5.227   2.535   5.146
 6188SOL     OW19462   1.694   1.888   4.836
 6188SOL    HW119463   1.611   1.933   4.804
 6188SOL    HW219464   1.749   1.859   4.758
 6189SOL     OW19465   4.845   6.290   1.993
 6189SOL    HW119466   4.823   6.259   1.901
 6189SOL    HW219467   4.793   6.373   2.015
 6190SOL     OW19468   6.475   2.208   5.232
 6190SOL    HW119469   6.380   2.178   5.246
 6190SOL    HW219470   6.490   2.226   5.135
 6191SOL     OW19471   3.042   3.603   6.582
 6191SOL    HW119472   3.004   3.648   6.501
 6191SOL    HW219473   3.022   3.506   6.579
 6192SOL     OW19474   2.516   1.824   0.398
 6192SOL    HW119475   2.548   1.839   0.491
 6192SOL    HW219476   2.553   1.738   0.363
 6193SOL     OW19477   5.197   5.625   0.617
 6193SOL    HW119478   5.237   5.627   0.525
 6193SOL    HW219479   5.098   5.611   0.610
 6194SOL     OW19480   6.835   0.752   6.175
 6194SOL    HW119481   6.925   0.718   6.200
 6194SOL    HW219482   6.827   0.848   6.202
 6195SOL     OW19483   6.445   0.034   5.180
 6195SOL    HW119484   6.433   0.133   5.190
 6195SOL    HW219485   6.356   7.014   5.167
 6196SOL     OW19486   5.448   3.623   2.561
 6196SOL    HW119487   5.485   3.582   2.477
 6196SOL    HW219488   5.463   3.560   2.637
 6197SOL     OW19489   2.611   5.475   2.376
 6197SOL    HW119490   2.621   5.571   2.404
 6197SOL    HW219491   2.514   5.453   2.366
 6198SOL     OW19492   5.741   6.497   6.914
 6198SOL    HW119493   5.669   6.442   6.873
 6198SOL    HW219494   5.805   6.438   6.963
 6199SOL     OW19495   0.986   0.344   0.755
 6199SOL    HW119496   1.039   0.370   0.835
 6199SOL    HW219497   1.040   0.283   0.697
 6200SOL     OW19498   2.252   2.194   2.252
 6200SOL    HW119499   2.285   2.165   2.342
 6200SOL    HW219500   2.282   2.288   2.234
 6201SOL     OW19501   6.730   3.374   3.863
 6201SOL    HW119502   6.702   3.278   3.860
 6201SOL    HW219503   6.679   3.422   3.933
 6202SOL     OW19504   6.405   1.221   2.770
 6202SOL    HW119505   6.403   1.129   2.730
 6202SOL    HW219506   6.312   1.259   2.770
 6203SOL     OW19507   6.758   5.571   1.834
 6203SOL    HW119508   6.691   5.639   1.862
 6203SOL    HW219509   6.784   5.587   1.738
 6204SOL     OW19510   1.599   0.018   5.487
 6204SOL    HW119511   1.509   0.021   5.446
 6204SOL    HW219512   1.661   0.080   5.439
 6205SOL     OW19513   4.897   4.012   2.037
 6205SOL    HW119514   4.886   3.955   2.118
 6205SOL    HW219515   4.964   3.970   1.975
 6206SOL     OW19516   4.958   2.239   4.327
 6206SOL    HW119517   4.979   2.332   4.357
 6206SOL    HW219518   4.873   2.208   4.370
 6207SOL     OW19519   1.755   5.706   4.540
 6207SOL    HW119520   1.670   5.737   4.581
 6207SOL    HW219521   1.793   5.631   4.594
 6208SOL     OW19522   3.473   2.582   5.816
 6208SOL    HW119523   3.531   2.544   5.887
 6208SOL    HW219524   3.509   2.671   5.787
 6209SOL     OW19525   3.794   3.933   1.215
 6209SOL    HW119526   3.742   3.849   1.196
 6209SOL    HW219527   3.888   3.921   1.184
 6210SOL     OW19528   4.816   2.604   3.478
 6210SOL    HW119529   4.717   2.615   3.486
 6210SOL    HW219530   4.838   2.508   3.462
 6211SOL     OW19531   4.680   5.376   4.878
 6211SOL    HW119532   4.601   5.419   4.833
 6211SOL    HW219533   4.712   5.435   4.952
 6212SOL     OW19534   3.747   5.462   6.257
 6212SOL    HW119535   3.820   5.421   6.203
 6212SOL    HW219536   3.742   5.560   6.238
 6213SOL     OW19537   4.267   5.861   0.722
 6213SOL    HW119538   4.167   5.867   0.719
 6213SOL    HW219539   4.295   5.767   0.703
 6214SOL     OW19540   6.395   6.068   5.287
 6214SOL    HW119541   6.410   6.067   5.386
 6214SOL    HW219542   6.473   6.026   5.241
 6215SOL     OW19543   4.981   2.311   6.302
 6215SOL    HW119544   4.921   2.234   6.326
 6215SOL    HW219545   5.031   2.289   6.218
 6216SOL     OW19546   4.859   2.904   2.982
 6216SOL    HW119547   4.793   2.864   2.920
 6216SOL    HW219548   4.855   2.856   3.070
 6217SOL     OW19549   0.987   4.406   2.482
 6217SOL    HW119550   1.009   4.308   2.478
 6217SOL    HW219551   0.948   4.434   2.394
 6218SOL     OW19552   4.805   6.872   0.629
 6218SOL    HW119553   4.717   6.826   0.626
 6218SOL    HW219554   4.850   6.865   0.540
 6219SOL     OW19555   1.191   1.039   5.537
 6219SOL    HW119556   1.140   1.049   5.451
 6219SOL    HW219557   1.136   1.074   5.612
 6220SOL     OW19558   4.145   1.021   1.055
 6220SOL    HW119559   4.079   1.012   0.980
 6220SOL    HW219560   4.098   1.054   1.137
 6221SOL     OW19561   6.233   6.180   6.690
 6221SOL    HW119562   6.237   6.133   6.601
 6221SOL    HW219563   6.139   6.179   6.724
 6222SOL     OW19564   6.489   1.519   2.476
 6222SOL    HW119565   6.512   1.423   2.459
 6222SOL    HW219566   6.391   1.532   2.464
 6223SOL     OW19567   0.465   5.643   4.156
 6223SOL    HW119568   0.401   5.614   4.228
 6223SOL    HW219569   0.454   5.585   4.076
 6224SOL     OW19570   4.325   1.719   6.515
 6224SOL    HW119571   4.275   1.798   6.550
 6224SOL    HW219572   4.381   1.679   6.587
 6225SOL     OW19573   3.740   6.764   6.380
 6225SOL    HW119574   3.750   6.718   6.469
 6225SOL    HW219575   3.695   6.703   6.315
 6226SOL     OW19576   1.203   1.459   3.778
 6226SOL    HW119577   1.226   1.465   3.875
 6226SOL    HW219578   1.109   1.426   3.768
 6227SOL     OW19579   3.044   3.903   5.404
 6227SOL    HW119580   3.039   3.930   5.308
 6227SOL    HW219581   2.995   3.969   5.460
 6228SOL     OW19582   1.944   2.752   4.041
 6228SOL    HW119583   1.909   2.683   3.978
 6228SOL    HW219584   2.001   2.817   3.992
 6229SOL     OW19585   0.277   3.658   4.422
 6229SOL    HW119586   0.301   3.566   4.453
 6229SOL    HW219587   0.337   3.686   4.347
 6230SOL     OW19588   0.557   0.781   1.990
 6230SOL    HW119589   0.526   0.731   1.910
 6230SOL    HW219590   0.494   0.857   2.010
 6231SOL     OW19591   6.725   4.693   0.135
 6231SOL    HW119592   6.703   4.597   0.118
 6231SOL    HW219593   6.641   4.743   0.157
 6232SOL     OW19594   5.421   1.244   6.847
 6232SOL    HW119595   5.481   1.314   6.809
 6232SOL    HW219596   5.476   1.178   6.899
 6233SOL     OW19597   0.288   3.562   1.028
 6233SOL    HW119598   0.345   3.507   0.968
 6233SOL    HW219599   0.216   3.606   0.975
 6234SOL     OW19600   6.756   6.987   4.418
 6234SOL    HW119601   6.732   6.906   4.472
 6234SOL    HW219602   6.778   6.959   4.324
 6235SOL     OW19603   6.810   1.119   2.507
 6235SOL    HW119604   6.791   1.046   2.572
 6235SOL    HW219605   6.903   1.109   2.472
 6236SOL     OW19606   0.570   4.492   0.934
 6236SOL    HW119607   0.492   4.430   0.929
 6236SOL    HW219608   0.539   4.583   0.962
 6237SOL     OW19609   3.555   0.799   1.496
 6237SOL    HW119610   3.498   0.755   1.425
 6237SOL    HW219611   3.624   0.857   1.452
 6238SOL     OW19612   2.439   6.581   4.373
 6238SOL    HW119613   2.369   6.639   4.330
 6238SOL    HW219614   2.493   6.636   4.437
 6239SOL     OW19615   4.798   0.645   3.403
 6239SOL    HW119616   4.768   0.563   3.453
 6239SOL    HW219617   4.719   0.694   3.368
 6240SOL     OW19618   3.858   3.078   4.606
 6240SOL    HW119619   3.845   2.992   4.655
 6240SOL    HW219620   3.810   3.074   4.518
 6241SOL     OW19621   2.941   6.816   3.870
 6241SOL    HW119622   2.887   6.801   3.787
 6241SOL    HW219623   2.919   6.906   3.908
 6242SOL     OW19624   3.303   1.528   3.827
 6242SOL    HW119625   3.341   1.603   3.772
 6242SOL    HW219626   3.205   1.540   3.837
 6243SOL     OW19627   5.532   1.413   5.949
 6243SOL    HW119628   5.495   1.322   5.930
 6243SOL    HW219629   5.607   1.406   6.015
 6244SOL     OW19630   4.350   4.701   2.468
 6244SOL    HW119631   4.319   4.678   2.376
 6244SOL    HW219632   4.368   4.616   2.519
 6245SOL     OW19633   0.613   4.518   2.329
 6245SOL    HW119634   0.544   4.572   2.280
 6245SOL    HW219635   0.618   4.549   2.424
 6246SOL     OW19636   0.626   6.720   4.549
 6246SOL    HW119637   0.717   6.744   4.515
 6246SOL    HW219638   0.617   6.620   4.551
 6247SOL     OW19639   6.861   5.718   3.542
 6247SOL    HW119640   6.893   5.812   3.531
 6247SOL    HW219641   6.922   5.656   3.492
 6248SOL     OW19642   3.273   3.137   6.798
 6248SOL    HW119643   3.178   3.116   6.774
 6248SOL    HW219644   3.309   3.067   6.859
 6249SOL     OW19645   6.627   2.671   0.761
 6249SOL    HW119646   6.619   2.572   0.747
 6249SOL    HW219647   6.673   2.712   0.683
 6250SOL     OW19648   0.176   0.611   0.719
 6250SOL    HW119649   0.164   0.542   0.647
 6250SOL    HW219650   0.158   0.569   0.808
 6251SOL     OW19651   2.974   6.713   4.625
 6251SOL    HW119652   2.877   6.715   4.647
 6251SOL    HW219653   3.012   6.624   4.651
 6252SOL     OW19654   2.773   5.648   0.235
 6252SOL    HW119655   2.712   5.727   0.226
 6252SOL    HW219656   2.805   5.621   0.144
 6253SOL     OW19657   3.351   5.006   4.946
 6253SOL    HW119658   3.280   5.021   4.877
 6253SOL    HW219659   3.334   4.919   4.993
 6254SOL     OW19660   0.137   6.083   1.115
 6254SOL    HW119661   0.104   6.111   1.025
 6254SOL    HW219662   0.224   6.035   1.105
 6255SOL     OW19663   0.299   1.776   1.399
 6255SOL    HW119664   0.388   1.821   1.395
 6255SOL    HW219665   0.248   1.812   1.478
 6256SOL     OW19666   4.707   5.351   2.770
 6256SOL    HW119667   4.673   5.260   2.751
 6256SOL    HW219668   4.696   5.372   2.867
 6257SOL     OW19669   4.292   3.988   1.386
 6257SOL    HW119670   4.259   4.051   1.317
 6257SOL    HW219671   4.258   4.015   1.476
 6258SOL     OW19672   4.796   6.284   5.636
 6258SOL    HW119673   4.707   6.238   5.640
 6258SOL    HW219674   4.869   6.217   5.649
 6259SOL     OW19675   1.905   0.123   5.152
 6259SOL    HW119676   1.882   0.106   5.056
 6259SOL    HW219677   1.851   0.200   5.186
 6260SOL     OW19678   2.204   0.935   0.592
 6260SOL    HW119679   2.216   0.844   0.553
 6260SOL    HW219680   2.291   0.984   0.590
 6261SOL     OW19681   3.985   6.091   1.796
 6261SOL    HW119682   3.920   6.167   1.795
 6261SOL    HW219683   3.964   6.028   1.722
 6262SOL     OW19684   6.676   6.717   2.145
 6262SOL    HW119685   6.581   6.724   2.115
 6262SOL    HW219686   6.725   6.652   2.087
 6263SOL     OW19687   6.645   5.815   5.329
 6263SOL    HW119688   6.623   5.857   5.241
 6263SOL    HW219689   6.597   5.863   5.402
 6264SOL     OW19690   0.967   0.280   1.049
 6264SOL    HW119691   1.055   0.322   1.030
 6264SOL    HW219692   0.911   0.343   1.103
 6265SOL     OW19693   4.675   2.034   0.171
 6265SOL    HW119694   4.653   2.034   0.268
 6265SOL    HW219695   4.592   2.048   0.118
 6266SOL     OW19696   2.847   5.583   3.361
 6266SOL    HW119697   2.818   5.512   3.425
 6266SOL    HW219698   2.770   5.611   3.304
 6267SOL     OW19699   1.120   6.913   5.109
 6267SOL    HW119700   1.134   7.010   5.129
 6267SOL    HW219701   1.061   6.873   5.179
 6268SOL     OW19702   3.165   0.340   1.785
 6268SOL    HW119703   3.190   0.358   1.880
 6268SOL    HW219704   3.105   0.260   1.780
 6269SOL     OW19705   5.854   5.901   1.357
 6269SOL    HW119706   5.807   5.813   1.361
 6269SOL    HW219707   5.904   5.908   1.271
 6270SOL     OW19708   1.496   5.925   0.298
 6270SOL    HW119709   1.422   5.957   0.357
 6270SOL    HW219710   1.473   5.947   0.203
 6271SOL     OW19711   6.066   3.296   6.628
 6271SOL    HW119712   6.136   3.352   6.583
 6271SOL    HW219713   6.076   3.302   6.727
 6272SOL     OW19714   6.400   0.330   0.572
 6272SOL    HW119715   6.316   0.291   0.611
 6272SOL    HW219716   6.478   0.271   0.594
 6273SOL     OW19717   0.072   0.142   1.627
 6273SOL    HW119718   6.999   0.159   1.607
 6273SOL    HW219719   0.097   0.051   1.594
 6274SOL     OW19720   3.792   5.764   4.973
 6274SOL    HW119721   3.730   5.730   5.044
 6274SOL    HW219722   3.777   5.713   4.888
 6275SOL     OW19723   1.877   5.418   0.028
 6275SOL    HW119724   1.787   5.418   0.072
 6275SOL    HW219725   1.912   5.325   0.024
 6276SOL     OW19726   2.044   5.657   2.968
 6276SOL    HW119727   2.114   5.642   3.038
 6276SOL    HW219728   1.958   5.683   3.011
 6277SOL     OW19729   5.460   2.911   1.281
 6277SOL    HW119730   5.435   2.916   1.185
 6277SOL    HW219731   5.559   2.897   1.289
 6278SOL     OW19732   2.785   6.983   6.203
 6278SOL    HW119733   2.814   7.023   6.116
 6278SOL    HW219734   2.842   7.019   6.277
 6279SOL     OW19735   2.991   0.086   1.874
 6279SOL    HW119736   2.897   0.119   1.862
 6279SOL    HW219737   3.007   0.009   1.812
 6280SOL     OW19738   6.761   1.812   6.554
 6280SOL    HW119739   6.844   1.847   6.596
 6280SOL    HW219740   6.688   1.879   6.564
 6281SOL     OW19741   6.288   4.189   5.224
 6281SOL    HW119742   6.195   4.153   5.225
 6281SOL    HW219743   6.291   4.277   5.272
 6282SOL     OW19744   0.451   3.592   5.894
 6282SOL    HW119745   0.491   3.548   5.974
 6282SOL    HW219746   0.374   3.537   5.861
 6283SOL     OW19747   0.741   6.419   5.573
 6283SOL    HW119748   0.805   6.422   5.497
 6283SOL    HW219749   0.782   6.462   5.654
 6284SOL     OW19750   2.111   4.778   6.607
 6284SOL    HW119751   2.060   4.692   6.616
 6284SOL    HW219752   2.139   4.809   6.698
 6285SOL     OW19753   1.126   3.417   3.306
 6285SOL    HW119754   1.086   3.509   3.303
 6285SOL    HW219755   1.180   3.406   3.389
 6286SOL     OW19756   0.641   3.175   4.972
 6286SOL    HW119757   0.592   3.150   4.888
 6286SOL    HW219758   0.612   3.115   5.046
 6287SOL     OW19759   4.484   4.704   5.344
 6287SOL    HW119760   4.551   4.771   5.311
 6287SOL    HW219761   4.483   4.705   5.444
 6288SOL     OW19762   3.588   3.169   6.598
 6288SOL    HW119763   3.620   3.078   6.623
 6288SOL    HW219764   3.525   3.163   6.521
 6289SOL     OW19765   2.451   4.869   6.071
 6289SOL    HW119766   2.432   4.805   6.146
 6289SOL    HW219767   2.373   4.872   6.009
 6290SOL     OW19768   5.406   5.339   4.949
 6290SOL    HW119769   5.396   5.423   4.894
 6290SOL    HW219770   5.460   5.359   5.030
 6291SOL     OW19771   3.012   3.168   2.730
 6291SOL    HW119772   3.013   3.104   2.807
 6291SOL    HW219773   3.069   3.133   2.656
 6292SOL     OW19774   2.001   3.200   4.628
 6292SOL    HW119775   1.960   3.166   4.713
 6292SOL    HW219776   2.077   3.142   4.602
 6293SOL     OW19777   4.426   0.792   6.679
 6293SOL    HW119778   4.440   0.888   6.704
 6293SOL    HW219779   4.508   0.759   6.631
 6294SOL     OW19780   2.360   1.515   3.694
 6294SOL    HW119781   2.330   1.570   3.772
 6294SOL    HW219782   2.449   1.548   3.663
 6295SOL     OW19783   5.521   4.128   5.335
 6295SOL    HW119784   5.461   4.049   5.349
 6295SOL    HW219785   5.530   4.178   5.421
 6296SOL     OW19786   0.475   2.571   6.528
 6296SOL    HW119787   0.421   2.533   6.453
 6296SOL    HW219788   0.545   2.505   6.554
 6297SOL     OW19789   6.230   0.486   3.998
 6297SOL    HW119790   6.232   0.446   3.906
 6297SOL    HW219791   6.273   0.576   3.997
 6298SOL     OW19792   6.199   4.934   0.540
 6298SOL    HW119793   6.131   4.998   0.504
 6298SOL    HW219794   6.163   4.840   0.534
 6299SOL     OW19795   4.922   2.119   2.890
 6299SOL    HW119796   5.013   2.153   2.863
 6299SOL    HW219797   4.852   2.179   2.853
 6300SOL     OW19798   3.067   0.104   5.760
 6300SOL    HW119799   3.083   0.123   5.857
 6300SOL    HW219800   3.150   0.123   5.708
 6301SOL     OW19801   3.317   6.681   0.485
 6301SOL    HW119802   3.258   6.742   0.539
 6301SOL    HW219803   3.319   6.591   0.528
 6302SOL     OW19804   2.636   1.228   5.788
 6302SOL    HW119805   2.577   1.184   5.720
 6302SOL    HW219806   2.727   1.242   5.748
 6303SOL     OW19807   1.254   5.857   5.781
 6303SOL    HW119808   1.261   5.825   5.686
 6303SOL    HW219809   1.186   5.802   5.829
 6304SOL     OW19810   3.934   1.302   3.265
 6304SOL    HW119811   3.913   1.239   3.339
 6304SOL    HW219812   3.906   1.395   3.291
 6305SOL     OW19813   0.446   6.228   6.131
 6305SOL    HW119814   0.424   6.148   6.076
 6305SOL    HW219815   0.459   6.307   6.072
 6306SOL     OW19816   6.916   4.628   3.837
 6306SOL    HW119817   6.909   4.529   3.846
 6306SOL    HW219818   6.944   4.651   3.744
 6307SOL     OW19819   3.896   3.474   3.264
 6307SOL    HW119820   3.845   3.412   3.205
 6307SOL    HW219821   3.911   3.561   3.216
 6308SOL     OW19822   0.435   2.829   0.196
 6308SOL    HW119823   0.408   2.768   0.270
 6308SOL    HW219824   0.358   2.890   0.173
 6309SOL     OW19825   1.810   6.070   4.205
 6309SOL    HW119826   1.729   6.124   4.226
 6309SOL    HW219827   1.889   6.130   4.194
 6310SOL     OW19828   1.940   6.498   3.264
 6310SOL    HW119829   2.012   6.565   3.249
 6310SOL    HW219830   1.926   6.444   3.181
 6311SOL     OW19831   5.214   0.938   6.331
 6311SOL    HW119832   5.178   0.990   6.409
 6311SOL    HW219833   5.181   0.980   6.246
 6312SOL     OW19834   3.144   6.594   6.939
 6312SOL    HW119835   3.124   6.657   7.014
 6312SOL    HW219836   3.234   6.553   6.953
 6313SOL     OW19837   5.856   6.150   3.222
 6313SOL    HW119838   5.808   6.075   3.267
 6313SOL    HW219839   5.821   6.238   3.256
 6314SOL     OW19840   2.086   6.963   1.644
 6314SOL    HW119841   2.183   6.961   1.669
 6314SOL    HW219842   2.041   0.015   1.692
 6315SOL     OW19843   2.314   2.849   3.933
 6315SOL    HW119844   2.279   2.941   3.952
 6315SOL    HW219845   2.351   2.809   4.016
 6316SOL     OW19846   5.777   1.521   4.319
 6316SOL    HW119847   5.730   1.460   4.383
 6316SOL    HW219848   5.717   1.598   4.296
 6317SOL     OW19849   4.926   4.715   1.894
 6317SOL    HW119850   4.896   4.729   1.800
 6317SOL    HW219851   4.997   4.781   1.917
 6318SOL     OW19852   6.346   0.174   5.794
 6318SOL    HW119853   6.363   0.163   5.892
 6318SOL    HW219854   6.304   0.263   5.778
 6319SOL     OW19855   5.572   2.013   4.419
 6319SOL    HW119856   5.558   2.112   4.408
 6319SOL    HW219857   5.601   1.994   4.513
 6320SOL     OW19858   6.490   1.480   4.278
 6320SOL    HW119859   6.419   1.424   4.320
 6320SOL    HW219860   6.471   1.491   4.180
 6321SOL     OW19861   5.702   2.063   0.631
 6321SOL    HW119862   5.668   1.981   0.678
 6321SOL    HW219863   5.703   2.046   0.532
 6322SOL     OW19864   1.676   0.790   1.310
 6322SOL    HW119865   1.708   0.713   1.364
 6322SOL    HW219866   1.736   0.869   1.326
 6323SOL     OW19867   2.889   3.315   1.508
 6323SOL    HW119868   2.830   3.315   1.427
 6323SOL    HW219869   2.970   3.370   1.490
 6324SOL     OW19870   4.576   1.538   0.964
 6324SOL    HW119871   4.553   1.461   0.904
 6324SOL    HW219872   4.616   1.503   1.049
 6325SOL     OW19873   1.901   2.409   3.373
 6325SOL    HW119874   1.853   2.483   3.326
 6325SOL    HW219875   1.982   2.383   3.320
 6326SOL     OW19876   5.328   4.791   6.407
 6326SOL    HW119877   5.336   4.848   6.325
 6326SOL    HW219878   5.399   4.720   6.406
 6327SOL     OW19879   6.934   0.296   3.441
 6327SOL    HW119880   6.974   0.205   3.446
 6327SOL    HW219881   6.896   0.310   3.349
 6328SOL     OW19882   4.294   3.482   5.813
 6328SOL    HW119883   4.219   3.475   5.747
 6328SOL    HW219884   4.362   3.411   5.794
 6329SOL     OW19885   1.547   3.100   5.535
 6329SOL    HW119886   1.530   3.199   5.534
 6329SOL    HW219887   1.622   3.079   5.597
 6330SOL     OW19888   5.509   0.583   3.338
 6330SOL    HW119889   5.531   0.678   3.316
 6330SOL    HW219890   5.485   0.575   3.434
 6331SOL     OW19891   0.068   3.297   2.631
 6331SOL    HW119892   0.150   3.292   2.574
 6331SOL    HW219893   7.012   3.271   2.577
 6332SOL     OW19894   2.507   1.517   1.050
 6332SOL    HW119895   2.604   1.505   1.073
 6332SOL    HW219896   2.478   1.443   0.990
 6333SOL     OW19897   4.518   1.262   0.284
 6333SOL    HW119898   4.450   1.330   0.313
 6333SOL    HW219899   4.522   1.188   0.351
 6334SOL     OW19900   2.209   0.956   1.853
 6334SOL    HW119901   2.214   0.990   1.759
 6334SOL    HW219902   2.247   1.025   1.915
 6335SOL     OW19903   6.315   1.439   0.455
 6335SOL    HW119904   6.220   1.443   0.423
 6335SOL    HW219905   6.323   1.368   0.525
 6336SOL     OW19906   0.744   3.300   6.037
 6336SOL    HW119907   0.750   3.207   6.002
 6336SOL    HW219908   0.740   3.298   6.137
 6337SOL     OW19909   4.661   5.705   5.341
 6337SOL    HW119910   4.654   5.789   5.395
 6337SOL    HW219911   4.582   5.697   5.281
 6338SOL     OW19912   3.059   1.844   4.128
 6338SOL    HW119913   2.993   1.898   4.077
 6338SOL    HW219914   3.025   1.750   4.136
 6339SOL     OW19915   1.307   4.457   3.629
 6339SOL    HW119916   1.388   4.416   3.587
 6339SOL    HW219917   1.241   4.480   3.558
 6340SOL     OW19918   2.123   4.046   1.563
 6340SOL    HW119919   2.093   4.127   1.511
 6340SOL    HW219920   2.208   4.068   1.612
 6341SOL     OW19921   0.946   4.489   3.553
 6341SOL    HW119922   0.986   4.523   3.638
 6341SOL    HW219923   0.879   4.418   3.574
 6342SOL     OW19924   1.993   1.673   2.059
 6342SOL    HW119925   1.990   1.709   2.153
 6342SOL    HW219926   1.960   1.742   1.996
 6343SOL     OW19927   2.233   6.131   1.185
 6343SOL    HW119928   2.323   6.098   1.157
 6343SOL    HW219929   2.224   6.122   1.284
 6344SOL     OW19930   6.987   1.364   3.600
 6344SOL    HW119931   6.964   1.358   3.503
 6344SOL    HW219932   7.000   1.460   3.626
 6345SOL     OW19933   5.842   3.594   1.277
 6345SOL    HW119934   5.742   3.598   1.287
 6345SOL    HW219935   5.878   3.687   1.262
 6346SOL     OW19936   0.162   4.310   5.333
 6346SOL    HW119937   0.219   4.253   5.274
 6346SOL    HW219938   0.073   4.267   5.344
 6347SOL     OW19939   2.537   1.845   2.585
 6347SOL    HW119940   2.510   1.749   2.586
 6347SOL    HW219941   2.623   1.855   2.534
 6348SOL     OW19942   6.947   2.459   5.504
 6348SOL    HW119943   6.950   2.361   5.482
 6348SOL    HW219944   6.995   2.510   5.434
 6349SOL     OW19945   6.905   1.139   0.121
 6349SOL    HW119946   6.967   1.121   0.197
 6349SOL    HW219947   6.918   1.069   0.050
 6350SOL     OW19948   1.400   4.510   1.862
 6350SOL    HW119949   1.443   4.529   1.774
 6350SOL    HW219950   1.304   4.538   1.859
 6351SOL     OW19951   5.512   3.450   2.005
 6351SOL    HW119952   5.500   3.544   2.036
 6351SOL    HW219953   5.424   3.403   2.004
 6352SOL     OW19954   2.324   0.344   4.975
 6352SOL    HW119955   2.242   0.368   4.922
 6352SOL    HW219956   2.307   0.363   5.072
 6353SOL     OW19957   3.102   6.269   6.646
 6353SOL    HW119958   3.030   6.336   6.667
 6353SOL    HW219959   3.130   6.279   6.550
 6354SOL     OW19960   4.796   4.995   2.493
 6354SOL    HW119961   4.709   4.949   2.477
 6354SOL    HW219962   4.799   5.029   2.587
 6355SOL     OW19963   3.001   4.744   0.840
 6355SOL    HW119964   2.972   4.681   0.912
 6355SOL    HW219965   3.052   4.694   0.770
 6356SOL     OW19966   5.882   3.768   6.394
 6356SOL    HW119967   5.813   3.717   6.445
 6356SOL    HW219968   5.919   3.841   6.453
 6357SOL     OW19969   5.335   1.445   1.251
 6357SOL    HW119970   5.286   1.359   1.265
 6357SOL    HW219971   5.353   1.489   1.339
 6358SOL     OW19972   1.305   2.535   6.884
 6358SOL    HW119973   1.389   2.553   6.935
 6358SOL    HW219974   1.318   2.564   6.789
 6359SOL     OW19975   5.936   6.062   0.176
 6359SOL    HW119976   5.957   6.135   0.241
 6359SOL    HW219977   6.021   6.017   0.148
 6360SOL     OW19978   1.044   2.588   2.393
 6360SOL    HW119979   1.071   2.496   2.366
 6360SOL    HW219980   1.114   2.653   2.365
 6361SOL     OW19981   0.378   0.807   0.055
 6361SOL    HW119982   0.452   0.743   0.077
 6361SOL    HW219983   0.291   0.770   0.087
 6362SOL     OW19984   0.854   5.310   6.959
 6362SOL    HW119985   0.914   5.387   6.937
 6362SOL    HW219986   0.777   5.343   7.014
 6363SOL     OW19987   2.827   5.095   3.655
 6363SOL    HW119988   2.876   5.173   3.696
 6363SOL    HW219989   2.759   5.061   3.721
 6364SOL     OW19990   2.442   2.648   4.943
 6364SOL    HW119991   2.357   2.615   4.984
 6364SOL    HW219992   2.423   2.687   4.854
 6365SOL     OW19993   6.132   5.065   3.739
 6365SOL    HW119994   6.129   5.088   3.836
 6365SOL    HW219995   6.081   4.980   3.723
 6366SOL     OW19996   5.794   6.864   4.730
 6366SOL    HW119997   5.696   6.880   4.735
 6366SOL    HW219998   5.829   6.900   4.643
 6367SOL     OW19999   2.570   1.842   2.904
 6367SOL    HW120000   2.544   1.814   2.812
 6367SOL    HW220001   2.506   1.912   2.937
 6368SOL     OW20002   5.138   3.357   4.774
 6368SOL    HW120003   5.192   3.434   4.740
 6368SOL    HW220004   5.199   3.289   4.815
 6369SOL     OW20005   2.839   6.120   6.416
 6369SOL    HW120006   2.878   6.099   6.326
 6369SOL    HW220007   2.796   6.210   6.413
 6370SOL     OW20008   5.633   3.438   3.781
 6370SOL    HW120009   5.651   3.441   3.683
 6370SOL    HW220010   5.606   3.345   3.807
 6371SOL     OW20011   5.412   3.852   1.767
 6371SOL    HW120012   5.461   3.767   1.753
 6371SOL    HW220013   5.313   3.835   1.766
 6372SOL     OW20014   6.939   0.769   3.034
 6372SOL    HW120015   6.925   0.862   2.999
 6372SOL    HW220016   6.851   0.732   3.064
 6373SOL     OW20017   5.549   3.603   1.315
 6373SOL    HW120018   5.580   3.553   1.396
 6373SOL    HW220019   5.465   3.653   1.337
 6374SOL     OW20020   4.915   2.718   0.250
 6374SOL    HW120021   4.838   2.773   0.218
 6374SOL    HW220022   4.976   2.699   0.173
 6375SOL     OW20023   6.658   2.568   1.880
 6375SOL    HW120024   6.698   2.548   1.790
 6375SOL    HW220025   6.728   2.606   1.940
 6376SOL     OW20026   3.325   0.687   6.456
 6376SOL    HW120027   3.333   0.607   6.396
 6376SOL    HW220028   3.416   0.717   6.484
 6377SOL     OW20029   6.889   0.776   0.563
 6377SOL    HW120030   6.838   0.728   0.635
 6377SOL    HW220031   6.972   0.815   0.603
 6378SOL     OW20032   5.595   5.495   3.279
 6378SOL    HW120033   5.575   5.506   3.182
 6378SOL    HW220034   5.591   5.399   3.304
 6379SOL     OW20035   2.790   6.176   0.379
 6379SOL    HW120036   2.776   6.080   0.358
 6379SOL    HW220037   2.883   6.202   0.355
 6380SOL     OW20038   1.246   3.458   5.299
 6380SOL    HW120039   1.280   3.463   5.393
 6380SOL    HW220040   1.228   3.363   5.275
 6381SOL     OW20041   4.708   2.880   0.151
 6381SOL    HW120042   4.736   2.962   0.201
 6381SOL    HW220043   4.614   2.892   0.119
 6382SOL     OW20044   1.959   1.766   1.374
 6382SOL    HW120045   1.935   1.679   1.416
 6382SOL    HW220046   2.013   1.750   1.292
 6383SOL     OW20047   1.797   2.156   2.356
 6383SOL    HW120048   1.800   2.254   2.375
 6383SOL    HW220049   1.790   2.141   2.257
 6384SOL     OW20050   6.382   2.424   2.130
 6384SOL    HW120051   6.390   2.334   2.086
 6384SOL    HW220052   6.298   2.468   2.100
 6385SOL     OW20053   0.191   2.936   0.927
 6385SOL    HW120054   0.112   2.907   0.981
 6385SOL    HW220055   0.175   3.028   0.891
 6386SOL     OW20056   2.157   3.340   0.081
 6386SOL    HW120057   2.193   3.247   0.096
 6386SOL    HW220058   2.162   3.363   7.008
 6387SOL     OW20059   6.652   0.208   6.776
 6387SOL    HW120060   6.638   0.180   6.871
 6387SOL    HW220061   6.750   0.204   6.754
 6388SOL     OW20062   6.164   5.458   2.590
 6388SOL    HW120063   6.151   5.360   2.605
 6388SOL    HW220064   6.083   5.507   2.621
 6389SOL     OW20065   1.221   0.870   6.629
 6389SOL    HW120066   1.274   0.927   6.566
 6389SOL    HW220067   1.261   0.779   6.635
 6390SOL     OW20068   6.563   1.390   6.223
 6390SOL    HW120069   6.477   1.377   6.271
 6390SOL    HW220070   6.624   1.448   6.278
 6391SOL     OW20071   1.165   1.633   5.102
 6391SOL    HW120072   1.130   1.716   5.058
 6391SOL    HW220073   1.232   1.589   5.041
 6392SOL     OW20074   4.260   6.499   3.900
 6392SOL    HW120075   4.329   6.557   3.856
 6392SOL    HW220076   4.233   6.426   3.838
 6393SOL     OW20077   6.882   5.674   1.383
 6393SOL    HW120078   6.929   5.740   1.325
 6393SOL    HW220079   6.818   5.621   1.328
 6394SOL     OW20080   1.247   5.446   1.088
 6394SOL    HW120081   1.341   5.410   1.087
 6394SOL    HW220082   1.233   5.502   1.006
 6395SOL     OW20083   1.922   4.382   3.513
 6395SOL    HW120084   1.844   4.356   3.570
 6395SOL    HW220085   2.006   4.375   3.566
 6396SOL     OW20086   0.566   3.478   0.415
 6396SOL    HW120087   0.626   3.415   0.366
 6396SOL    HW220088   0.472   3.442   0.416
 6397SOL     OW20089   5.948   2.172   3.670
 6397SOL    HW120090   5.950   2.204   3.765
 6397SOL    HW220091   6.036   2.192   3.627
 6398SOL     OW20092   1.416   0.092   1.049
 6398SOL    HW120093   1.504   0.057   1.019
 6398SOL    HW220094   1.346   0.021   1.038
 6399SOL     OW20095   2.608   0.588   6.062
 6399SOL    HW120096   2.560   0.634   5.988
 6399SOL    HW220097   2.573   0.621   6.150
 6400SOL     OW20098   1.230   5.807   3.163
 6400SOL    HW120099   1.292   5.752   3.107
 6400SOL    HW220100   1.241   5.782   3.259
 6401SOL     OW20101   3.644   5.938   3.471
 6401SOL    HW120102   3.684   5.877   3.540
 6401SOL    HW220103   3.665   5.903   3.379
 6402SOL     OW20104   2.255   4.745   5.181
 6402SOL    HW120105   2.210   4.740   5.092
 6402SOL    HW220106   2.204   4.691   5.248
 6403SOL     OW20107   4.716   6.050   4.863
 6403SOL    HW120108   4.633   6.065   4.916
 6403SOL    HW220109   4.710   6.099   4.777
 6404SOL     OW20110   4.112   0.570   2.233
 6404SOL    HW120111   4.131   0.628   2.154
 6404SOL    HW220112   4.022   0.528   2.222
 6405SOL     OW20113   5.261   1.492   2.490
 6405SOL    HW120114   5.222   1.564   2.548
 6405SOL    HW220115   5.327   1.532   2.426
 6406SOL     OW20116   1.135   2.693   2.781
 6406SOL    HW120117   1.066   2.656   2.720
 6406SOL    HW220118   1.122   2.791   2.791
 6407SOL     OW20119   1.919   6.090   2.768
 6407SOL    HW120120   1.913   6.185   2.738
 6407SOL    HW220121   1.900   6.085   2.866
 6408SOL     OW20122   6.489   1.093   0.732
 6408SOL    HW120123   6.486   1.003   0.689
 6408SOL    HW220124   6.584   1.124   0.737
 6409SOL     OW20125   6.657   4.712   3.886
 6409SOL    HW120126   6.617   4.801   3.908
 6409SOL    HW220127   6.757   4.721   3.883
 6410SOL     OW20128   3.048   1.761   5.576
 6410SOL    HW120129   3.062   1.837   5.512
 6410SOL    HW220130   3.007   1.795   5.660
 6411SOL     OW20131   0.535   2.303   2.589
 6411SOL    HW120132   0.469   2.345   2.651
 6411SOL    HW220133   0.581   2.227   2.636
 6412SOL     OW20134   2.892   0.510   7.003
 6412SOL    HW120135   2.910   0.453   6.923
 6412SOL    HW220136   2.807   0.562   6.988
 6413SOL     OW20137   4.768   5.158   3.905
 6413SOL    HW120138   4.673   5.175   3.932
 6413SOL    HW220139   4.773   5.137   3.808
 6414SOL     OW20140   1.339   6.752   0.297
 6414SOL    HW120141   1.358   6.731   0.201
 6414SOL    HW220142   1.245   6.728   0.319
 6415SOL     OW20143   0.955   2.853   3.021
 6415SOL    HW120144   0.937   2.767   2.974
 6415SOL    HW220145   1.052   2.875   3.013
 6416SOL     OW20146   2.552   0.711   6.815
 6416SOL    HW120147   2.485   0.743   6.883
 6416SOL    HW220148   2.582   0.789   6.759
 6417SOL     OW20149   4.000   1.583   0.446
 6417SOL    HW120150   3.984   1.489   0.478
 6417SOL    HW220151   3.912   1.625   0.425
 6418SOL     OW20152   4.435   5.291   1.275
 6418SOL    HW120153   4.522   5.341   1.282
 6418SOL    HW220154   4.361   5.356   1.257
 6419SOL     OW20155   0.636   6.703   6.957
 6419SOL    HW120156   0.639   6.627   6.893
 6419SOL    HW220157   0.694   6.778   6.923
 6420SOL     OW20158   2.048   3.668   4.062
 6420SOL    HW120159   1.993   3.586   4.055
 6420SOL    HW220160   2.098   3.668   4.148
 6421SOL     OW20161   5.080   0.076   1.756
 6421SOL    HW120162   5.111   0.131   1.834
 6421SOL    HW220163   5.050   0.136   1.683
 6422SOL     OW20164   6.276   2.376   4.847
 6422SOL    HW120165   6.219   2.346   4.924
 6422SOL    HW220166   6.325   2.297   4.810
 6423SOL     OW20167   2.523   4.490   4.129
 6423SOL    HW120168   2.524   4.426   4.052
 6423SOL    HW220169   2.473   4.572   4.103
 6424SOL     OW20170   0.006   4.394   4.640
 6424SOL    HW120171   0.100   4.414   4.611
 6424SOL    HW220172   6.985   4.479   4.666
 6425SOL     OW20173   0.272   6.195   2.862
 6425SOL    HW120174   0.174   6.196   2.884
 6425SOL    HW220175   0.295   6.112   2.813
 6426SOL     OW20176   4.427   4.572   4.760
 6426SOL    HW120177   4.413   4.544   4.855
 6426SOL    HW220178   4.352   4.632   4.732
 6427SOL     OW20179   2.924   3.252   3.253
 6427SOL    HW120180   2.983   3.332   3.257
 6427SOL    HW220181   2.894   3.237   3.159
 6428SOL     OW20182   5.240   2.489   0.253
 6428SOL    HW120183   5.193   2.411   0.294
 6428SOL    HW220184   5.336   2.488   0.280
 6429SOL     OW20185   2.145   0.622   5.516
 6429SOL    HW120186   2.218   0.678   5.476
 6429SOL    HW220187   2.071   0.680   5.548
 6430SOL     OW20188   6.565   0.325   4.820
 6430SOL    HW120189   6.618   0.249   4.858
 6430SOL    HW220190   6.535   0.302   4.728
 6431SOL     OW20191   3.924   4.441   1.674
 6431SOL    HW120192   3.999   4.481   1.726
 6431SOL    HW220193   3.897   4.504   1.601
 6432SOL     OW20194   4.575   4.607   6.023
 6432SOL    HW120195   4.536   4.678   6.082
 6432SOL    HW220196   4.654   4.566   6.069
 6433SOL     OW20197   2.138   5.853   6.407
 6433SOL    HW120198   2.152   5.835   6.505
 6433SOL    HW220199   2.202   5.799   6.354
 6434SOL     OW20200   3.321   5.616   5.611
 6434SOL    HW120201   3.307   5.670   5.527
 6434SOL    HW220202   3.297   5.672   5.690
 6435SOL     OW20203   5.156   1.253   1.036
 6435SOL    HW120204   5.238   1.237   0.981
 6435SOL    HW220205   5.097   1.173   1.031
 6436SOL     OW20206   0.300   4.183   4.147
 6436SOL    HW120207   0.371   4.114   4.131
 6436SOL    HW220208   0.240   4.152   4.221
 6437SOL     OW20209   0.510   1.460   5.758
 6437SOL    HW120210   0.501   1.443   5.856
 6437SOL    HW220211   0.549   1.551   5.743
 6438SOL     OW20212   0.544   5.723   0.659
 6438SOL    HW120213   0.468   5.720   0.725
 6438SOL    HW220214   0.508   5.712   0.567
 6439SOL     OW20215   5.153   6.923   3.209
 6439SOL    HW120216   5.143   6.913   3.308
 6439SOL    HW220217   5.073   6.884   3.164
 6440SOL     OW20218   2.297   1.396   6.155
 6440SOL    HW120219   2.310   1.324   6.223
 6440SOL    HW220220   2.364   1.386   6.082
 6441SOL     OW20221   0.320   0.933   2.696
 6441SOL    HW120222   0.324   0.899   2.602
 6441SOL    HW220223   0.244   0.891   2.744
 6442SOL     OW20224   3.148   2.791   5.450
 6442SOL    HW120225   3.078   2.846   5.495
 6442SOL    HW220226   3.185   2.725   5.515
 6443SOL     OW20227   4.712   2.527   1.143
 6443SOL    HW120228   4.692   2.562   1.234
 6443SOL    HW220229   4.668   2.584   1.074
 6444SOL     OW20230   6.930   3.240   4.880
 6444SOL    HW120231   7.020   3.284   4.874
 6444SOL    HW220232   6.880   3.277   4.958
 6445SOL     OW20233   3.162   4.097   3.362
 6445SOL    HW120234   3.241   4.103   3.301
 6445SOL    HW220235   3.128   4.189   3.383
 6446SOL     OW20236   2.389   1.618   6.740
 6446SOL    HW120237   2.400   1.578   6.649
 6446SOL    HW220238   2.473   1.665   6.767
 6447SOL     OW20239   6.447   4.100   0.907
 6447SOL    HW120240   6.440   4.002   0.887
 6447SOL    HW220241   6.406   4.119   0.996
 6448SOL     OW20242   4.554   5.139   1.524
 6448SOL    HW120243   4.619   5.180   1.589
 6448SOL    HW220244   4.600   5.066   1.474
 6449SOL     OW20245   2.680   6.211   1.406
 6449SOL    HW120246   2.726   6.169   1.484
 6449SOL    HW220247   2.698   6.310   1.406
 6450SOL     OW20248   0.275   3.875   0.868
 6450SOL    HW120249   0.362   3.830   0.848
 6450SOL    HW220250   0.203   3.806   0.875
 6451SOL     OW20251   3.383   2.266   1.465
 6451SOL    HW120252   3.287   2.293   1.458
 6451SOL    HW220253   3.390   2.166   1.460
 6452SOL     OW20254   5.224   2.440   3.299
 6452SOL    HW120255   5.149   2.403   3.356
 6452SOL    HW220256   5.195   2.441   3.203
 6453SOL     OW20257   3.505   6.935   0.609
 6453SOL    HW120258   3.496   7.005   0.680
 6453SOL    HW220259   3.506   6.844   0.652
 6454SOL     OW20260   5.699   2.736   2.582
 6454SOL    HW120261   5.735   2.808   2.641
 6454SOL    HW220262   5.637   2.677   2.635
 6455SOL     OW20263   6.740   3.395   3.576
 6455SOL    HW120264   6.737   3.390   3.676
 6455SOL    HW220265   6.682   3.324   3.537
 6456SOL     OW20266   6.190   1.442   2.912
 6456SOL    HW120267   6.168   1.527   2.959
 6456SOL    HW220268   6.246   1.384   2.972
 6457SOL     OW20269   4.672   0.497   2.180
 6457SOL    HW120270   4.639   0.590   2.164
 6457SOL    HW220271   4.620   0.456   2.254
 6458SOL     OW20272   0.767   4.688   3.693
 6458SOL    HW120273   0.774   4.658   3.788
 6458SOL    HW220274   0.858   4.698   3.654
 6459SOL     OW20275   6.549   2.687   2.484
 6459SOL    HW120276   6.557   2.707   2.386
 6459SOL    HW220277   6.454   2.661   2.505
 6460SOL     OW20278   0.257   5.809   6.773
 6460SOL    HW120279   0.289   5.784   6.864
 6460SOL    HW220280   0.158   5.826   6.776
 6461SOL     OW20281   2.777   4.927   1.257
 6461SOL    HW120282   2.801   5.020   1.285
 6461SOL    HW220283   2.733   4.880   1.333
 6462SOL     OW20284   1.444   3.876   5.026
 6462SOL    HW120285   1.370   3.810   5.040
 6462SOL    HW220286   1.525   3.845   5.077
 6463SOL     OW20287   4.190   1.267   1.605
 6463SOL    HW120288   4.215   1.347   1.551
 6463SOL    HW220289   4.183   1.292   1.701
 6464SOL     OW20290   0.728   5.974   4.484
 6464SOL    HW120291   0.745   5.927   4.571
 6464SOL    HW220292   0.644   5.938   4.443
 6465SOL     OW20293   4.720   1.710   3.718
 6465SOL    HW120294   4.736   1.674   3.625
 6465SOL    HW220295   4.767   1.652   3.784
 6466SOL     OW20296   0.630   3.312   6.783
 6466SOL    HW120297   0.674   3.264   6.708
 6466SOL    HW220298   0.541   3.346   6.754
 6467SOL     OW20299   3.133   1.167   0.603
 6467SOL    HW120300   3.174   1.084   0.639
 6467SOL    HW220301   3.203   1.222   0.557
 6468SOL     OW20302   3.022   0.156   0.240
 6468SOL    HW120303   3.019   0.057   0.255
 6468SOL    HW220304   2.939   0.185   0.192
 6469SOL     OW20305   3.764   1.735   3.124
 6469SOL    HW120306   3.757   1.657   3.186
 6469SOL    HW220307   3.860   1.760   3.112
 6470SOL     OW20308   6.455   1.975   7.021
 6470SOL    HW120309   6.378   1.999   6.962
 6470SOL    HW220310   6.519   1.917   6.971
 6471SOL     OW20311   0.064   6.014   5.555
 6471SOL    HW120312   7.010   5.989   5.497
 6471SOL    HW220313   0.113   5.931   5.581
 6472SOL     OW20314   6.990   5.506   2.798
 6472SOL    HW120315   6.964   5.423   2.749
 6472SOL    HW220316   6.921   5.526   2.868
 6473SOL     OW20317   2.526   1.114   4.237
 6473SOL    HW120318   2.462   1.110   4.313
 6473SOL    HW220319   2.528   1.026   4.189
 6474SOL     OW20320   4.045   5.706   5.143
 6474SOL    HW120321   3.996   5.740   5.062
 6474SOL    HW220322   4.141   5.734   5.137
 6475SOL     OW20323   5.524   4.892   2.937
 6475SOL    HW120324   5.581   4.957   2.987
 6475SOL    HW220325   5.582   4.822   2.895
 6476SOL     OW20326   3.728   1.310   6.238
 6476SOL    HW120327   3.648   1.283   6.292
 6476SOL    HW220328   3.704   1.386   6.178
 6477SOL     OW20329   6.851   6.194   1.716
 6477SOL    HW120330   6.768   6.186   1.771
 6477SOL    HW220331   6.873   6.105   1.675
 6478SOL     OW20332   3.611   5.577   1.974
 6478SOL    HW120333   3.561   5.566   1.888
 6478SOL    HW220334   3.680   5.649   1.963
 6479SOL     OW20335   3.197   6.215   3.883
 6479SOL    HW120336   3.101   6.210   3.854
 6479SOL    HW220337   3.202   6.263   3.971
 6480SOL     OW20338   3.214   1.273   6.976
 6480SOL    HW120339   3.272   1.354   6.980
 6480SOL    HW220340   3.128   1.291   0.000
 6481SOL     OW20341   3.302   2.656   1.717
 6481SOL    HW120342   3.218   2.704   1.741
 6481SOL    HW220343   3.281   2.560   1.696
 6482SOL     OW20344   6.529   3.552   5.391
 6482SOL    HW120345   6.576   3.464   5.396
 6482SOL    HW220346   6.481   3.560   5.304
 6483SOL     OW20347   1.002   5.741   5.539
 6483SOL    HW120348   1.087   5.787   5.516
 6483SOL    HW220349   1.006   5.646   5.507
 6484SOL     OW20350   2.520   0.719   4.446
 6484SOL    HW120351   2.440   0.774   4.470
 6484SOL    HW220352   2.601   0.778   4.442
 6485SOL     OW20353   2.364   6.968   4.348
 6485SOL    HW120354   2.343   0.041   4.367
 6485SOL    HW220355   2.440   6.939   4.406
 6486SOL     OW20356   1.682   5.481   3.174
 6486SOL    HW120357   1.686   5.484   3.074
 6486SOL    HW220358   1.586   5.491   3.203
 6487SOL     OW20359   0.063   4.751   4.012
 6487SOL    HW120360   0.151   4.711   3.984
 6487SOL    HW220361   7.014   4.714   3.955
 6488SOL     OW20362   4.405   5.237   4.716
 6488SOL    HW120363   4.414   5.184   4.801
 6488SOL    HW220364   4.395   5.334   4.737
 6489SOL     OW20365   4.174   3.219   5.862
 6489SOL    HW120366   4.215   3.133   5.830
 6489SOL    HW220367   4.144   3.272   5.783
 6490SOL     OW20368   1.857   2.348   6.605
 6490SOL    HW120369   1.787   2.382   6.668
 6490SOL    HW220370   1.898   2.265   6.641
 6491SOL     OW20371   1.991   0.453   0.075
 6491SOL    HW120372   2.059   0.484   0.142
 6491SOL    HW220373   1.919   0.402   0.123
 6492SOL     OW20374   3.530   3.905   4.772
 6492SOL    HW120375   3.618   3.873   4.809
 6492SOL    HW220376   3.529   4.005   4.775
 6493SOL     OW20377   1.237   4.434   5.733
 6493SOL    HW120378   1.294   4.436   5.815
 6493SOL    HW220379   1.175   4.356   5.737
 6494SOL     OW20380   6.183   6.689   2.187
 6494SOL    HW120381   6.099   6.645   2.154
 6494SOL    HW220382   6.195   6.670   2.284
 6495SOL     OW20383   6.771   0.077   3.603
 6495SOL    HW120384   6.777   0.038   3.695
 6495SOL    HW220385   6.803   0.172   3.604
 6496SOL     OW20386   4.785   0.971   1.762
 6496SOL    HW120387   4.876   0.931   1.771
 6496SOL    HW220388   4.784   1.063   1.802
 6497SOL     OW20389   0.157   1.954   0.485
 6497SOL    HW120390   0.066   1.993   0.500
 6497SOL    HW220391   0.194   1.924   0.573
 6498SOL     OW20392   1.014   4.323   4.111
 6498SOL    HW120393   0.944   4.389   4.137
 6498SOL    HW220394   1.009   4.244   4.173
 6499SOL     OW20395   5.729   3.449   3.526
 6499SOL    HW120396   5.709   3.432   3.429
 6499SOL    HW220397   5.816   3.406   3.550
 6500SOL     OW20398   1.640   4.270   3.048
 6500SOL    HW120399   1.622   4.174   3.030
 6500SOL    HW220400   1.727   4.280   3.096
 6501SOL     OW20401   6.479   2.065   0.692
 6501SOL    HW120402   6.443   2.086   0.783
 6501SOL    HW220403   6.522   1.975   0.693
 6502SOL     OW20404   6.114   3.940   1.075
 6502SOL    HW120405   6.062   3.911   1.156
 6502SOL    HW220406   6.061   3.920   0.993
 6503SOL     OW20407   6.688   3.325   5.385
 6503SOL    HW120408   6.670   3.297   5.479
 6503SOL    HW220409   6.654   3.254   5.323
 6504SOL     OW20410   4.391   6.125   6.350
 6504SOL    HW120411   4.424   6.157   6.262
 6504SOL    HW220412   4.385   6.202   6.414
 6505SOL     OW20413   5.772   5.495   6.979
 6505SOL    HW120414   5.738   5.559   6.910
 6505SOL    HW220415   5.740   5.522   0.046
 6506SOL     OW20416   0.144   3.081   2.405
 6506SOL    HW120417   0.176   3.066   2.499
 6506SOL    HW220418   0.223   3.086   2.344
 6507SOL     OW20419   3.768   4.697   6.714
 6507SOL    HW120420   3.759   4.597   6.711
 6507SOL    HW220421   3.713   4.737   6.640
 6508SOL     OW20422   1.206   6.362   2.000
 6508SOL    HW120423   1.126   6.331   1.948
 6508SOL    HW220424   1.288   6.356   1.942
 6509SOL     OW20425   3.680   1.705   5.928
 6509SOL    HW120426   3.665   1.674   6.022
 6509SOL    HW220427   3.643   1.638   5.864
 6510SOL     OW20428   4.726   6.010   5.657
 6510SOL    HW120429   4.684   5.927   5.692
 6510SOL    HW220430   4.806   6.034   5.712
 6511SOL     OW20431   2.913   0.870   0.534
 6511SOL    HW120432   2.956   0.853   0.445
 6511SOL    HW220433   2.977   0.920   0.593
 6512SOL     OW20434   3.334   0.789   1.295
 6512SOL    HW120435   3.309   0.852   1.369
 6512SOL    HW220436   3.257   0.779   1.232
 6513SOL     OW20437   2.719   5.415   3.931
 6513SOL    HW120438   2.773   5.340   3.893
 6513SOL    HW220439   2.769   5.501   3.922
 6514SOL     OW20440   5.905   0.232   5.778
 6514SOL    HW120441   5.994   0.276   5.793
 6514SOL    HW220442   5.842   0.262   5.850
 6515SOL     OW20443   2.307   4.974   2.486
 6515SOL    HW120444   2.211   4.953   2.464
 6515SOL    HW220445   2.313   5.010   2.579
 6516SOL     OW20446   6.977   3.383   0.882
 6516SOL    HW120447   6.930   3.365   0.796
 6516SOL    HW220448   6.909   3.391   0.956
 6517SOL     OW20449   0.014   2.866   0.043
 6517SOL    HW120450   0.100   2.897   0.002
 6517SOL    HW220451   7.012   2.778   0.002
 6518SOL     OW20452   1.276   1.562   2.928
 6518SOL    HW120453   1.277   1.545   3.027
 6518SOL    HW220454   1.316   1.483   2.881
 6519SOL     OW20455   1.347   1.545   3.210
 6519SOL    HW120456   1.434   1.580   3.243
 6519SOL    HW220457   1.281   1.543   3.285
 6520SOL     OW20458   0.424   5.695   0.431
 6520SOL    HW120459   0.332   5.695   0.470
 6520SOL    HW220460   0.418   5.692   0.331
 6521SOL     OW20461   1.017   3.161   4.548
 6521SOL    HW120462   1.063   3.164   4.636
 6521SOL    HW220463   1.065   3.098   4.487
 6522SOL     OW20464   2.674   3.836   5.249
 6522SOL    HW120465   2.590   3.883   5.222
 6522SOL    HW220466   2.741   3.841   5.175
 6523SOL     OW20467   6.191   0.555   6.955
 6523SOL    HW120468   6.175   0.457   6.970
 6523SOL    HW220469   6.139   0.585   6.875
 6524SOL     OW20470   1.925   2.213   1.742
 6524SOL    HW120471   1.949   2.139   1.679
 6524SOL    HW220472   1.840   2.190   1.790
 6525SOL     OW20473   0.944   4.655   3.303
 6525SOL    HW120474   0.939   4.575   3.363
 6525SOL    HW220475   0.962   4.736   3.357
 6526SOL     OW20476   6.986   0.004   0.640
 6526SOL    HW120477   7.017   0.038   0.728
 6526SOL    HW220478   0.019   6.950   0.613
 6527SOL     OW20479   0.713   2.418   0.426
 6527SOL    HW120480   0.614   2.412   0.413
 6527SOL    HW220481   0.736   2.505   0.470
 6528SOL     OW20482   5.552   0.883   5.841
 6528SOL    HW120483   5.478   0.827   5.802
 6528SOL    HW220484   5.608   0.826   5.902
 6529SOL     OW20485   0.146   1.428   2.317
 6529SOL    HW120486   0.226   1.455   2.371
 6529SOL    HW220487   0.071   1.405   2.378
 6530SOL     OW20488   0.644   2.497   2.431
 6530SOL    HW120489   0.697   2.462   2.354
 6530SOL    HW220490   0.600   2.421   2.479
 6531SOL     OW20491   3.861   3.339   5.471
 6531SOL    HW120492   3.781   3.326   5.412
 6531SOL    HW220493   3.939   3.291   5.432
 6532SOL     OW20494   1.122   0.615   0.587
 6532SOL    HW120495   1.067   0.592   0.507
 6532SOL    HW220496   1.061   0.645   0.661
 6533SOL     OW20497   4.576   3.731   0.211
 6533SOL    HW120498   4.497   3.716   0.271
 6533SOL    HW220499   4.606   3.644   0.173
 6534SOL     OW20500   6.303   4.492   2.542
 6534SOL    HW120501   6.390   4.510   2.496
 6534SOL    HW220502   6.320   4.468   2.638
 6535SOL     OW20503   6.383   3.311   5.116
 6535SOL    HW120504   6.465   3.278   5.162
 6535SOL    HW220505   6.302   3.267   5.157
 6536SOL     OW20506   0.848   3.884   5.115
 6536SOL    HW120507   0.766   3.889   5.172
 6536SOL    HW220508   0.929   3.878   5.174
 6537SOL     OW20509   6.029   5.198   4.188
 6537SOL    HW120510   6.077   5.270   4.238
 6537SOL    HW220511   6.040   5.213   4.089
 6538SOL     OW20512   2.485   3.642   5.424
 6538SOL    HW120513   2.558   3.709   5.415
 6538SOL    HW220514   2.521   3.550   5.406
 6539SOL     OW20515   6.354   0.606   6.137
 6539SOL    HW120516   6.451   0.601   6.109
 6539SOL    HW220517   6.313   0.515   6.127
 6540SOL     OW20518   4.817   2.727   6.082
 6540SOL    HW120519   4.731   2.761   6.045
 6540SOL    HW220520   4.825   2.753   6.178
 6541SOL     OW20521   5.870   1.144   4.591
 6541SOL    HW120522   5.898   1.124   4.497
 6541SOL    HW220523   5.936   1.103   4.655
 6542SOL     OW20524   1.486   3.604   4.487
 6542SOL    HW120525   1.544   3.545   4.543
 6542SOL    HW220526   1.436   3.548   4.420
 6543SOL     OW20527   3.772   2.091   5.336
 6543SOL    HW120528   3.755   2.152   5.259
 6543SOL    HW220529   3.689   2.083   5.392
 6544SOL     OW20530   1.069   6.321   2.268
 6544SOL    HW120531   0.974   6.345   2.246
 6544SOL    HW220532   1.118   6.302   2.183
 6545SOL     OW20533   4.721   6.888   1.300
 6545SOL    HW120534   4.692   6.970   1.252
 6545SOL    HW220535   4.751   6.912   1.393
 6546SOL     OW20536   5.063   3.686   6.128
 6546SOL    HW120537   5.011   3.634   6.061
 6546SOL    HW220538   5.027   3.779   6.133
 6547SOL     OW20539   5.654   5.946   6.982
 6547SOL    HW120540   5.701   5.923   0.044
 6547SOL    HW220541   5.639   5.863   6.929
 6548SOL     OW20542   0.610   2.322   5.491
 6548SOL    HW120543   0.589   2.236   5.444
 6548SOL    HW220544   0.617   2.305   5.589
 6549SOL     OW20545   5.406   6.711   1.790
 6549SOL    HW120546   5.332   6.771   1.760
 6549SOL    HW220547   5.419   6.637   1.723
 6550SOL     OW20548   6.245   6.534   3.188
 6550SOL    HW120549   6.343   6.542   3.208
 6550SOL    HW220550   6.229   6.454   3.132
 6551SOL     OW20551   3.207   3.378   1.677
 6551SOL    HW120552   3.141   3.451   1.692
 6551SOL    HW220553   3.240   3.381   1.583
 6552SOL     OW20554   1.963   0.010   0.248
 6552SOL    HW120555   1.934   0.045   0.337
 6552SOL    HW220556   2.062   0.019   0.238
 6553SOL     OW20557   0.242   0.561   2.966
 6553SOL    HW120558   0.196   0.567   2.878
 6553SOL    HW220559   0.176   0.568   3.040
 6554SOL     OW20560   3.208   1.365   5.034
 6554SOL    HW120561   3.217   1.460   5.004
 6554SOL    HW220562   3.214   1.360   5.133
 6555SOL     OW20563   6.729   2.240   4.238
 6555SOL    HW120564   6.632   2.235   4.260
 6555SOL    HW220565   6.764   2.331   4.259
 6556SOL     OW20566   4.923   2.580   3.733
 6556SOL    HW120567   5.018   2.553   3.747
 6556SOL    HW220568   4.905   2.589   3.635
 6557SOL     OW20569   1.810   6.880   2.144
 6557SOL    HW120570   1.732   6.909   2.088
 6557SOL    HW220571   1.783   6.875   2.240
 6558SOL     OW20572   5.246   4.824   0.366
 6558SOL    HW120573   5.184   4.829   0.444
 6558SOL    HW220574   5.200   4.860   0.285
 6559SOL     OW20575   6.444   2.974   6.173
 6559SOL    HW120576   6.426   3.070   6.150
 6559SOL    HW220577   6.541   2.954   6.158
 6560SOL     OW20578   4.940   4.708   0.404
 6560SOL    HW120579   4.961   4.617   0.370
 6560SOL    HW220580   4.883   4.700   0.486
 6561SOL     OW20581   3.771   4.728   0.432
 6561SOL    HW120582   3.679   4.768   0.430
 6561SOL    HW220583   3.774   4.659   0.505
 6562SOL     OW20584   5.968   2.998   1.019
 6562SOL    HW120585   5.965   3.059   1.098
 6562SOL    HW220586   6.044   2.934   1.030
 6563SOL     OW20587   5.368   6.288   4.941
 6563SOL    HW120588   5.370   6.203   4.888
 6563SOL    HW220589   5.422   6.358   4.894
 6564SOL     OW20590   0.055   3.831   2.642
 6564SOL    HW120591   6.991   3.813   2.687
 6564SOL    HW220592   0.051   3.798   2.548
 6565SOL     OW20593   5.537   0.040   2.922
 6565SOL    HW120594   5.590   0.094   2.987
 6565SOL    HW220595   5.585   0.037   2.834
 6566SOL     OW20596   3.801   6.293   2.675
 6566SOL    HW120597   3.857   6.230   2.729
 6566SOL    HW220598   3.705   6.268   2.684
 6567SOL     OW20599   4.315   0.513   1.242
 6567SOL    HW120600   4.245   0.446   1.218
 6567SOL    HW220601   4.406   0.472   1.228
 6568SOL     OW20602   3.623   1.049   1.984
 6568SOL    HW120603   3.573   0.991   2.048
 6568SOL    HW220604   3.626   1.005   1.894
 6569SOL     OW20605   0.702   3.730   5.850
 6569SOL    HW120606   0.678   3.798   5.919
 6569SOL    HW220607   0.621   3.677   5.825
 6570SOL     OW20608   3.790   6.297   1.823
 6570SOL    HW120609   3.707   6.279   1.770
 6570SOL    HW220610   3.809   6.395   1.823
 6571SOL     OW20611   2.751   4.952   3.070
 6571SOL    HW120612   2.745   5.023   3.140
 6571SOL    HW220613   2.700   4.980   2.989
 6572SOL     OW20614   0.388   5.928   3.915
 6572SOL    HW120615   0.486   5.910   3.915
 6572SOL    HW220616   0.359   5.956   4.006
 6573SOL     OW20617   2.289   1.450   2.781
 6573SOL    HW120618   2.374   1.401   2.795
 6573SOL    HW220619   2.213   1.399   2.820
 6574SOL     OW20620   2.176   6.032   2.137
 6574SOL    HW120621   2.196   6.100   2.067
 6574SOL    HW220622   2.116   5.962   2.099
 6575SOL     OW20623   6.611   0.093   2.817
 6575SOL    HW120624   6.551   0.072   2.894
 6575SOL    HW220625   6.678   0.162   2.844
 6576SOL     OW20626   3.663   6.192   0.807
 6576SOL    HW120627   3.638   6.097   0.794
 6576SOL    HW220628   3.624   6.226   0.892
 6577SOL     OW20629   2.095   2.265   3.944
 6577SOL    HW120630   2.045   2.187   3.906
 6577SOL    HW220631   2.174   2.231   3.995
 6578SOL     OW20632   1.755   5.236   2.038
 6578SOL    HW120633   1.764   5.218   1.940
 6578SOL    HW220634   1.663   5.272   2.057
 6579SOL     OW20635   0.128   1.366   3.816
 6579SOL    HW120636   0.064   1.335   3.745
 6579SOL    HW220637   0.076   1.401   3.894
 6580SOL     OW20638   1.041   0.275   0.081
 6580SOL    HW120639   1.023   0.363   0.123
 6580SOL    HW220640   0.955   0.231   0.055
 6581SOL     OW20641   1.621   1.974   6.778
 6581SOL    HW120642   1.583   1.961   6.686
 6581SOL    HW220643   1.721   1.975   6.773
 6582SOL     OW20644   6.511   0.871   2.878
 6582SOL    HW120645   6.559   0.785   2.862
 6582SOL    HW220646   6.517   0.895   2.975
 6583SOL     OW20647   3.951   6.166   0.169
 6583SOL    HW120648   3.883   6.164   0.096
 6583SOL    HW220649   4.033   6.116   0.140
 6584SOL     OW20650   3.394   2.314   1.155
 6584SOL    HW120651   3.396   2.297   1.253
 6584SOL    HW220652   3.431   2.235   1.106
 6585SOL     OW20653   5.988   0.472   1.503
 6585SOL    HW120654   5.901   0.510   1.470
 6585SOL    HW220655   6.049   0.547   1.527
 6586SOL     OW20656   6.409   2.172   6.289
 6586SOL    HW120657   6.318   2.155   6.250
 6586SOL    HW220658   6.429   2.103   6.358
 6587SOL     OW20659   1.548   4.145   5.315
 6587SOL    HW120660   1.515   4.111   5.403
 6587SOL    HW220661   1.595   4.232   5.328
 6588SOL     OW20662   0.598   3.138   0.503
 6588SOL    HW120663   0.618   3.182   0.415
 6588SOL    HW220664   0.648   3.184   0.576
 6589SOL     OW20665   6.968   1.185   1.616
 6589SOL    HW120666   6.938   1.127   1.540
 6589SOL    HW220667   6.937   1.278   1.601
 6590SOL     OW20668   1.391   0.466   4.446
 6590SOL    HW120669   1.296   0.497   4.456
 6590SOL    HW220670   1.392   0.377   4.400
 6591SOL     OW20671   5.292   4.527   3.841
 6591SOL    HW120672   5.294   4.434   3.804
 6591SOL    HW220673   5.207   4.540   3.893
 6592SOL     OW20674   4.730   6.185   3.215
 6592SOL    HW120675   4.713   6.192   3.117
 6592SOL    HW220676   4.683   6.259   3.263
 6593SOL     OW20677   2.689   2.282   2.596
 6593SOL    HW120678   2.687   2.234   2.508
 6593SOL    HW220679   2.597   2.311   2.621
 6594SOL     OW20680   3.848   1.996   6.336
 6594SOL    HW120681   3.891   2.054   6.405
 6594SOL    HW220682   3.894   2.010   6.248
 6595SOL     OW20683   1.531   2.209   4.869
 6595SOL    HW120684   1.619   2.244   4.837
 6595SOL    HW220685   1.496   2.143   4.803
 6596SOL     OW20686   5.707   6.163   2.444
 6596SOL    HW120687   5.626   6.104   2.440
 6596SOL    HW220688   5.780   6.117   2.494
 6597SOL     OW20689   1.604   4.876   2.590
 6597SOL    HW120690   1.522   4.932   2.577
 6597SOL    HW220691   1.638   4.886   2.683
 6598SOL     OW20692   1.949   4.898   4.362
 6598SOL    HW120693   1.857   4.859   4.367
 6598SOL    HW220694   1.958   4.949   4.276
 6599SOL     OW20695   6.000   5.853   5.946
 6599SOL    HW120696   5.961   5.763   5.964
 6599SOL    HW220697   6.075   5.871   6.009
 6600SOL     OW20698   4.602   6.823   5.373
 6600SOL    HW120699   4.622   6.788   5.282
 6600SOL    HW220700   4.525   6.772   5.412
 6601SOL     OW20701   1.510   2.944   2.405
 6601SOL    HW120702   1.550   3.003   2.475
 6601SOL    HW220703   1.568   2.947   2.323
 6602SOL     OW20704   2.078   6.987   1.387
 6602SOL    HW120705   2.139   6.915   1.355
 6602SOL    HW220706   2.083   6.995   1.486
 6603SOL     OW20707   0.623   2.862   3.269
 6603SOL    HW120708   0.619   2.961   3.250
 6603SOL    HW220709   0.539   2.834   3.315
 6604SOL     OW20710   1.920   6.566   1.844
 6604SOL    HW120711   1.945   6.609   1.757
 6604SOL    HW220712   1.822   6.548   1.845
 6605SOL     OW20713   6.338   5.453   1.298
 6605SOL    HW120714   6.400   5.380   1.268
 6605SOL    HW220715   6.266   5.467   1.229
 6606SOL     OW20716   1.888   3.282   3.793
 6606SOL    HW120717   1.898   3.191   3.751
 6606SOL    HW220718   1.975   3.331   3.789
 6607SOL     OW20719   5.800   3.765   3.491
 6607SOL    HW120720   5.789   3.682   3.438
 6607SOL    HW220721   5.877   3.818   3.455
 6608SOL     OW20722   0.018   6.973   6.072
 6608SOL    HW120723   7.000   0.040   6.072
 6608SOL    HW220724   0.111   6.979   6.108
 6609SOL     OW20725   4.425   1.931   5.981
 6609SOL    HW120726   4.467   1.908   5.892
 6609SOL    HW220727   4.344   1.987   5.965
 6610SOL     OW20728   3.012   5.120   1.321
 6610SOL    HW120729   3.057   5.182   1.385
 6610SOL    HW220730   3.082   5.065   1.274
 6611SOL     OW20731   4.569   2.050   4.185
 6611SOL    HW120732   4.498   2.033   4.117
 6611SOL    HW220733   4.643   1.983   4.173
 6612SOL     OW20734   5.663   1.996   6.285
 6612SOL    HW120735   5.733   1.932   6.255
 6612SOL    HW220736   5.690   2.037   6.372
 6613SOL     OW20737   4.925   0.436   6.922
 6613SOL    HW120738   4.874   0.520   6.943
 6613SOL    HW220739   5.019   0.445   6.957
 6614SOL     OW20740   4.338   5.772   2.144
 6614SOL    HW120741   4.299   5.863   2.130
 6614SOL    HW220742   4.376   5.767   2.237
 6615SOL     OW20743   2.687   6.004   0.895
 6615SOL    HW120744   2.709   5.907   0.902
 6615SOL    HW220745   2.713   6.050   0.981
 6616SOL     OW20746   4.444   0.786   6.279
 6616SOL    HW120747   4.394   0.738   6.352
 6616SOL    HW220748   4.419   0.882   6.279
 6617SOL     OW20749   4.027   0.552   3.514
 6617SOL    HW120750   3.983   0.463   3.501
 6617SOL    HW220751   4.108   0.558   3.455
 6618SOL     OW20752   0.643   2.166   3.060
 6618SOL    HW120753   0.649   2.257   3.100
 6618SOL    HW220754   0.558   2.158   3.007
 6619SOL     OW20755   5.008   6.334   3.854
 6619SOL    HW120756   4.909   6.341   3.846
 6619SOL    HW220757   5.051   6.393   3.786
 6620SOL     OW20758   0.323   3.563   3.630
 6620SOL    HW120759   0.302   3.467   3.613
 6620SOL    HW220760   0.245   3.608   3.672
 6621SOL     OW20761   3.845   3.161   4.866
 6621SOL    HW120762   3.864   3.064   4.847
 6621SOL    HW220763   3.916   3.217   4.823
 6622SOL     OW20764   0.215   6.242   0.785
 6622SOL    HW120765   0.124   6.243   0.827
 6622SOL    HW220766   0.207   6.257   0.687
 6623SOL     OW20767   3.244   4.548   5.695
 6623SOL    HW120768   3.222   4.497   5.612
 6623SOL    HW220769   3.178   4.525   5.767
 6624SOL     OW20770   0.830   2.238   4.533
 6624SOL    HW120771   0.883   2.318   4.562
 6624SOL    HW220772   0.769   2.264   4.458
 6625SOL     OW20773   5.731   2.283   5.432
 6625SOL    HW120774   5.672   2.310   5.509
 6625SOL    HW220775   5.756   2.364   5.379
 6626SOL     OW20776   2.865   6.465   4.918
 6626SOL    HW120777   2.904   6.556   4.902
 6626SOL    HW220778   2.800   6.469   4.994
 6627SOL     OW20779   1.005   6.066   4.579
 6627SOL    HW120780   1.046   6.153   4.606
 6627SOL    HW220781   0.925   6.083   4.521
 6628SOL     OW20782   4.730   5.793   4.019
 6628SOL    HW120783   4.727   5.779   4.118
 6628SOL    HW220784   4.823   5.820   3.992
 6629SOL     OW20785   5.566   6.274   6.816
 6629SOL    HW120786   5.563   6.267   6.916
 6629SOL    HW220787   5.646   6.224   6.782
 6630SOL     OW20788   2.020   1.517   1.606
 6630SOL    HW120789   1.929   1.479   1.588
 6630SOL    HW220790   2.070   1.455   1.666
 6631SOL     OW20791   1.721   4.769   5.851
 6631SOL    HW120792   1.778   4.780   5.770
 6631SOL    HW220793   1.765   4.814   5.929
 6632SOL     OW20794   0.995   0.192   0.357
 6632SOL    HW120795   1.043   0.126   0.415
 6632SOL    HW220796   0.898   0.194   0.382
 6633SOL     OW20797   2.940   5.586   6.616
 6633SOL    HW120798   2.910   5.613   6.525
 6633SOL    HW220799   2.910   5.493   6.635
 6634SOL     OW20800   4.933   1.649   4.975
 6634SOL    HW120801   4.955   1.695   5.061
 6634SOL    HW220802   4.923   1.550   4.991
 6635SOL     OW20803   5.582   4.802   1.816
 6635SOL    HW120804   5.521   4.801   1.737
 6635SOL    HW220805   5.536   4.762   1.895
 6636SOL     OW20806   3.613   0.137   1.611
 6636SOL    HW120807   3.536   0.176   1.562
 6636SOL    HW220808   3.678   0.097   1.545
 6637SOL     OW20809   1.601   0.872   0.459
 6637SOL    HW120810   1.517   0.822   0.482
 6637SOL    HW220811   1.586   0.970   0.473
 6638SOL     OW20812   3.181   4.060   3.769
 6638SOL    HW120813   3.139   4.123   3.703
 6638SOL    HW220814   3.278   4.052   3.749
 6639SOL     OW20815   4.824   3.018   1.354
 6639SOL    HW120816   4.822   3.117   1.337
 6639SOL    HW220817   4.756   2.973   1.296
 6640SOL     OW20818   1.137   2.800   5.279
 6640SOL    HW120819   1.042   2.770   5.277
 6640SOL    HW220820   1.161   2.832   5.371
 6641SOL     OW20821   3.957   2.055   1.393
 6641SOL    HW120822   4.051   2.023   1.408
 6641SOL    HW220823   3.951   2.153   1.416
 6642SOL     OW20824   1.214   5.469   0.169
 6642SOL    HW120825   1.194   5.437   0.261
 6642SOL    HW220826   1.261   5.558   0.174
 6643SOL     OW20827   4.877   6.730   0.231
 6643SOL    HW120828   4.904   6.793   0.303
 6643SOL    HW220829   4.779   6.738   0.213
 6644SOL     OW20830   1.888   6.611   2.841
 6644SOL    HW120831   1.808   6.617   2.900
 6644SOL    HW220832   1.877   6.673   2.764
 6645SOL     OW20833   6.427   2.797   0.362
 6645SOL    HW120834   6.443   2.707   0.322
 6645SOL    HW220835   6.508   2.824   0.416
 6646SOL     OW20836   3.917   0.052   6.886
 6646SOL    HW120837   3.824   0.044   6.851
 6646SOL    HW220838   3.976   0.093   6.816
 6647SOL     OW20839   4.604   5.058   1.172
 6647SOL    HW120840   4.662   5.038   1.251
 6647SOL    HW220841   4.585   5.156   1.168
 6648SOL     OW20842   3.071   6.276   4.988
 6648SOL    HW120843   3.149   6.313   5.038
 6648SOL    HW220844   3.008   6.351   4.965
 6649SOL     OW20845   6.042   2.364   6.728
 6649SOL    HW120846   5.994   2.435   6.677
 6649SOL    HW220847   5.999   2.352   6.817
 6650SOL     OW20848   2.815   1.280   5.394
 6650SOL    HW120849   2.869   1.362   5.372
 6650SOL    HW220850   2.855   1.201   5.347
 6651SOL     OW20851   0.737   1.663   6.821
 6651SOL    HW120852   0.652   1.636   6.868
 6651SOL    HW220853   0.816   1.634   6.875
 6652SOL     OW20854   0.964   4.822   0.350
 6652SOL    HW120855   1.056   4.862   0.351
 6652SOL    HW220856   0.971   4.723   0.342
 6653SOL     OW20857   5.451   2.768   0.454
 6653SOL    HW120858   5.481   2.824   0.531
 6653SOL    HW220859   5.480   2.673   0.469
 6654SOL     OW20860   0.701   4.486   2.801
 6654SOL    HW120861   0.625   4.438   2.758
 6654SOL    HW220862   0.666   4.558   2.862
 6655SOL     OW20863   6.857   5.296   1.876
 6655SOL    HW120864   6.956   5.308   1.873
 6655SOL    HW220865   6.813   5.385   1.878
 6656SOL     OW20866   4.488   1.583   2.656
 6656SOL    HW120867   4.425   1.615   2.726
 6656SOL    HW220868   4.540   1.661   2.619
 6657SOL     OW20869   5.483   2.282   4.320
 6657SOL    HW120870   5.461   2.367   4.369
 6657SOL    HW220871   5.412   2.265   4.252
 6658SOL     OW20872   6.136   6.452   4.795
 6658SOL    HW120873   6.084   6.398   4.861
 6658SOL    HW220874   6.086   6.536   4.773
 6659SOL     OW20875   1.145   4.987   2.093
 6659SOL    HW120876   1.144   4.973   2.193
 6659SOL    HW220877   1.059   5.027   2.064
 6660SOL     OW20878   0.485   5.744   3.117
 6660SOL    HW120879   0.518   5.793   3.036
 6660SOL    HW220880   0.563   5.719   3.175
 6661SOL     OW20881   2.929   6.400   4.011
 6661SOL    HW120882   2.931   6.496   3.986
 6661SOL    HW220883   2.917   6.344   3.929
 6662SOL     OW20884   2.706   0.101   1.871
 6662SOL    HW120885   2.649   0.096   1.789
 6662SOL    HW220886   2.701   0.015   1.921
 6663SOL     OW20887   1.619   4.510   5.831
 6663SOL    HW120888   1.638   4.608   5.837
 6663SOL    HW220889   1.595   4.486   5.737
 6664SOL     OW20890   2.949   0.880   1.759
 6664SOL    HW120891   2.991   0.799   1.801
 6664SOL    HW220892   3.010   0.917   1.689
 6665SOL     OW20893   2.680   0.436   5.829
 6665SOL    HW120894   2.740   0.359   5.852
 6665SOL    HW220895   2.675   0.498   5.906
 6666SOL     OW20896   5.625   5.931   4.789
 6666SOL    HW120897   5.681   5.866   4.738
 6666SOL    HW220898   5.554   5.881   4.840
 6667SOL     OW20899   6.153   6.444   6.061
 6667SOL    HW120900   6.239   6.487   6.032
 6667SOL    HW220901   6.091   6.438   5.983
 6668SOL     OW20902   0.155   6.344   1.467
 6668SOL    HW120903   0.139   6.340   1.566
 6668SOL    HW220904   0.078   6.301   1.419
 6669SOL     OW20905   2.110   1.466   1.939
 6669SOL    HW120906   2.097   1.559   1.973
 6669SOL    HW220907   2.192   1.464   1.881
 6670SOL     OW20908   3.370   2.107   0.151
 6670SOL    HW120909   3.452   2.164   0.145
 6670SOL    HW220910   3.388   2.018   0.109
 6671SOL     OW20911   5.017   6.517   0.105
 6671SOL    HW120912   5.022   6.614   0.129
 6671SOL    HW220913   4.998   6.507   0.008
 6672SOL     OW20914   1.377   2.370   0.393
 6672SOL    HW120915   1.429   2.447   0.431
 6672SOL    HW220916   1.428   2.330   0.317
 6673SOL     OW20917   5.571   3.576   4.298
 6673SOL    HW120918   5.546   3.489   4.257
 6673SOL    HW220919   5.582   3.645   4.227
 6674SOL     OW20920   0.256   2.924   6.928
 6674SOL    HW120921   0.322   2.998   6.920
 6674SOL    HW220922   0.199   2.920   6.845
 6675SOL     OW20923   4.454   2.922   0.077
 6675SOL    HW120924   4.434   3.020   0.080
 6675SOL    HW220925   4.406   2.881   7.023
 6676SOL     OW20926   1.321   3.767   3.781
 6676SOL    HW120927   1.418   3.793   3.782
 6676SOL    HW220928   1.309   3.679   3.825
 6677SOL     OW20929   0.367   1.450   0.285
 6677SOL    HW120930   0.302   1.396   0.232
 6677SOL    HW220931   0.340   1.450   0.381
 6678SOL     OW20932   1.700   4.721   0.374
 6678SOL    HW120933   1.661   4.809   0.344
 6678SOL    HW220934   1.629   4.667   0.419
 6679SOL     OW20935   2.502   0.951   3.845
 6679SOL    HW120936   2.411   0.911   3.834
 6679SOL    HW220937   2.506   1.038   3.795
 6680SOL     OW20938   5.591   6.848   0.275
 6680SOL    HW120939   5.629   6.755   0.281
 6680SOL    HW220940   5.497   6.842   0.240
 6681SOL     OW20941   4.448   5.544   1.637
 6681SOL    HW120942   4.394   5.461   1.626
 6681SOL    HW220943   4.386   5.622   1.651
 6682SOL     OW20944   3.261   5.589   0.138
 6682SOL    HW120945   3.243   5.609   0.042
 6682SOL    HW220946   3.184   5.537   0.176
 6683SOL     OW20947   5.746   3.528   6.872
 6683SOL    HW120948   5.830   3.489   6.910
 6683SOL    HW220949   5.706   3.464   6.807
 6684SOL     OW20950   3.361   6.955   1.417
 6684SOL    HW120951   3.392   0.026   1.421
 6684SOL    HW220952   3.271   6.948   1.461
 6685SOL     OW20953   3.775   3.493   6.824
 6685SOL    HW120954   3.792   3.575   6.879
 6685SOL    HW220955   3.812   3.413   6.872
 6686SOL     OW20956   5.746   5.183   3.823
 6686SOL    HW120957   5.668   5.227   3.868
 6686SOL    HW220958   5.749   5.086   3.851
 6687SOL     OW20959   6.548   2.179   1.788
 6687SOL    HW120960   6.536   2.257   1.726
 6687SOL    HW220961   6.512   2.096   1.744
 6688SOL     OW20962   3.863   5.005   1.245
 6688SOL    HW120963   3.781   5.049   1.280
 6688SOL    HW220964   3.910   5.065   1.180
 6689SOL     OW20965   2.926   5.068   6.297
 6689SOL    HW120966   3.012   5.119   6.298
 6689SOL    HW220967   2.890   5.065   6.204
 6690SOL     OW20968   0.649   0.286   5.938
 6690SOL    HW120969   0.658   0.376   5.980
 6690SOL    HW220970   0.727   0.268   5.879
 6691SOL     OW20971   1.915   1.790   2.563
 6691SOL    HW120972   1.963   1.824   2.644
 6691SOL    HW220973   1.818   1.782   2.584
 6692SOL     OW20974   4.488   4.759   1.417
 6692SOL    HW120975   4.406   4.807   1.447
 6692SOL    HW220976   4.526   4.707   1.494
 6693SOL     OW20977   4.286   1.381   4.927
 6693SOL    HW120978   4.375   1.354   4.962
 6693SOL    HW220979   4.286   1.480   4.909
 6694SOL     OW20980   3.863   5.712   1.137
 6694SOL    HW120981   3.810   5.788   1.173
 6694SOL    HW220982   3.942   5.748   1.087
 6695SOL     OW20983   2.959   1.886   0.292
 6695SOL    HW120984   2.897   1.963   0.281
 6695SOL    HW220985   3.053   1.919   0.301
 6696SOL     OW20986   3.876   4.072   4.262
 6696SOL    HW120987   3.919   4.027   4.340
 6696SOL    HW220988   3.777   4.079   4.277
 6697SOL     OW20989   4.809   2.266   2.359
 6697SOL    HW120990   4.830   2.177   2.401
 6697SOL    HW220991   4.744   2.253   2.284
 6698SOL     OW20992   3.532   4.132   1.752
 6698SOL    HW120993   3.469   4.200   1.714
 6698SOL    HW220994   3.626   4.159   1.731
 6699SOL     OW20995   1.219   4.941   5.469
 6699SOL    HW120996   1.252   5.022   5.421
 6699SOL    HW220997   1.297   4.896   5.514
 6700SOL     OW20998   6.096   0.683   0.568
 6700SOL    HW120999   6.065   0.649   0.480
 6700SOL    HW221000   6.023   0.735   0.612
 6701SOL     OW21001   5.677   6.752   1.584
 6701SOL    HW121002   5.585   6.721   1.563
 6701SOL    HW221003   5.743   6.701   1.528
 6702SOL     OW21004   2.507   1.794   0.880
 6702SOL    HW121005   2.489   1.880   0.928
 6702SOL    HW221006   2.472   1.718   0.934
 6703SOL     OW21007   1.899   2.051   5.868
 6703SOL    HW121008   1.819   2.103   5.838
 6703SOL    HW221009   1.948   2.017   5.788
 6704SOL     OW21010   3.714   1.752   5.155
 6704SOL    HW121011   3.781   1.791   5.218
 6704SOL    HW221012   3.749   1.665   5.120
 6705SOL     OW21013   6.392   3.757   1.163
 6705SOL    HW121014   6.426   3.766   1.069
 6705SOL    HW221015   6.294   3.737   1.162
 6706SOL     OW21016   0.781   6.296   1.598
 6706SOL    HW121017   0.809   6.338   1.511
 6706SOL    HW221018   0.799   6.359   1.673
 6707SOL     OW21019   6.251   0.400   2.525
 6707SOL    HW121020   6.249   0.304   2.496
 6707SOL    HW221021   6.172   0.448   2.487
 6708SOL     OW21022   0.060   3.914   1.376
 6708SOL    HW121023   0.027   3.828   1.415
 6708SOL    HW221024   0.044   3.914   1.277
 6709SOL     OW21025   1.298   4.727   2.295
 6709SOL    HW121026   1.227   4.684   2.240
 6709SOL    HW221027   1.345   4.797   2.240
 6710SOL     OW21028   4.170   1.002   2.207
 6710SOL    HW121029   4.186   0.964   2.298
 6710SOL    HW221030   4.105   1.079   2.214
 6711SOL     OW21031   4.535   5.934   6.563
 6711SOL    HW121032   4.475   5.861   6.530
 6711SOL    HW221033   4.525   6.014   6.505
 6712SOL     OW21034   5.998   3.723   0.456
 6712SOL    HW121035   6.015   3.626   0.475
 6712SOL    HW221036   6.079   3.764   0.414
 6713SOL     OW21037   1.755   0.231   4.016
 6713SOL    HW121038   1.804   0.145   4.032
 6713SOL    HW221039   1.724   0.269   4.102
 6714SOL     OW21040   5.806   1.179   0.591
 6714SOL    HW121041   5.780   1.225   0.676
 6714SOL    HW221042   5.727   1.128   0.556
 6715SOL     OW21043   1.274   1.020   1.159
 6715SOL    HW121044   1.345   0.954   1.184
 6715SOL    HW221045   1.217   0.980   1.086
 6716SOL     OW21046   6.759   5.349   2.682
 6716SOL    HW121047   6.700   5.388   2.611
 6716SOL    HW221048   6.718   5.366   2.772
 6717SOL     OW21049   3.215   2.562   6.763
 6717SOL    HW121050   3.300   2.510   6.774
 6717SOL    HW221051   3.148   2.506   6.715
 6718SOL     OW21052   3.553   0.817   2.122
 6718SOL    HW121053   3.617   0.800   2.197
 6718SOL    HW221054   3.478   0.751   2.127
 6719SOL     OW21055   1.819   0.109   7.011
 6719SOL    HW121056   1.823   0.198   6.965
 6719SOL    HW221057   1.874   0.113   0.071
 6720SOL     OW21058   2.506   0.733   5.854
 6720SOL    HW121059   2.499   0.828   5.884
 6720SOL    HW221060   2.456   0.721   5.769
 6721SOL     OW21061   0.346   1.456   0.556
 6721SOL    HW121062   0.423   1.393   0.558
 6721SOL    HW221063   0.344   1.510   0.640
 6722SOL     OW21064   6.099   2.842   0.238
 6722SOL    HW121065   6.156   2.872   0.315
 6722SOL    HW221066   6.035   2.915   0.214
 6723SOL     OW21067   1.509   2.067   6.112
 6723SOL    HW121068   1.468   2.088   6.023
 6723SOL    HW221069   1.555   1.979   6.107
 6724SOL     OW21070   2.242   3.184   5.856
 6724SOL    HW121071   2.225   3.091   5.822
 6724SOL    HW221072   2.239   3.248   5.779
 6725SOL     OW21073   5.799   2.897   3.122
 6725SOL    HW121074   5.704   2.896   3.093
 6725SOL    HW221075   5.826   2.806   3.152
 6726SOL     OW21076   0.200   1.250   5.468
 6726SOL    HW121077   0.236   1.198   5.390
 6726SOL    HW221078   0.258   1.232   5.549
 6727SOL     OW21079   1.046   4.592   5.583
 6727SOL    HW121080   1.112   4.636   5.522
 6727SOL    HW221081   1.093   4.523   5.638
 6728SOL     OW21082   4.103   2.003   3.598
 6728SOL    HW121083   4.054   2.072   3.545
 6728SOL    HW221084   4.170   2.048   3.657
 6729SOL     OW21085   5.174   1.961   1.157
 6729SOL    HW121086   5.102   1.995   1.217
 6729SOL    HW221087   5.263   1.996   1.189
 6730SOL     OW21088   1.596   1.164   0.816
 6730SOL    HW121089   1.598   1.110   0.900
 6730SOL    HW221090   1.508   1.153   0.772
 6731SOL     OW21091   2.575   6.266   0.981
 6731SOL    HW121092   2.546   6.212   1.060
 6731SOL    HW221093   2.508   6.257   0.908
 6732SOL     OW21094   5.726   4.356   4.504
 6732SOL    HW121095   5.825   4.356   4.521
 6732SOL    HW221096   5.707   4.297   4.425
 6733SOL     OW21097   3.119   5.975   0.233
 6733SOL    HW121098   3.085   6.064   0.202
 6733SOL    HW221099   3.175   5.988   0.315
 6734SOL     OW21100   5.262   1.389   4.857
 6734SOL    HW121101   5.223   1.480   4.849
 6734SOL    HW221102   5.280   1.351   4.767
 6735SOL     OW21103   5.909   3.129   3.945
 6735SOL    HW121104   5.978   3.151   3.876
 6735SOL    HW221105   5.848   3.057   3.911
 6736SOL     OW21106   3.423   3.878   1.099
 6736SOL    HW121107   3.497   3.863   1.033
 6736SOL    HW221108   3.367   3.956   1.070
 6737SOL     OW21109   1.135   2.660   1.585
 6737SOL    HW121110   1.061   2.709   1.539
 6737SOL    HW221111   1.181   2.721   1.650
 6738SOL     OW21112   1.496   5.655   3.401
 6738SOL    HW121113   1.412   5.624   3.356
 6738SOL    HW221114   1.479   5.667   3.499
 6739SOL     OW21115   6.659   0.089   4.024
 6739SOL    HW121116   6.661   0.051   3.932
 6739SOL    HW221117   6.724   0.039   4.082
 6740SOL     OW21118   6.602   6.471   4.267
 6740SOL    HW121119   6.542   6.542   4.305
 6740SOL    HW221120   6.661   6.512   4.197
 6741SOL     OW21121   4.727   1.692   5.899
 6741SOL    HW121122   4.790   1.615   5.889
 6741SOL    HW221123   4.695   1.696   5.994
 6742SOL     OW21124   5.592   4.535   3.264
 6742SOL    HW121125   5.610   4.544   3.166
 6742SOL    HW221126   5.603   4.624   3.308
 6743SOL     OW21127   4.040   4.148   6.974
 6743SOL    HW121128   3.968   4.082   6.958
 6743SOL    HW221129   4.107   4.145   6.900
 6744SOL     OW21130   6.531   5.519   6.321
 6744SOL    HW121131   6.557   5.616   6.313
 6744SOL    HW221132   6.500   5.486   6.232
 6745SOL     OW21133   0.057   6.163   4.242
 6745SOL    HW121134   0.097   6.193   4.329
 6745SOL    HW221135   6.983   6.142   4.256
 6746SOL     OW21136   1.781   1.446   2.773
 6746SOL    HW121137   1.779   1.517   2.843
 6746SOL    HW221138   1.717   1.469   2.700
 6747SOL     OW21139   0.606   6.711   6.351
 6747SOL    HW121140   0.703   6.695   6.332
 6747SOL    HW221141   0.556   6.625   6.343
 6748SOL     OW21142   2.908   1.582   4.130
 6748SOL    HW121143   2.873   1.606   4.220
 6748SOL    HW221144   2.841   1.526   4.081
 6749SOL     OW21145   3.448   3.954   0.721
 6749SOL    HW121146   3.464   4.051   0.736
 6749SOL    HW221147   3.503   3.901   0.785
 6750SOL     OW21148   2.580   1.596   4.564
 6750SOL    HW121149   2.564   1.659   4.640
 6750SOL    HW221150   2.555   1.504   4.593
 6751SOL     OW21151   4.558   0.007   3.733
 6751SOL    HW121152   4.545   6.945   3.783
 6751SOL    HW221153   4.546   7.014   3.635
 6752SOL     OW21154   1.835   6.761   2.607
 6752SOL    HW121155   1.909   6.828   2.613
 6752SOL    HW221156   1.787   6.773   2.520
 6753SOL     OW21157   3.630   2.393   5.703
 6753SOL    HW121158   3.690   2.449   5.645
 6753SOL    HW221159   3.556   2.450   5.738
 6754SOL     OW21160   6.009   0.757   1.035
 6754SOL    HW121161   5.968   0.819   1.101
 6754SOL    HW221162   5.937   0.696   0.999
 6755SOL     OW21163   3.020   5.002   1.030
 6755SOL    HW121164   2.965   4.971   1.107
 6755SOL    HW221165   3.029   4.929   0.963
 6756SOL     OW21166   2.292   1.583   5.685
 6756SOL    HW121167   2.345   1.499   5.695
 6756SOL    HW221168   2.331   1.638   5.612
 6757SOL     OW21169   3.271   0.791   0.903
 6757SOL    HW121170   3.234   0.740   0.981
 6757SOL    HW221171   3.349   0.742   0.865
 6758SOL     OW21172   5.237   2.509   0.992
 6758SOL    HW121173   5.191   2.591   1.026
 6758SOL    HW221174   5.169   2.439   0.970
 6759SOL     OW21175   0.104   3.425   2.878
 6759SOL    HW121176   0.075   3.397   2.787
 6759SOL    HW221177   0.042   3.496   2.912
 6760SOL     OW21178   5.729   2.948   2.758
 6760SOL    HW121179   5.705   2.995   2.843
 6760SOL    HW221180   5.698   3.002   2.680
 6761SOL     OW21181   4.764   2.328   4.612
 6761SOL    HW121182   4.759   2.293   4.705
 6761SOL    HW221183   4.724   2.262   4.549
 6762SOL     OW21184   0.286   5.253   4.191
 6762SOL    HW121185   0.283   5.175   4.128
 6762SOL    HW221186   0.263   5.221   4.284
 6763SOL     OW21187   4.918   5.906   4.988
 6763SOL    HW121188   4.997   5.949   4.945
 6763SOL    HW221189   4.836   5.961   4.971
 6764SOL     OW21190   1.449   5.521   2.122
 6764SOL    HW121191   1.494   5.596   2.074
 6764SOL    HW221192   1.489   5.511   2.213
 6765SOL     OW21193   6.387   4.885   3.972
 6765SOL    HW121194   6.453   4.955   3.947
 6765SOL    HW221195   6.328   4.864   3.894
 6766SOL     OW21196   4.367   6.222   0.413
 6766SOL    HW121197   4.441   6.211   0.346
 6766SOL    HW221198   4.371   6.149   0.480
 6767SOL     OW21199   3.016   0.518   0.598
 6767SOL    HW121200   3.088   0.580   0.564
 6767SOL    HW221201   2.956   0.492   0.522
 6768SOL     OW21202   1.919   0.955   6.215
 6768SOL    HW121203   1.955   0.867   6.183
 6768SOL    HW221204   1.964   0.982   6.300
 6769SOL     OW21205   3.211   2.342   0.285
 6769SOL    HW121206   3.308   2.353   0.266
 6769SOL    HW221207   3.157   2.381   0.210
 6770SOL     OW21208   6.790   0.986   1.781
 6770SOL    HW121209   6.719   0.995   1.711
 6770SOL    HW221210   6.854   1.062   1.773
 6771SOL     OW21211   4.708   2.369   3.193
 6771SOL    HW121212   4.802   2.394   3.170
 6771SOL    HW221213   4.706   2.325   3.283
 6772SOL     OW21214   3.163   1.425   2.512
 6772SOL    HW121215   3.239   1.424   2.576
 6772SOL    HW221216   3.197   1.412   2.419
 6773SOL     OW21217   6.701   4.496   1.733
 6773SOL    HW121218   6.717   4.451   1.821
 6773SOL    HW221219   6.787   4.531   1.697
 6774SOL     OW21220   6.929   2.683   6.055
 6774SOL    HW121221   6.940   2.593   6.097
 6774SOL    HW221222   6.967   2.753   6.116
 6775SOL     OW21223   2.504   3.439   0.669
 6775SOL    HW121224   2.423   3.462   0.722
 6775SOL    HW221225   2.499   3.343   0.641
 6776SOL     OW21226   4.232   4.668   0.069
 6776SOL    HW121227   4.160   4.695   0.006
 6776SOL    HW221228   4.255   4.572   0.054
 6777SOL     OW21229   3.778   4.583   6.282
 6777SOL    HW121230   3.860   4.533   6.255
 6777SOL    HW221231   3.697   4.527   6.265
 6778SOL     OW21232   0.229   4.471   1.772
 6778SOL    HW121233   0.241   4.477   1.672
 6778SOL    HW221234   0.299   4.527   1.817
 6779SOL     OW21235   6.593   4.175   6.498
 6779SOL    HW121236   6.604   4.148   6.593
 6779SOL    HW221237   6.538   4.259   6.493
 6780SOL     OW21238   1.083   2.335   2.308
 6780SOL    HW121239   1.041   2.295   2.389
 6780SOL    HW221240   1.143   2.268   2.264
 6781SOL     OW21241   5.532   6.551   5.200
 6781SOL    HW121242   5.546   6.575   5.296
 6781SOL    HW221243   5.452   6.600   5.165
 6782SOL     OW21244   0.238   0.209   2.715
 6782SOL    HW121245   0.160   0.182   2.659
 6782SOL    HW221246   0.206   0.256   2.798
 6783SOL     OW21247   0.253   7.019   6.170
 6783SOL    HW121248   0.272   6.970   6.255
 6783SOL    HW221249   0.324   0.064   6.154
 6784SOL     OW21250   3.667   3.947   0.372
 6784SOL    HW121251   3.723   3.870   0.342
 6784SOL    HW221252   3.612   3.979   0.295
 6785SOL     OW21253   5.752   4.616   2.526
 6785SOL    HW121254   5.694   4.607   2.445
 6785SOL    HW221255   5.847   4.599   2.500
 6786SOL     OW21256   1.209   1.803   6.836
 6786SOL    HW121257   1.218   1.703   6.830
 6786SOL    HW221258   1.228   1.843   6.747
 6787SOL     OW21259   1.850   3.512   0.896
 6787SOL    HW121260   1.925   3.542   0.956
 6787SOL    HW221261   1.832   3.583   0.828
 6788SOL     OW21262   2.770   3.904   1.687
 6788SOL    HW121263   2.837   3.854   1.742
 6788SOL    HW221264   2.679   3.865   1.702
 6789SOL     OW21265   0.658   6.946   2.402
 6789SOL    HW121266   0.567   6.973   2.374
 6789SOL    HW221267   0.682   6.990   2.488
 6790SOL     OW21268   1.531   4.132   0.408
 6790SOL    HW121269   1.505   4.095   0.497
 6790SOL    HW221270   1.518   4.063   0.337
 6791SOL     OW21271   3.840   2.498   0.690
 6791SOL    HW121272   3.939   2.484   0.691
 6791SOL    HW221273   3.820   2.596   0.694
 6792SOL     OW21274   6.495   6.274   5.869
 6792SOL    HW121275   6.462   6.304   5.959
 6792SOL    HW221276   6.586   6.312   5.853
 6793SOL     OW21277   0.816   2.550   0.899
 6793SOL    HW121278   0.915   2.562   0.891
 6793SOL    HW221279   0.771   2.588   0.819
 6794SOL     OW21280   5.155   1.192   5.077
 6794SOL    HW121281   5.180   1.253   5.002
 6794SOL    HW221282   5.232   1.132   5.098
 6795SOL     OW21283   2.351   6.269   0.821
 6795SOL    HW121284   2.373   6.206   0.747
 6795SOL    HW221285   2.258   6.252   0.853
 6796SOL     OW21286   6.048   0.845   2.595
 6796SOL    HW121287   5.992   0.923   2.568
 6796SOL    HW221288   6.117   0.875   2.661
 6797SOL     OW21289   4.939   3.438   1.800
 6797SOL    HW121290   5.014   3.385   1.842
 6797SOL    HW221291   4.856   3.382   1.798
 6798SOL     OW21292   5.487   5.547   3.009
 6798SOL    HW121293   5.435   5.602   3.075
 6798SOL    HW221294   5.531   5.608   2.943
 6799SOL     OW21295   5.717   5.575   0.222
 6799SOL    HW121296   5.762   5.663   0.208
 6799SOL    HW221297   5.756   5.530   0.302
 6800SOL     OW21298   2.145   4.397   0.923
 6800SOL    HW121299   2.117   4.302   0.912
 6800SOL    HW221300   2.186   4.430   0.837
 6801SOL     OW21301   1.732   1.366   2.212
 6801SOL    HW121302   1.796   1.350   2.136
 6801SOL    HW221303   1.781   1.407   2.289
 6802SOL     OW21304   2.465   6.036   0.713
 6802SOL    HW121305   2.405   5.982   0.773
 6802SOL    HW221306   2.558   6.035   0.748
 6803SOL     OW21307   4.399   2.431   6.349
 6803SOL    HW121308   4.343   2.462   6.426
 6803SOL    HW221309   4.452   2.351   6.376
 6804SOL     OW21310   2.467   5.395   3.610
 6804SOL    HW121311   2.414   5.377   3.692
 6804SOL    HW221312   2.411   5.375   3.529
 6805SOL     OW21313   5.647   6.415   4.405
 6805SOL    HW121314   5.617   6.491   4.463
 6805SOL    HW221315   5.642   6.330   4.457
 6806SOL     OW21316   5.551   1.046   3.471
 6806SOL    HW121317   5.572   1.004   3.382
 6806SOL    HW221318   5.590   1.138   3.474
 6807SOL     OW21319   2.492   3.483   0.289
 6807SOL    HW121320   2.574   3.529   0.254
 6807SOL    HW221321   2.501   3.385   0.277
 6808SOL     OW21322   0.776   2.909   5.484
 6808SOL    HW121323   0.864   2.935   5.522
 6808SOL    HW221324   0.721   2.991   5.468
 6809SOL     OW21325   1.489   4.205   6.869
 6809SOL    HW121326   1.413   4.257   6.828
 6809SOL    HW221327   1.541   4.264   6.929
 6810SOL     OW21328   1.786   0.453   1.622
 6810SOL    HW121329   1.751   0.538   1.584
 6810SOL    HW221330   1.791   0.384   1.550
 6811SOL     OW21331   4.676   4.166   0.219
 6811SOL    HW121332   4.736   4.244   0.200
 6811SOL    HW221333   4.731   4.083   0.223
 6812SOL     OW21334   3.650   3.147   3.249
 6812SOL    HW121335   3.687   3.055   3.247
 6812SOL    HW221336   3.701   3.202   3.315
 6813SOL     OW21337   4.572   1.589   1.689
 6813SOL    HW121338   4.518   1.663   1.649
 6813SOL    HW221339   4.542   1.501   1.653
 6814SOL     OW21340   3.183   2.839   0.715
 6814SOL    HW121341   3.118   2.834   0.640
 6814SOL    HW221342   3.260   2.897   0.689
 6815SOL     OW21343   3.163   6.997   1.118
 6815SOL    HW121344   3.219   0.052   1.142
 6815SOL    HW221345   3.069   0.002   1.104
 6816SOL     OW21346   0.036   5.597   0.145
 6816SOL    HW121347   6.970   5.568   0.111
 6816SOL    HW221348   0.046   5.695   0.131
 6817SOL     OW21349   6.549   1.764   5.286
 6817SOL    HW121350   6.603   1.682   5.264
 6817SOL    HW221351   6.543   1.774   5.385
 6818SOL     OW21352   2.669   6.038   2.121
 6818SOL    HW121353   2.656   6.006   2.215
 6818SOL    HW221354   2.603   5.993   2.061
 6819SOL     OW21355   3.524   0.819   4.283
 6819SOL    HW121356   3.465   0.897   4.263
 6819SOL    HW221357   3.567   0.787   4.199
 6820SOL     OW21358   1.227   5.191   3.278
 6820SOL    HW121359   1.200   5.266   3.338
 6820SOL    HW221360   1.315   5.212   3.235
 6821SOL     OW21361   2.942   1.541   5.431
 6821SOL    HW121362   2.975   1.605   5.361
 6821SOL    HW221363   2.987   1.561   5.518
 6822SOL     OW21364   5.699   1.698   6.033
 6822SOL    HW121365   5.732   1.695   6.127
 6822SOL    HW221366   5.599   1.695   6.033
 6823SOL     OW21367   4.035   3.132   4.008
 6823SOL    HW121368   4.128   3.098   3.995
 6823SOL    HW221369   3.992   3.147   3.919
 6824SOL     OW21370   0.499   2.998   6.318
 6824SOL    HW121371   0.419   3.014   6.376
 6824SOL    HW221372   0.485   3.041   6.228
 6825SOL     OW21373   5.118   6.752   2.653
 6825SOL    HW121374   5.063   6.830   2.685
 6825SOL    HW221375   5.186   6.729   2.722
 6826SOL     OW21376   2.205   4.073   2.911
 6826SOL    HW121377   2.221   4.076   3.010
 6826SOL    HW221378   2.259   4.146   2.867
 6827SOL     OW21379   5.098   6.071   0.433
 6827SOL    HW121380   5.098   6.120   0.520
 6827SOL    HW221381   5.181   6.016   0.426
 6828SOL     OW21382   1.974   1.985   1.612
 6828SOL    HW121383   2.036   1.908   1.598
 6828SOL    HW221384   1.921   2.001   1.529
 6829SOL     OW21385   5.110   6.621   3.692
 6829SOL    HW121386   5.168   6.617   3.611
 6829SOL    HW221387   5.150   6.682   3.759
 6830SOL     OW21388   5.624   1.257   3.059
 6830SOL    HW121389   5.704   1.231   3.005
 6830SOL    HW221390   5.554   1.186   3.051
 6831SOL     OW21391   0.927   0.378   6.319
 6831SOL    HW121392   0.952   0.301   6.378
 6831SOL    HW221393   0.842   0.356   6.271
 6832SOL     OW21394   2.453   4.325   1.308
 6832SOL    HW121395   2.373   4.286   1.353
 6832SOL    HW221396   2.454   4.424   1.323
 6833SOL     OW21397   4.516   5.299   7.018
 6833SOL    HW121398   4.501   5.200   7.013
 6833SOL    HW221399   4.434   5.343   0.031
 6834SOL     OW21400   4.669   6.770   1.875
 6834SOL    HW121401   4.621   6.816   1.950
 6834SOL    HW221402   4.768   6.783   1.885
 6835SOL     OW21403   4.319   6.841   5.251
 6835SOL    HW121404   4.304   6.779   5.328
 6835SOL    HW221405   4.257   6.818   5.176
 6836SOL     OW21406   3.090   6.565   0.708
 6836SOL    HW121407   3.027   6.520   0.645
 6836SOL    HW221408   3.090   6.516   0.796
 6837SOL     OW21409   1.269   3.340   2.371
 6837SOL    HW121410   1.268   3.330   2.471
 6837SOL    HW221411   1.351   3.297   2.334
 6838SOL     OW21412   1.505   0.649   0.825
 6838SOL    HW121413   1.569   0.611   0.892
 6838SOL    HW221414   1.469   0.576   0.768
 6839SOL     OW21415   5.226   1.353   0.410
 6839SOL    HW121416   5.136   1.385   0.438
 6839SOL    HW221417   5.219   1.301   0.325
 6840SOL     OW21418   2.273   2.039   5.188
 6840SOL    HW121419   2.228   1.998   5.108
 6840SOL    HW221420   2.207   2.095   5.238
 6841SOL     OW21421   5.642   3.296   5.915
 6841SOL    HW121422   5.722   3.299   5.854
 6841SOL    HW221423   5.641   3.378   5.972
 6842SOL     OW21424   2.490   4.582   0.991
 6842SOL    HW121425   2.478   4.681   0.982
 6842SOL    HW221426   2.458   4.554   1.082
 6843SOL     OW21427   5.172   0.114   6.738
 6843SOL    HW121428   5.208   0.153   6.653
 6843SOL    HW221429   5.072   0.112   6.734
 6844SOL     OW21430   5.595   0.874   4.202
 6844SOL    HW121431   5.583   0.860   4.103
 6844SOL    HW221432   5.584   0.786   4.249
 6845SOL     OW21433   6.082   2.816   2.801
 6845SOL    HW121434   5.989   2.792   2.831
 6845SOL    HW221435   6.089   2.805   2.702
 6846SOL     OW21436   2.938   4.222   0.070
 6846SOL    HW121437   2.979   4.131   0.085
 6846SOL    HW221438   3.011   4.289   0.057
 6847SOL     OW21439   6.642   3.926   4.754
 6847SOL    HW121440   6.683   3.852   4.701
 6847SOL    HW221441   6.577   3.888   4.821
 6848SOL     OW21442   5.400   4.165   3.983
 6848SOL    HW121443   5.305   4.148   3.955
 6848SOL    HW221444   5.406   4.167   4.082
 6849SOL     OW21445   3.576   4.551   5.598
 6849SOL    HW121446   3.493   4.599   5.625
 6849SOL    HW221447   3.555   4.455   5.580
 6850SOL     OW21448   4.256   2.194   3.271
 6850SOL    HW121449   4.170   2.145   3.285
 6850SOL    HW221450   4.283   2.186   3.175
 6851SOL     OW21451   2.047   2.977   2.841
 6851SOL    HW121452   2.123   2.918   2.812
 6851SOL    HW221453   2.007   2.941   2.925
 6852SOL     OW21454   2.776   5.225   1.319
 6852SOL    HW121455   2.872   5.195   1.325
 6852SOL    HW221456   2.753   5.279   1.399
 6853SOL     OW21457   5.418   3.206   5.823
 6853SOL    HW121458   5.508   3.229   5.859
 6853SOL    HW221459   5.416   3.109   5.799
 6854SOL     OW21460   5.441   6.205   5.737
 6854SOL    HW121461   5.454   6.261   5.819
 6854SOL    HW221462   5.491   6.246   5.661
 6855SOL     OW21463   4.577   5.468   3.731
 6855SOL    HW121464   4.503   5.410   3.698
 6855SOL    HW221465   4.628   5.421   3.803
 6856SOL     OW21466   0.394   2.384   6.020
 6856SOL    HW121467   0.305   2.429   6.025
 6856SOL    HW221468   0.419   2.370   5.924
 6857SOL     OW21469   0.791   3.342   6.296
 6857SOL    HW121470   0.836   3.428   6.319
 6857SOL    HW221471   0.838   3.266   6.341
 6858SOL     OW21472   3.322   4.262   1.663
 6858SOL    HW121473   3.259   4.237   1.736
 6858SOL    HW221474   3.302   4.355   1.631
 6859SOL     OW21475   0.976   1.535   1.825
 6859SOL    HW121476   0.906   1.486   1.876
 6859SOL    HW221477   0.963   1.634   1.838
 6860SOL     OW21478   0.097   5.025   2.427
 6860SOL    HW121479   0.194   5.017   2.450
 6860SOL    HW221480   0.074   4.957   2.357
 6861SOL     OW21481   4.774   3.379   5.772
 6861SOL    HW121482   4.763   3.358   5.674
 6861SOL    HW221483   4.688   3.361   5.819
 6862SOL     OW21484   0.844   5.197   6.112
 6862SOL    HW121485   0.862   5.214   6.015
 6862SOL    HW221486   0.931   5.192   6.162
 6863SOL     OW21487   0.070   5.968   4.982
 6863SOL    HW121488   0.055   5.968   4.883
 6863SOL    HW221489   0.136   5.898   5.006
 6864SOL     OW21490   1.678   4.031   5.966
 6864SOL    HW121491   1.591   3.989   5.938
 6864SOL    HW221492   1.701   4.104   5.901
 6865SOL     OW21493   2.107   0.909   5.335
 6865SOL    HW121494   2.096   0.825   5.281
 6865SOL    HW221495   2.033   0.916   5.401
 6866SOL     OW21496   6.031   4.191   2.279
 6866SOL    HW121497   5.995   4.260   2.216
 6866SOL    HW221498   6.131   4.187   2.270
 6867SOL     OW21499   1.841   4.315   1.192
 6867SOL    HW121500   1.787   4.326   1.109
 6867SOL    HW221501   1.874   4.221   1.198
 6868SOL     OW21502   2.293   5.707   5.320
 6868SOL    HW121503   2.234   5.631   5.347
 6868SOL    HW221504   2.388   5.675   5.319
 6869SOL     OW21505   3.701   0.086   5.574
 6869SOL    HW121506   3.724   0.012   5.638
 6869SOL    HW221507   3.725   0.174   5.616
 6870SOL     OW21508   0.897   3.469   7.010
 6870SOL    HW121509   0.989   3.449   0.019
 6870SOL    HW221510   0.834   3.398   0.017
 6871SOL     OW21511   0.005   3.331   2.106
 6871SOL    HW121512   0.073   3.264   2.136
 6871SOL    HW221513   0.047   3.395   2.043
 6872SOL     OW21514   1.528   2.682   2.363
 6872SOL    HW121515   1.527   2.781   2.371
 6872SOL    HW221516   1.569   2.656   2.275
 6873SOL     OW21517   1.407   3.794   4.078
 6873SOL    HW121518   1.362   3.729   4.018
 6873SOL    HW221519   1.503   3.768   4.089
 6874SOL     OW21520   6.267   5.180   3.170
 6874SOL    HW121521   6.168   5.170   3.161
 6874SOL    HW221522   6.290   5.275   3.191
 6875SOL     OW21523   1.762   2.916   1.737
 6875SOL    HW121524   1.778   2.867   1.652
 6875SOL    HW221525   1.678   2.970   1.730
 6876SOL     OW21526   3.625   0.383   3.181
 6876SOL    HW121527   3.558   0.385   3.254
 6876SOL    HW221528   3.696   0.452   3.199
 6877SOL     OW21529   2.729   4.283   1.445
 6877SOL    HW121530   2.633   4.299   1.423
 6877SOL    HW221531   2.752   4.326   1.532
 6878SOL     OW21532   2.330   1.625   3.977
 6878SOL    HW121533   2.317   1.556   4.048
 6878SOL    HW221534   2.283   1.709   4.003
 6879SOL     OW21535   2.206   2.260   0.643
 6879SOL    HW121536   2.261   2.177   0.654
 6879SOL    HW221537   2.109   2.236   0.650
 6880SOL     OW21538   1.305   6.004   6.197
 6880SOL    HW121539   1.372   5.983   6.126
 6880SOL    HW221540   1.267   6.096   6.181
 6881SOL     OW21541   1.509   3.772   1.070
 6881SOL    HW121542   1.506   3.796   0.973
 6881SOL    HW221543   1.476   3.679   1.083
 6882SOL     OW21544   2.559   1.250   0.085
 6882SOL    HW121545   2.480   1.232   0.143
 6882SOL    HW221546   2.528   1.278   7.018
 6883SOL     OW21547   5.154   0.708   6.724
 6883SOL    HW121548   5.161   0.623   6.776
 6883SOL    HW221549   5.116   0.689   6.633
 6884SOL     OW21550   1.952   4.411   2.937
 6884SOL    HW121551   2.046   4.443   2.933
 6884SOL    HW221552   1.940   4.354   3.019
 6885SOL     OW21553   4.734   4.699   4.183
 6885SOL    HW121554   4.700   4.612   4.219
 6885SOL    HW221555   4.777   4.683   4.094
 6886SOL     OW21556   5.960   1.377   4.878
 6886SOL    HW121557   5.957   1.278   4.888
 6886SOL    HW221558   5.911   1.420   4.955
 6887SOL     OW21559   4.870   5.769   0.122
 6887SOL    HW121560   4.961   5.743   0.088
 6887SOL    HW221561   4.808   5.692   0.114
 6888SOL     OW21562   5.736   4.265   6.350
 6888SOL    HW121563   5.646   4.307   6.353
 6888SOL    HW221564   5.806   4.336   6.345
 6889SOL     OW21565   1.442   2.876   5.844
 6889SOL    HW121566   1.388   2.886   5.760
 6889SOL    HW221567   1.480   2.784   5.848
 6890SOL     OW21568   3.690   5.532   3.082
 6890SOL    HW121569   3.596   5.520   3.050
 6890SOL    HW221570   3.748   5.557   3.005
 6891SOL     OW21571   2.521   2.858   1.432
 6891SOL    HW121572   2.469   2.774   1.421
 6891SOL    HW221573   2.584   2.849   1.509
 6892SOL     OW21574   3.238   1.362   4.241
 6892SOL    HW121575   3.217   1.323   4.151
 6892SOL    HW221576   3.240   1.461   4.235
 6893SOL     OW21577   5.964   3.560   0.047
 6893SOL    HW121578   6.026   3.632   0.078
 6893SOL    HW221579   5.890   3.549   0.113
 6894SOL     OW21580   5.543   3.892   1.101
 6894SOL    HW121581   5.610   3.922   1.032
 6894SOL    HW221582   5.582   3.903   1.192
 6895SOL     OW21583   1.391   6.049   0.964
 6895SOL    HW121584   1.368   6.134   0.916
 6895SOL    HW221585   1.472   6.063   1.021
 6896SOL     OW21586   3.780   1.696   4.344
 6896SOL    HW121587   3.728   1.705   4.259
 6896SOL    HW221588   3.776   1.601   4.376
 6897SOL     OW21589   4.930   3.850   4.983
 6897SOL    HW121590   4.892   3.757   4.983
 6897SOL    HW221591   5.015   3.852   5.035
 6898SOL     OW21592   2.875   1.444   1.407
 6898SOL    HW121593   2.828   1.526   1.442
 6898SOL    HW221594   2.949   1.419   1.470
 6899SOL     OW21595   5.482   5.960   2.520
 6899SOL    HW121596   5.503   5.975   2.617
 6899SOL    HW221597   5.432   5.874   2.510
 6900SOL     OW21598   6.736   4.659   6.262
 6900SOL    HW121599   6.754   4.745   6.214
 6900SOL    HW221600   6.795   4.587   6.224
 6901SOL     OW21601   4.521   4.689   6.930
 6901SOL    HW121602   4.615   4.722   6.934
 6901SOL    HW221603   4.472   4.717   7.013
 6902SOL     OW21604   6.766   5.975   5.900
 6902SOL    HW121605   6.756   6.055   5.840
 6902SOL    HW221606   6.766   6.006   5.996
 6903SOL     OW21607   2.646   4.930   5.507
 6903SOL    HW121608   2.682   5.002   5.449
 6903SOL    HW221609   2.574   4.880   5.458
 6904SOL     OW21610   0.505   6.059   5.462
 6904SOL    HW121611   0.601   6.088   5.465
 6904SOL    HW221612   0.475   6.035   5.554
 6905SOL     OW21613   5.424   5.266   0.139
 6905SOL    HW121614   5.454   5.347   0.190
 6905SOL    HW221615   5.493   5.194   0.149
 6906SOL     OW21616   3.685   1.813   3.854
 6906SOL    HW121617   3.742   1.802   3.773
 6906SOL    HW221618   3.674   1.910   3.874
 6907SOL     OW21619   6.076   1.975   1.686
 6907SOL    HW121620   6.039   1.891   1.647
 6907SOL    HW221621   6.116   2.031   1.614
 6908SOL     OW21622   2.374   4.683   6.666
 6908SOL    HW121623   2.341   4.597   6.626
 6908SOL    HW221624   2.355   4.758   6.603
 6909SOL     OW21625   5.105   4.892   2.033
 6909SOL    HW121626   5.039   4.963   2.060
 6909SOL    HW221627   5.198   4.928   2.043
 6910SOL     OW21628   1.342   3.236   3.231
 6910SOL    HW121629   1.435   3.269   3.214
 6910SOL    HW221630   1.283   3.313   3.254
 6911SOL     OW21631   3.607   0.299   5.223
 6911SOL    HW121632   3.704   0.304   5.198
 6911SOL    HW221633   3.588   0.366   5.294
 6912SOL     OW21634   2.277   3.369   6.049
 6912SOL    HW121635   2.271   3.311   5.968
 6912SOL    HW221636   2.341   3.328   6.114
 6913SOL     OW21637   5.320   6.370   5.212
 6913SOL    HW121638   5.317   6.274   5.240
 6913SOL    HW221639   5.315   6.376   5.113
 6914SOL     OW21640   6.251   4.008   1.821
 6914SOL    HW121641   6.163   4.047   1.849
 6914SOL    HW221642   6.236   3.936   1.753
 6915SOL     OW21643   0.918   3.220   2.170
 6915SOL    HW121644   0.998   3.230   2.111
 6915SOL    HW221645   0.839   3.263   2.127
 6916SOL     OW21646   5.147   1.187   5.841
 6916SOL    HW121647   5.084   1.114   5.815
 6916SOL    HW221648   5.141   1.202   5.940
 6917SOL     OW21649   5.050   5.622   1.727
 6917SOL    HW121650   5.063   5.577   1.639
 6917SOL    HW221651   5.139   5.643   1.767
 6918SOL     OW21652   0.422   3.118   2.335
 6918SOL    HW121653   0.395   3.023   2.322
 6918SOL    HW221654   0.506   3.122   2.390
 6919SOL     OW21655   6.045   6.556   2.797
 6919SOL    HW121656   6.009   6.565   2.704
 6919SOL    HW221657   5.972   6.525   2.858
 6920SOL     OW21658   4.739   0.049   5.290
 6920SOL    HW121659   4.675   0.102   5.236
 6920SOL    HW221660   4.695   6.989   5.323
 6921SOL     OW21661   4.171   0.193   4.199
 6921SOL    HW121662   4.249   0.254   4.185
 6921SOL    HW221663   4.198   0.099   4.183
 6922SOL     OW21664   1.749   6.152   4.614
 6922SOL    HW121665   1.817   6.080   4.598
 6922SOL    HW221666   1.703   6.174   4.528
 6923SOL     OW21667   5.982   6.161   2.792
 6923SOL    HW121668   5.894   6.208   2.788
 6923SOL    HW221669   5.970   6.072   2.837
 6924SOL     OW21670   3.357   6.002   1.553
 6924SOL    HW121671   3.418   5.936   1.595
 6924SOL    HW221672   3.324   5.966   1.466
 6925SOL     OW21673   4.926   5.986   6.399
 6925SOL    HW121674   4.958   6.068   6.350
 6925SOL    HW221675   4.874   6.014   6.480
 6926SOL     OW21676   2.288   1.449   0.125
 6926SOL    HW121677   2.204   1.468   0.075
 6926SOL    HW221678   2.265   1.406   0.213
 6927SOL     OW21679   3.847   0.947   0.492
 6927SOL    HW121680   3.938   0.953   0.532
 6927SOL    HW221681   3.834   1.023   0.428
 6928SOL     OW21682   4.929   5.269   0.596
 6928SOL    HW121683   4.947   5.364   0.619
 6928SOL    HW221684   4.859   5.264   0.525
 6929SOL     OW21685   5.487   5.192   1.555
 6929SOL    HW121686   5.392   5.194   1.586
 6929SOL    HW221687   5.507   5.104   1.513
 6930SOL     OW21688   0.601   1.336   0.597
 6930SOL    HW121689   0.619   1.370   0.689
 6930SOL    HW221690   0.661   1.382   0.532
 6931SOL     OW21691   2.388   1.691   1.211
 6931SOL    HW121692   2.294   1.657   1.211
 6931SOL    HW221693   2.446   1.630   1.157
 6932SOL     OW21694   4.441   4.671   0.729
 6932SOL    HW121695   4.429   4.583   0.685
 6932SOL    HW221696   4.445   4.743   0.660
 6933SOL     OW21697   3.688   6.178   6.143
 6933SOL    HW121698   3.721   6.241   6.213
 6933SOL    HW221699   3.765   6.141   6.092
 6934SOL     OW21700   4.847   3.742   6.589
 6934SOL    HW121701   4.839   3.664   6.651
 6934SOL    HW221702   4.908   3.719   6.513
 6935SOL     OW21703   4.754   5.486   2.515
 6935SOL    HW121704   4.722   5.442   2.598
 6935SOL    HW221705   4.822   5.556   2.538
 6936SOL     OW21706   0.255   2.083   4.381
 6936SOL    HW121707   0.189   2.042   4.318
 6936SOL    HW221708   0.294   2.165   4.340
 6937SOL     OW21709   5.997   6.252   0.369
 6937SOL    HW121710   5.912   6.273   0.416
 6937SOL    HW221711   6.068   6.229   0.435
 6938SOL     OW21712   0.348   0.804   4.740
 6938SOL    HW121713   0.281   0.836   4.673
 6938SOL    HW221714   0.366   0.707   4.725
 6939SOL     OW21715   6.466   5.045   3.462
 6939SOL    HW121716   6.490   5.041   3.366
 6939SOL    HW221717   6.533   5.100   3.512
 6940SOL     OW21718   4.999   6.902   0.401
 6940SOL    HW121719   5.084   6.851   0.415
 6940SOL    HW221720   5.020   6.997   0.379
 6941SOL     OW21721   2.953   3.742   2.229
 6941SOL    HW121722   2.944   3.668   2.295
 6941SOL    HW221723   2.983   3.705   2.141
 6942SOL     OW21724   6.358   6.562   1.888
 6942SOL    HW121725   6.355   6.657   1.856
 6942SOL    HW221726   6.446   6.522   1.865
 6943SOL     OW21727   3.741   4.986   0.108
 6943SOL    HW121728   3.660   5.012   0.160
 6943SOL    HW221729   3.714   4.954   0.017
 6944SOL     OW21730   0.960   4.653   6.159
 6944SOL    HW121731   0.967   4.723   6.231
 6944SOL    HW221732   1.027   4.673   6.088
 6945SOL     OW21733   6.545   2.375   0.789
 6945SOL    HW121734   6.585   2.321   0.715
 6945SOL    HW221735   6.515   2.314   0.863
 6946SOL     OW21736   4.010   5.968   2.075
 6946SOL    HW121737   3.921   6.004   2.102
 6946SOL    HW221738   4.062   6.040   2.029
 6947SOL     OW21739   4.130   4.852   6.072
 6947SOL    HW121740   4.146   4.929   6.010
 6947SOL    HW221741   4.206   4.846   6.138
 6948SOL     OW21742   0.298   6.552   1.372
 6948SOL    HW121743   0.221   6.581   1.317
 6948SOL    HW221744   0.269   6.482   1.437
 6949SOL     OW21745   2.562   2.324   3.434
 6949SOL    HW121746   2.600   2.393   3.496
 6949SOL    HW221747   2.597   2.340   3.341
 6950SOL     OW21748   1.277   0.037   3.882
 6950SOL    HW121749   1.345   6.988   3.874
 6950SOL    HW221750   1.236   0.054   3.792
 6951SOL     OW21751   6.408   5.518   6.713
 6951SOL    HW121752   6.485   5.561   6.665
 6951SOL    HW221753   6.380   5.436   6.664
 6952SOL     OW21754   2.986   4.823   2.989
 6952SOL    HW121755   2.915   4.872   3.039
 6952SOL    HW221756   2.948   4.790   2.902
 6953SOL     OW21757   5.326   6.935   0.735
 6953SOL    HW121758   5.228   6.938   0.718
 6953SOL    HW221759   5.355   7.022   0.776
 6954SOL     OW21760   0.071   3.534   1.209
 6954SOL    HW121761   0.148   3.544   1.146
 6954SOL    HW221762   7.011   3.564   1.163
 6955SOL     OW21763   5.062   0.153   2.703
 6955SOL    HW121764   5.156   0.134   2.675
 6955SOL    HW221765   5.030   0.082   2.766
 6956SOL     OW21766   5.970   5.885   2.091
 6956SOL    HW121767   5.935   5.967   2.045
 6956SOL    HW221768   6.008   5.822   2.023
 6957SOL     OW21769   5.256   6.086   6.449
 6957SOL    HW121770   5.201   6.103   6.367
 6957SOL    HW221771   5.252   5.989   6.472
 6958SOL     OW21772   3.617   3.473   4.192
 6958SOL    HW121773   3.534   3.494   4.139
 6958SOL    HW221774   3.625   3.374   4.203
 6959SOL     OW21775   1.726   3.826   3.186
 6959SOL    HW121776   1.698   3.731   3.193
 6959SOL    HW221777   1.822   3.832   3.159
 6960SOL     OW21778   1.400   4.794   1.074
 6960SOL    HW121779   1.498   4.814   1.078
 6960SOL    HW221780   1.383   4.723   1.006
 6961SOL     OW21781   4.351   1.076   4.826
 6961SOL    HW121782   4.366   1.155   4.885
 6961SOL    HW221783   4.413   1.081   4.748
 6962SOL     OW21784   3.568   6.430   0.136
 6962SOL    HW121785   3.591   6.344   0.090
 6962SOL    HW221786   3.482   6.419   0.185
 6963SOL     OW21787   5.263   5.923   0.105
 6963SOL    HW121788   5.200   5.999   0.120
 6963SOL    HW221789   5.300   5.926   0.012
 6964SOL     OW21790   2.923   0.217   5.542
 6964SOL    HW121791   2.977   0.173   5.470
 6964SOL    HW221792   2.960   0.192   5.631
 6965SOL     OW21793   1.146   2.193   6.986
 6965SOL    HW121794   1.049   2.192   7.008
 6965SOL    HW221795   1.175   2.287   6.968
 6966SOL     OW21796   1.278   0.867   1.792
 6966SOL    HW121797   1.253   0.908   1.880
 6966SOL    HW221798   1.196   0.836   1.745
 6967SOL     OW21799   3.660   1.353   5.964
 6967SOL    HW121800   3.759   1.358   5.980
 6967SOL    HW221801   3.635   1.418   5.893
 6968SOL     OW21802   3.205   0.363   3.267
 6968SOL    HW121803   3.163   0.453   3.255
 6968SOL    HW221804   3.266   0.344   3.189
 6969SOL     OW21805   3.062   1.860   1.099
 6969SOL    HW121806   3.004   1.792   1.053
 6969SOL    HW221807   3.004   1.932   1.138
 6970SOL     OW21808   3.080   4.773   6.414
 6970SOL    HW121809   3.032   4.693   6.378
 6970SOL    HW221810   3.014   4.846   6.432
 6971SOL     OW21811   5.309   4.090   1.205
 6971SOL    HW121812   5.216   4.056   1.219
 6971SOL    HW221813   5.353   4.105   1.294
 6972SOL     OW21814   4.923   3.607   2.987
 6972SOL    HW121815   4.923   3.639   3.082
 6972SOL    HW221816   4.913   3.686   2.925
 6973SOL     OW21817   1.270   2.327   2.576
 6973SOL    HW121818   1.320   2.338   2.490
 6973SOL    HW221819   1.283   2.408   2.633
 6974SOL     OW21820   3.013   3.929   2.446
 6974SOL    HW121821   2.964   3.869   2.383
 6974SOL    HW221822   3.032   4.016   2.402
 6975SOL     OW21823   3.037   5.614   4.482
 6975SOL    HW121824   2.951   5.637   4.526
 6975SOL    HW221825   3.099   5.572   4.549
 6976SOL     OW21826   4.944   4.155   5.332
 6976SOL    HW121827   4.897   4.225   5.385
 6976SOL    HW221828   4.894   4.137   5.247
 6977SOL     OW21829   4.137   4.070   1.605
 6977SOL    HW121830   4.149   3.971   1.612
 6977SOL    HW221831   4.040   4.091   1.595
 6978SOL     OW21832   5.919   3.234   0.875
 6978SOL    HW121833   6.004   3.273   0.839
 6978SOL    HW221834   5.937   3.140   0.906
 6979SOL     OW21835   1.114   3.618   1.467
 6979SOL    HW121836   1.069   3.621   1.557
 6979SOL    HW221837   1.212   3.627   1.479
 6980SOL     OW21838   1.707   0.737   2.983
 6980SOL    HW121839   1.706   0.672   3.059
 6980SOL    HW221840   1.623   0.790   2.982
 6981SOL     OW21841   3.498   3.369   6.858
 6981SOL    HW121842   3.454   3.411   6.938
 6981SOL    HW221843   3.581   3.421   6.835
 6982SOL     OW21844   1.091   1.030   3.785
 6982SOL    HW121845   1.109   1.050   3.881
 6982SOL    HW221846   1.038   0.946   3.777
 6983SOL     OW21847   4.167   1.257   5.159
 6983SOL    HW121848   4.233   1.301   5.098
 6983SOL    HW221849   4.188   1.159   5.165
 6984SOL     OW21850   1.606   2.371   2.879
 6984SOL    HW121851   1.604   2.332   2.787
 6984SOL    HW221852   1.515   2.365   2.920
 6985SOL     OW21853   6.651   4.421   0.068
 6985SOL    HW121854   6.560   4.460   0.059
 6985SOL    HW221855   6.676   4.373   7.008
 6986SOL     OW21856   3.791   6.392   6.300
 6986SOL    HW121857   3.857   6.324   6.333
 6986SOL    HW221858   3.772   6.458   6.372
 6987SOL     OW21859   0.233   1.738   5.459
 6987SOL    HW121860   0.138   1.741   5.429
 6987SOL    HW221861   0.251   1.652   5.507
 6988SOL     OW21862   2.849   0.249   5.970
 6988SOL    HW121863   2.942   0.284   5.973
 6988SOL    HW221864   2.851   0.149   5.962
 6989SOL     OW21865   6.767   4.491   2.235
 6989SOL    HW121866   6.792   4.396   2.215
 6989SOL    HW221867   6.737   4.536   2.151
 6990SOL     OW21868   3.982   2.952   1.795
 6990SOL    HW121869   3.919   2.875   1.789
 6990SOL    HW221870   3.966   3.003   1.879
 6991SOL     OW21871   5.215   4.696   3.143
 6991SOL    HW121872   5.127   4.740   3.122
 6991SOL    HW221873   5.289   4.759   3.124
 6992SOL     OW21874   0.433   6.662   0.567
 6992SOL    HW121875   0.425   6.660   0.467
 6992SOL    HW221876   0.345   6.687   0.607
 6993SOL     OW21877   5.821   0.960   1.961
 6993SOL    HW121878   5.759   0.893   2.003
 6993SOL    HW221879   5.888   0.911   1.905
 6994SOL     OW21880   1.471   7.016   3.506
 6994SOL    HW121881   1.500   0.074   3.456
 6994SOL    HW221882   1.533   6.941   3.485
 6995SOL     OW21883   0.733   3.899   0.273
 6995SOL    HW121884   0.729   3.807   0.235
 6995SOL    HW221885   0.641   3.937   0.278
 6996SOL     OW21886   1.553   0.743   6.696
 6996SOL    HW121887   1.504   0.693   6.625
 6996SOL    HW221888   1.517   0.718   6.785
 6997SOL     OW21889   6.911   4.780   5.273
 6997SOL    HW121890   6.940   4.870   5.240
 6997SOL    HW221891   6.923   4.712   5.200
 6998SOL     OW21892   1.039   1.463   1.561
 6998SOL    HW121893   0.982   1.494   1.638
 6998SOL    HW221894   0.985   1.404   1.501
 6999SOL     OW21895   0.465   2.864   6.619
 6999SOL    HW121896   0.472   2.769   6.587
 6999SOL    HW221897   0.529   2.878   6.694
 7000SOL     OW21898   6.075   0.374   2.815
 7000SOL    HW121899   6.107   0.287   2.777
 7000SOL    HW221900   6.049   0.436   2.741
 7001SOL     OW21901   0.968   1.513   4.087
 7001SOL    HW121902   0.939   1.597   4.041
 7001SOL    HW221903   0.897   1.444   4.077
 7002SOL     OW21904   0.645   5.441   3.751
 7002SOL    HW121905   0.703   5.478   3.823
 7002SOL    HW221906   0.690   5.361   3.711
 7003SOL     OW21907   5.876   4.711   1.062
 7003SOL    HW121908   5.953   4.650   1.082
 7003SOL    HW221909   5.909   4.806   1.058
 7004SOL     OW21910   1.576   5.668   0.343
 7004SOL    HW121911   1.478   5.648   0.342
 7004SOL    HW221912   1.589   5.767   0.330
 7005SOL     OW21913   1.120   0.436   6.893
 7005SOL    HW121914   1.097   0.386   6.976
 7005SOL    HW221915   1.217   0.463   6.897
 7006SOL     OW21916   6.845   6.357   3.527
 7006SOL    HW121917   6.885   6.266   3.537
 7006SOL    HW221918   6.892   6.421   3.587
 7007SOL     OW21919   4.290   0.637   5.736
 7007SOL    HW121920   4.228   0.651   5.813
 7007SOL    HW221921   4.376   0.686   5.753
 7008SOL     OW21922   6.657   4.377   3.594
 7008SOL    HW121923   6.694   4.327   3.673
 7008SOL    HW221924   6.597   4.317   3.542
 7009SOL     OW21925   3.880   6.503   2.217
 7009SOL    HW121926   3.825   6.424   2.245
 7009SOL    HW221927   3.846   6.538   2.130
 7010SOL     OW21928   5.828   3.936   2.582
 7010SOL    HW121929   5.764   4.002   2.542
 7010SOL    HW221930   5.851   3.965   2.675
 7011SOL     OW21931   3.622   6.628   0.471
 7011SOL    HW121932   3.530   6.636   0.508
 7011SOL    HW221933   3.628   6.678   0.385
 7012SOL     OW21934   1.532   3.114   1.092
 7012SOL    HW121935   1.495   3.170   1.018
 7012SOL    HW221936   1.551   3.022   1.058
 7013SOL     OW21937   2.361   0.934   6.627
 7013SOL    HW121938   2.344   1.019   6.676
 7013SOL    HW221939   2.298   0.864   6.661
 7014SOL     OW21940   5.982   3.833   0.864
 7014SOL    HW121941   5.928   3.838   0.780
 7014SOL    HW221942   5.999   3.737   0.888
 7015SOL     OW21943   6.034   4.349   2.508
 7015SOL    HW121944   6.045   4.257   2.470
 7015SOL    HW221945   6.113   4.405   2.482
 7016SOL     OW21946   3.276   4.935   1.221
 7016SOL    HW121947   3.338   5.006   1.187
 7016SOL    HW221948   3.204   4.919   1.154
 7017SOL     OW21949   3.795   4.840   3.445
 7017SOL    HW121950   3.721   4.871   3.506
 7017SOL    HW221951   3.866   4.796   3.499
 7018SOL     OW21952   4.976   3.120   4.482
 7018SOL    HW121953   4.952   3.110   4.386
 7018SOL    HW221954   4.951   3.211   4.514
 7019SOL     OW21955   4.848   5.214   2.144
 7019SOL    HW121956   4.940   5.177   2.156
 7019SOL    HW221957   4.823   5.267   2.225
 7020SOL     OW21958   0.667   3.190   6.544
 7020SOL    HW121959   0.664   3.091   6.548
 7020SOL    HW221960   0.649   3.220   6.451
 7021SOL     OW21961   0.740   2.748   5.046
 7021SOL    HW121962   0.797   2.755   5.128
 7021SOL    HW221963   0.709   2.654   5.036
 7022SOL     OW21964   4.085   0.390   0.226
 7022SOL    HW121965   4.055   0.298   0.202
 7022SOL    HW221966   4.019   0.431   0.289
 7023SOL     OW21967   0.566   1.721   2.075
 7023SOL    HW121968   0.554   1.679   1.985
 7023SOL    HW221969   0.504   1.678   2.141
 7024SOL     OW21970   3.737   2.956   4.073
 7024SOL    HW121971   3.696   2.931   4.161
 7024SOL    HW221972   3.836   2.949   4.080
 7025SOL     OW21973   3.204   0.194   6.890
 7025SOL    HW121974   3.278   0.246   6.848
 7025SOL    HW221975   3.209   0.204   6.989
 7026SOL     OW21976   3.482   1.531   1.214
 7026SOL    HW121977   3.566   1.584   1.227
 7026SOL    HW221978   3.403   1.586   1.240
 7027SOL     OW21979   2.451   5.803   3.084
 7027SOL    HW121980   2.461   5.885   3.028
 7027SOL    HW221981   2.354   5.783   3.097
 7028SOL     OW21982   2.745   0.595   3.770
 7028SOL    HW121983   2.760   0.678   3.717
 7028SOL    HW221984   2.832   0.562   3.806
 7029SOL     OW21985   3.236   3.496   5.815
 7029SOL    HW121986   3.245   3.513   5.717
 7029SOL    HW221987   3.326   3.494   5.858
 7030SOL     OW21988   0.574   1.637   4.680
 7030SOL    HW121989   0.590   1.728   4.717
 7030SOL    HW221990   0.568   1.571   4.755
 7031SOL     OW21991   4.454   6.026   0.607
 7031SOL    HW121992   4.488   6.099   0.666
 7031SOL    HW221993   4.403   5.960   0.662
 7032SOL     OW21994   3.954   0.304   4.032
 7032SOL    HW121995   4.029   0.256   4.078
 7032SOL    HW221996   3.922   0.248   3.955
 7033SOL     OW21997   1.198   2.539   4.915
 7033SOL    HW121998   1.218   2.550   4.818
 7033SOL    HW221999   1.180   2.442   4.935
 7034SOL     OW22000   6.499   2.469   3.412
 7034SOL    HW122001   6.423   2.490   3.350
 7034SOL    HW222002   6.544   2.386   3.381
 7035SOL     OW22003   1.729   0.155   1.851
 7035SOL    HW122004   1.692   0.244   1.879
 7035SOL    HW222005   1.817   0.168   1.806
 7036SOL     OW22006   0.476   1.133   2.260
 7036SOL    HW122007   0.402   1.165   2.319
 7036SOL    HW222008   0.558   1.115   2.315
 7037SOL     OW22009   0.142   0.179   5.411
 7037SOL    HW122010   0.207   0.104   5.414
 7037SOL    HW222011   0.138   0.223   5.501
 7038SOL     OW22012   2.406   4.467   5.929
 7038SOL    HW122013   2.322   4.423   5.962
 7038SOL    HW222014   2.429   4.430   5.839
 7039SOL     OW22015   0.676   5.399   3.241
 7039SOL    HW122016   0.613   5.470   3.209
 7039SOL    HW222017   0.627   5.312   3.247
 7040SOL     OW22018   4.353   2.003   5.014
 7040SOL    HW122019   4.361   2.084   4.957
 7040SOL    HW222020   4.303   2.025   5.098
 7041SOL     OW22021   1.121   1.460   3.418
 7041SOL    HW122022   1.025   1.471   3.393
 7041SOL    HW222023   1.147   1.364   3.412
 7042SOL     OW22024   4.429   6.078   4.955
 7042SOL    HW122025   4.347   6.135   4.943
 7042SOL    HW222026   4.431   6.007   4.884
 7043SOL     OW22027   2.471   4.467   3.637
 7043SOL    HW122028   2.430   4.387   3.592
 7043SOL    HW222029   2.433   4.550   3.598
 7044SOL     OW22030   4.958   6.407   4.465
 7044SOL    HW122031   4.897   6.447   4.534
 7044SOL    HW222032   5.038   6.367   4.510
 7045SOL     OW22033   5.968   5.274   2.281
 7045SOL    HW122034   5.916   5.344   2.234
 7045SOL    HW222035   5.957   5.283   2.380
 7046SOL     OW22036   3.106   2.078   4.278
 7046SOL    HW122037   3.081   1.993   4.231
 7046SOL    HW222038   3.074   2.074   4.373
 7047SOL     OW22039   0.458   0.631   1.757
 7047SOL    HW122040   0.521   0.575   1.703
 7047SOL    HW222041   0.398   0.682   1.695
 7048SOL     OW22042   6.761   6.369   5.233
 7048SOL    HW122043   6.702   6.403   5.160
 7048SOL    HW222044   6.850   6.345   5.194
 7049SOL     OW22045   3.964   1.504   1.968
 7049SOL    HW122046   4.002   1.593   1.995
 7049SOL    HW222047   3.864   1.511   1.963
 7050SOL     OW22048   3.626   4.875   0.856
 7050SOL    HW122049   3.547   4.935   0.871
 7050SOL    HW222050   3.602   4.804   0.790
 7051SOL     OW22051   0.295   0.073   2.073
 7051SOL    HW122052   0.255   0.164   2.080
 7051SOL    HW222053   0.389   0.075   2.107
 7052SOL     OW22054   5.518   6.795   3.065
 7052SOL    HW122055   5.612   6.789   3.032
 7052SOL    HW222056   5.493   6.891   3.078
 7053SOL     OW22057   1.345   3.173   4.061
 7053SOL    HW122058   1.260   3.226   4.056
 7053SOL    HW222059   1.369   3.158   4.157
 7054SOL     OW22060   6.965   0.174   1.188
 7054SOL    HW122061   6.986   0.267   1.218
 7054SOL    HW222062   0.007   0.110   1.229
 7055SOL     OW22063   1.625   0.408   6.613
 7055SOL    HW122064   1.620   0.321   6.563
 7055SOL    HW222065   1.578   0.400   6.700
 7056SOL     OW22066   6.223   5.848   1.052
 7056SOL    HW122067   6.249   5.944   1.040
 7056SOL    HW222068   6.275   5.809   1.128
 7057SOL     OW22069   3.164   4.872   4.711
 7057SOL    HW122070   3.105   4.947   4.683
 7057SOL    HW222071   3.115   4.812   4.774
 7058SOL     OW22072   5.187   2.071   6.722
 7058SOL    HW122073   5.217   2.155   6.677
 7058SOL    HW222074   5.240   1.994   6.686
 7059SOL     OW22075   1.962   1.676   4.742
 7059SOL    HW122076   2.036   1.610   4.725
 7059SOL    HW222077   1.987   1.765   4.705
 7060SOL     OW22078   3.193   6.846   2.650
 7060SOL    HW122079   3.138   6.930   2.654
 7060SOL    HW222080   3.272   6.861   2.591
 7061SOL     OW22081   1.544   2.033   2.463
 7061SOL    HW122082   1.619   2.081   2.418
 7061SOL    HW222083   1.488   1.987   2.395
 7062SOL     OW22084   4.754   1.667   3.990
 7062SOL    HW122085   4.813   1.596   3.952
 7062SOL    HW222086   4.665   1.628   4.013
 7063SOL     OW22087   0.737   6.587   2.513
 7063SOL    HW122088   0.669   6.609   2.583
 7063SOL    HW222089   0.691   6.572   2.425
 7064SOL     OW22090   4.960   1.624   5.591
 7064SOL    HW122091   5.058   1.603   5.595
 7064SOL    HW222092   4.914   1.584   5.670
 7065SOL     OW22093   3.659   4.585   5.332
 7065SOL    HW122094   3.622   4.560   5.421
 7065SOL    HW222095   3.699   4.505   5.288
 7066SOL     OW22096   4.665   0.241   6.968
 7066SOL    HW122097   4.654   0.172   6.896
 7066SOL    HW222098   4.640   0.331   6.932
 7067SOL     OW22099   1.908   3.425   6.860
 7067SOL    HW122100   1.918   3.479   6.943
 7067SOL    HW222101   1.849   3.347   6.878
 7068SOL     OW22102   5.737   4.244   4.226
 7068SOL    HW122103   5.677   4.201   4.158
 7068SOL    HW222104   5.783   4.323   4.185
 7069SOL     OW22105   6.166   1.126   5.553
 7069SOL    HW122106   6.122   1.052   5.501
 7069SOL    HW222107   6.104   1.157   5.625
 7070SOL     OW22108   6.997   6.503   4.957
 7070SOL    HW122109   6.988   6.436   5.031
 7070SOL    HW222110   7.023   6.591   4.996
 7071SOL     OW22111   5.062   6.503   6.594
 7071SOL    HW122112   5.149   6.505   6.544
 7071SOL    HW222113   4.991   6.547   6.539
 7072SOL     OW22114   0.672   4.370   6.633
 7072SOL    HW122115   0.636   4.317   6.710
 7072SOL    HW222116   0.633   4.463   6.635
 7073SOL     OW22117   4.261   0.383   3.440
 7073SOL    HW122118   4.268   0.378   3.340
 7073SOL    HW222119   4.329   0.446   3.476
 7074SOL     OW22120   6.588   3.200   3.429
 7074SOL    HW122121   6.588   3.149   3.344
 7074SOL    HW222122   6.522   3.275   3.424
 7075SOL     OW22123   3.325   4.839   5.185
 7075SOL    HW122124   3.265   4.764   5.215
 7075SOL    HW222125   3.420   4.816   5.208
 7076SOL     OW22126   5.944   3.279   1.831
 7076SOL    HW122127   5.972   3.374   1.841
 7076SOL    HW222128   5.846   3.271   1.850
 7077SOL     OW22129   2.438   5.122   2.275
 7077SOL    HW122130   2.375   5.064   2.328
 7077SOL    HW222131   2.468   5.198   2.332
 7078SOL     OW22132   5.545   6.952   0.558
 7078SOL    HW122133   5.460   6.926   0.606
 7078SOL    HW222134   5.538   6.925   0.462
 7079SOL     OW22135   0.968   7.010   3.695
 7079SOL    HW122136   0.934   6.949   3.622
 7079SOL    HW222137   1.047   0.037   3.662
 7080SOL     OW22138   4.084   1.869   4.904
 7080SOL    HW122139   4.059   1.774   4.885
 7080SOL    HW222140   4.183   1.879   4.895
 7081SOL     OW22141   1.436   0.990   0.085
 7081SOL    HW122142   1.396   1.045   0.158
 7081SOL    HW222143   1.484   1.050   0.021
 7082SOL     OW22144   6.802   3.628   2.044
 7082SOL    HW122145   6.748   3.544   2.039
 7082SOL    HW222146   6.754   3.701   1.996
 7083SOL     OW22147   6.719   2.504   2.546
 7083SOL    HW122148   6.668   2.419   2.564
 7083SOL    HW222149   6.654   2.578   2.528
 7084SOL     OW22150   0.702   5.592   6.878
 7084SOL    HW122151   0.640   5.670   6.866
 7084SOL    HW222152   0.701   5.536   6.796
 7085SOL     OW22153   0.192   2.512   2.508
 7085SOL    HW122154   0.252   2.592   2.514
 7085SOL    HW222155   0.109   2.529   2.562
 7086SOL     OW22156   6.541   0.704   6.578
 7086SOL    HW122157   6.523   0.622   6.524
 7086SOL    HW222158   6.638   0.725   6.576
 7087SOL     OW22159   5.372   3.163   2.639
 7087SOL    HW122160   5.333   3.170   2.731
 7087SOL    HW222161   5.457   3.110   2.643
 7088SOL     OW22162   5.849   1.499   5.095
 7088SOL    HW122163   5.777   1.568   5.105
 7088SOL    HW222164   5.925   1.520   5.157
 7089SOL     OW22165   4.363   5.472   2.446
 7089SOL    HW122166   4.289   5.503   2.387
 7089SOL    HW222167   4.451   5.492   2.403
 7090SOL     OW22168   3.673   1.466   0.809
 7090SOL    HW122169   3.580   1.493   0.836
 7090SOL    HW222170   3.721   1.429   0.888
 7091SOL     OW22171   0.776   0.057   0.181
 7091SOL    HW122172   0.815   6.990   0.164
 7091SOL    HW222173   0.772   0.073   0.280
 7092SOL     OW22174   4.300   2.302   6.630
 7092SOL    HW122175   4.268   2.310   6.725
 7092SOL    HW222176   4.258   2.222   6.587
 7093SOL     OW22177   3.260   3.720   0.691
 7093SOL    HW122178   3.318   3.801   0.705
 7093SOL    HW222179   3.207   3.702   0.774
 7094SOL     OW22180   2.163   6.889   5.511
 7094SOL    HW122181   2.129   6.806   5.555
 7094SOL    HW222182   2.103   6.914   5.436
 7095SOL     OW22183   3.076   4.896   5.527
 7095SOL    HW122184   3.053   4.980   5.576
 7095SOL    HW222185   3.006   4.827   5.545
 7096SOL     OW22186   6.664   0.576   1.147
 7096SOL    HW122187   6.759   0.545   1.149
 7096SOL    HW222188   6.662   0.675   1.162
 7097SOL     OW22189   5.710   0.021   1.786
 7097SOL    HW122190   5.785   0.048   1.726
 7097SOL    HW222191   5.731   6.958   1.830
 7098SOL     OW22192   1.553   6.951   4.126
 7098SOL    HW122193   1.609   6.887   4.073
 7098SOL    HW222194   1.609   6.993   4.197
 7099SOL     OW22195   3.385   2.088   4.280
 7099SOL    HW122196   3.417   2.036   4.359
 7099SOL    HW222197   3.296   2.127   4.300
 7100SOL     OW22198   0.722   3.243   0.707
 7100SOL    HW122199   0.780   3.180   0.758
 7100SOL    HW222200   0.754   3.336   0.721
 7101SOL     OW22201   1.899   6.631   5.314
 7101SOL    HW122202   1.908   6.548   5.259
 7101SOL    HW222203   1.950   6.620   5.400
 7102SOL     OW22204   4.788   1.165   0.450
 7102SOL    HW122205   4.872   1.145   0.501
 7102SOL    HW222206   4.708   1.146   0.508
 7103SOL     OW22207   5.368   5.117   2.446
 7103SOL    HW122208   5.419   5.031   2.453
 7103SOL    HW222209   5.273   5.101   2.473
 7104SOL     OW22210   5.555   3.118   2.973
 7104SOL    HW122211   5.499   3.169   3.038
 7104SOL    HW222212   5.528   3.022   2.974
 7105SOL     OW22213   3.432   4.176   4.088
 7105SOL    HW122214   3.345   4.128   4.090
 7105SOL    HW222215   3.416   4.274   4.081
 7106SOL     OW22216   3.688   2.948   1.546
 7106SOL    HW122217   3.605   2.931   1.493
 7106SOL    HW222218   3.725   3.037   1.521
 7107SOL     OW22219   4.352   6.965   7.018
 7107SOL    HW122220   4.266   6.966   0.044
 7107SOL    HW222221   4.356   6.885   6.958
 7108SOL     OW22222   2.919   6.139   2.799
 7108SOL    HW122223   2.918   6.042   2.821
 7108SOL    HW222224   2.835   6.182   2.831
 7109SOL     OW22225   1.548   0.341   6.248
 7109SOL    HW122226   1.610   0.401   6.198
 7109SOL    HW222227   1.599   0.293   6.319
 7110SOL     OW22228   3.083   6.462   4.660
 7110SOL    HW122229   3.121   6.495   4.747
 7110SOL    HW222230   3.139   6.387   4.625
 7111SOL     OW22231   1.409   0.803   4.053
 7111SOL    HW122232   1.483   0.747   4.088
 7111SOL    HW222233   1.434   0.900   4.060
 7112SOL     OW22234   2.109   4.454   4.418
 7112SOL    HW122235   2.132   4.514   4.495
 7112SOL    HW222236   2.193   4.427   4.371
 7113SOL     OW22237   2.873   4.835   5.194
 7113SOL    HW122238   2.837   4.752   5.150
 7113SOL    HW222239   2.971   4.823   5.212
 7114SOL     OW22240   4.813   5.306   1.217
 7114SOL    HW122241   4.845   5.347   1.303
 7114SOL    HW222242   4.835   5.208   1.218
 7115SOL     OW22243   6.167   4.464   6.914
 7115SOL    HW122244   6.073   4.496   6.900
 7115SOL    HW222245   6.223   4.491   6.836
 7116SOL     OW22246   6.637   3.513   4.102
 7116SOL    HW122247   6.558   3.573   4.117
 7116SOL    HW222248   6.649   3.453   4.180
 7117SOL     OW22249   6.014   0.159   3.333
 7117SOL    HW122250   6.044   0.069   3.367
 7117SOL    HW222251   6.022   0.161   3.234
 7118SOL     OW22252   4.005   4.349   5.294
 7118SOL    HW122253   3.989   4.427   5.355
 7118SOL    HW222254   4.086   4.367   5.238
 7119SOL     OW22255   5.072   0.253   4.944
 7119SOL    HW122256   4.973   0.240   4.945
 7119SOL    HW222257   5.116   0.167   4.918
 7120SOL     OW22258   5.023   1.466   1.131
 7120SOL    HW122259   5.056   1.373   1.115
 7120SOL    HW222260   5.085   1.514   1.194
 7121SOL     OW22261   0.997   6.450   3.544
 7121SOL    HW122262   1.072   6.386   3.560
 7121SOL    HW222263   0.911   6.400   3.540
 7122SOL     OW22264   2.821   7.016   5.917
 7122SOL    HW122265   2.871   6.930   5.899
 7122SOL    HW222266   2.761   0.012   5.840
 7123SOL     OW22267   6.011   4.754   4.847
 7123SOL    HW122268   6.075   4.780   4.919
 7123SOL    HW222269   5.952   4.680   4.880
 7124SOL     OW22270   0.697   2.704   1.736
 7124SOL    HW122271   0.726   2.621   1.689
 7124SOL    HW222272   0.674   2.683   1.831
 7125SOL     OW22273   1.016   0.171   1.525
 7125SOL    HW122274   1.039   0.155   1.621
 7125SOL    HW222275   1.087   0.224   1.481
 7126SOL     OW22276   4.234   6.156   1.678
 7126SOL    HW122277   4.172   6.108   1.740
 7126SOL    HW222278   4.318   6.102   1.666
 7127SOL     OW22279   3.126   5.990   5.256
 7127SOL    HW122280   3.126   6.006   5.355
 7127SOL    HW222281   3.039   6.020   5.217
 7128SOL     OW22282   3.326   4.500   6.544
 7128SOL    HW122283   3.322   4.539   6.452
 7128SOL    HW222284   3.298   4.569   6.610
 7129SOL     OW22285   0.295   1.303   1.536
 7129SOL    HW122286   0.376   1.359   1.524
 7129SOL    HW222287   0.306   1.245   1.617
 7130SOL     OW22288   2.772   6.754   4.417
 7130SOL    HW122289   2.778   6.794   4.325
 7130SOL    HW222290   2.832   6.675   4.423
 7131SOL     OW22291   3.896   0.681   2.796
 7131SOL    HW122292   3.815   0.643   2.752
 7131SOL    HW222293   3.902   0.779   2.777
 7132SOL     OW22294   5.288   3.657   6.595
 7132SOL    HW122295   5.339   3.649   6.509
 7132SOL    HW222296   5.254   3.751   6.604
 7133SOL     OW22297   3.384   5.984   3.409
 7133SOL    HW122298   3.480   6.005   3.426
 7133SOL    HW222299   3.355   5.911   3.471
 7134SOL     OW22300   6.202   5.559   1.548
 7134SOL    HW122301   6.165   5.651   1.539
 7134SOL    HW222302   6.220   5.521   1.458
 7135SOL     OW22303   2.082   3.205   2.002
 7135SOL    HW122304   2.058   3.176   1.909
 7135SOL    HW222305   2.128   3.294   1.998
 7136SOL     OW22306   3.122   1.831   1.836
 7136SOL    HW122307   3.185   1.881   1.777
 7136SOL    HW222308   3.031   1.872   1.830
 7137SOL     OW22309   2.907   2.003   1.703
 7137SOL    HW122310   2.880   2.055   1.622
 7137SOL    HW222311   2.950   2.065   1.769
 7138SOL     OW22312   1.942   1.814   0.628
 7138SOL    HW122313   1.895   1.783   0.711
 7138SOL    HW222314   1.962   1.735   0.570
 7139SOL     OW22315   5.650   5.638   2.008
 7139SOL    HW122316   5.637   5.589   1.922
 7139SOL    HW222317   5.682   5.731   1.990
 7140SOL     OW22318   6.646   3.729   0.430
 7140SOL    HW122319   6.578   3.787   0.475
 7140SOL    HW222320   6.722   3.786   0.397
 7141SOL     OW22321   4.223   6.717   0.973
 7141SOL    HW122322   4.158   6.680   1.039
 7141SOL    HW222323   4.187   6.801   0.933
 7142SOL     OW22324   3.242   0.661   4.480
 7142SOL    HW122325   3.226   0.572   4.521
 7142SOL    HW222326   3.304   0.651   4.402
 7143SOL     OW22327   2.646   4.846   6.592
 7143SOL    HW122328   2.679   4.871   6.501
 7143SOL    HW222329   2.687   4.759   6.620
 7144SOL     OW22330   6.716   1.266   4.173
 7144SOL    HW122331   6.660   1.348   4.179
 7144SOL    HW222332   6.741   1.236   4.265
 7145SOL     OW22333   4.932   2.053   0.288
 7145SOL    HW122334   4.910   2.047   0.385
 7145SOL    HW222335   4.848   2.057   0.234
 7146SOL     OW22336   2.361   0.823   5.410
 7146SOL    HW122337   2.270   0.851   5.381
 7146SOL    HW222338   2.395   0.884   5.482
 7147SOL     OW22339   5.774   4.331   2.472
 7147SOL    HW122340   5.732   4.419   2.495
 7147SOL    HW222341   5.873   4.342   2.465
 7148SOL     OW22342   6.778   6.063   1.062
 7148SOL    HW122343   6.768   5.966   1.040
 7148SOL    HW222344   6.873   6.082   1.087
 7149SOL     OW22345   6.823   5.388   4.485
 7149SOL    HW122346   6.745   5.441   4.518
 7149SOL    HW222347   6.814   5.293   4.516
 7150SOL     OW22348   4.091   3.653   0.080
 7150SOL    HW122349   4.144   3.579   0.121
 7150SOL    HW222350   4.071   3.722   0.149
 7151SOL     OW22351   3.986   0.150   0.889
 7151SOL    HW122352   3.986   0.214   0.813
 7151SOL    HW222353   4.079   0.137   0.922
 7152SOL     OW22354   0.331   1.266   6.895
 7152SOL    HW122355   0.275   1.277   6.977
 7152SOL    HW222356   0.336   1.169   6.872
 7153SOL     OW22357   4.491   6.357   0.985
 7153SOL    HW122358   4.458   6.331   1.076
 7153SOL    HW222359   4.498   6.457   0.980
 7154SOL     OW22360   4.401   1.223   2.373
 7154SOL    HW122361   4.377   1.194   2.465
 7154SOL    HW222362   4.355   1.165   2.306
 7155SOL     OW22363   3.561   1.791   2.390
 7155SOL    HW122364   3.633   1.784   2.321
 7155SOL    HW222365   3.472   1.798   2.344
 7156SOL     OW22366   6.142   3.904   0.244
 7156SOL    HW122367   6.192   3.990   0.235
 7156SOL    HW222368   6.205   3.832   0.273
 7157SOL     OW22369   6.144   4.295   6.279
 7157SOL    HW122370   6.165   4.283   6.182
 7157SOL    HW222371   6.201   4.233   6.333
 7158SOL     OW22372   4.868   6.948   3.991
 7158SOL    HW122373   4.832   6.856   4.002
 7158SOL    HW222374   4.905   6.959   3.899
 7159SOL     OW22375   0.288   5.678   3.839
 7159SOL    HW122376   0.339   5.759   3.870
 7159SOL    HW222377   0.337   5.595   3.866
 7160SOL     OW22378   5.259   0.110   3.077
 7160SOL    HW122379   5.347   0.082   3.040
 7160SOL    HW222380   5.219   0.034   3.129
 7161SOL     OW22381   3.806   3.251   3.502
 7161SOL    HW122382   3.855   3.338   3.514
 7161SOL    HW222383   3.709   3.264   3.524
 7162SOL     OW22384   0.304   5.320   2.330
 7162SOL    HW122385   0.275   5.278   2.416
 7162SOL    HW222386   0.399   5.350   2.338
 7163SOL     OW22387   1.237   1.682   2.114
 7163SOL    HW122388   1.253   1.590   2.078
 7163SOL    HW222389   1.281   1.750   2.056
 7164SOL     OW22390   1.682   1.192   5.912
 7164SOL    HW122391   1.686   1.276   5.859
 7164SOL    HW222392   1.705   1.211   6.008
 7165SOL     OW22393   6.054   0.314   0.009
 7165SOL    HW122394   6.079   0.222   0.038
 7165SOL    HW222395   5.964   0.337   0.045
 7166SOL     OW22396   5.349   6.789   6.213
 7166SOL    HW122397   5.411   6.761   6.140
 7166SOL    HW222398   5.284   6.857   6.177
 7167SOL     OW22399   5.735   2.006   4.966
 7167SOL    HW122400   5.791   2.029   5.046
 7167SOL    HW222401   5.650   2.059   4.969
 7168SOL     OW22402   2.619   1.031   1.955
 7168SOL    HW122403   2.619   0.934   1.981
 7168SOL    HW222404   2.612   1.039   1.856
 7169SOL     OW22405   2.014   4.112   5.522
 7169SOL    HW122406   1.953   4.084   5.596
 7169SOL    HW222407   2.105   4.132   5.560
 7170SOL     OW22408   4.275   0.968   1.620
 7170SOL    HW122409   4.176   0.954   1.610
 7170SOL    HW222410   4.291   1.041   1.686
 7171SOL     OW22411   5.749   5.175   0.544
 7171SOL    HW122412   5.679   5.108   0.570
 7171SOL    HW222413   5.719   5.266   0.571
 7172SOL     OW22414   1.857   1.412   4.293
 7172SOL    HW122415   1.769   1.406   4.340
 7172SOL    HW222416   1.888   1.321   4.267
 7173SOL     OW22417   5.374   5.734   6.814
 7173SOL    HW122418   5.292   5.688   6.780
 7173SOL    HW222419   5.364   5.833   6.805
 7174SOL     OW22420   6.099   4.564   1.152
 7174SOL    HW122421   6.130   4.507   1.227
 7174SOL    HW222422   6.169   4.631   1.129
 7175SOL     OW22423   5.878   3.599   5.094
 7175SOL    HW122424   5.859   3.653   5.012
 7175SOL    HW222425   5.814   3.625   5.166
 7176SOL     OW22426   6.941   1.452   4.303
 7176SOL    HW122427   7.022   1.409   4.343
 7176SOL    HW222428   6.859   1.408   4.339
 7177SOL     OW22429   1.965   5.104   4.976
 7177SOL    HW122430   2.048   5.157   4.993
 7177SOL    HW222431   1.901   5.116   5.051
 7178SOL     OW22432   0.536   0.759   5.366
 7178SOL    HW122433   0.516   0.822   5.291
 7178SOL    HW222434   0.549   0.810   5.450
 7179SOL     OW22435   3.100   5.807   7.011
 7179SOL    HW122436   3.140   5.860   0.063
 7179SOL    HW222437   3.171   5.750   6.969
 7180SOL     OW22438   1.266   5.008   1.614
 7180SOL    HW122439   1.314   4.964   1.689
 7180SOL    HW222440   1.249   4.942   1.542
 7181SOL     OW22441   2.186   1.764   6.023
 7181SOL    HW122442   2.176   1.758   5.924
 7181SOL    HW222443   2.127   1.837   6.058
 7182SOL     OW22444   0.639   3.371   4.032
 7182SOL    HW122445   0.728   3.398   3.995
 7182SOL    HW222446   0.597   3.450   4.077
 7183SOL     OW22447   1.362   6.412   1.577
 7183SOL    HW122448   1.435   6.343   1.580
 7183SOL    HW222449   1.400   6.500   1.550
 7184SOL     OW22450   6.871   0.282   3.992
 7184SOL    HW122451   6.946   0.275   4.057
 7184SOL    HW222452   6.809   0.204   4.003
 7185SOL     OW22453   4.746   0.523   4.890
 7185SOL    HW122454   4.677   0.519   4.818
 7185SOL    HW222455   4.787   0.433   4.903
 7186SOL     OW22456   0.422   0.172   0.004
 7186SOL    HW122457   0.362   0.118   0.064
 7186SOL    HW222458   0.446   0.118   6.947
 7187SOL     OW22459   3.235   2.962   4.895
 7187SOL    HW122460   3.147   2.926   4.866
 7187SOL    HW222461   3.255   3.046   4.845
 7188SOL     OW22462   3.926   5.145   6.978
 7188SOL    HW122463   3.859   5.090   0.005
 7188SOL    HW222464   3.879   5.206   6.915
 7189SOL     OW22465   6.192   2.173   5.291
 7189SOL    HW122466   6.102   2.195   5.252
 7189SOL    HW222467   6.179   2.119   5.374
 7190SOL     OW22468   5.731   5.669   1.447
 7190SOL    HW122469   5.691   5.580   1.468
 7190SOL    HW222470   5.726   5.728   1.527
 7191SOL     OW22471   0.507   3.893   3.049
 7191SOL    HW122472   0.488   3.918   3.144
 7191SOL    HW222473   0.589   3.940   3.017
 7192SOL     OW22474   1.890   4.967   6.677
 7192SOL    HW122475   1.965   4.920   6.725
 7192SOL    HW222476   1.850   4.905   6.609
 7193SOL     OW22477   2.434   2.333   2.673
 7193SOL    HW122478   2.335   2.336   2.656
 7193SOL    HW222479   2.451   2.284   2.759
 7194SOL     OW22480   2.692   2.835   6.393
 7194SOL    HW122481   2.671   2.755   6.448
 7194SOL    HW222482   2.660   2.820   6.299
 7195SOL     OW22483   0.287   3.081   6.502
 7195SOL    HW122484   0.341   3.033   6.571
 7195SOL    HW222485   0.200   3.110   6.542
 7196SOL     OW22486   3.409   4.154   2.255
 7196SOL    HW122487   3.489   4.145   2.196
 7196SOL    HW222488   3.416   4.237   2.310
 7197SOL     OW22489   1.697   3.827   5.161
 7197SOL    HW122490   1.785   3.787   5.137
 7197SOL    HW222491   1.651   3.770   5.229
 7198SOL     OW22492   6.626   1.350   0.428
 7198SOL    HW122493   6.638   1.259   0.467
 7198SOL    HW222494   6.702   1.371   0.367
 7199SOL     OW22495   0.995   0.860   2.396
 7199SOL    HW122496   0.905   0.816   2.403
 7199SOL    HW222497   1.043   0.852   2.483
 7200SOL     OW22498   2.426   2.420   0.629
 7200SOL    HW122499   2.347   2.359   0.638
 7200SOL    HW222500   2.464   2.413   0.537
 7201SOL     OW22501   5.511   5.498   4.293
 7201SOL    HW122502   5.496   5.537   4.202
 7201SOL    HW222503   5.544   5.404   4.283
 7202SOL     OW22504   5.109   6.977   5.883
 7202SOL    HW122505   5.144   0.023   5.819
 7202SOL    HW222506   5.018   6.948   5.854
 7203SOL     OW22507   6.832   1.752   2.198
 7203SOL    HW122508   6.837   1.847   2.226
 7203SOL    HW222509   6.905   1.733   2.131
 7204SOL     OW22510   0.293   1.562   1.243
 7204SOL    HW122511   0.292   1.632   1.314
 7204SOL    HW222512   0.204   1.515   1.241
 7205SOL     OW22513   2.206   2.359   5.267
 7205SOL    HW122514   2.118   2.380   5.225
 7205SOL    HW222515   2.197   2.362   5.367
 7206SOL     OW22516   1.848   2.102   1.260
 7206SOL    HW122517   1.882   2.187   1.299
 7206SOL    HW222518   1.923   2.051   1.218
 7207SOL     OW22519   1.843   2.111   3.926
 7207SOL    HW122520   1.912   2.072   3.866
 7207SOL    HW222521   1.764   2.140   3.871
 7208SOL     OW22522   3.668   0.897   4.508
 7208SOL    HW122523   3.617   0.868   4.427
 7208SOL    HW222524   3.686   0.817   4.566
 7209SOL     OW22525   2.379   2.514   2.260
 7209SOL    HW122526   2.354   2.566   2.341
 7209SOL    HW222527   2.463   2.462   2.278
 7210SOL     OW22528   2.765   1.531   3.115
 7210SOL    HW122529   2.810   1.445   3.092
 7210SOL    HW222530   2.824   1.608   3.090
 7211SOL     OW22531   3.312   5.718   5.340
 7211SOL    HW122532   3.404   5.745   5.369
 7211SOL    HW222533   3.258   5.800   5.320
 7212SOL     OW22534   6.149   5.133   5.873
 7212SOL    HW122535   6.104   5.202   5.928
 7212SOL    HW222536   6.085   5.058   5.855
 7213SOL     OW22537   3.532   0.954   0.570
 7213SOL    HW122538   3.535   0.954   0.470
 7213SOL    HW222539   3.437   0.960   0.601
 7214SOL     OW22540   0.670   0.937   6.314
 7214SOL    HW122541   0.731   0.873   6.360
 7214SOL    HW222542   0.609   0.887   6.252
 7215SOL     OW22543   0.209   2.762   3.218
 7215SOL    HW122544   0.177   2.816   3.295
 7215SOL    HW222545   0.218   2.820   3.138
 7216SOL     OW22546   3.099   6.374   3.127
 7216SOL    HW122547   3.122   6.471   3.140
 7216SOL    HW222548   3.131   6.321   3.206
 7217SOL     OW22549   1.356   4.325   3.862
 7217SOL    HW122550   1.352   4.392   3.788
 7217SOL    HW222551   1.290   4.253   3.845
 7218SOL     OW22552   6.779   3.450   4.707
 7218SOL    HW122553   6.824   3.539   4.708
 7218SOL    HW222554   6.848   3.378   4.714
 7219SOL     OW22555   3.242   6.582   1.594
 7219SOL    HW122556   3.143   6.576   1.584
 7219SOL    HW222557   3.283   6.609   1.507
 7220SOL     OW22558   6.752   4.364   4.452
 7220SOL    HW122559   6.776   4.461   4.450
 7220SOL    HW222560   6.669   4.351   4.507
 7221SOL     OW22561   3.559   5.972   4.854
 7221SOL    HW122562   3.507   5.967   4.940
 7221SOL    HW222563   3.625   6.047   4.859
 7222SOL     OW22564   6.448   6.348   3.327
 7222SOL    HW122565   6.362   6.349   3.277
 7222SOL    HW222566   6.466   6.256   3.362
 7223SOL     OW22567   2.031   1.894   1.052
 7223SOL    HW122568   2.103   1.963   1.059
 7223SOL    HW222569   2.062   1.810   1.094
 7224SOL     OW22570   4.567   2.042   3.683
 7224SOL    HW122571   4.498   2.089   3.739
 7224SOL    HW222572   4.643   2.013   3.742
 7225SOL     OW22573   1.676   6.938   0.640
 7225SOL    HW122574   1.692   6.847   0.680
 7225SOL    HW222575   1.648   6.927   0.545
 7226SOL     OW22576   5.836   1.279   0.298
 7226SOL    HW122577   5.887   1.248   0.378
 7226SOL    HW222578   5.759   1.217   0.282
 7227SOL     OW22579   2.589   0.891   2.239
 7227SOL    HW122580   2.512   0.857   2.292
 7227SOL    HW222581   2.618   0.820   2.174
 7228SOL     OW22582   0.567   1.901   2.472
 7228SOL    HW122583   0.500   1.951   2.527
 7228SOL    HW222584   0.629   1.966   2.427
 7229SOL     OW22585   6.794   0.363   4.543
 7229SOL    HW122586   6.829   0.338   4.634
 7229SOL    HW222587   6.695   0.349   4.541
 7230SOL     OW22588   2.631   5.039   3.852
 7230SOL    HW122589   2.536   5.069   3.846
 7230SOL    HW222590   2.634   4.945   3.885
 7231SOL     OW22591   4.161   1.457   6.640
 7231SOL    HW122592   4.138   1.507   6.557
 7231SOL    HW222593   4.137   1.360   6.628
 7232SOL     OW22594   5.366   0.128   2.371
 7232SOL    HW122595   5.349   0.207   2.430
 7232SOL    HW222596   5.322   0.142   2.283
 7233SOL     OW22597   5.848   1.724   5.799
 7233SOL    HW122598   5.946   1.738   5.814
 7233SOL    HW222599   5.805   1.700   5.886
 7234SOL     OW22600   4.871   3.706   3.251
 7234SOL    HW122601   4.820   3.625   3.281
 7234SOL    HW222602   4.847   3.783   3.309
 7235SOL     OW22603   6.735   5.778   1.610
 7235SOL    HW122604   6.642   5.810   1.591
 7235SOL    HW222605   6.770   5.729   1.530
 7236SOL     OW22606   1.895   2.789   3.013
 7236SOL    HW122607   1.822   2.757   2.952
 7236SOL    HW222608   1.971   2.724   3.012
 7237SOL     OW22609   5.189   0.443   6.804
 7237SOL    HW122610   5.145   0.357   6.777
 7237SOL    HW222611   5.287   0.437   6.786
 7238SOL     OW22612   4.692   2.651   6.972
 7238SOL    HW122613   4.617   2.587   6.987
 7238SOL    HW222614   4.689   2.723   0.018
 7239SOL     OW22615   0.584   3.659   2.232
 7239SOL    HW122616   0.638   3.741   2.250
 7239SOL    HW222617   0.609   3.587   2.297
 7240SOL     OW22618   6.784   1.679   5.830
 7240SOL    HW122619   6.731   1.618   5.889
 7240SOL    HW222620   6.758   1.664   5.735
 7241SOL     OW22621   2.256   0.776   0.861
 7241SOL    HW122622   2.277   0.684   0.896
 7241SOL    HW222623   2.333   0.809   0.807
 7242SOL     OW22624   0.267   5.799   4.620
 7242SOL    HW122625   0.345   5.751   4.582
 7242SOL    HW222626   0.278   5.897   4.608
 7243SOL     OW22627   6.875   4.014   5.881
 7243SOL    HW122628   6.783   3.977   5.867
 7243SOL    HW222629   6.913   4.040   5.793
 7244SOL     OW22630   0.340   6.699   0.294
 7244SOL    HW122631   0.334   6.775   0.229
 7244SOL    HW222632   0.251   6.652   0.299
 7245SOL     OW22633   1.818   2.550   0.005
 7245SOL    HW122634   1.840   2.584   6.938
 7245SOL    HW222635   1.770   2.463   7.021
 7246SOL     OW22636   3.051   0.664   4.910
 7246SOL    HW122637   2.973   0.602   4.909
 7246SOL    HW222638   3.064   0.704   4.819
 7247SOL     OW22639   3.008   2.457   5.589
 7247SOL    HW122640   3.100   2.493   5.604
 7247SOL    HW222641   2.982   2.470   5.493
 7248SOL     OW22642   3.261   0.375   3.990
 7248SOL    HW122643   3.165   0.397   3.972
 7248SOL    HW222644   3.269   0.327   4.077
 7249SOL     OW22645   4.282   4.614   2.183
 7249SOL    HW122646   4.260   4.517   2.193
 7249SOL    HW222647   4.361   4.624   2.122
 7250SOL     OW22648   5.472   4.724   5.838
 7250SOL    HW122649   5.471   4.823   5.851
 7250SOL    HW222650   5.562   4.696   5.805
 7251SOL     OW22651   0.863   6.535   5.798
 7251SOL    HW122652   0.931   6.590   5.749
 7251SOL    HW222653   0.834   6.584   5.881
 7252SOL     OW22654   3.287   3.996   2.044
 7252SOL    HW122655   3.205   4.044   2.012
 7252SOL    HW222656   3.327   4.046   2.121
 7253SOL     OW22657   1.393   6.466   6.094
 7253SOL    HW122658   1.391   6.488   5.996
 7253SOL    HW222659   1.488   6.457   6.124
 7254SOL     OW22660   5.709   4.388   3.705
 7254SOL    HW122661   5.633   4.451   3.716
 7254SOL    HW222662   5.677   4.306   3.657
 7255SOL     OW22663   5.252   3.273   6.603
 7255SOL    HW122664   5.341   3.298   6.566
 7255SOL    HW222665   5.191   3.353   6.599
 7256SOL     OW22666   3.564   6.800   5.305
 7256SOL    HW122667   3.571   6.888   5.259
 7256SOL    HW222668   3.467   6.778   5.320
 7257SOL     OW22669   0.193   1.704   4.767
 7257SOL    HW122670   0.219   1.752   4.684
 7257SOL    HW222671   0.106   1.740   4.801
 7258SOL     OW22672   5.578   2.755   1.648
 7258SOL    HW122673   5.493   2.734   1.599
 7258SOL    HW222674   5.620   2.670   1.679
 7259SOL     OW22675   1.432   3.618   3.371
 7259SOL    HW122676   1.489   3.579   3.298
 7259SOL    HW222677   1.350   3.658   3.331
 7260SOL     OW22678   5.511   2.604   1.079
 7260SOL    HW122679   5.419   2.578   1.053
 7260SOL    HW222680   5.508   2.660   1.162
 7261SOL     OW22681   0.521   3.702   0.773
 7261SOL    HW122682   0.584   3.716   0.696
 7261SOL    HW222683   0.573   3.671   0.853
 7262SOL     OW22684   5.441   1.624   5.808
 7262SOL    HW122685   5.488   1.552   5.858
 7262SOL    HW222686   5.434   1.706   5.865
 7263SOL     OW22687   0.603   6.873   0.459
 7263SOL    HW122688   0.659   6.831   0.388
 7263SOL    HW222689   0.541   6.804   0.497
 7264SOL     OW22690   5.897   1.064   0.922
 7264SOL    HW122691   5.935   1.008   0.848
 7264SOL    HW222692   5.942   1.040   1.008
 7265SOL     OW22693   5.230   5.488   4.321
 7265SOL    HW122694   5.324   5.495   4.288
 7265SOL    HW222695   5.218   5.402   4.371
 7266SOL     OW22696   0.034   0.591   3.736
 7266SOL    HW122697   0.098   0.535   3.789
 7266SOL    HW222698   7.006   0.649   3.798
 7267SOL     OW22699   6.325   6.443   5.001
 7267SOL    HW122700   6.313   6.526   5.054
 7267SOL    HW222701   6.323   6.465   4.903
 7268SOL     OW22702   6.566   5.515   4.553
 7268SOL    HW122703   6.606   5.603   4.579
 7268SOL    HW222704   6.552   5.512   4.454
 7269SOL     OW22705   1.802   6.020   5.946
 7269SOL    HW122706   1.877   6.026   5.880
 7269SOL    HW222707   1.837   5.985   6.033
 7270SOL     OW22708   0.073   2.002   4.196
 7270SOL    HW122709   0.124   1.935   4.142
 7270SOL    HW222710   0.023   2.062   4.134
 7271SOL     OW22711   1.471   5.037   4.073
 7271SOL    HW122712   1.377   5.067   4.093
 7271SOL    HW222713   1.501   4.972   4.143
 7272SOL     OW22714   6.613   6.394   1.875
 7272SOL    HW122715   6.631   6.296   1.882
 7272SOL    HW222716   6.690   6.445   1.913
 7273SOL     OW22717   5.067   3.245   6.137
 7273SOL    HW122718   5.145   3.250   6.199
 7273SOL    HW222719   5.096   3.272   6.045
 7274SOL     OW22720   0.238   4.594   6.673
 7274SOL    HW122721   0.269   4.583   6.579
 7274SOL    HW222722   0.284   4.674   6.713
 7275SOL     OW22723   0.147   6.645   2.662
 7275SOL    HW122724   0.109   6.671   2.750
 7275SOL    HW222725   0.197   6.559   2.671
 7276SOL     OW22726   5.594   0.135   3.815
 7276SOL    HW122727   5.537   0.065   3.856
 7276SOL    HW222728   5.674   0.092   3.773
 7277SOL     OW22729   4.900   0.555   5.863
 7277SOL    HW122730   4.972   0.547   5.794
 7277SOL    HW222731   4.910   0.482   5.930
 7278SOL     OW22732   3.050   4.074   1.953
 7278SOL    HW122733   3.051   4.126   1.867
 7278SOL    HW222734   2.964   4.090   2.001
 7279SOL     OW22735   4.051   6.447   0.171
 7279SOL    HW122736   4.114   6.476   0.244
 7279SOL    HW222737   4.001   6.366   0.200
 7280SOL     OW22738   5.681   6.885   5.004
 7280SOL    HW122739   5.754   6.935   4.957
 7280SOL    HW222740   5.699   6.786   4.999
 7281SOL     OW22741   2.580   1.599   0.058
 7281SOL    HW122742   2.487   1.563   0.064
 7281SOL    HW222743   2.587   1.659   7.002
 7282SOL     OW22744   6.234   5.036   2.833
 7282SOL    HW122745   6.284   5.076   2.910
 7282SOL    HW222746   6.245   4.936   2.835
 7283SOL     OW22747   2.777   1.331   3.313
 7283SOL    HW122748   2.826   1.398   3.368
 7283SOL    HW222749   2.689   1.311   3.354
 7284SOL     OW22750   0.441   3.947   5.444
 7284SOL    HW122751   0.505   3.906   5.509
 7284SOL    HW222752   0.359   3.890   5.438
 7285SOL     OW22753   5.536   4.549   2.334
 7285SOL    HW122754   5.544   4.489   2.254
 7285SOL    HW222755   5.477   4.505   2.402
 7286SOL     OW22756   2.824   1.716   1.042
 7286SOL    HW122757   2.837   1.700   0.944
 7286SOL    HW222758   2.799   1.630   1.086
 7287SOL     OW22759   0.935   2.317   6.402
 7287SOL    HW122760   0.978   2.230   6.381
 7287SOL    HW222761   1.000   2.376   6.451
 7288SOL     OW22762   4.011   0.665   6.548
 7288SOL    HW122763   3.995   0.651   6.645
 7288SOL    HW222764   3.925   0.652   6.498
 7289SOL     OW22765   5.961   1.678   3.391
 7289SOL    HW122766   6.044   1.706   3.344
 7289SOL    HW222767   5.917   1.758   3.433
 7290SOL     OW22768   2.520   5.867   5.575
 7290SOL    HW122769   2.595   5.802   5.559
 7290SOL    HW222770   2.557   5.960   5.579
 7291SOL     OW22771   2.010   0.279   1.433
 7291SOL    HW122772   2.062   0.212   1.380
 7291SOL    HW222773   1.941   0.322   1.375
 7292SOL     OW22774   2.354   0.425   4.165
 7292SOL    HW122775   2.391   0.514   4.138
 7292SOL    HW222776   2.307   0.383   4.087
 7293SOL     OW22777   1.557   1.452   5.064
 7293SOL    HW122778   1.465   1.428   5.092
 7293SOL    HW222779   1.558   1.546   5.028
 7294SOL     OW22780   2.855   5.290   1.066
 7294SOL    HW122781   2.921   5.224   1.030
 7294SOL    HW222782   2.839   5.271   1.163
 7295SOL     OW22783   0.970   2.734   0.689
 7295SOL    HW122784   1.062   2.705   0.666
 7295SOL    HW222785   0.973   2.794   0.769
 7296SOL     OW22786   2.897   4.503   1.199
 7296SOL    HW122787   2.897   4.404   1.184
 7296SOL    HW222788   2.831   4.546   1.138
 7297SOL     OW22789   3.984   6.068   0.908
 7297SOL    HW122790   3.891   6.092   0.937
 7297SOL    HW222791   4.050   6.127   0.954
 7298SOL     OW22792   5.082   4.247   5.742
 7298SOL    HW122793   5.064   4.343   5.720
 7298SOL    HW222794   5.123   4.202   5.662
 7299SOL     OW22795   0.586   2.079   6.658
 7299SOL    HW122796   0.632   2.041   6.578
 7299SOL    HW222797   0.592   2.014   6.734
 7300SOL     OW22798   5.771   4.945   1.986
 7300SOL    HW122799   5.737   4.873   1.926
 7300SOL    HW222800   5.871   4.940   1.992
 7301SOL     OW22801   6.081   0.989   4.684
 7301SOL    HW122802   6.082   0.929   4.764
 7301SOL    HW222803   6.081   0.934   4.601
 7302SOL     OW22804   0.281   1.446   6.715
 7302SOL    HW122805   0.232   1.405   6.638
 7302SOL    HW222806   0.301   1.377   6.783
 7303SOL     OW22807   4.870   0.727   6.733
 7303SOL    HW122808   4.968   0.716   6.749
 7303SOL    HW222809   4.820   0.700   6.816
 7304SOL     OW22810   3.536   4.570   0.228
 7304SOL    HW122811   3.605   4.638   0.203
 7304SOL    HW222812   3.515   4.578   0.325
 7305SOL     OW22813   4.610   1.770   0.836
 7305SOL    HW122814   4.578   1.681   0.871
 7305SOL    HW222815   4.533   1.832   0.828
 7306SOL     OW22816   5.168   3.219   1.148
 7306SOL    HW122817   5.094   3.285   1.147
 7306SOL    HW222818   5.148   3.146   1.213
 7307SOL     OW22819   3.132   6.983   1.578
 7307SOL    HW122820   3.115   6.926   1.659
 7307SOL    HW222821   3.057   0.024   1.568
 7308SOL     OW22822   0.116   4.073   5.516
 7308SOL    HW122823   0.177   4.152   5.504
 7308SOL    HW222824   0.026   4.105   5.545
 7309SOL     OW22825   5.356   6.265   0.638
 7309SOL    HW122826   5.272   6.224   0.675
 7309SOL    HW222827   5.333   6.342   0.580
 7310SOL     OW22828   1.755   3.968   1.395
 7310SOL    HW122829   1.802   3.900   1.452
 7310SOL    HW222830   1.666   3.990   1.435
 7311SOL     OW22831   3.693   2.035   2.162
 7311SOL    HW122832   3.729   2.114   2.113
 7311SOL    HW222833   3.600   2.017   2.132
 7312SOL     OW22834   0.253   3.410   5.806
 7312SOL    HW122835   0.264   3.406   5.707
 7312SOL    HW222836   0.182   3.346   5.835
 7313SOL     OW22837   4.349   2.437   6.054
 7313SOL    HW122838   4.394   2.352   6.027
 7313SOL    HW222839   4.359   2.450   6.153
 7314SOL     OW22840   6.773   3.983   5.309
 7314SOL    HW122841   6.694   3.944   5.356
 7314SOL    HW222842   6.775   3.950   5.214
 7315SOL     OW22843   6.661   0.452   3.031
 7315SOL    HW122844   6.633   0.544   3.060
 7315SOL    HW222845   6.581   0.391   3.033
 7316SOL     OW22846   3.202   3.408   6.127
 7316SOL    HW122847   3.138   3.440   6.057
 7316SOL    HW222848   3.240   3.487   6.176
 7317SOL     OW22849   4.486   0.923   2.279
 7317SOL    HW122850   4.547   0.976   2.337
 7317SOL    HW222851   4.399   0.908   2.327
 7318SOL     OW22852   0.926   1.501   0.845
 7318SOL    HW122853   1.002   1.436   0.849
 7318SOL    HW222854   0.926   1.547   0.756
 7319SOL     OW22855   6.294   3.765   6.165
 7319SOL    HW122856   6.242   3.729   6.242
 7319SOL    HW222857   6.232   3.782   6.089
 7320SOL     OW22858   6.598   3.726   1.629
 7320SOL    HW122859   6.685   3.693   1.665
 7320SOL    HW222860   6.600   3.826   1.625
 7321SOL     OW22861   3.022   6.541   5.267
 7321SOL    HW122862   2.950   6.605   5.293
 7321SOL    HW222863   3.092   6.590   5.214
 7322SOL     OW22864   0.861   2.643   2.628
 7322SOL    HW122865   0.831   2.582   2.702
 7322SOL    HW222866   0.901   2.588   2.554
 7323SOL     OW22867   1.747   2.381   1.972
 7323SOL    HW122868   1.718   2.407   1.880
 7323SOL    HW222869   1.847   2.370   1.974
 7324SOL     OW22870   5.334   6.419   2.405
 7324SOL    HW122871   5.242   6.447   2.432
 7324SOL    HW222872   5.335   6.320   2.388
 7325SOL     OW22873   4.007   6.797   6.385
 7325SOL    HW122874   4.022   6.883   6.434
 7325SOL    HW222875   3.909   6.786   6.367
 7326SOL     OW22876   2.128   6.423   5.141
 7326SOL    HW122877   2.170   6.374   5.064
 7326SOL    HW222878   2.132   6.521   5.123
 7327SOL     OW22879   6.574   3.109   5.216
 7327SOL    HW122880   6.489   3.064   5.245
 7327SOL    HW222881   6.628   3.045   5.161
 7328SOL     OW22882   3.382   0.311   6.510
 7328SOL    HW122883   3.391   0.399   6.464
 7328SOL    HW222884   3.473   0.270   6.522
 7329SOL     OW22885   4.486   3.747   1.650
 7329SOL    HW122886   4.504   3.837   1.690
 7329SOL    HW222887   4.545   3.734   1.571
 7330SOL     OW22888   3.231   2.048   6.755
 7330SOL    HW122889   3.188   2.083   6.671
 7330SOL    HW222890   3.182   2.084   6.835
 7331SOL     OW22891   5.500   0.027   1.599
 7331SOL    HW122892   5.517   7.013   1.508
 7331SOL    HW222893   5.586   0.034   1.649
 7332SOL     OW22894   2.309   5.919   0.501
 7332SOL    HW122895   2.364   5.975   0.562
 7332SOL    HW222896   2.362   5.841   0.469
 7333SOL     OW22897   0.139   3.072   3.730
 7333SOL    HW122898   0.081   3.136   3.781
 7333SOL    HW222899   0.217   3.046   3.787
 7334SOL     OW22900   3.910   5.889   6.809
 7334SOL    HW122901   3.937   5.843   6.893
 7334SOL    HW222902   3.847   5.830   6.758
 7335SOL     OW22903   1.891   2.984   2.631
 7335SOL    HW122904   1.810   3.043   2.633
 7335SOL    HW222905   1.942   2.994   2.716
 7336SOL     OW22906   1.835   6.107   3.043
 7336SOL    HW122907   1.864   6.203   3.044
 7336SOL    HW222908   1.737   6.102   3.023
 7337SOL     OW22909   0.323   2.870   2.274
 7337SOL    HW122910   0.394   2.855   2.206
 7337SOL    HW222911   0.233   2.861   2.232
 7338SOL     OW22912   6.672   2.711   1.375
 7338SOL    HW122913   6.732   2.781   1.336
 7338SOL    HW222914   6.577   2.743   1.371
 7339SOL     OW22915   5.292   5.800   3.554
 7339SOL    HW122916   5.313   5.786   3.457
 7339SOL    HW222917   5.202   5.842   3.563
 7340SOL     OW22918   1.826   1.254   0.333
 7340SOL    HW122919   1.838   1.284   0.238
 7340SOL    HW222920   1.916   1.238   0.374
 7341SOL     OW22921   0.219   2.320   6.657
 7341SOL    HW122922   0.151   2.253   6.686
 7341SOL    HW222923   0.304   2.272   6.634
 7342SOL     OW22924   6.529   0.996   1.648
 7342SOL    HW122925   6.535   1.075   1.709
 7342SOL    HW222926   6.517   0.913   1.703
 7343SOL     OW22927   4.336   3.164   7.010
 7343SOL    HW122928   4.358   3.261   7.014
 7343SOL    HW222929   4.242   3.150   0.019
 7344SOL     OW22930   1.158   6.904   6.011
 7344SOL    HW122931   1.212   6.845   6.071
 7344SOL    HW222932   1.198   6.904   5.920
 7345SOL     OW22933   3.523   3.354   5.551
 7345SOL    HW122934   3.454   3.351   5.624
 7345SOL    HW222935   3.486   3.313   5.468
 7346SOL     OW22936   3.820   6.510   3.047
 7346SOL    HW122937   3.751   6.461   2.993
 7346SOL    HW222938   3.822   6.473   3.140
 7347SOL     OW22939   0.577   1.930   0.184
 7347SOL    HW122940   0.637   1.952   0.261
 7347SOL    HW222941   0.572   1.830   0.174
 7348SOL     OW22942   1.076   3.341   4.092
 7348SOL    HW122943   1.072   3.243   4.075
 7348SOL    HW222944   1.106   3.358   4.186
 7349SOL     OW22945   4.087   0.270   1.769
 7349SOL    HW122946   4.105   0.367   1.785
 7349SOL    HW222947   3.992   0.258   1.742
 7350SOL     OW22948   2.663   1.577   5.633
 7350SOL    HW122949   2.763   1.566   5.638
 7350SOL    HW222950   2.634   1.652   5.691
 7351SOL     OW22951   5.251   5.674   3.163
 7351SOL    HW122952   5.173   5.736   3.156
 7351SOL    HW222953   5.218   5.579   3.159
 7352SOL     OW22954   1.297   2.082   2.705
 7352SOL    HW122955   1.296   2.168   2.654
 7352SOL    HW222956   1.276   2.006   2.644
 7353SOL     OW22957   0.727   0.441   6.705
 7353SOL    HW122958   0.773   0.393   6.630
 7353SOL    HW222959   0.794   0.497   6.754
 7354SOL     OW22960   2.130   0.766   4.392
 7354SOL    HW122961   2.202   0.810   4.445
 7354SOL    HW222962   2.102   0.827   4.318
 7355SOL     OW22963   0.219   2.246   6.239
 7355SOL    HW122964   0.252   2.336   6.267
 7355SOL    HW222965   0.296   2.183   6.234
 7356SOL     OW22966   3.644   4.369   6.111
 7356SOL    HW122967   3.593   4.424   6.045
 7356SOL    HW222968   3.741   4.371   6.088
 7357SOL     OW22969   3.429   6.088   2.181
 7357SOL    HW122970   3.418   6.162   2.114
 7357SOL    HW222971   3.419   6.000   2.135
 7358SOL     OW22972   6.122   3.224   2.071
 7358SOL    HW122973   6.191   3.174   2.019
 7358SOL    HW222974   6.031   3.198   2.039
 7359SOL     OW22975   4.444   2.587   5.827
 7359SOL    HW122976   4.412   2.529   5.902
 7359SOL    HW222977   4.504   2.658   5.862
 7360SOL     OW22978   2.080   3.739   5.369
 7360SOL    HW122979   2.110   3.715   5.462
 7360SOL    HW222980   2.157   3.731   5.306
 7361SOL     OW22981   5.203   0.440   2.736
 7361SOL    HW122982   5.134   0.509   2.758
 7361SOL    HW222983   5.171   0.350   2.766
 7362SOL     OW22984   3.175   5.717   6.666
 7362SOL    HW122985   3.162   5.816   6.660
 7362SOL    HW222986   3.087   5.671   6.653
 7363SOL     OW22987   4.460   0.718   1.499
 7363SOL    HW122988   4.364   0.689   1.492
 7363SOL    HW222989   4.464   0.818   1.492
 7364SOL     OW22990   4.691   0.074   1.905
 7364SOL    HW122991   4.618   0.141   1.921
 7364SOL    HW222992   4.753   0.109   1.834
 7365SOL     OW22993   0.118   5.936   2.675
 7365SOL    HW122994   0.066   5.859   2.639
 7365SOL    HW222995   0.066   5.979   2.750
 7366SOL     OW22996   1.845   0.097   4.852
 7366SOL    HW122997   1.890   0.089   4.763
 7366SOL    HW222998   1.815   0.191   4.865
 7367SOL     OW22999   4.328   2.307   0.504
 7367SOL    HW123000   4.324   2.316   0.404
 7367SOL    HW223001   4.235   2.309   0.541
 7368SOL     OW23002   3.669   3.181   2.695
 7368SOL    HW123003   3.709   3.102   2.742
 7368SOL    HW223004   3.683   3.173   2.596
 7369SOL     OW23005   3.672   2.523   0.992
 7369SOL    HW123006   3.716   2.466   1.060
 7369SOL    HW223007   3.590   2.478   0.958
 7370SOL     OW23008   2.501   2.211   5.247
 7370SOL    HW123009   2.486   2.187   5.343
 7370SOL    HW223010   2.429   2.171   5.191
 7371SOL     OW23011   3.241   6.585   4.096
 7371SOL    HW123012   3.209   6.629   4.012
 7371SOL    HW223013   3.235   6.486   4.086
 7372SOL     OW23014   4.168   6.726   4.837
 7372SOL    HW123015   4.166   6.672   4.753
 7372SOL    HW223016   4.243   6.696   4.895
 7373SOL     OW23017   5.447   1.861   4.835
 7373SOL    HW123018   5.418   1.946   4.792
 7373SOL    HW223019   5.490   1.801   4.767
 7374SOL     OW23020   1.409   1.878   4.942
 7374SOL    HW123021   1.363   1.791   4.924
 7374SOL    HW223022   1.499   1.861   4.982
 7375SOL     OW23023   2.223   2.789   2.093
 7375SOL    HW123024   2.315   2.750   2.091
 7375SOL    HW223025   2.155   2.717   2.075
 7376SOL     OW23026   1.171   3.218   1.500
 7376SOL    HW123027   1.075   3.190   1.498
 7376SOL    HW223028   1.220   3.175   1.425
 7377SOL     OW23029   3.963   5.208   1.114
 7377SOL    HW123030   3.944   5.296   1.156
 7377SOL    HW223031   4.059   5.204   1.085
 7378SOL     OW23032   1.833   6.779   4.073
 7378SOL    HW123033   1.879   6.748   3.989
 7378SOL    HW223034   1.780   6.703   4.112
 7379SOL     OW23035   2.742   0.374   1.914
 7379SOL    HW123036   2.666   0.424   1.955
 7379SOL    HW223037   2.717   0.279   1.901
 7380SOL     OW23038   6.179   4.155   3.699
 7380SOL    HW123039   6.132   4.236   3.733
 7380SOL    HW223040   6.274   4.176   3.679
 7381SOL     OW23041   4.139   2.827   0.836
 7381SOL    HW123042   4.173   2.790   0.749
 7381SOL    HW223043   4.133   2.753   0.903
 7382SOL     OW23044   6.300   1.944   6.020
 7382SOL    HW123045   6.391   1.940   6.062
 7382SOL    HW223046   6.232   1.967   6.089
 7383SOL     OW23047   1.949   6.223   2.176
 7383SOL    HW123048   1.943   6.317   2.210
 7383SOL    HW223049   2.045   6.198   2.163
 7384SOL     OW23050   6.861   6.770   1.158
 7384SOL    HW123051   6.796   6.842   1.132
 7384SOL    HW223052   6.954   6.799   1.135
 7385SOL     OW23053   3.116   4.948   2.588
 7385SOL    HW123054   3.204   4.927   2.631
 7385SOL    HW223055   3.132   4.988   2.497
 7386SOL     OW23056   0.040   3.177   6.600
 7386SOL    HW123057   6.999   3.118   6.649
 7386SOL    HW223058   0.050   3.263   6.649
 7387SOL     OW23059   6.407   5.218   5.946
 7387SOL    HW123060   6.315   5.189   5.919
 7387SOL    HW223061   6.467   5.221   5.866
 7388SOL     OW23062   1.054   5.542   3.143
 7388SOL    HW123063   0.961   5.560   3.110
 7388SOL    HW223064   1.120   5.584   3.082
 7389SOL     OW23065   0.268   3.443   0.517
 7389SOL    HW123066   0.280   3.346   0.535
 7389SOL    HW223067   0.192   3.457   0.453
 7390SOL     OW23068   2.954   1.936   2.095
 7390SOL    HW123069   2.859   1.935   2.064
 7390SOL    HW223070   2.976   1.847   2.135
 7391SOL     OW23071   4.118   3.538   2.676
 7391SOL    HW123072   4.100   3.628   2.717
 7391SOL    HW223073   4.095   3.467   2.741
 7392SOL     OW23074   3.564   6.253   6.880
 7392SOL    HW123075   3.528   6.161   6.871
 7392SOL    HW223076   3.516   6.314   6.816
 7393SOL     OW23077   6.939   4.693   3.540
 7393SOL    HW123078   6.879   4.626   3.497
 7393SOL    HW223079   6.891   4.781   3.545
 7394SOL     OW23080   1.975   3.046   6.598
 7394SOL    HW123081   1.953   3.139   6.627
 7394SOL    HW223082   1.974   3.041   6.498
 7395SOL     OW23083   2.201   3.267   1.478
 7395SOL    HW123084   2.205   3.268   1.578
 7395SOL    HW223085   2.168   3.356   1.446
 7396SOL     OW23086   2.345   6.036   1.640
 7396SOL    HW123087   2.376   5.949   1.678
 7396SOL    HW223088   2.357   6.108   1.708
 7397SOL     OW23089   4.916   3.613   4.429
 7397SOL    HW123090   4.991   3.633   4.367
 7397SOL    HW223091   4.914   3.682   4.502
 7398SOL     OW23092   1.290   4.934   3.254
 7398SOL    HW123093   1.275   5.032   3.266
 7398SOL    HW223094   1.383   4.918   3.222
 7399SOL     OW23095   6.321   2.929   4.294
 7399SOL    HW123096   6.240   2.870   4.285
 7399SOL    HW223097   6.292   3.025   4.298
 7400SOL     OW23098   4.991   2.200   5.167
 7400SOL    HW123099   5.080   2.205   5.121
 7400SOL    HW223100   4.966   2.291   5.201
 7401SOL     OW23101   1.592   2.950   3.335
 7401SOL    HW123102   1.673   3.001   3.365
 7401SOL    HW223103   1.617   2.888   3.260
 7402SOL     OW23104   2.685   5.100   5.796
 7402SOL    HW123105   2.640   5.030   5.740
 7402SOL    HW223106   2.624   5.129   5.869
 7403SOL     OW23107   1.948   3.033   3.149
 7403SOL    HW123108   2.045   3.044   3.131
 7403SOL    HW223109   1.919   2.940   3.126
 7404SOL     OW23110   3.314   4.084   1.471
 7404SOL    HW123111   3.312   4.128   1.560
 7404SOL    HW223112   3.221   4.069   1.438
 7405SOL     OW23113   2.945   5.415   5.270
 7405SOL    HW123114   2.911   5.372   5.186
 7405SOL    HW223115   3.020   5.477   5.247
 7406SOL     OW23116   0.645   1.440   5.185
 7406SOL    HW123117   0.590   1.519   5.214
 7406SOL    HW223118   0.742   1.465   5.186
 7407SOL     OW23119   0.858   6.426   6.886
 7407SOL    HW123120   0.819   6.472   6.807
 7407SOL    HW223121   0.801   6.349   6.912
 7408SOL     OW23122   3.155   4.189   5.435
 7408SOL    HW123123   3.090   4.235   5.495
 7408SOL    HW223124   3.226   4.145   5.490
 7409SOL     OW23125   5.438   3.895   6.994
 7409SOL    HW123126   5.446   3.799   7.019
 7409SOL    HW223127   5.457   3.906   6.896
 7410SOL     OW23128   0.239   0.469   0.237
 7410SOL    HW123129   0.145   0.504   0.233
 7410SOL    HW223130   0.282   0.479   0.147
 7411SOL     OW23131   1.541   1.475   5.877
 7411SOL    HW123132   1.610   1.547   5.885
 7411SOL    HW223133   1.542   1.438   5.785
 7412SOL     OW23134   4.096   0.154   0.514
 7412SOL    HW123135   4.046   0.151   0.427
 7412SOL    HW223136   4.193   0.138   0.496
 7413SOL     OW23137   4.905   4.591   2.971
 7413SOL    HW123138   4.838   4.541   3.026
 7413SOL    HW223139   4.893   4.567   2.875
 7414SOL     OW23140   2.230   2.110   4.734
 7414SOL    HW123141   2.280   2.129   4.649
 7414SOL    HW223142   2.270   2.163   4.809
 7415SOL     OW23143   3.183   6.586   6.667
 7415SOL    HW123144   3.152   6.598   6.761
 7415SOL    HW223145   3.106   6.599   6.604
 7416SOL     OW23146   1.299   1.115   2.745
 7416SOL    HW123147   1.207   1.133   2.780
 7416SOL    HW223148   1.299   1.028   2.695
 7417SOL     OW23149   1.456   2.323   3.221
 7417SOL    HW123150   1.389   2.249   3.224
 7417SOL    HW223151   1.411   2.408   3.194
 7418SOL     OW23152   1.672   4.678   6.702
 7418SOL    HW123153   1.632   4.590   6.676
 7418SOL    HW223154   1.712   4.721   6.622
 7419SOL     OW23155   6.094   3.529   3.394
 7419SOL    HW123156   6.054   3.479   3.471
 7419SOL    HW223157   6.159   3.597   3.429
 7420SOL     OW23158   6.651   6.094   1.894
 7420SOL    HW123159   6.618   6.077   1.987
 7420SOL    HW223160   6.719   6.025   1.870
 7421SOL     OW23161   4.801   3.475   1.149
 7421SOL    HW123162   4.722   3.473   1.088
 7421SOL    HW223163   4.842   3.566   1.148
 7422SOL     OW23164   6.368   3.405   1.960
 7422SOL    HW123165   6.296   3.423   2.027
 7422SOL    HW223166   6.370   3.308   1.938
 7423SOL     OW23167   5.505   1.874   5.378
 7423SOL    HW123168   5.557   1.809   5.323
 7423SOL    HW223169   5.545   1.881   5.469
 7424SOL     OW23170   6.433   1.174   4.881
 7424SOL    HW123171   6.419   1.158   4.978
 7424SOL    HW223172   6.349   1.209   4.840
 7425SOL     OW23173   5.313   6.888   0.375
 7425SOL    HW123174   5.303   6.870   0.278
 7425SOL    HW223175   5.328   6.985   0.390
 7426SOL     OW23176   2.809   2.474   5.790
 7426SOL    HW123177   2.878   2.474   5.718
 7426SOL    HW223178   2.794   2.380   5.821
 7427SOL     OW23179   3.800   1.394   3.795
 7427SOL    HW123180   3.865   1.319   3.804
 7427SOL    HW223181   3.709   1.363   3.822
 7428SOL     OW23182   4.295   6.211   5.832
 7428SOL    HW123183   4.256   6.120   5.817
 7428SOL    HW223184   4.223   6.280   5.825
 7429SOL     OW23185   1.241   6.481   3.176
 7429SOL    HW123186   1.210   6.391   3.208
 7429SOL    HW223187   1.293   6.526   3.249
 7430SOL     OW23188   6.544   4.573   2.437
 7430SOL    HW123189   6.585   4.523   2.361
 7430SOL    HW223190   6.488   4.648   2.400
 7431SOL     OW23191   2.196   2.706   4.484
 7431SOL    HW123192   2.216   2.609   4.500
 7431SOL    HW223193   2.151   2.717   4.395
 7432SOL     OW23194   1.834   0.702   3.590
 7432SOL    HW123195   1.896   0.648   3.647
 7432SOL    HW223196   1.740   0.683   3.616
 7433SOL     OW23197   2.976   6.820   6.794
 7433SOL    HW123198   3.014   6.842   6.884
 7433SOL    HW223199   2.920   6.737   6.801
 7434SOL     OW23200   5.049   5.946   6.063
 7434SOL    HW123201   5.062   5.863   6.118
 7434SOL    HW223202   4.981   6.005   6.106
 7435SOL     OW23203   4.762   6.236   1.720
 7435SOL    HW123204   4.804   6.326   1.708
 7435SOL    HW223205   4.674   6.233   1.673
 7436SOL     OW23206   4.808   4.442   6.072
 7436SOL    HW123207   4.810   4.353   6.025
 7436SOL    HW223208   4.769   4.431   6.163
 7437SOL     OW23209   2.699   5.423   1.513
 7437SOL    HW123210   2.627   5.400   1.578
 7437SOL    HW223211   2.691   5.520   1.487
 7438SOL     OW23212   1.856   0.798   0.524
 7438SOL    HW123213   1.848   0.819   0.622
 7438SOL    HW223214   1.767   0.808   0.481
 7439SOL     OW23215   1.915   5.037   5.454
 7439SOL    HW123216   1.939   5.128   5.488
 7439SOL    HW223217   1.942   5.029   5.358
 7440SOL     OW23218   5.018   3.209   4.128
 7440SOL    HW123219   5.108   3.205   4.172
 7440SOL    HW223220   5.015   3.286   4.065
 7441SOL     OW23221   5.574   6.670   2.488
 7441SOL    HW123222   5.573   6.739   2.560
 7441SOL    HW223223   5.539   6.583   2.524
 7442SOL     OW23224   5.934   0.803   5.982
 7442SOL    HW123225   5.909   0.818   6.078
 7442SOL    HW223226   6.025   0.762   5.978
 7443SOL     OW23227   0.072   5.718   2.259
 7443SOL    HW123228   0.014   5.718   2.178
 7443SOL    HW223229   0.022   5.677   2.336
 7444SOL     OW23230   6.861   0.584   5.934
 7444SOL    HW123231   6.828   0.491   5.948
 7444SOL    HW223232   6.822   0.644   6.004
 7445SOL     OW23233   3.874   6.778   1.447
 7445SOL    HW123234   3.852   6.780   1.350
 7445SOL    HW223235   3.800   6.731   1.497
 7446SOL     OW23236   5.310   2.674   0.761
 7446SOL    HW123237   5.389   2.719   0.720
 7446SOL    HW223238   5.341   2.599   0.820
 7447SOL     OW23239   0.256   4.689   0.270
 7447SOL    HW123240   0.169   4.670   0.225
 7447SOL    HW223241   0.309   4.753   0.215
 7448SOL     OW23242   5.694   5.916   6.142
 7448SOL    HW123243   5.738   5.834   6.180
 7448SOL    HW223244   5.735   5.937   6.053
 7449SOL     OW23245   0.378   4.902   0.464
 7449SOL    HW123246   0.315   4.849   0.406
 7449SOL    HW223247   0.334   4.988   0.491
 7450SOL     OW23248   5.271   1.610   5.602
 7450SOL    HW123249   5.238   1.697   5.565
 7450SOL    HW223250   5.332   1.627   5.679
 7451SOL     OW23251   5.847   5.612   2.379
 7451SOL    HW123252   5.926   5.673   2.368
 7451SOL    HW223253   5.870   5.540   2.444
 7452SOL     OW23254   5.906   6.380   4.968
 7452SOL    HW123255   5.959   6.348   5.047
 7452SOL    HW223256   5.847   6.306   4.936
 7453SOL     OW23257   5.420   5.642   6.379
 7453SOL    HW123258   5.374   5.715   6.430
 7453SOL    HW223259   5.450   5.677   6.290
 7454SOL     OW23260   3.377   1.903   0.569
 7454SOL    HW123261   3.319   1.935   0.494
 7454SOL    HW223262   3.346   1.944   0.655
 7455SOL     OW23263   6.079   2.894   2.518
 7455SOL    HW123264   6.051   2.981   2.560
 7455SOL    HW223265   6.045   2.889   2.424
 7456SOL     OW23266   2.598   2.414   4.914
 7456SOL    HW123267   2.571   2.507   4.940
 7456SOL    HW223268   2.655   2.375   4.986
 7457SOL     OW23269   2.131   0.039   3.851
 7457SOL    HW123270   2.193   0.049   3.773
 7457SOL    HW223271   2.179   7.016   3.926
 7458SOL     OW23272   1.311   6.723   4.987
 7458SOL    HW123273   1.342   6.732   4.893
 7458SOL    HW223274   1.297   6.814   5.026
 7459SOL     OW23275   6.533   1.222   2.490
 7459SOL    HW123276   6.626   1.183   2.491
 7459SOL    HW223277   6.470   1.159   2.535
 7460SOL     OW23278   1.486   6.692   0.048
 7460SOL    HW123279   1.549   6.769   0.042
 7460SOL    HW223280   1.452   6.669   6.980
 7461SOL     OW23281   0.214   6.244   5.542
 7461SOL    HW123282   0.179   6.166   5.490
 7461SOL    HW223283   0.239   6.215   5.634
 7462SOL     OW23284   1.021   5.706   1.052
 7462SOL    HW123285   1.067   5.635   0.999
 7462SOL    HW223286   0.971   5.665   1.128
 7463SOL     OW23287   3.501   4.642   0.739
 7463SOL    HW123288   3.524   4.558   0.788
 7463SOL    HW223289   3.415   4.629   0.690
 7464SOL     OW23290   0.564   5.626   4.592
 7464SOL    HW123291   0.554   5.693   4.518
 7464SOL    HW223292   0.622   5.664   4.663
 7465SOL     OW23293   2.423   5.089   0.199
 7465SOL    HW123294   2.504   5.142   0.175
 7465SOL    HW223295   2.398   5.030   0.122
 7466SOL     OW23296   0.419   0.492   5.615
 7466SOL    HW123297   0.425   0.394   5.597
 7466SOL    HW223298   0.424   0.542   5.528
 7467SOL     OW23299   0.292   2.843   6.071
 7467SOL    HW123300   0.360   2.794   6.125
 7467SOL    HW223301   0.331   2.864   5.981
 7468SOL     OW23302   5.544   2.767   4.879
 7468SOL    HW123303   5.621   2.794   4.937
 7468SOL    HW223304   5.578   2.715   4.801
 7469SOL     OW23305   6.738   2.370   0.575
 7469SOL    HW123306   6.730   2.276   0.540
 7469SOL    HW223307   6.659   2.423   0.544
 7470SOL     OW23308   5.806   3.671   3.203
 7470SOL    HW123309   5.708   3.656   3.189
 7470SOL    HW223310   5.854   3.583   3.194
 7471SOL     OW23311   5.448   5.655   6.055
 7471SOL    HW123312   5.522   5.665   5.989
 7471SOL    HW223313   5.383   5.730   6.044
 7472SOL     OW23314   6.850   0.308   5.531
 7472SOL    HW123315   6.886   0.316   5.438
 7472SOL    HW223316   6.761   0.352   5.537
 7473SOL     OW23317   4.254   6.901   4.011
 7473SOL    HW123318   4.317   6.962   4.058
 7473SOL    HW223319   4.276   6.806   4.034
 7474SOL     OW23320   5.737   2.093   6.534
 7474SOL    HW123321   5.810   2.156   6.507
 7474SOL    HW223322   5.657   2.145   6.565
 7475SOL     OW23323   4.603   2.017   2.200
 7475SOL    HW123324   4.602   1.930   2.249
 7475SOL    HW223325   4.684   2.022   2.142
 7476SOL     OW23326   2.180   2.139   2.820
 7476SOL    HW123327   2.164   2.178   2.910
 7476SOL    HW223328   2.198   2.211   2.754
 7477SOL     OW23329   0.594   3.634   5.219
 7477SOL    HW123330   0.644   3.564   5.168
 7477SOL    HW223331   0.659   3.699   5.259
 7478SOL     OW23332   5.529   2.209   4.988
 7478SOL    HW123333   5.477   2.266   4.924
 7478SOL    HW223334   5.523   2.248   5.080
 7479SOL     OW23335   5.470   3.137   0.005
 7479SOL    HW123336   5.552   3.188   0.030
 7479SOL    HW223337   5.428   3.179   6.948
 7480SOL     OW23338   2.690   5.423   2.652
 7480SOL    HW123339   2.596   5.434   2.682
 7480SOL    HW223340   2.698   5.450   2.556
 7481SOL     OW23341   6.183   4.669   6.307
 7481SOL    HW123342   6.261   4.614   6.275
 7481SOL    HW223343   6.195   4.692   6.403
 7482SOL     OW23344   4.334   2.253   2.702
 7482SOL    HW123345   4.325   2.160   2.667
 7482SOL    HW223346   4.250   2.304   2.684
 7483SOL     OW23347   5.063   1.429   4.560
 7483SOL    HW123348   5.041   1.523   4.586
 7483SOL    HW223349   5.161   1.414   4.571
 7484SOL     OW23350   2.283   6.203   4.704
 7484SOL    HW123351   2.191   6.212   4.665
 7484SOL    HW223352   2.348   6.253   4.648
 7485SOL     OW23353   2.466   0.135   4.102
 7485SOL    HW123354   2.454   0.047   4.056
 7485SOL    HW223355   2.404   0.139   4.181
 7486SOL     OW23356   0.620   5.951   0.476
 7486SOL    HW123357   0.660   5.869   0.516
 7486SOL    HW223358   0.528   5.930   0.443
 7487SOL     OW23359   4.679   0.447   3.676
 7487SOL    HW123360   4.763   0.501   3.676
 7487SOL    HW223361   4.698   0.355   3.710
 7488SOL     OW23362   0.975   5.933   4.310
 7488SOL    HW123363   0.915   5.868   4.357
 7488SOL    HW223364   0.922   6.015   4.286
 7489SOL     OW23365   6.079   4.044   7.017
 7489SOL    HW123366   6.063   3.981   0.069
 7489SOL    HW223367   6.029   4.012   6.936
 7490SOL     OW23368   1.567   2.281   2.622
 7490SOL    HW123369   1.561   2.323   2.531
 7490SOL    HW223370   1.552   2.182   2.613
 7491SOL     OW23371   4.562   2.999   0.886
 7491SOL    HW123372   4.618   2.967   0.962
 7491SOL    HW223373   4.470   3.020   0.920
 7492SOL     OW23374   1.747   0.734   4.244
 7492SOL    HW123375   1.757   0.716   4.146
 7492SOL    HW223376   1.653   0.713   4.272
 7493SOL     OW23377   6.580   3.809   5.411
 7493SOL    HW123378   6.526   3.854   5.339
 7493SOL    HW223379   6.556   3.712   5.416
 7494SOL     OW23380   5.848   0.824   2.873
 7494SOL    HW123381   5.923   0.757   2.876
 7494SOL    HW223382   5.770   0.790   2.925
 7495SOL     OW23383   2.262   2.943   4.835
 7495SOL    HW123384   2.309   3.004   4.898
 7495SOL    HW223385   2.165   2.939   4.858
 7496SOL     OW23386   6.414   3.412   3.384
 7496SOL    HW123387   6.365   3.424   3.298
 7496SOL    HW223388   6.422   3.500   3.431
 7497SOL     OW23389   1.300   6.730   0.875
 7497SOL    HW123390   1.289   6.684   0.787
 7497SOL    HW223391   1.397   6.749   0.890
 7498SOL     OW23392   3.028   0.545   3.463
 7498SOL    HW123393   2.965   0.477   3.425
 7498SOL    HW223394   3.063   0.603   3.389
 7499SOL     OW23395   3.907   2.056   3.962
 7499SOL    HW123396   3.856   2.069   3.876
 7499SOL    HW223397   3.895   1.961   3.993
 7500SOL     OW23398   3.959   6.872   3.703
 7500SOL    HW123399   3.873   6.903   3.742
 7500SOL    HW223400   4.018   6.952   3.686
 7501SOL     OW23401   5.693   2.568   3.839
 7501SOL    HW123402   5.594   2.556   3.849
 7501SOL    HW223403   5.727   2.626   3.913
 7502SOL     OW23404   3.449   0.381   4.499
 7502SOL    HW123405   3.467   0.398   4.402
 7502SOL    HW223406   3.522   0.324   4.537
 7503SOL     OW23407   1.874   5.901   1.002
 7503SOL    HW123408   1.969   5.918   0.974
 7503SOL    HW223409   1.816   5.899   0.921
 7504SOL     OW23410   0.205   6.190   2.501
 7504SOL    HW123411   0.263   6.134   2.442
 7504SOL    HW223412   0.135   6.132   2.543
 7505SOL     OW23413   0.280   1.376   5.044
 7505SOL    HW123414   0.184   1.394   5.025
 7505SOL    HW223415   0.311   1.433   5.119
 7506SOL     OW23416   3.325   1.784   3.230
 7506SOL    HW123417   3.346   1.721   3.155
 7506SOL    HW223418   3.254   1.848   3.201
 7507SOL     OW23419   6.523   3.507   4.647
 7507SOL    HW123420   6.616   3.487   4.678
 7507SOL    HW223421   6.462   3.512   4.725
 7508SOL     OW23422   1.667   5.800   6.983
 7508SOL    HW123423   1.701   5.738   6.912
 7508SOL    HW223424   1.718   5.786   0.044
 7509SOL     OW23425   5.008   4.221   6.957
 7509SOL    HW123426   5.050   4.137   6.991
 7509SOL    HW223427   5.018   4.224   6.857
 7510SOL     OW23428   3.995   3.289   4.216
 7510SOL    HW123429   4.008   3.385   4.192
 7510SOL    HW223430   4.015   3.231   4.138
 7511SOL     OW23431   3.413   5.716   2.698
 7511SOL    HW123432   3.502   5.743   2.733
 7511SOL    HW223433   3.410   5.734   2.599
 7512SOL     OW23434   2.756   0.531   6.763
 7512SOL    HW123435   2.733   0.436   6.784
 7512SOL    HW223436   2.676   0.590   6.780
 7513SOL     OW23437   2.240   2.545   3.559
 7513SOL    HW123438   2.142   2.560   3.569
 7513SOL    HW223439   2.271   2.586   3.473
 7514SOL     OW23440   2.148   4.372   3.687
 7514SOL    HW123441   2.144   4.298   3.754
 7514SOL    HW223442   2.188   4.337   3.602
 7515SOL     OW23443   6.914   4.221   5.323
 7515SOL    HW123444   6.869   4.133   5.312
 7515SOL    HW223445   6.852   4.295   5.297
 7516SOL     OW23446   1.154   5.437   5.677
 7516SOL    HW123447   1.082   5.379   5.640
 7516SOL    HW223448   1.187   5.398   5.763
 7517SOL     OW23449   1.258   2.625   0.166
 7517SOL    HW123450   1.348   2.582   0.158
 7517SOL    HW223451   1.188   2.563   0.132
 7518SOL     OW23452   4.837   3.023   4.235
 7518SOL    HW123453   4.891   3.099   4.201
 7518SOL    HW223454   4.772   2.993   4.165
 7519SOL     OW23455   4.679   0.160   4.695
 7519SOL    HW123456   4.617   0.088   4.665
 7519SOL    HW223457   4.629   0.247   4.699
 7520SOL     OW23458   1.694   1.624   2.086
 7520SOL    HW123459   1.681   1.532   2.122
 7520SOL    HW223460   1.791   1.649   2.089
 7521SOL     OW23461   5.469   1.600   4.437
 7521SOL    HW123462   5.470   1.683   4.381
 7521SOL    HW223463   5.480   1.520   4.378
 7522SOL     OW23464   1.017   6.616   4.035
 7522SOL    HW123465   0.926   6.643   4.003
 7522SOL    HW223466   1.073   6.592   3.956
 7523SOL     OW23467   5.363   0.704   6.164
 7523SOL    HW123468   5.296   0.703   6.238
 7523SOL    HW223469   5.345   0.783   6.105
 7524SOL     OW23470   6.849   2.719   4.421
 7524SOL    HW123471   6.845   2.648   4.491
 7524SOL    HW223472   6.942   2.757   4.416
 7525SOL     OW23473   4.471   6.568   0.173
 7525SOL    HW123474   4.479   6.533   0.080
 7525SOL    HW223475   4.510   6.659   0.178
 7526SOL     OW23476   2.260   3.236   1.770
 7526SOL    HW123477   2.258   3.316   1.830
 7526SOL    HW223478   2.168   3.200   1.758
 7527SOL     OW23479   4.105   6.060   3.927
 7527SOL    HW123480   4.187   6.009   3.899
 7527SOL    HW223481   4.061   6.014   4.004
 7528SOL     OW23482   5.718   2.190   6.913
 7528SOL    HW123483   5.753   2.103   6.879
 7528SOL    HW223484   5.626   2.177   6.951
 7529SOL     OW23485   5.914   1.894   3.600
 7529SOL    HW123486   5.924   1.990   3.627
 7529SOL    HW223487   5.830   1.883   3.546
 7530SOL     OW23488   6.952   1.352   2.499
 7530SOL    HW123489   6.894   1.403   2.435
 7530SOL    HW223490   6.904   1.269   2.529
 7531SOL     OW23491   4.514   2.570   3.545
 7531SOL    HW123492   4.417   2.586   3.565
 7531SOL    HW223493   4.533   2.472   3.547
 7532SOL     OW23494   4.811   6.146   6.633
 7532SOL    HW123495   4.899   6.177   6.670
 7532SOL    HW223496   4.767   6.085   6.699
 7533SOL     OW23497   4.557   2.992   1.589
 7533SOL    HW123498   4.551   3.012   1.687
 7533SOL    HW223499   4.598   3.070   1.541
 7534SOL     OW23500   5.313   6.535   4.616
 7534SOL    HW123501   5.273   6.623   4.642
 7534SOL    HW223502   5.413   6.543   4.613
 7535SOL     OW23503   1.136   6.834   4.707
 7535SOL    HW123504   1.093   6.754   4.664
 7535SOL    HW223505   1.233   6.814   4.724
 7536SOL     OW23506   5.131   5.727   4.239
 7536SOL    HW123507   5.152   5.746   4.142
 7536SOL    HW223508   5.196   5.659   4.273
 7537SOL     OW23509   2.366   5.719   2.199
 7537SOL    HW123510   2.362   5.799   2.259
 7537SOL    HW223511   2.352   5.636   2.254
 7538SOL     OW23512   0.764   3.387   1.731
 7538SOL    HW123513   0.749   3.356   1.637
 7538SOL    HW223514   0.682   3.434   1.764
 7539SOL     OW23515   1.682   5.433   3.453
 7539SOL    HW123516   1.699   5.437   3.355
 7539SOL    HW223517   1.632   5.515   3.481
 7540SOL     OW23518   4.795   6.154   4.456
 7540SOL    HW123519   4.773   6.057   4.447
 7540SOL    HW223520   4.885   6.171   4.415
 7541SOL     OW23521   0.421   3.871   6.634
 7541SOL    HW123522   0.395   3.953   6.583
 7541SOL    HW223523   0.355   3.855   6.708
 7542SOL     OW23524   6.212   6.023   5.724
 7542SOL    HW123525   6.254   6.105   5.687
 7542SOL    HW223526   6.147   5.986   5.658
 7543SOL     OW23527   2.531   0.306   5.180
 7543SOL    HW123528   2.561   0.400   5.197
 7543SOL    HW223529   2.532   0.288   5.082
 7544SOL     OW23530   0.301   2.416   4.250
 7544SOL    HW123531   0.264   2.502   4.216
 7544SOL    HW223532   0.226   2.360   4.286
 7545SOL     OW23533   0.474   5.838   6.955
 7545SOL    HW123534   0.465   5.921   7.010
 7545SOL    HW223535   0.495   5.862   6.861
 7546SOL     OW23536   3.817   2.743   1.681
 7546SOL    HW123537   3.784   2.822   1.629
 7546SOL    HW223538   3.740   2.699   1.726
 7547SOL     OW23539   4.607   0.766   2.097
 7547SOL    HW123540   4.567   0.821   2.171
 7547SOL    HW223541   4.580   0.805   2.009
 7548SOL     OW23542   4.553   2.261   6.513
 7548SOL    HW123543   4.634   2.234   6.566
 7548SOL    HW223544   4.481   2.291   6.576
 7549SOL     OW23545   4.028   2.705   5.829
 7549SOL    HW123546   4.001   2.676   5.921
 7549SOL    HW223547   4.104   2.770   5.836
 7550SOL     OW23548   1.955   4.191   4.140
 7550SOL    HW123549   1.876   4.205   4.080
 7550SOL    HW223550   2.039   4.192   4.084
 7551SOL     OW23551   4.810   2.052   5.346
 7551SOL    HW123552   4.832   2.116   5.272
 7551SOL    HW223553   4.742   1.987   5.314
 7552SOL     OW23554   2.157   5.980   4.406
 7552SOL    HW123555   2.214   6.062   4.408
 7552SOL    HW223556   2.078   5.993   4.467
 7553SOL     OW23557   5.667   6.047   5.724
 7553SOL    HW123558   5.705   6.058   5.816
 7553SOL    HW223559   5.570   6.072   5.725
 7554SOL     OW23560   5.552   1.511   0.111
 7554SOL    HW123561   5.578   1.545   0.202
 7554SOL    HW223562   5.472   1.451   0.120
 7555SOL     OW23563   2.838   6.411   6.613
 7555SOL    HW123564   2.763   6.402   6.548
 7555SOL    HW223565   2.811   6.372   6.701
 7556SOL     OW23566   1.302   1.490   0.536
 7556SOL    HW123567   1.401   1.479   0.544
 7556SOL    HW223568   1.268   1.539   0.616
 7557SOL     OW23569   4.967   6.985   0.103
 7557SOL    HW123570   4.937   0.035   0.164
 7557SOL    HW223571   4.943   6.897   0.143
 7558SOL     OW23572   1.261   2.597   4.217
 7558SOL    HW123573   1.250   2.660   4.140
 7558SOL    HW223574   1.249   2.647   4.303
 7559SOL     OW23575   3.477   2.222   5.269
 7559SOL    HW123576   3.382   2.215   5.300
 7559SOL    HW223577   3.499   2.144   5.211
 7560SOL     OW23578   6.462   0.218   6.549
 7560SOL    HW123579   6.389   0.285   6.562
 7560SOL    HW223580   6.518   0.212   6.632
 7561SOL     OW23581   5.075   2.075   5.445
 7561SOL    HW123582   4.983   2.048   5.417
 7561SOL    HW223583   5.076   2.173   5.465
 7562SOL     OW23584   0.949   5.137   4.899
 7562SOL    HW123585   0.997   5.110   4.815
 7562SOL    HW223586   0.964   5.068   4.969
 7563SOL     OW23587   2.993   6.662   2.469
 7563SOL    HW123588   3.061   6.698   2.533
 7563SOL    HW223589   2.935   6.596   2.517
 7564SOL     OW23590   4.239   0.357   4.884
 7564SOL    HW123591   4.152   0.389   4.846
 7564SOL    HW223592   4.234   0.259   4.900
 7565SOL     OW23593   5.731   3.802   6.138
 7565SOL    HW123594   5.634   3.822   6.136
 7565SOL    HW223595   5.769   3.825   6.227
 7566SOL     OW23596   5.354   4.963   2.103
 7566SOL    HW123597   5.394   5.014   2.027
 7566SOL    HW223598   5.425   4.942   2.170
 7567SOL     OW23599   0.563   1.272   4.059
 7567SOL    HW123600   0.563   1.174   4.080
 7567SOL    HW223601   0.485   1.316   4.102
 7568SOL     OW23602   5.708   5.158   2.132
 7568SOL    HW123603   5.747   5.080   2.084
 7568SOL    HW223604   5.734   5.243   2.086
 7569SOL     OW23605   3.708   5.133   6.638
 7569SOL    HW123606   3.656   5.218   6.640
 7569SOL    HW223607   3.722   5.105   6.543
 7570SOL     OW23608   6.929   3.028   3.156
 7570SOL    HW123609   6.878   3.066   3.079
 7570SOL    HW223610   7.019   3.071   3.161
 7571SOL     OW23611   5.655   3.357   2.963
 7571SOL    HW123612   5.743   3.362   2.916
 7571SOL    HW223613   5.620   3.263   2.956
 7572SOL     OW23614   4.686   6.491   2.779
 7572SOL    HW123615   4.662   6.582   2.812
 7572SOL    HW223616   4.653   6.480   2.685
 7573SOL     OW23617   6.218   0.268   5.417
 7573SOL    HW123618   6.146   0.315   5.366
 7573SOL    HW223619   6.304   0.275   5.366
 7574SOL     OW23620   6.109   0.977   4.165
 7574SOL    HW123621   6.079   0.883   4.144
 7574SOL    HW223622   6.142   1.021   4.082
 7575SOL     OW23623   6.404   6.683   1.023
 7575SOL    HW123624   6.499   6.654   1.009
 7575SOL    HW223625   6.347   6.645   0.951
 7576SOL     OW23626   5.436   2.972   1.002
 7576SOL    HW123627   5.528   2.949   0.969
 7576SOL    HW223628   5.424   3.071   0.998
 7577SOL     OW23629   0.368   0.142   0.285
 7577SOL    HW123630   0.461   0.105   0.296
 7577SOL    HW223631   0.362   0.229   0.333
 7578SOL     OW23632   0.549   5.140   3.218
 7578SOL    HW123633   0.455   5.144   3.250
 7578SOL    HW223634   0.550   5.112   3.122
 7579SOL     OW23635   6.444   2.015   1.515
 7579SOL    HW123636   6.351   2.052   1.509
 7579SOL    HW223637   6.445   1.921   1.482
 7580SOL     OW23638   1.913   4.204   3.095
 7580SOL    HW123639   1.971   4.196   3.176
 7580SOL    HW223640   1.908   4.115   3.049
 7581SOL     OW23641   0.845   1.581   1.282
 7581SOL    HW123642   0.881   1.507   1.226
 7581SOL    HW223643   0.913   1.653   1.290
 7582SOL     OW23644   4.328   1.625   4.107
 7582SOL    HW123645   4.353   1.695   4.041
 7582SOL    HW223646   4.228   1.621   4.116
 7583SOL     OW23647   5.356   3.265   3.623
 7583SOL    HW123648   5.295   3.276   3.702
 7583SOL    HW223649   5.360   3.351   3.572
 7584SOL     OW23650   1.274   0.599   2.732
 7584SOL    HW123651   1.288   0.575   2.636
 7584SOL    HW223652   1.298   0.521   2.790
 7585SOL     OW23653   1.158   2.439   6.554
 7585SOL    HW123654   1.204   2.363   6.509
 7585SOL    HW223655   1.212   2.522   6.544
 7586SOL     OW23656   1.471   1.004   2.236
 7586SOL    HW123657   1.374   1.024   2.250
 7586SOL    HW223658   1.526   1.072   2.284
 7587SOL     OW23659   3.238   0.914   0.638
 7587SOL    HW123660   3.226   0.830   0.585
 7587SOL    HW223661   3.243   0.892   0.735
 7588SOL     OW23662   0.836   2.939   4.636
 7588SOL    HW123663   0.845   2.977   4.728
 7588SOL    HW223664   0.900   2.985   4.575
 7589SOL     OW23665   0.625   0.862   2.896
 7589SOL    HW123666   0.657   0.882   2.804
 7589SOL    HW223667   0.618   0.947   2.948
 7590SOL     OW23668   0.466   1.661   0.079
 7590SOL    HW123669   0.503   1.574   0.047
 7590SOL    HW223670   0.406   1.645   0.158
 7591SOL     OW23671   4.353   2.790   6.887
 7591SOL    HW123672   4.299   2.733   6.826
 7591SOL    HW223673   4.437   2.818   6.841
 7592SOL     OW23674   6.030   4.659   4.565
 7592SOL    HW123675   5.989   4.570   4.548
 7592SOL    HW223676   6.026   4.680   4.662
 7593SOL     OW23677   6.989   1.692   5.413
 7593SOL    HW123678   6.907   1.727   5.367
 7593SOL    HW223679   6.975   1.697   5.512
 7594SOL     OW23680   0.068   4.316   0.825
 7594SOL    HW123681   0.100   4.316   0.920
 7594SOL    HW223682   0.081   4.225   0.786
 7595SOL     OW23683   6.248   2.905   5.906
 7595SOL    HW123684   6.228   2.868   5.998
 7595SOL    HW223685   6.168   2.890   5.847
 7596SOL     OW23686   3.042   0.099   5.324
 7596SOL    HW123687   3.105   0.040   5.273
 7596SOL    HW223688   2.965   0.045   5.357
 7597SOL     OW23689   2.187   6.112   2.664
 7597SOL    HW123690   2.098   6.092   2.704
 7597SOL    HW223691   2.198   6.211   2.655
 7598SOL     OW23692   5.984   0.566   2.628
 7598SOL    HW123693   5.979   0.513   2.543
 7598SOL    HW223694   6.012   0.660   2.608
 7599SOL     OW23695   4.168   3.279   0.812
 7599SOL    HW123696   4.189   3.376   0.821
 7599SOL    HW223697   4.070   3.264   0.827
 7600SOL     OW23698   1.514   1.257   3.520
 7600SOL    HW123699   1.475   1.241   3.429
 7600SOL    HW223700   1.471   1.337   3.561
 7601SOL     OW23701   3.875   5.250   1.807
 7601SOL    HW123702   3.822   5.306   1.871
 7601SOL    HW223703   3.916   5.173   1.855
 7602SOL     OW23704   0.437   2.393   0.378
 7602SOL    HW123705   0.453   2.357   0.286
 7602SOL    HW223706   0.384   2.327   0.430
 7603SOL     OW23707   2.508   0.141   5.961
 7603SOL    HW123708   2.511   0.049   6.001
 7603SOL    HW223709   2.582   0.150   5.893
 7604SOL     OW23710   1.405   2.273   5.107
 7604SOL    HW123711   1.399   2.373   5.101
 7604SOL    HW223712   1.468   2.239   5.037
 7605SOL     OW23713   1.827   0.582   6.646
 7605SOL    HW123714   1.814   0.648   6.572
 7605SOL    HW223715   1.745   0.525   6.655
 7606SOL     OW23716   6.201   1.759   4.280
 7606SOL    HW123717   6.153   1.834   4.236
 7606SOL    HW223718   6.279   1.794   4.331
 7607SOL     OW23719   2.986   6.629   0.202
 7607SOL    HW123720   2.912   6.678   0.248
 7607SOL    HW223721   3.073   6.675   0.220
 7608SOL     OW23722   5.420   2.290   6.209
 7608SOL    HW123723   5.351   2.357   6.237
 7608SOL    HW223724   5.511   2.331   6.218
 7609SOL     OW23725   0.329   3.008   3.892
 7609SOL    HW123726   0.418   3.052   3.888
 7609SOL    HW223727   0.332   2.934   3.959
 7610SOL     OW23728   3.413   5.657   6.536
 7610SOL    HW123729   3.434   5.559   6.539
 7610SOL    HW223730   3.331   5.675   6.591
 7611SOL     OW23731   4.739   2.847   1.044
 7611SOL    HW123732   4.723   2.763   0.992
 7611SOL    HW223733   4.669   2.857   1.115
 7612SOL     OW23734   3.400   2.135   3.163
 7612SOL    HW123735   3.463   2.058   3.156
 7612SOL    HW223736   3.447   2.214   3.204
 7613SOL     OW23737   1.632   1.883   2.182
 7613SOL    HW123738   1.711   1.944   2.176
 7613SOL    HW223739   1.661   1.789   2.162
 7614SOL     OW23740   4.653   3.158   0.464
 7614SOL    HW123741   4.652   3.067   0.505
 7614SOL    HW223742   4.718   3.216   0.513
 7615SOL     OW23743   5.530   3.476   5.291
 7615SOL    HW123744   5.446   3.446   5.247
 7615SOL    HW223745   5.594   3.399   5.298
 7616SOL     OW23746   5.716   6.422   3.243
 7616SOL    HW123747   5.627   6.458   3.217
 7616SOL    HW223748   5.788   6.478   3.201
 7617SOL     OW23749   4.990   4.973   2.838
 7617SOL    HW123750   5.085   4.972   2.806
 7617SOL    HW223751   4.984   4.930   2.928
 7618SOL     OW23752   2.358   2.136   0.267
 7618SOL    HW123753   2.266   2.171   0.246
 7618SOL    HW223754   2.375   2.052   0.215
 7619SOL     OW23755   0.523   2.108   4.528
 7619SOL    HW123756   0.592   2.181   4.533
 7619SOL    HW223757   0.527   2.064   4.439
 7620SOL     OW23758   3.543   4.389   0.915
 7620SOL    HW123759   3.530   4.326   0.838
 7620SOL    HW223760   3.455   4.411   0.956
 7621SOL     OW23761   0.126   5.574   0.840
 7621SOL    HW123762   0.212   5.554   0.793
 7621SOL    HW223763   0.055   5.594   0.773
 7622SOL     OW23764   4.250   4.325   0.276
 7622SOL    HW123765   4.250   4.401   0.340
 7622SOL    HW223766   4.232   4.359   0.183
 7623SOL     OW23767   4.089   4.644   1.469
 7623SOL    HW123768   4.118   4.589   1.391
 7623SOL    HW223769   4.025   4.714   1.438
 7624SOL     OW23770   0.137   2.172   2.104
 7624SOL    HW123771   0.079   2.246   2.139
 7624SOL    HW223772   0.230   2.183   2.139
 7625SOL     OW23773   5.098   1.833   0.284
 7625SOL    HW123774   5.044   1.918   0.288
 7625SOL    HW223775   5.164   1.832   0.359
 7626SOL     OW23776   6.287   0.793   5.562
 7626SOL    HW123777   6.331   0.787   5.472
 7626SOL    HW223778   6.329   0.727   5.624
 7627SOL     OW23779   3.675   2.198   0.161
 7627SOL    HW123780   3.673   2.146   0.247
 7627SOL    HW223781   3.768   2.200   0.125
 7628SOL     OW23782   3.447   2.402   0.899
 7628SOL    HW123783   3.373   2.458   0.860
 7628SOL    HW223784   3.419   2.368   0.988
 7629SOL     OW23785   5.621   3.107   3.397
 7629SOL    HW123786   5.630   3.183   3.332
 7629SOL    HW223787   5.695   3.111   3.464
 7630SOL     OW23788   1.182   0.403   5.089
 7630SOL    HW123789   1.128   0.391   5.006
 7630SOL    HW223790   1.247   0.477   5.077
 7631SOL     OW23791   2.112   6.818   4.655
 7631SOL    HW123792   2.155   6.820   4.745
 7631SOL    HW223793   2.152   6.745   4.600
 7632SOL     OW23794   4.613   5.587   1.422
 7632SOL    HW123795   4.578   5.586   1.328
 7632SOL    HW223796   4.548   5.542   1.482
 7633SOL     OW23797   5.505   0.256   1.150
 7633SOL    HW123798   5.411   0.227   1.135
 7633SOL    HW223799   5.506   0.354   1.173
 7634SOL     OW23800   1.621   2.009   0.713
 7634SOL    HW123801   1.658   2.072   0.644
 7634SOL    HW223802   1.539   2.049   0.754
 7635SOL     OW23803   2.729   5.047   4.661
 7635SOL    HW123804   2.718   5.116   4.589
 7635SOL    HW223805   2.737   4.957   4.620
 7636SOL     OW23806   0.795   4.701   4.356
 7636SOL    HW123807   0.730   4.711   4.431
 7636SOL    HW223808   0.819   4.791   4.320
 7637SOL     OW23809   0.301   6.328   4.127
 7637SOL    HW123810   0.394   6.347   4.098
 7637SOL    HW223811   0.240   6.330   4.048
 7638SOL     OW23812   0.869   5.508   1.931
 7638SOL    HW123813   0.863   5.600   1.893
 7638SOL    HW223814   0.873   5.514   2.031
 7639SOL     OW23815   0.635   1.407   0.304
 7639SOL    HW123816   0.644   1.308   0.300
 7639SOL    HW223817   0.539   1.432   0.294
 7640SOL     OW23818   3.080   0.968   6.865
 7640SOL    HW123819   2.983   0.982   6.848
 7640SOL    HW223820   3.098   0.969   6.963
 7641SOL     OW23821   6.321   3.830   2.891
 7641SOL    HW123822   6.316   3.753   2.827
 7641SOL    HW223823   6.404   3.882   2.876
 7642SOL     OW23824   5.616   1.445   3.281
 7642SOL    HW123825   5.611   1.368   3.217
 7642SOL    HW223826   5.594   1.529   3.233
 7643SOL     OW23827   5.177   2.332   3.006
 7643SOL    HW123828   5.224   2.244   3.017
 7643SOL    HW223829   5.176   2.357   2.909
 7644SOL     OW23830   4.991   3.205   1.995
 7644SOL    HW123831   4.951   3.281   2.046
 7644SOL    HW223832   4.922   3.134   1.981
 7645SOL     OW23833   3.120   4.063   6.214
 7645SOL    HW123834   3.065   4.016   6.283
 7645SOL    HW223835   3.172   3.996   6.162
 7646SOL     OW23836   1.410   2.828   2.779
 7646SOL    HW123837   1.467   2.904   2.811
 7646SOL    HW223838   1.463   2.769   2.720
 7647SOL     OW23839   6.891   3.037   4.692
 7647SOL    HW123840   6.916   3.119   4.744
 7647SOL    HW223841   6.891   2.957   4.753
 7648SOL     OW23842   2.091   2.135   3.081
 7648SOL    HW123843   2.004   2.162   3.040
 7648SOL    HW223844   2.114   2.198   3.155
 7649SOL     OW23845   6.760   1.310   4.455
 7649SOL    HW123846   6.819   1.272   4.526
 7649SOL    HW223847   6.680   1.353   4.497
 7650SOL     OW23848   4.403   1.160   1.166
 7650SOL    HW123849   4.323   1.126   1.117
 7650SOL    HW223850   4.405   1.259   1.164
 7651SOL     OW23851   2.483   4.986   4.442
 7651SOL    HW123852   2.576   5.009   4.471
 7651SOL    HW223853   2.461   4.893   4.471
 7652SOL     OW23854   6.023   1.961   4.679
 7652SOL    HW123855   5.925   1.964   4.658
 7652SOL    HW223856   6.044   1.881   4.735
 7653SOL     OW23857   0.773   1.686   6.397
 7653SOL    HW123858   0.864   1.719   6.420
 7653SOL    HW223859   0.760   1.594   6.433
 7654SOL     OW23860   6.064   3.452   5.204
 7654SOL    HW123861   5.990   3.507   5.165
 7654SOL    HW223862   6.076   3.477   5.300
 7655SOL     OW23863   3.039   0.841   3.766
 7655SOL    HW123864   2.952   0.836   3.718
 7655SOL    HW223865   3.104   0.778   3.724
 7656SOL     OW23866   6.770   4.199   6.079
 7656SOL    HW123867   6.755   4.263   6.004
 7656SOL    HW223868   6.822   4.120   6.045
 7657SOL     OW23869   1.301   4.105   4.770
 7657SOL    HW123870   1.367   4.043   4.729
 7657SOL    HW223871   1.244   4.055   4.835
 7658SOL     OW23872   2.654   0.693   0.388
 7658SOL    HW123873   2.556   0.687   0.409
 7658SOL    HW223874   2.678   0.788   0.366
 7659SOL     OW23875   4.602   4.147   5.275
 7659SOL    HW123876   4.644   4.172   5.362
 7659SOL    HW223877   4.672   4.110   5.214
 7660SOL     OW23878   6.826   5.104   4.453
 7660SOL    HW123879   6.761   5.058   4.514
 7660SOL    HW223880   6.838   5.050   4.370
 7661SOL     OW23881   4.863   1.921   6.181
 7661SOL    HW123882   4.954   1.898   6.145
 7661SOL    HW223883   4.810   1.838   6.195
 7662SOL     OW23884   1.401   1.876   2.005
 7662SOL    HW123885   1.476   1.873   2.071
 7662SOL    HW223886   1.438   1.875   1.912
 7663SOL     OW23887   5.664   5.516   5.431
 7663SOL    HW123888   5.610   5.451   5.378
 7663SOL    HW223889   5.625   5.524   5.523
 7664SOL     OW23890   4.393   1.200   2.996
 7664SOL    HW123891   4.298   1.214   2.969
 7664SOL    HW223892   4.396   1.165   3.090
 7665SOL     OW23893   4.707   2.354   3.582
 7665SOL    HW123894   4.746   2.285   3.522
 7665SOL    HW223895   4.707   2.320   3.676
 7666SOL     OW23896   5.790   5.668   3.949
 7666SOL    HW123897   5.784   5.619   3.863
 7666SOL    HW223898   5.866   5.733   3.945
 7667SOL     OW23899   4.918   6.351   2.723
 7667SOL    HW123900   4.838   6.406   2.751
 7667SOL    HW223901   4.896   6.254   2.731
 7668SOL     OW23902   2.431   4.859   0.991
 7668SOL    HW123903   2.525   4.882   0.965
 7668SOL    HW223904   2.414   4.891   1.084
 7669SOL     OW23905   3.525   6.961   6.409
 7669SOL    HW123906   3.597   6.893   6.418
 7669SOL    HW223907   3.500   6.970   6.312
 7670SOL     OW23908   0.616   6.367   0.361
 7670SOL    HW123909   0.641   6.428   0.287
 7670SOL    HW223910   0.670   6.390   0.443
 7671SOL     OW23911   5.371   0.070   2.064
 7671SOL    HW123912   5.466   0.089   2.041
 7671SOL    HW223913   5.354   6.996   2.055
 7672SOL     OW23914   5.883   4.586   2.967
 7672SOL    HW123915   5.882   4.660   3.034
 7672SOL    HW223916   5.959   4.600   2.903
 7673SOL     OW23917   1.350   5.966   3.454
 7673SOL    HW123918   1.415   5.909   3.504
 7673SOL    HW223919   1.392   5.997   3.368
 7674SOL     OW23920   3.918   0.610   4.362
 7674SOL    HW123921   4.007   0.609   4.407
 7674SOL    HW223922   3.851   0.656   4.420
 7675SOL     OW23923   3.650   6.735   3.591
 7675SOL    HW123924   3.605   6.675   3.657
 7675SOL    HW223925   3.693   6.812   3.640
 7676SOL     OW23926   3.148   2.999   5.940
 7676SOL    HW123927   3.201   3.079   5.968
 7676SOL    HW223928   3.179   2.918   5.990
 7677SOL     OW23929   6.488   4.773   1.386
 7677SOL    HW123930   6.447   4.806   1.471
 7677SOL    HW223931   6.523   4.680   1.399
 7678SOL     OW23932   1.658   2.243   5.477
 7678SOL    HW123933   1.567   2.270   5.508
 7678SOL    HW223934   1.649   2.165   5.414
 7679SOL     OW23935   2.322   5.103   5.259
 7679SOL    HW123936   2.402   5.108   5.320
 7679SOL    HW223937   2.306   5.008   5.232
 7680SOL     OW23938   1.335   0.627   5.127
 7680SOL    HW123939   1.419   0.574   5.115
 7680SOL    HW223940   1.340   0.678   5.213
 7681SOL     OW23941   3.054   2.518   6.120
 7681SOL    HW123942   3.130   2.512   6.055
 7681SOL    HW223943   3.044   2.612   6.152
 7682SOL     OW23944   2.947   1.737   3.044
 7682SOL    HW123945   2.927   1.759   2.949
 7682SOL    HW223946   2.992   1.815   3.088
 7683SOL     OW23947   6.991   0.964   4.700
 7683SOL    HW123948   6.899   0.924   4.702
 7683SOL    HW223949   6.983   1.064   4.693
 7684SOL     OW23950   4.297   2.484   1.701
 7684SOL    HW123951   4.237   2.407   1.720
 7684SOL    HW223952   4.247   2.569   1.716
 7685SOL     OW23953   3.560   0.994   0.244
 7685SOL    HW123954   3.473   1.010   0.199
 7685SOL    HW223955   3.634   1.002   0.177
 7686SOL     OW23956   4.183   0.648   4.427
 7686SOL    HW123957   4.173   0.649   4.527
 7686SOL    HW223958   4.253   0.583   4.400
 7687SOL     OW23959   5.588   5.537   4.648
 7687SOL    HW123960   5.595   5.492   4.559
 7687SOL    HW223961   5.638   5.624   4.646
 7688SOL     OW23962   0.382   5.272   6.412
 7688SOL    HW123963   0.417   5.194   6.359
 7688SOL    HW223964   0.316   5.239   6.480
 7689SOL     OW23965   4.587   0.579   1.733
 7689SOL    HW123966   4.560   0.589   1.637
 7689SOL    HW223967   4.590   0.670   1.775
 7690SOL     OW23968   5.925   5.216   0.224
 7690SOL    HW123969   5.840   5.166   0.206
 7690SOL    HW223970   5.950   5.269   0.144
 7691SOL     OW23971   4.459   4.714   3.136
 7691SOL    HW123972   4.449   4.707   3.235
 7691SOL    HW223973   4.535   4.657   3.106
 7692SOL     OW23974   1.164   6.644   2.115
 7692SOL    HW123975   1.128   6.606   2.201
 7692SOL    HW223976   1.261   6.668   2.128
 7693SOL     OW23977   2.785   0.734   0.712
 7693SOL    HW123978   2.822   0.787   0.635
 7693SOL    HW223979   2.833   0.760   0.796
 7694SOL     OW23980   5.635   2.640   4.664
 7694SOL    HW123981   5.579   2.580   4.607
 7694SOL    HW223982   5.698   2.585   4.719
 7695SOL     OW23983   6.443   0.049   3.041
 7695SOL    HW123984   6.420   0.145   3.054
 7695SOL    HW223985   6.376   7.015   3.087
 7696SOL     OW23986   0.458   2.103   6.258
 7696SOL    HW123987   0.427   2.099   6.354
 7696SOL    HW223988   0.557   2.088   6.255
 7697SOL     OW23989   3.743   6.871   2.801
 7697SOL    HW123990   3.707   6.808   2.869
 7697SOL    HW223991   3.676   6.943   2.783
 7698SOL     OW23992   6.318   2.314   6.667
 7698SOL    HW123993   6.363   2.356   6.589
 7698SOL    HW223994   6.222   2.342   6.670
 7699SOL     OW23995   2.761   5.686   0.522
 7699SOL    HW123996   2.784   5.640   0.436
 7699SOL    HW223997   2.829   5.662   0.591
 7700SOL     OW23998   4.699   5.777   2.691
 7700SOL    HW123999   4.619   5.757   2.748
 7700SOL    HW224000   4.778   5.797   2.749
 7701SOL     OW24001   0.281   2.615   5.870
 7701SOL    HW124002   0.361   2.665   5.838
 7701SOL    HW224003   0.205   2.679   5.884
 7702SOL     OW24004   4.781   6.960   5.865
 7702SOL    HW124005   4.768   0.013   5.802
 7702SOL    HW224006   4.746   6.877   5.823
 7703SOL     OW24007   6.481   0.286   4.546
 7703SOL    HW124008   6.416   0.216   4.516
 7703SOL    HW224009   6.436   0.376   4.543
 7704SOL     OW24010   6.328   1.725   3.879
 7704SOL    HW124011   6.307   1.713   3.782
 7704SOL    HW224012   6.251   1.693   3.934
 7705SOL     OW24013   2.469   4.913   0.660
 7705SOL    HW124014   2.501   4.818   0.655
 7705SOL    HW224015   2.544   4.973   0.688
 7706SOL     OW24016   3.828   2.976   2.783
 7706SOL    HW124017   3.895   3.000   2.713
 7706SOL    HW224018   3.874   2.959   2.870
 7707SOL     OW24019   6.640   5.944   0.209
 7707SOL    HW124020   6.609   6.002   0.134
 7707SOL    HW224021   6.688   5.865   0.173
 7708SOL     OW24022   2.226   6.901   4.039
 7708SOL    HW124023   2.200   6.870   4.130
 7708SOL    HW224024   2.324   6.888   4.026
 7709SOL     OW24025   6.604   4.887   0.729
 7709SOL    HW124026   6.665   4.813   0.699
 7709SOL    HW224027   6.545   4.914   0.654
 7710SOL     OW24028   1.753   3.065   0.661
 7710SOL    HW124029   1.808   3.018   0.593
 7710SOL    HW224030   1.793   3.053   0.752
 7711SOL     OW24031   6.608   4.583   5.432
 7711SOL    HW124032   6.540   4.625   5.373
 7711SOL    HW224033   6.687   4.644   5.442
 7712SOL     OW24034   6.816   4.591   5.962
 7712SOL    HW124035   6.848   4.544   6.045
 7712SOL    HW224036   6.834   4.689   5.970
 7713SOL     OW24037   1.596   4.708   0.697
 7713SOL    HW124038   1.517   4.686   0.639
 7713SOL    HW224039   1.629   4.800   0.674
 7714SOL     OW24040   6.516   0.532   4.301
 7714SOL    HW124041   6.463   0.448   4.289
 7714SOL    HW224042   6.612   0.508   4.316
 7715SOL     OW24043   1.663   2.710   6.667
 7715SOL    HW124044   1.751   2.675   6.699
 7715SOL    HW224045   1.651   2.805   6.698
 7716SOL     OW24046   0.827   5.825   6.727
 7716SOL    HW124047   0.843   5.794   6.821
 7716SOL    HW224048   0.912   5.823   6.675
 7717SOL     OW24049   1.236   2.196   6.421
 7717SOL    HW124050   1.247   2.128   6.493
 7717SOL    HW224051   1.211   2.150   6.335
 7718SOL     OW24052   1.450   4.333   2.507
 7718SOL    HW124053   1.419   4.421   2.543
 7718SOL    HW224054   1.431   4.330   2.408
 7719SOL     OW24055   1.494   4.296   4.876
 7719SOL    HW124056   1.541   4.226   4.822
 7719SOL    HW224057   1.424   4.253   4.933
 7720SOL     OW24058   6.006   1.924   6.431
 7720SOL    HW124059   6.021   1.828   6.456
 7720SOL    HW224060   5.954   1.969   6.503
 7721SOL     OW24061   1.649   0.427   2.610
 7721SOL    HW124062   1.689   0.464   2.693
 7721SOL    HW224063   1.636   0.500   2.543
 7722SOL     OW24064   2.295   4.987   4.155
 7722SOL    HW124065   2.347   5.029   4.230
 7722SOL    HW224066   2.303   5.044   4.073
 7723SOL     OW24067   4.791   2.756   6.738
 7723SOL    HW124068   4.811   2.698   6.660
 7723SOL    HW224069   4.783   2.700   6.821
 7724SOL     OW24070   3.072   4.042   1.343
 7724SOL    HW124071   2.989   4.049   1.398
 7724SOL    HW224072   3.067   3.960   1.286
 7725SOL     OW24073   5.752   2.345   2.460
 7725SOL    HW124074   5.810   2.425   2.441
 7725SOL    HW224075   5.747   2.331   2.559
 7726SOL     OW24076   0.495   3.075   5.588
 7726SOL    HW124077   0.530   3.136   5.659
 7726SOL    HW224078   0.544   3.093   5.502
 7727SOL     OW24079   5.135   2.608   2.312
 7727SOL    HW124080   5.175   2.524   2.276
 7727SOL    HW224081   5.037   2.594   2.328
 7728SOL     OW24082   2.384   3.024   5.428
 7728SOL    HW124083   2.430   3.051   5.344
 7728SOL    HW224084   2.304   2.968   5.406
 7729SOL     OW24085   5.723   1.771   2.648
 7729SOL    HW124086   5.652   1.699   2.647
 7729SOL    HW224087   5.812   1.729   2.665
 7730SOL     OW24088   5.783   4.542   5.557
 7730SOL    HW124089   5.684   4.542   5.569
 7730SOL    HW224090   5.827   4.569   5.642
 7731SOL     OW24091   6.043   0.438   0.698
 7731SOL    HW124092   6.085   0.516   0.652
 7731SOL    HW224093   6.070   0.436   0.794
 7732SOL     OW24094   4.616   0.494   6.753
 7732SOL    HW124095   4.599   0.461   6.660
 7732SOL    HW224096   4.705   0.539   6.758
 7733SOL     OW24097   6.540   5.791   2.514
 7733SOL    HW124098   6.507   5.714   2.459
 7733SOL    HW224099   6.563   5.759   2.606
 7734SOL     OW24100   2.207   4.789   5.513
 7734SOL    HW124101   2.166   4.877   5.536
 7734SOL    HW224102   2.291   4.804   5.460
 7735SOL     OW24103   6.338   6.323   0.261
 7735SOL    HW124104   6.388   6.243   0.297
 7735SOL    HW224105   6.274   6.293   0.190
 7736SOL     OW24106   2.636   3.265   0.954
 7736SOL    HW124107   2.638   3.309   0.864
 7736SOL    HW224108   2.728   3.261   0.991
 7737SOL     OW24109   4.125   5.360   1.430
 7737SOL    HW124110   4.072   5.418   1.491
 7737SOL    HW224111   4.151   5.412   1.349
 7738SOL     OW24112   2.633   6.108   0.106
 7738SOL    HW124113   2.635   6.064   0.016
 7738SOL    HW224114   2.711   6.076   0.161
 7739SOL     OW24115   1.665   3.172   2.129
 7739SOL    HW124116   1.700   3.079   2.134
 7739SOL    HW224117   1.630   3.190   2.037
 7740SOL     OW24118   1.380   0.887   3.482
 7740SOL    HW124119   1.319   0.813   3.510
 7740SOL    HW224120   1.447   0.904   3.554
 7741SOL     OW24121   1.999   4.655   6.099
 7741SOL    HW124122   2.025   4.622   6.008
 7741SOL    HW224123   1.932   4.728   6.090
 7742SOL     OW24124   3.842   1.785   4.072
 7742SOL    HW124125   3.848   1.824   4.164
 7742SOL    HW224126   3.758   1.815   4.028
 7743SOL     OW24127   5.141   1.065   6.564
 7743SOL    HW124128   5.182   1.151   6.595
 7743SOL    HW224129   5.043   1.077   6.554
 7744SOL     OW24130   0.736   6.032   5.182
 7744SOL    HW124131   0.741   6.126   5.216
 7744SOL    HW224132   0.828   5.991   5.186
 7745SOL     OW24133   1.907   6.156   6.998
 7745SOL    HW124134   1.945   6.218   0.042
 7745SOL    HW224135   1.955   6.068   7.002
 7746SOL     OW24136   1.023   6.289   1.134
 7746SOL    HW124137   1.115   6.321   1.111
 7746SOL    HW224138   0.999   6.212   1.074
 7747SOL     OW24139   0.041   6.458   0.969
 7747SOL    HW124140   0.136   6.487   0.957
 7747SOL    HW224141   7.010   6.493   0.894
 7748SOL     OW24142   3.833   2.916   5.866
 7748SOL    HW124143   3.751   2.899   5.812
 7748SOL    HW224144   3.901   2.845   5.847
 7749SOL     OW24145   3.719   3.615   3.539
 7749SOL    HW124146   3.809   3.573   3.552
 7749SOL    HW224147   3.713   3.700   3.591
 7750SOL     OW24148   5.699   5.091   6.205
 7750SOL    HW124149   5.669   5.148   6.128
 7750SOL    HW224150   5.685   5.141   6.291
 7751SOL     OW24151   6.820   1.554   3.882
 7751SOL    HW124152   6.876   1.589   3.807
 7751SOL    HW224153   6.781   1.630   3.933
 7752SOL     OW24154   5.898   5.301   5.354
 7752SOL    HW124155   5.919   5.399   5.350
 7752SOL    HW224156   5.808   5.285   5.313
 7753SOL     OW24157   2.657   0.040   4.499
 7753SOL    HW124158   2.641   6.965   4.506
 7753SOL    HW224159   2.748   0.056   4.461
 7754SOL     OW24160   5.829   0.605   0.900
 7754SOL    HW124161   5.752   0.546   0.922
 7754SOL    HW224162   5.828   0.628   0.803
 7755SOL     OW24163   0.398   6.258   5.766
 7755SOL    HW124164   0.452   6.329   5.719
 7755SOL    HW224165   0.456   6.213   5.834
 7756SOL     OW24166   2.987   5.257   2.429
 7756SOL    HW124167   3.055   5.196   2.388
 7756SOL    HW224168   2.900   5.244   2.382
 7757SOL     OW24169   4.964   6.181   5.435
 7757SOL    HW124170   4.879   6.157   5.481
 7757SOL    HW224171   4.973   6.281   5.432
 7758SOL     OW24172   2.370   2.834   6.434
 7758SOL    HW124173   2.285   2.825   6.381
 7758SOL    HW224174   2.440   2.877   6.377
 7759SOL     OW24175   2.158   0.490   4.465
 7759SOL    HW124176   2.156   0.588   4.442
 7759SOL    HW224177   2.245   0.468   4.508
 7760SOL     OW24178   5.269   3.260   1.810
 7760SOL    HW124179   5.219   3.173   1.815
 7760SOL    HW224180   5.356   3.246   1.764
 7761SOL     OW24181   3.169   6.668   6.095
 7761SOL    HW124182   3.145   6.714   6.181
 7761SOL    HW224183   3.229   6.590   6.115
 7762SOL     OW24184   4.174   1.082   0.016
 7762SOL    HW124185   4.205   1.018   6.970
 7762SOL    HW224186   4.079   1.108   7.023
 7763SOL     OW24187   1.349   2.124   0.827
 7763SOL    HW124188   1.383   2.085   0.912
 7763SOL    HW224189   1.256   2.159   0.840
 7764SOL     OW24190   3.872   3.359   2.461
 7764SOL    HW124191   3.920   3.444   2.442
 7764SOL    HW224192   3.778   3.379   2.490
 7765SOL     OW24193   6.375   3.333   3.658
 7765SOL    HW124194   6.378   3.426   3.622
 7765SOL    HW224195   6.350   3.270   3.585
 7766SOL     OW24196   5.760   1.775   0.210
 7766SOL    HW124197   5.732   1.721   0.290
 7766SOL    HW224198   5.852   1.747   0.182
 7767SOL     OW24199   3.908   6.263   3.660
 7767SOL    HW124200   3.873   6.216   3.578
 7767SOL    HW224201   3.848   6.243   3.737
 7768SOL     OW24202   3.478   5.058   2.503
 7768SOL    HW124203   3.432   4.996   2.566
 7768SOL    HW224204   3.457   5.152   2.528
 7769SOL     OW24205   4.794   2.043   1.223
 7769SOL    HW124206   4.771   2.073   1.131
 7769SOL    HW224207   4.749   1.956   1.243
 7770SOL     OW24208   2.706   4.829   1.912
 7770SOL    HW124209   2.758   4.744   1.921
 7770SOL    HW224210   2.742   4.897   1.976
 7771SOL     OW24211   2.713   2.202   4.519
 7771SOL    HW124212   2.812   2.214   4.513
 7771SOL    HW224213   2.667   2.285   4.487
 7772SOL     OW24214   5.303   1.331   3.754
 7772SOL    HW124215   5.364   1.401   3.718
 7772SOL    HW224216   5.286   1.261   3.683
 7773SOL     OW24217   3.940   4.347   6.125
 7773SOL    HW124218   3.912   4.281   6.195
 7773SOL    HW224219   3.975   4.298   6.045
 7774SOL     OW24220   5.399   1.189   5.762
 7774SOL    HW124221   5.392   1.266   5.698
 7774SOL    HW224222   5.314   1.182   5.814
 7775SOL     OW24223   3.674   6.805   3.301
 7775SOL    HW124224   3.764   6.790   3.261
 7775SOL    HW224225   3.676   6.785   3.399
 7776SOL     OW24226   3.531   3.529   6.136
 7776SOL    HW124227   3.608   3.522   6.200
 7776SOL    HW224228   3.445   3.532   6.187
 7777SOL     OW24229   1.979   1.574   5.696
 7777SOL    HW124230   1.944   1.519   5.620
 7777SOL    HW224231   2.078   1.558   5.705
 7778SOL     OW24232   5.719   0.617   0.391
 7778SOL    HW124233   5.705   0.701   0.339
 7778SOL    HW224234   5.733   0.541   0.328
 7779SOL     OW24235   3.215   2.585   0.827
 7779SOL    HW124236   3.219   2.669   0.772
 7779SOL    HW224237   3.122   2.549   0.825
 7780SOL     OW24238   0.878   6.339   4.480
 7780SOL    HW124239   0.872   6.372   4.386
 7780SOL    HW224240   0.788   6.308   4.510
 7781SOL     OW24241   1.449   3.911   5.842
 7781SOL    HW124242   1.415   3.818   5.848
 7781SOL    HW224243   1.376   3.975   5.866
 7782SOL     OW24244   1.923   3.911   6.067
 7782SOL    HW124245   1.969   3.963   5.996
 7782SOL    HW224246   1.850   3.856   6.026
 7783SOL     OW24247   2.479   6.728   6.461
 7783SOL    HW124248   2.513   6.787   6.534
 7783SOL    HW224249   2.395   6.684   6.490
 7784SOL     OW24250   1.217   3.204   6.919
 7784SOL    HW124251   1.226   3.296   6.955
 7784SOL    HW224252   1.161   3.149   6.980
 7785SOL     OW24253   2.380   6.627   3.798
 7785SOL    HW124254   2.399   6.688   3.722
 7785SOL    HW224255   2.464   6.610   3.850
 7786SOL     OW24256   3.133   4.644   5.296
 7786SOL    HW124257   3.121   4.655   5.395
 7786SOL    HW224258   3.052   4.601   5.257
 7787SOL     OW24259   2.184   2.843   5.107
 7787SOL    HW124260   2.256   2.908   5.085
 7787SOL    HW224261   2.163   2.787   5.027
 7788SOL     OW24262   1.643   1.782   1.695
 7788SOL    HW124263   1.693   1.700   1.721
 7788SOL    HW224264   1.605   1.771   1.603
 7789SOL     OW24265   2.352   7.012   1.153
 7789SOL    HW124266   2.391   6.971   1.071
 7789SOL    HW224267   2.402   6.979   1.233
 7790SOL     OW24268   6.522   4.142   3.456
 7790SOL    HW124269   6.609   4.099   3.429
 7790SOL    HW224270   6.449   4.107   3.397
 7791SOL     OW24271   2.670   5.975   4.375
 7791SOL    HW124272   2.766   5.949   4.372
 7791SOL    HW224273   2.655   6.041   4.449
 7792SOL     OW24274   1.552   5.333   6.123
 7792SOL    HW124275   1.641   5.287   6.121
 7792SOL    HW224276   1.496   5.294   6.196
 7793SOL     OW24277   1.610   1.144   5.284
 7793SOL    HW124278   1.552   1.147   5.203
 7793SOL    HW224279   1.678   1.218   5.279
 7794SOL     OW24280   5.268   4.515   4.635
 7794SOL    HW124281   5.321   4.582   4.582
 7794SOL    HW224282   5.329   4.466   4.697
 7795SOL     OW24283   2.001   4.371   5.433
 7795SOL    HW124284   1.985   4.273   5.445
 7795SOL    HW224285   2.096   4.386   5.406
 7796SOL     OW24286   3.992   3.820   3.505
 7796SOL    HW124287   4.022   3.727   3.527
 7796SOL    HW224288   4.013   3.881   3.581
 7797SOL     OW24289   0.754   5.977   3.553
 7797SOL    HW124290   0.669   6.028   3.540
 7797SOL    HW224291   0.803   5.970   3.466
 7798SOL     OW24292   2.626   5.425   0.453
 7798SOL    HW124293   2.656   5.446   0.360
 7798SOL    HW224294   2.585   5.507   0.493
 7799SOL     OW24295   6.869   5.893   1.806
 7799SOL    HW124296   6.966   5.891   1.781
 7799SOL    HW224297   6.818   5.832   1.745
 7800SOL     OW24298   0.701   4.639   1.444
 7800SOL    HW124299   0.667   4.682   1.528
 7800SOL    HW224300   0.656   4.680   1.365
 7801SOL     OW24301   2.434   1.099   0.682
 7801SOL    HW124302   2.510   1.141   0.632
 7801SOL    HW224303   2.398   1.164   0.749
 7802SOL     OW24304   6.019   2.895   1.582
 7802SOL    HW124305   5.929   2.911   1.541
 7802SOL    HW224306   6.075   2.840   1.520
 7803SOL     OW24307   4.470   3.223   5.632
 7803SOL    HW124308   4.403   3.149   5.627
 7803SOL    HW224309   4.486   3.247   5.728
 7804SOL     OW24310   6.124   1.210   4.333
 7804SOL    HW124311   6.068   1.264   4.270
 7804SOL    HW224312   6.160   1.130   4.284
 7805SOL     OW24313   5.475   1.959   1.503
 7805SOL    HW124314   5.406   1.993   1.568
 7805SOL    HW224315   5.479   2.021   1.424
 7806SOL     OW24316   5.624   2.802   5.690
 7806SOL    HW124317   5.655   2.735   5.758
 7806SOL    HW224318   5.532   2.833   5.713
 7807SOL     OW24319   0.242   4.796   6.091
 7807SOL    HW124320   0.180   4.719   6.074
 7807SOL    HW224321   0.282   4.827   6.005
 7808SOL     OW24322   0.919   1.491   5.118
 7808SOL    HW124323   0.888   1.483   5.023
 7808SOL    HW224324   0.998   1.552   5.122
 7809SOL     OW24325   2.390   5.387   4.618
 7809SOL    HW124326   2.356   5.306   4.569
 7809SOL    HW224327   2.465   5.427   4.565
 7810SOL     OW24328   2.893   0.904   5.697
 7810SOL    HW124329   2.955   0.946   5.630
 7810SOL    HW224330   2.805   0.885   5.653
 7811SOL     OW24331   6.282   4.640   4.161
 7811SOL    HW124332   6.222   4.708   4.118
 7811SOL    HW224333   6.334   4.592   4.090
 7812SOL     OW24334   1.336   1.832   4.059
 7812SOL    HW124335   1.242   1.853   4.084
 7812SOL    HW224336   1.359   1.877   3.972
 7813SOL     OW24337   5.070   2.907   6.305
 7813SOL    HW124338   5.000   2.951   6.249
 7813SOL    HW224339   5.059   2.936   6.400
 7814SOL     OW24340   0.182   2.399   3.320
 7814SOL    HW124341   0.103   2.413   3.260
 7814SOL    HW224342   0.258   2.457   3.289
 7815SOL     OW24343   5.301   1.588   6.723
 7815SOL    HW124344   5.225   1.642   6.687
 7815SOL    HW224345   5.282   1.560   6.817
 7816SOL     OW24346   0.960   3.412   5.917
 7816SOL    HW124347   0.879   3.374   5.961
 7816SOL    HW224348   0.963   3.383   5.821
 7817SOL     OW24349   6.047   3.574   4.242
 7817SOL    HW124350   6.009   3.518   4.168
 7817SOL    HW224351   6.146   3.574   4.236
 7818SOL     OW24352   5.954   0.334   1.796
 7818SOL    HW124353   5.905   0.420   1.785
 7818SOL    HW224354   5.961   0.289   1.707
 7819SOL     OW24355   0.291   3.264   1.507
 7819SOL    HW124356   0.366   3.328   1.520
 7819SOL    HW224357   0.282   3.243   1.409
 7820SOL     OW24358   1.937   2.368   5.192
 7820SOL    HW124359   1.939   2.468   5.192
 7820SOL    HW224360   1.986   2.332   5.113
 7821SOL     OW24361   4.297   5.957   1.255
 7821SOL    HW124362   4.308   5.950   1.156
 7821SOL    HW224363   4.384   5.987   1.296
 7822SOL     OW24364   0.701   6.853   5.625
 7822SOL    HW124365   0.704   6.925   5.555
 7822SOL    HW224366   0.682   6.894   5.714
 7823SOL     OW24367   2.361   4.302   4.359
 7823SOL    HW124368   2.426   4.332   4.289
 7823SOL    HW224369   2.374   4.357   4.442
 7824SOL     OW24370   0.008   2.635   5.319
 7824SOL    HW124371   6.951   2.668   5.269
 7824SOL    HW224372   0.075   2.709   5.325
 7825SOL     OW24373   2.379   3.184   6.666
 7825SOL    HW124374   2.461   3.240   6.662
 7825SOL    HW224375   2.346   3.167   6.573
 7826SOL     OW24376   0.293   2.012   0.021
 7826SOL    HW124377   0.375   1.995   6.991
 7826SOL    HW224378   0.319   2.040   0.114
 7827SOL     OW24379   0.487   5.451   2.949
 7827SOL    HW124380   0.460   5.360   2.983
 7827SOL    HW224381   0.414   5.516   2.968
 7828SOL     OW24382   6.799   3.972   6.614
 7828SOL    HW124383   6.856   4.026   6.553
 7828SOL    HW224384   6.703   3.979   6.585
 7829SOL     OW24385   3.258   3.099   1.414
 7829SOL    HW124386   3.169   3.086   1.458
 7829SOL    HW224387   3.327   3.044   1.462
 7830SOL     OW24388   3.566   5.489   5.383
 7830SOL    HW124389   3.607   5.471   5.472
 7830SOL    HW224390   3.469   5.463   5.384
 7831SOL     OW24391   1.804   1.421   1.196
 7831SOL    HW124392   1.750   1.478   1.134
 7831SOL    HW224393   1.872   1.478   1.242
 7832SOL     OW24394   5.059   0.609   4.620
 7832SOL    HW124395   5.063   0.601   4.520
 7832SOL    HW224396   5.141   0.655   4.653
 7833SOL     OW24397   1.388   0.253   4.031
 7833SOL    HW124398   1.340   0.179   3.984
 7833SOL    HW224399   1.421   0.220   4.120
 7834SOL     OW24400   6.649   1.763   4.144
 7834SOL    HW124401   6.577   1.831   4.131
 7834SOL    HW224402   6.667   1.753   4.242
 7835SOL     OW24403   4.132   1.714   5.326
 7835SOL    HW124404   4.149   1.754   5.417
 7835SOL    HW224405   4.124   1.615   5.335
 7836SOL     OW24406   4.127   4.078   5.236
 7836SOL    HW124407   4.206   4.080   5.297
 7836SOL    HW224408   4.064   4.151   5.260
 7837SOL     OW24409   5.725   6.369   0.473
 7837SOL    HW124410   5.715   6.462   0.436
 7837SOL    HW224411   5.725   6.373   0.573
 7838SOL     OW24412   5.289   5.062   1.366
 7838SOL    HW124413   5.304   5.123   1.288
 7838SOL    HW224414   5.376   5.024   1.395
 7839SOL     OW24415   6.118   4.330   4.903
 7839SOL    HW124416   6.069   4.276   4.834
 7839SOL    HW224417   6.200   4.369   4.862
 7840SOL     OW24418   1.103   3.878   3.939
 7840SOL    HW124419   1.106   3.976   3.918
 7840SOL    HW224420   1.187   3.835   3.907
 7841SOL     OW24421   5.234   1.548   6.373
 7841SOL    HW124422   5.172   1.609   6.423
 7841SOL    HW224423   5.261   1.473   6.433
 7842SOL     OW24424   2.312   2.033   2.444
 7842SOL    HW124425   2.223   2.056   2.484
 7842SOL    HW224426   2.317   1.934   2.429
 7843SOL     OW24427   6.801   6.625   4.143
 7843SOL    HW124428   6.891   6.666   4.157
 7843SOL    HW224429   6.805   6.561   4.067
 7844SOL     OW24430   3.522   0.902   2.655
 7844SOL    HW124431   3.488   0.987   2.614
 7844SOL    HW224432   3.484   0.893   2.747
 7845SOL     OW24433   5.747   1.605   1.795
 7845SOL    HW124434   5.749   1.705   1.795
 7845SOL    HW224435   5.836   1.570   1.768
 7846SOL     OW24436   1.769   2.778   0.491
 7846SOL    HW124437   1.864   2.746   0.498
 7846SOL    HW224438   1.712   2.725   0.555
 7847SOL     OW24439   5.569   2.123   3.762
 7847SOL    HW124440   5.608   2.107   3.853
 7847SOL    HW224441   5.470   2.130   3.769
 7848SOL     OW24442   2.887   4.382   0.800
 7848SOL    HW124443   2.968   4.368   0.742
 7848SOL    HW224444   2.862   4.296   0.844
 7849SOL     OW24445   5.294   3.186   5.569
 7849SOL    HW124446   5.327   3.200   5.663
 7849SOL    HW224447   5.197   3.209   5.565
 7850SOL     OW24448   0.064   1.652   3.370
 7850SOL    HW124449   7.011   1.614   3.319
 7850SOL    HW224450   0.083   1.744   3.337
 7851SOL     OW24451   0.630   3.928   1.639
 7851SOL    HW124452   0.717   3.911   1.592
 7851SOL    HW224453   0.563   3.964   1.573
 7852SOL     OW24454   2.994   1.482   0.354
 7852SOL    HW124455   2.939   1.564   0.345
 7852SOL    HW224456   3.047   1.467   0.270
 7853SOL     OW24457   4.324   3.203   1.562
 7853SOL    HW124458   4.295   3.112   1.530
 7853SOL    HW224459   4.421   3.216   1.542
 7854SOL     OW24460   4.679   2.024   6.004
 7854SOL    HW124461   4.742   1.989   6.074
 7854SOL    HW224462   4.600   1.963   5.997
 7855SOL     OW24463   4.966   6.599   4.275
 7855SOL    HW124464   4.970   6.522   4.339
 7855SOL    HW224465   5.038   6.589   4.206
 7856SOL     OW24466   1.355   4.518   4.839
 7856SOL    HW124467   1.418   4.579   4.887
 7856SOL    HW224468   1.394   4.425   4.838
 7857SOL     OW24469   5.175   3.962   0.021
 7857SOL    HW124470   5.137   3.949   0.112
 7857SOL    HW224471   5.264   3.916   0.016
 7858SOL     OW24472   0.084   5.732   5.557
 7858SOL    HW124473   0.050   5.664   5.622
 7858SOL    HW224474   0.182   5.721   5.546
 7859SOL     OW24475   4.629   3.156   6.146
 7859SOL    HW124476   4.639   3.102   6.062
 7859SOL    HW224477   4.670   3.107   6.223
 7860SOL     OW24478   3.291   1.124   4.368
 7860SOL    HW124479   3.248   1.049   4.319
 7860SOL    HW224480   3.268   1.211   4.323
 7861SOL     OW24481   2.662   5.699   1.960
 7861SOL    HW124482   2.639   5.651   1.875
 7861SOL    HW224483   2.594   5.770   1.977
 7862SOL     OW24484   2.844   5.498   2.039
 7862SOL    HW124485   2.774   5.567   2.054
 7862SOL    HW224486   2.920   5.513   2.103
 7863SOL     OW24487   0.079   4.340   3.232
 7863SOL    HW124488   0.134   4.257   3.227
 7863SOL    HW224489   0.137   4.417   3.258
 7864SOL     OW24490   2.028   6.098   6.350
 7864SOL    HW124491   2.053   6.009   6.387
 7864SOL    HW224492   2.045   6.168   6.420
 7865SOL     OW24493   6.058   5.981   3.776
 7865SOL    HW124494   5.982   5.942   3.724
 7865SOL    HW224495   6.084   6.070   3.737
 7866SOL     OW24496   1.716   0.637   5.698
 7866SOL    HW124497   1.750   0.709   5.759
 7866SOL    HW224498   1.788   0.569   5.684
 7867SOL     OW24499   5.494   0.179   4.244
 7867SOL    HW124500   5.438   0.261   4.242
 7867SOL    HW224501   5.440   0.101   4.211
 7868SOL     OW24502   4.053   6.168   0.639
 7868SOL    HW124503   4.013   6.126   0.721
 7868SOL    HW224504   4.135   6.219   0.664
 7869SOL     OW24505   5.603   4.968   5.849
 7869SOL    HW124506   5.662   4.995   5.772
 7869SOL    HW224507   5.535   5.039   5.866
 7870SOL     OW24508   4.692   6.676   5.144
 7870SOL    HW124509   4.787   6.705   5.148
 7870SOL    HW224510   4.687   6.579   5.121
 7871SOL     OW24511   5.157   1.230   2.083
 7871SOL    HW124512   5.227   1.296   2.056
 7871SOL    HW224513   5.130   1.247   2.178
 7872SOL     OW24514   2.110   5.170   2.583
 7872SOL    HW124515   2.117   5.112   2.664
 7872SOL    HW224516   2.020   5.158   2.541
 7873SOL     OW24517   6.982   1.080   0.904
 7873SOL    HW124518   6.916   1.154   0.898
 7873SOL    HW224519   0.033   1.107   0.965
 7874SOL     OW24520   5.631   2.610   0.802
 7874SOL    HW124521   5.600   2.578   0.892
 7874SOL    HW224522   5.721   2.571   0.782
 7875SOL     OW24523   3.843   3.693   6.972
 7875SOL    HW124524   3.838   3.792   6.982
 7875SOL    HW224525   3.912   3.656   0.011
 7876SOL     OW24526   0.968   0.024   2.455
 7876SOL    HW124527   0.878   7.021   2.490
 7876SOL    HW224528   1.009   6.970   2.408
 7877SOL     OW24529   5.891   1.470   2.485
 7877SOL    HW124530   5.947   1.525   2.546
 7877SOL    HW224531   5.871   1.382   2.528
 7878SOL     OW24532   4.901   3.900   3.617
 7878SOL    HW124533   4.811   3.940   3.600
 7878SOL    HW224534   4.912   3.817   3.562
 7879SOL     OW24535   3.188   5.393   3.562
 7879SOL    HW124536   3.277   5.398   3.516
 7879SOL    HW224537   3.160   5.485   3.591
 7880SOL     OW24538   2.227   3.743   1.429
 7880SOL    HW124539   2.157   3.759   1.498
 7880SOL    HW224540   2.307   3.701   1.472
 7881SOL     OW24541   5.070   4.170   4.333
 7881SOL    HW124542   5.153   4.164   4.389
 7881SOL    HW224543   5.086   4.231   4.256
 7882SOL     OW24544   2.457   3.697   1.219
 7882SOL    HW124545   2.505   3.618   1.257
 7882SOL    HW224546   2.395   3.735   1.288
 7883SOL     OW24547   0.248   0.843   5.039
 7883SOL    HW124548   0.153   0.815   5.056
 7883SOL    HW224549   0.270   0.831   4.942
 7884SOL     OW24550   0.244   2.743   4.476
 7884SOL    HW124551   0.242   2.656   4.524
 7884SOL    HW224552   0.338   2.777   4.472
 7885SOL     OW24553   6.234   5.771   0.767
 7885SOL    HW124554   6.259   5.799   0.859
 7885SOL    HW224555   6.137   5.744   0.765
 7886SOL     OW24556   4.580   5.485   0.551
 7886SOL    HW124557   4.634   5.419   0.499
 7886SOL    HW224558   4.610   5.578   0.529
 7887SOL     OW24559   4.042   1.731   6.721
 7887SOL    HW124560   4.030   1.759   6.625
 7887SOL    HW224561   4.082   1.640   6.724
 7888SOL     OW24562   5.115   0.658   4.365
 7888SOL    HW124563   5.130   0.752   4.397
 7888SOL    HW224564   5.038   0.656   4.302
 7889SOL     OW24565   0.375   6.032   2.337
 7889SOL    HW124566   0.423   6.090   2.271
 7889SOL    HW224567   0.394   5.936   2.317
 7890SOL     OW24568   2.142   3.880   2.180
 7890SOL    HW124569   2.209   3.823   2.228
 7890SOL    HW224570   2.067   3.903   2.242
 7891SOL     OW24571   2.652   4.724   2.177
 7891SOL    HW124572   2.714   4.667   2.123
 7891SOL    HW224573   2.700   4.806   2.207
 7892SOL     OW24574   1.880   2.645   5.455
 7892SOL    HW124575   1.883   2.621   5.358
 7892SOL    HW224576   1.946   2.718   5.473
 7893SOL     OW24577   5.762   6.860   0.718
 7893SOL    HW124578   5.696   6.917   0.669
 7893SOL    HW224579   5.817   6.918   0.778
 7894SOL     OW24580   2.058   6.319   2.459
 7894SOL    HW124581   2.048   6.382   2.383
 7894SOL    HW224582   2.108   6.238   2.428
 7895SOL     OW24583   6.202   1.222   4.774
 7895SOL    HW124584   6.176   1.308   4.730
 7895SOL    HW224585   6.152   1.146   4.731
 7896SOL     OW24586   5.122   3.497   5.475
 7896SOL    HW124587   5.218   3.505   5.500
 7896SOL    HW224588   5.074   3.581   5.498
 7897SOL     OW24589   2.099   3.759   6.697
 7897SOL    HW124590   2.060   3.837   6.746
 7897SOL    HW224591   2.027   3.692   6.679
 7898SOL     OW24592   4.391   2.045   3.969
 7898SOL    HW124593   4.375   2.050   3.871
 7898SOL    HW224594   4.359   2.129   4.013
 7899SOL     OW24595   5.693   2.567   1.807
 7899SOL    HW124596   5.775   2.531   1.850
 7899SOL    HW224597   5.616   2.559   1.870
 7900SOL     OW24598   1.571   5.288   1.327
 7900SOL    HW124599   1.519   5.269   1.410
 7900SOL    HW224600   1.581   5.387   1.315
 7901SOL     OW24601   6.130   6.871   6.216
 7901SOL    HW124602   6.065   6.870   6.292
 7901SOL    HW224603   6.102   6.803   6.148
 7902SOL     OW24604   4.416   4.852   1.159
 7902SOL    HW124605   4.437   4.793   1.236
 7902SOL    HW224606   4.474   4.934   1.163
 7903SOL     OW24607   6.469   1.860   0.290
 7903SOL    HW124608   6.443   1.891   0.198
 7903SOL    HW224609   6.493   1.763   0.286
 7904SOL     OW24610   7.013   0.555   2.822
 7904SOL    HW124611   6.974   0.621   2.886
 7904SOL    HW224612   6.956   0.550   2.740
 7905SOL     OW24613   3.754   1.608   1.236
 7905SOL    HW124614   3.802   1.692   1.264
 7905SOL    HW224615   3.822   1.540   1.207
 7906SOL     OW24616   6.194   5.819   6.594
 7906SOL    HW124617   6.118   5.830   6.529
 7906SOL    HW224618   6.160   5.834   6.687
 7907SOL     OW24619   6.369   2.431   4.165
 7907SOL    HW124620   6.393   2.358   4.102
 7907SOL    HW224621   6.378   2.519   4.119
 7908SOL     OW24622   0.445   1.421   3.385
 7908SOL    HW124623   0.434   1.415   3.484
 7908SOL    HW224624   0.355   1.418   3.341
 7909SOL     OW24625   4.903   3.811   4.597
 7909SOL    HW124626   4.947   3.901   4.602
 7909SOL    HW224627   4.805   3.821   4.618
 7910SOL     OW24628   4.159   3.344   6.319
 7910SOL    HW124629   4.206   3.431   6.334
 7910SOL    HW224630   4.103   3.350   6.236
 7911SOL     OW24631   6.818   4.712   0.660
 7911SOL    HW124632   6.916   4.707   0.679
 7911SOL    HW224633   6.803   4.746   0.568
 7912SOL     OW24634   6.078   4.814   6.096
 7912SOL    HW124635   6.098   4.750   6.170
 7912SOL    HW224636   6.013   4.773   6.033
 7913SOL     OW24637   0.066   5.297   6.735
 7913SOL    HW124638   0.018   5.292   6.648
 7913SOL    HW224639   0.002   5.282   6.810
 7914SOL     OW24640   6.260   4.757   0.983
 7914SOL    HW124641   6.191   4.802   0.926
 7914SOL    HW224642   6.289   4.672   0.940
 7915SOL     OW24643   4.773   2.024   3.185
 7915SOL    HW124644   4.850   2.000   3.126
 7915SOL    HW224645   4.757   1.950   3.249
 7916SOL     OW24646   5.163   2.976   5.428
 7916SOL    HW124647   5.226   3.053   5.445
 7916SOL    HW224648   5.194   2.896   5.479
 7917SOL     OW24649   3.916   3.915   4.707
 7917SOL    HW124650   3.993   3.879   4.654
 7917SOL    HW224651   3.863   3.977   4.649
 7918SOL     OW24652   6.547   1.198   1.862
 7918SOL    HW124653   6.552   1.147   1.947
 7918SOL    HW224654   6.456   1.239   1.852
 7919SOL     OW24655   5.841   4.626   2.181
 7919SOL    HW124656   5.925   4.604   2.132
 7919SOL    HW224657   5.862   4.645   2.277
 7920SOL     OW24658   0.571   4.927   1.513
 7920SOL    HW124659   0.541   4.957   1.423
 7920SOL    HW224660   0.493   4.888   1.563
 7921SOL     OW24661   2.679   6.481   1.370
 7921SOL    HW124662   2.611   6.472   1.297
 7921SOL    HW224663   2.733   6.564   1.357
 7922SOL     OW24664   0.314   5.407   6.853
 7922SOL    HW124665   0.247   5.395   6.780
 7922SOL    HW224666   0.406   5.404   6.815
 7923SOL     OW24667   1.789   1.312   3.147
 7923SOL    HW124668   1.873   1.341   3.192
 7923SOL    HW224669   1.743   1.392   3.108
 7924SOL     OW24670   3.166   6.661   3.839
 7924SOL    HW124671   3.138   6.597   3.767
 7924SOL    HW224672   3.090   6.723   3.860
 7925SOL     OW24673   6.228   1.533   5.994
 7925SOL    HW124674   6.327   1.516   5.993
 7925SOL    HW224675   6.180   1.448   6.014
 7926SOL     OW24676   3.022   1.236   2.887
 7926SOL    HW124677   3.048   1.201   2.977
 7926SOL    HW224678   3.012   1.336   2.892
 7927SOL     OW24679   4.038   5.447   5.250
 7927SOL    HW124680   4.033   5.546   5.232
 7927SOL    HW224681   3.946   5.410   5.259
 7928SOL     OW24682   1.661   5.135   3.248
 7928SOL    HW124683   1.747   5.096   3.214
 7928SOL    HW224684   1.662   5.137   3.348
 7929SOL     OW24685   3.764   3.818   4.892
 7929SOL    HW124686   3.798   3.822   4.986
 7929SOL    HW224687   3.829   3.863   4.831
 7930SOL     OW24688   4.175   5.074   3.473
 7930SOL    HW124689   4.191   5.168   3.503
 7930SOL    HW224690   4.081   5.065   3.441
 7931SOL     OW24691   2.087   2.309   0.174
 7931SOL    HW124692   2.073   2.260   0.089
 7931SOL    HW224693   2.021   2.278   0.242
 7932SOL     OW24694   2.272   0.005   0.198
 7932SOL    HW124695   2.348   7.021   0.133
 7932SOL    HW224696   2.304   7.005   0.290
 7933SOL     OW24697   0.596   6.913   6.534
 7933SOL    HW124698   0.619   6.836   6.474
 7933SOL    HW224699   0.642   6.901   6.622
 7934SOL     OW24700   2.701   3.654   0.143
 7934SOL    HW124701   2.683   3.648   0.045
 7934SOL    HW224702   2.654   3.734   0.180
 7935SOL     OW24703   4.955   6.130   0.969
 7935SOL    HW124704   5.044   6.169   0.945
 7935SOL    HW224705   4.885   6.166   0.908
 7936SOL     OW24706   4.048   6.111   3.180
 7936SOL    HW124707   3.959   6.126   3.138
 7936SOL    HW224708   4.076   6.193   3.230
 7937SOL     OW24709   5.993   6.429   5.414
 7937SOL    HW124710   5.949   6.365   5.477
 7937SOL    HW224711   5.927   6.500   5.387
 7938SOL     OW24712   3.913   5.275   4.867
 7938SOL    HW124713   3.961   5.222   4.797
 7938SOL    HW224714   3.979   5.320   4.926
 7939SOL     OW24715   0.920   1.372   5.401
 7939SOL    HW124716   0.898   1.375   5.303
 7939SOL    HW224717   0.866   1.300   5.444
 7940SOL     OW24718   2.140   5.135   1.264
 7940SOL    HW124719   2.065   5.069   1.270
 7940SOL    HW224720   2.111   5.223   1.302
 7941SOL     OW24721   0.436   1.147   0.813
 7941SOL    HW124722   0.504   1.087   0.856
 7941SOL    HW224723   0.472   1.181   0.726
 7942SOL     OW24724   0.454   6.699   2.103
 7942SOL    HW124725   0.374   6.755   2.125
 7942SOL    HW224726   0.508   6.743   2.031
 7943SOL     OW24727   5.200   2.254   1.326
 7943SOL    HW124728   5.135   2.314   1.280
 7943SOL    HW224729   5.152   2.177   1.368
 7944SOL     OW24730   0.264   3.228   1.228
 7944SOL    HW124731   0.184   3.197   1.177
 7944SOL    HW224732   0.342   3.171   1.205
 7945SOL     OW24733   5.239   6.738   2.927
 7945SOL    HW124734   5.242   6.646   2.965
 7945SOL    HW224735   5.320   6.789   2.956
 7946SOL     OW24736   1.443   2.734   6.228
 7946SOL    HW124737   1.531   2.707   6.266
 7946SOL    HW224738   1.381   2.760   6.302
 7947SOL     OW24739   3.796   2.728   6.370
 7947SOL    HW124740   3.881   2.778   6.382
 7947SOL    HW224741   3.753   2.713   6.459
 7948SOL     OW24742   6.717   0.353   0.600
 7948SOL    HW124743   6.682   0.395   0.684
 7948SOL    HW224744   6.670   0.392   0.521
 7949SOL     OW24745   5.195   4.908   4.100
 7949SOL    HW124746   5.180   4.893   4.198
 7949SOL    HW224747   5.259   4.839   4.066
 7950SOL     OW24748   3.959   4.803   3.704
 7950SOL    HW124749   3.961   4.901   3.722
 7950SOL    HW224750   4.049   4.764   3.720
 7951SOL     OW24751   3.069   3.637   0.898
 7951SOL    HW124752   2.986   3.606   0.852
 7951SOL    HW224753   3.050   3.652   0.995
 7952SOL     OW24754   6.940   2.755   6.752
 7952SOL    HW124755   0.003   2.766   6.704
 7952SOL    HW224756   6.947   2.682   6.819
 7953SOL     OW24757   2.454   2.640   3.353
 7953SOL    HW124758   2.493   2.633   3.262
 7953SOL    HW224759   2.496   2.571   3.413
 7954SOL     OW24760   4.476   5.098   5.277
 7954SOL    HW124761   4.394   5.154   5.282
 7954SOL    HW224762   4.544   5.143   5.219
 7955SOL     OW24763   6.777   6.525   6.796
 7955SOL    HW124764   6.763   6.514   6.895
 7955SOL    HW224765   6.707   6.586   6.760
 7956SOL     OW24766   6.954   5.981   3.501
 7956SOL    HW124767   6.932   6.039   3.580
 7956SOL    HW224768   7.005   6.035   3.434
 7957SOL     OW24769   1.230   1.956   0.354
 7957SOL    HW124770   1.150   1.990   0.305
 7957SOL    HW224771   1.243   2.009   0.438
 7958SOL     OW24772   3.268   5.666   4.074
 7958SOL    HW124773   3.260   5.757   4.033
 7958SOL    HW224774   3.195   5.608   4.039
 7959SOL     OW24775   5.511   4.875   0.402
 7959SOL    HW124776   5.572   4.873   0.323
 7959SOL    HW224777   5.430   4.821   0.383
 7960SOL     OW24778   3.161   1.187   0.922
 7960SOL    HW124779   3.202   1.101   0.951
 7960SOL    HW224780   3.145   1.185   0.823
 7961SOL     OW24781   1.216   6.256   6.113
 7961SOL    HW124782   1.265   6.342   6.102
 7961SOL    HW224783   1.142   6.269   6.180
 7962SOL     OW24784   2.399   0.872   1.482
 7962SOL    HW124785   2.456   0.896   1.403
 7962SOL    HW224786   2.410   0.775   1.503
 7963SOL     OW24787   0.473   0.895   5.618
 7963SOL    HW124788   0.509   0.884   5.711
 7963SOL    HW224789   0.376   0.915   5.622
 7964SOL     OW24790   5.245   4.842   2.878
 7964SOL    HW124791   5.220   4.936   2.899
 7964SOL    HW224792   5.343   4.829   2.895
 7965SOL     OW24793   4.506   2.138   0.621
 7965SOL    HW124794   4.430   2.188   0.581
 7965SOL    HW224795   4.577   2.203   0.650
 7966SOL     OW24796   1.191   5.091   4.141
 7966SOL    HW124797   1.115   5.154   4.160
 7966SOL    HW224798   1.207   5.034   4.222
 7967SOL     OW24799   3.168   5.820   2.793
 7967SOL    HW124800   3.108   5.760   2.846
 7967SOL    HW224801   3.246   5.767   2.758
 7968SOL     OW24802   2.347   2.206   4.061
 7968SOL    HW124803   2.406   2.257   3.998
 7968SOL    HW224804   2.388   2.206   4.152
 7969SOL     OW24805   4.289   0.573   3.172
 7969SOL    HW124806   4.368   0.536   3.221
 7969SOL    HW224807   4.317   0.652   3.118
 7970SOL     OW24808   6.572   3.928   2.831
 7970SOL    HW124809   6.610   3.916   2.739
 7970SOL    HW224810   6.615   4.007   2.874
 7971SOL     OW24811   2.831   0.985   2.356
 7971SOL    HW124812   2.898   1.002   2.284
 7971SOL    HW224813   2.743   0.961   2.315
 7972SOL     OW24814   0.127   4.362   1.087
 7972SOL    HW124815   0.134   4.290   1.156
 7972SOL    HW224816   0.155   4.449   1.127
 7973SOL     OW24817   5.214   3.333   3.860
 7973SOL    HW124818   5.202   3.429   3.834
 7973SOL    HW224819   5.228   3.327   3.959
 7974SOL     OW24820   5.312   0.417   4.503
 7974SOL    HW124821   5.290   0.490   4.567
 7974SOL    HW224822   5.402   0.380   4.525
 7975SOL     OW24823   3.633   0.201   4.546
 7975SOL    HW124824   3.634   0.193   4.646
 7975SOL    HW224825   3.723   0.177   4.510
 7976SOL     OW24826   0.866   6.555   4.822
 7976SOL    HW124827   0.959   6.550   4.859
 7976SOL    HW224828   0.818   6.633   4.862
 7977SOL     OW24829   5.144   5.896   2.333
 7977SOL    HW124830   5.196   5.847   2.403
 7977SOL    HW224831   5.153   5.849   2.245
 7978SOL     OW24832   4.396   3.516   6.264
 7978SOL    HW124833   4.483   3.493   6.220
 7978SOL    HW224834   4.326   3.531   6.194
 7979SOL     OW24835   2.922   0.409   4.699
 7979SOL    HW124836   3.022   0.407   4.691
 7979SOL    HW224837   2.887   0.495   4.663
 7980SOL     OW24838   3.693   6.085   0.349
 7980SOL    HW124839   3.712   6.164   0.407
 7980SOL    HW224840   3.684   6.116   0.254
 7981SOL     OW24841   1.015   4.963   2.342
 7981SOL    HW124842   0.966   4.876   2.352
 7981SOL    HW224843   0.949   5.038   2.335
 7982SOL     OW24844   6.788   2.751   0.560
 7982SOL    HW124845   6.845   2.727   0.482
 7982SOL    HW224846   6.846   2.770   0.639
 7983SOL     OW24847   5.313   1.779   2.561
 7983SOL    HW124848   5.331   1.872   2.527
 7983SOL    HW224849   5.216   1.771   2.585
 7984SOL     OW24850   1.280   2.164   2.211
 7984SOL    HW124851   1.229   2.135   2.130
 7984SOL    HW224852   1.366   2.207   2.183
 7985SOL     OW24853   1.022   0.697   2.626
 7985SOL    HW124854   1.110   0.664   2.662
 7985SOL    HW224855   0.954   0.624   2.633
 7986SOL     OW24856   4.132   1.468   6.345
 7986SOL    HW124857   4.173   1.470   6.254
 7986SOL    HW224858   4.076   1.550   6.359
 7987SOL     OW24859   0.629   2.749   5.680
 7987SOL    HW124860   0.585   2.682   5.620
 7987SOL    HW224861   0.692   2.805   5.625
 7988SOL     OW24862   2.961   2.214   4.598
 7988SOL    HW124863   2.927   2.226   4.691
 7988SOL    HW224864   3.052   2.172   4.602
 7989SOL     OW24865   3.586   2.477   5.345
 7989SOL    HW124866   3.511   2.540   5.328
 7989SOL    HW224867   3.558   2.384   5.318
 7990SOL     OW24868   0.694   3.157   4.242
 7990SOL    HW124869   0.661   3.237   4.192
 7990SOL    HW224870   0.724   3.184   4.333
 7991SOL     OW24871   0.151   2.410   5.751
 7991SOL    HW124872   0.212   2.478   5.793
 7991SOL    HW224873   0.167   2.406   5.653
 7992SOL     OW24874   1.674   0.155   0.773
 7992SOL    HW124875   1.668   0.070   0.720
 7992SOL    HW224876   1.695   0.134   0.868
 7993SOL     OW24877   1.689   5.520   6.575
 7993SOL    HW124878   1.700   5.563   6.664
 7993SOL    HW224879   1.601   5.547   6.535
 7994SOL     OW24880   4.595   0.755   4.071
 7994SOL    HW124881   4.548   0.695   4.006
 7994SOL    HW224882   4.578   0.723   4.164
 7995SOL     OW24883   3.926   5.065   3.664
 7995SOL    HW124884   3.925   5.092   3.568
 7995SOL    HW224885   3.833   5.068   3.701
 7996SOL     OW24886   3.399   0.049   4.306
 7996SOL    HW124887   3.350   0.125   4.265
 7996SOL    HW224888   3.478   0.083   4.358
 7997SOL     OW24889   6.376   2.070   0.935
 7997SOL    HW124890   6.291   2.109   0.970
 7997SOL    HW224891   6.427   2.027   1.010
 7998SOL     OW24892   5.285   4.573   0.279
 7998SOL    HW124893   5.248   4.660   0.310
 7998SOL    HW224894   5.216   4.502   0.288
 7999SOL     OW24895   1.278   0.064   5.429
 7999SOL    HW124896   1.286   0.116   5.344
 7999SOL    HW224897   1.276   0.127   5.507
 8000SOL     OW24898   6.194   0.380   6.092
 8000SOL    HW124899   6.202   0.281   6.076
 8000SOL    HW224900   6.109   0.399   6.141
 8001SOL     OW24901   1.406   6.444   1.834
 8001SOL    HW124902   1.341   6.518   1.854
 8001SOL    HW224903   1.399   6.419   1.737
 8002SOL     OW24904   7.000   3.725   4.944
 8002SOL    HW124905   6.989   3.819   4.977
 8002SOL    HW224906   0.066   3.691   4.971
 8003SOL     OW24907   3.064   5.270   3.046
 8003SOL    HW124908   2.984   5.209   3.043
 8003SOL    HW224909   3.100   5.281   2.953
 8004SOL     OW24910   2.156   4.036   3.187
 8004SOL    HW124911   2.138   4.030   3.285
 8004SOL    HW224912   2.204   4.122   3.168
 8005SOL     OW24913   3.168   0.946   2.009
 8005SOL    HW124914   3.223   0.909   2.083
 8005SOL    HW224915   3.088   0.888   1.994
 8006SOL     OW24916   2.713   5.917   0.350
 8006SOL    HW124917   2.738   5.875   0.437
 8006SOL    HW224918   2.623   5.884   0.322
 8007SOL     OW24919   0.612   0.234   3.956
 8007SOL    HW124920   0.575   0.299   3.889
 8007SOL    HW224921   0.701   0.201   3.924
 8008SOL     OW24922   5.864   6.407   6.595
 8008SOL    HW124923   5.960   6.416   6.569
 8008SOL    HW224924   5.812   6.483   6.557
 8009SOL     OW24925   6.873   0.380   3.187
 8009SOL    HW124926   6.803   0.405   3.120
 8009SOL    HW224927   6.922   0.299   3.155
 8010SOL     OW24928   2.176   1.951   6.893
 8010SOL    HW124929   2.134   1.892   6.962
 8010SOL    HW224930   2.201   1.897   6.813
 8011SOL     OW24931   2.742   2.149   1.119
 8011SOL    HW124932   2.704   2.235   1.151
 8011SOL    HW224933   2.795   2.165   1.035
 8012SOL     OW24934   1.646   6.957   1.276
 8012SOL    HW124935   1.554   6.919   1.282
 8012SOL    HW224936   1.654   7.014   1.194
 8013SOL     OW24937   6.364   4.975   4.226
 8013SOL    HW124938   6.348   4.941   4.134
 8013SOL    HW224939   6.318   4.914   4.292
 8014SOL     OW24940   1.782   6.182   6.470
 8014SOL    HW124941   1.784   6.140   6.560
 8014SOL    HW224942   1.855   6.143   6.413
 8015SOL     OW24943   2.728   2.815   0.896
 8015SOL    HW124944   2.808   2.874   0.904
 8015SOL    HW224945   2.651   2.868   0.861
 8016SOL     OW24946   4.654   0.334   0.664
 8016SOL    HW124947   4.650   0.293   0.573
 8016SOL    HW224948   4.636   0.432   0.657
 8017SOL     OW24949   7.001   4.362   5.560
 8017SOL    HW124950   6.961   4.450   5.587
 8017SOL    HW224951   6.940   4.316   5.496
 8018SOL     OW24952   4.522   1.798   5.767
 8018SOL    HW124953   4.605   1.751   5.798
 8018SOL    HW224954   4.465   1.734   5.715
 8019SOL     OW24955   1.496   5.054   0.501
 8019SOL    HW124956   1.582   5.013   0.530
 8019SOL    HW224957   1.508   5.098   0.412
 8020SOL     OW24958   6.024   5.837   6.264
 8020SOL    HW124959   5.947   5.780   6.237
 8020SOL    HW224960   5.997   5.895   6.342
 8021SOL     OW24961   1.010   1.875   1.972
 8021SOL    HW124962   1.108   1.882   1.991
 8021SOL    HW224963   0.993   1.887   1.874
 8022SOL     OW24964   4.650   0.202   3.120
 8022SOL    HW124965   4.572   0.199   3.058
 8022SOL    HW224966   4.636   0.273   3.189
 8023SOL     OW24967   6.095   5.789   2.545
 8023SOL    HW124968   6.182   5.833   2.568
 8023SOL    HW224969   6.096   5.762   2.449
 8024SOL     OW24970   4.523   5.586   6.142
 8024SOL    HW124971   4.429   5.564   6.116
 8024SOL    HW224972   4.550   5.672   6.099
 8025SOL     OW24973   3.413   6.247   6.436
 8025SOL    HW124974   3.340   6.184   6.411
 8025SOL    HW224975   3.412   6.326   6.375
 8026SOL     OW24976   0.942   3.286   6.539
 8026SOL    HW124977   0.939   3.349   6.616
 8026SOL    HW224978   0.872   3.216   6.550
 8027SOL     OW24979   4.467   1.818   5.332
 8027SOL    HW124980   4.555   1.832   5.287
 8027SOL    HW224981   4.443   1.721   5.331
 8028SOL     OW24982   4.738   5.216   5.881
 8028SOL    HW124983   4.767   5.239   5.974
 8028SOL    HW224984   4.654   5.264   5.859
 8029SOL     OW24985   4.507   4.290   6.620
 8029SOL    HW124986   4.419   4.275   6.577
 8029SOL    HW224987   4.540   4.382   6.598
 8030SOL     OW24988   5.394   4.596   5.383
 8030SOL    HW124989   5.392   4.510   5.332
 8030SOL    HW224990   5.438   4.582   5.471
 8031SOL     OW24991   4.991   5.215   1.665
 8031SOL    HW124992   4.901   5.242   1.630
 8031SOL    HW224993   4.984   5.198   1.763
 8032SOL     OW24994   5.967   4.148   4.755
 8032SOL    HW124995   5.991   4.067   4.809
 8032SOL    HW224996   5.894   4.125   4.691
 8033SOL     OW24997   5.391   2.382   7.009
 8033SOL    HW124998   5.387   2.412   6.914
 8033SOL    HW224999   5.409   2.460   0.045
 8034SOL     OW25000   5.432   6.838   5.578
 8034SOL    HW125001   5.484   6.769   5.528
 8034SOL    HW225002   5.342   6.849   5.536
 8035SOL     OW25003   5.884   6.182   5.523
 8035SOL    HW125004   5.938   6.111   5.477
 8035SOL    HW225005   5.820   6.139   5.587
 8036SOL     OW25006   2.287   3.711   1.731
 8036SOL    HW125007   2.320   3.638   1.790
 8036SOL    HW225008   2.239   3.779   1.786
 8037SOL     OW25009   2.214   2.835   0.937
 8037SOL    HW125010   2.151   2.789   0.874
 8037SOL    HW225011   2.264   2.907   0.888
 8038SOL     OW25012   6.572   1.981   3.319
 8038SOL    HW125013   6.535   1.889   3.315
 8038SOL    HW225014   6.629   1.991   3.401
 8039SOL     OW25015   2.294   0.331   2.624
 8039SOL    HW125016   2.271   0.245   2.579
 8039SOL    HW225017   2.307   0.402   2.555
 8040SOL     OW25018   0.539   5.522   1.109
 8040SOL    HW125019   0.579   5.594   1.052
 8040SOL    HW225020   0.600   5.443   1.111
 8041SOL     OW25021   3.703   0.986   1.357
 8041SOL    HW125022   3.729   1.080   1.376
 8041SOL    HW225023   3.695   0.972   1.258
 8042SOL     OW25024   3.838   2.962   2.077
 8042SOL    HW125025   3.908   3.021   2.118
 8042SOL    HW225026   3.837   2.874   2.123
 8043SOL     OW25027   2.712   0.457   0.752
 8043SOL    HW125028   2.740   0.549   0.776
 8043SOL    HW225029   2.766   0.424   0.675
 8044SOL     OW25030   3.051   2.929   1.504
 8044SOL    HW125031   2.980   2.977   1.556
 8044SOL    HW225032   3.135   2.925   1.558
 8045SOL     OW25033   5.988   1.585   2.715
 8045SOL    HW125034   5.948   1.539   2.794
 8045SOL    HW225035   6.087   1.585   2.723
 8046SOL     OW25036   5.374   4.356   5.233
 8046SOL    HW125037   5.430   4.278   5.263
 8046SOL    HW225038   5.282   4.323   5.209
 8047SOL     OW25039   3.467   5.954   4.542
 8047SOL    HW125040   3.553   5.976   4.494
 8047SOL    HW225041   3.417   5.885   4.489
 8048SOL     OW25042   6.366   0.590   5.727
 8048SOL    HW125043   6.320   0.502   5.737
 8048SOL    HW225044   6.465   0.575   5.730
 8049SOL     OW25045   0.729   0.010   1.291
 8049SOL    HW125046   0.742   0.071   1.370
 8049SOL    HW225047   0.813   0.006   1.238
 8050SOL     OW25048   1.652   3.452   1.104
 8050SOL    HW125049   1.696   3.465   1.016
 8050SOL    HW225050   1.701   3.382   1.156
 8051SOL     OW25051   4.555   0.909   3.033
 8051SOL    HW125052   4.482   0.978   3.025
 8051SOL    HW225053   4.644   0.955   3.034
 8052SOL     OW25054   3.343   1.801   2.226
 8052SOL    HW125055   3.258   1.803   2.278
 8052SOL    HW225056   3.332   1.857   2.144
 8053SOL     OW25057   3.797   4.019   2.748
 8053SOL    HW125058   3.744   3.972   2.819
 8053SOL    HW225059   3.735   4.070   2.689
 8054SOL     OW25060   4.459   6.419   4.464
 8054SOL    HW125061   4.428   6.512   4.442
 8054SOL    HW225062   4.545   6.401   4.417
 8055SOL     OW25063   0.956   0.113   6.027
 8055SOL    HW125064   0.874   0.073   6.067
 8055SOL    HW225065   1.035   0.056   6.048
 8056SOL     OW25066   4.816   1.596   3.123
 8056SOL    HW125067   4.872   1.644   3.191
 8056SOL    HW225068   4.721   1.595   3.153
 8057SOL     OW25069   2.938   0.527   3.016
 8057SOL    HW125070   2.953   0.450   2.954
 8057SOL    HW225071   2.910   0.608   2.963
 8058SOL     OW25072   2.575   0.588   2.274
 8058SOL    HW125073   2.658   0.629   2.311
 8058SOL    HW225074   2.535   0.527   2.341
 8059SOL     OW25075   3.255   2.064   4.936
 8059SOL    HW125076   3.334   2.053   4.997
 8059SOL    HW225077   3.197   2.138   4.971
 8060SOL     OW25078   0.125   1.030   4.307
 8060SOL    HW125079   0.036   1.016   4.262
 8060SOL    HW225080   0.167   1.114   4.273
 8061SOL     OW25081   6.361   5.523   2.808
 8061SOL    HW125082   6.300   5.586   2.856
 8061SOL    HW225083   6.320   5.496   2.721
 8062SOL     OW25084   1.571   4.038   4.806
 8062SOL    HW125085   1.594   3.973   4.733
 8062SOL    HW225086   1.527   3.990   4.881
 8063SOL     OW25087   2.966   3.574   6.908
 8063SOL    HW125088   2.965   3.514   6.989
 8063SOL    HW225089   2.872   3.586   6.875
 8064SOL     OW25090   0.420   4.031   0.103
 8064SOL    HW125091   0.417   3.949   0.160
 8064SOL    HW225092   0.502   4.029   0.045
 8065SOL     OW25093   4.900   6.827   4.472
 8065SOL    HW125094   4.894   6.758   4.400
 8065SOL    HW225095   4.859   6.913   4.440
 8066SOL     OW25096   1.822   1.420   0.574
 8066SOL    HW125097   1.890   1.489   0.549
 8066SOL    HW225098   1.811   1.356   0.498
 8067SOL     OW25099   4.321   2.858   1.503
 8067SOL    HW125100   4.405   2.911   1.520
 8067SOL    HW225101   4.303   2.855   1.405
 8068SOL     OW25102   0.398   4.661   4.829
 8068SOL    HW125103   0.349   4.743   4.800
 8068SOL    HW225104   0.472   4.687   4.891
 8069SOL     OW25105   1.644   6.085   1.044
 8069SOL    HW125106   1.698   6.013   1.088
 8069SOL    HW225107   1.697   6.127   0.971
 8070SOL     OW25108   3.617   6.033   1.855
 8070SOL    HW125109   3.565   5.999   1.933
 8070SOL    HW225110   3.699   6.080   1.888
 8071SOL     OW25111   3.892   6.430   5.615
 8071SOL    HW125112   3.795   6.425   5.639
 8071SOL    HW225113   3.944   6.465   5.692
 8072SOL     OW25114   4.453   1.411   0.690
 8072SOL    HW125115   4.519   1.477   0.653
 8072SOL    HW225116   4.401   1.370   0.615
 8073SOL     OW25117   4.598   6.857   6.310
 8073SOL    HW125118   4.646   6.820   6.230
 8073SOL    HW225119   4.589   6.956   6.301
 8074SOL     OW25120   3.523   3.565   0.436
 8074SOL    HW125121   3.511   3.664   0.437
 8074SOL    HW225122   3.464   3.523   0.505
 8075SOL     OW25123   6.790   1.183   2.211
 8075SOL    HW125124   6.778   1.175   2.310
 8075SOL    HW225125   6.872   1.132   2.183
 8076SOL     OW25126   5.375   2.576   5.409
 8076SOL    HW125127   5.403   2.662   5.367
 8076SOL    HW225128   5.322   2.522   5.344
 8077SOL     OW25129   1.405   0.237   1.652
 8077SOL    HW125130   1.346   0.261   1.574
 8077SOL    HW225131   1.489   0.195   1.618
 8078SOL     OW25132   0.069   2.533   0.871
 8078SOL    HW125133   0.064   2.530   0.971
 8078SOL    HW225134   0.002   2.470   0.832
 8079SOL     OW25135   6.616   2.246   3.257
 8079SOL    HW125136   6.640   2.283   3.167
 8079SOL    HW225137   6.610   2.147   3.251
 8080SOL     OW25138   2.095   3.816   0.432
 8080SOL    HW125139   2.185   3.782   0.406
 8080SOL    HW225140   2.102   3.863   0.520
 8081SOL     OW25141   5.827   0.714   5.356
 8081SOL    HW125142   5.883   0.775   5.411
 8081SOL    HW225143   5.731   0.725   5.379
 8082SOL     OW25144   6.239   2.580   3.260
 8082SOL    HW125145   6.170   2.516   3.293
 8082SOL    HW225146   6.257   2.561   3.163
 8083SOL     OW25147   4.900   3.204   2.752
 8083SOL    HW125148   4.926   3.195   2.848
 8083SOL    HW225149   4.860   3.118   2.720
 8084SOL     OW25150   6.555   6.326   1.523
 8084SOL    HW125151   6.575   6.387   1.600
 8084SOL    HW225152   6.632   6.328   1.459
 8085SOL     OW25153   5.513   0.565   0.872
 8085SOL    HW125154   5.559   0.491   0.823
 8085SOL    HW225155   5.469   0.528   0.954
 8086SOL     OW25156   4.073   0.073   4.623
 8086SOL    HW125157   4.027   0.108   4.541
 8086SOL    HW225158   4.028   0.109   4.705
 8087SOL     OW25159   2.858   2.265   0.900
 8087SOL    HW125160   2.936   2.319   0.932
 8087SOL    HW225161   2.778   2.324   0.889
 8088SOL     OW25162   5.736   0.793   2.336
 8088SOL    HW125163   5.826   0.786   2.293
 8088SOL    HW225164   5.697   0.702   2.345
 8089SOL     OW25165   5.134   2.662   0.522
 8089SOL    HW125166   5.203   2.647   0.593
 8089SOL    HW225167   5.174   2.713   0.446
 8090SOL     OW25168   5.366   1.862   6.674
 8090SOL    HW125169   5.459   1.876   6.639
 8090SOL    HW225170   5.371   1.812   6.760
 8091SOL     OW25171   3.198   4.380   0.040
 8091SOL    HW125172   3.208   4.311   6.992
 8091SOL    HW225173   3.263   4.454   0.025
 8092SOL     OW25174   1.153   1.197   5.080
 8092SOL    HW125175   1.063   1.193   5.035
 8092SOL    HW225176   1.225   1.180   5.012
 8093SOL     OW25177   5.665   5.578   1.735
 8093SOL    HW125178   5.691   5.672   1.711
 8093SOL    HW225179   5.641   5.528   1.651
 8094SOL     OW25180   1.191   4.210   6.292
 8094SOL    HW125181   1.280   4.185   6.254
 8094SOL    HW225182   1.122   4.145   6.261
 8095SOL     OW25183   5.304   3.148   4.169
 8095SOL    HW125184   5.380   3.104   4.121
 8095SOL    HW225185   5.286   3.098   4.254
 8096SOL     OW25186   3.022   5.537   1.834
 8096SOL    HW125187   2.950   5.521   1.902
 8096SOL    HW225188   3.106   5.490   1.863
 8097SOL     OW25189   5.305   0.420   3.180
 8097SOL    HW125190   5.208   0.407   3.203
 8097SOL    HW225191   5.347   0.478   3.249
 8098SOL     OW25192   2.693   6.194   3.930
 8098SOL    HW125193   2.637   6.111   3.921
 8098SOL    HW225194   2.673   6.256   3.854
 8099SOL     OW25195   5.160   6.745   4.883
 8099SOL    HW125196   5.103   6.666   4.905
 8099SOL    HW225197   5.172   6.751   4.784
 8100SOL     OW25198   0.090   6.763   0.530
 8100SOL    HW125199   0.040   6.695   0.475
 8100SOL    HW225200   0.136   6.827   0.468
 8101SOL     OW25201   1.444   7.002   4.480
 8101SOL    HW125202   1.380   6.978   4.407
 8101SOL    HW225203   1.396   7.004   4.567
 8102SOL     OW25204   0.396   5.140   6.044
 8102SOL    HW125205   0.419   5.122   6.140
 8102SOL    HW225206   0.374   5.053   5.999
 8103SOL     OW25207   3.995   1.299   2.157
 8103SOL    HW125208   4.001   1.362   2.080
 8103SOL    HW225209   3.950   1.345   2.234
 8104SOL     OW25210   3.080   6.678   5.595
 8104SOL    HW125211   3.151   6.677   5.666
 8104SOL    HW225212   3.017   6.754   5.612
 8105SOL     OW25213   2.801   2.348   3.805
 8105SOL    HW125214   2.740   2.270   3.792
 8105SOL    HW225215   2.886   2.317   3.847
 8106SOL     OW25216   1.303   4.062   3.612
 8106SOL    HW125217   1.209   4.080   3.584
 8106SOL    HW225218   1.316   3.965   3.628
 8107SOL     OW25219   2.080   6.505   5.789
 8107SOL    HW125220   2.009   6.529   5.856
 8107SOL    HW225221   2.167   6.491   5.836
 8108SOL     OW25222   0.242   3.698   4.671
 8108SOL    HW125223   0.263   3.680   4.575
 8108SOL    HW225224   0.163   3.759   4.678
 8109SOL     OW25225   1.997   4.640   5.322
 8109SOL    HW125226   2.053   4.685   5.392
 8109SOL    HW225227   2.015   4.542   5.323
 8110SOL     OW25228   2.157   6.890   0.501
 8110SOL    HW125229   2.201   6.824   0.562
 8110SOL    HW225230   2.203   6.890   0.413
 8111SOL     OW25231   2.698   6.111   4.929
 8111SOL    HW125232   2.636   6.043   4.889
 8111SOL    HW225233   2.777   6.123   4.869
 8112SOL     OW25234   2.725   0.399   5.455
 8112SOL    HW125235   2.789   0.328   5.483
 8112SOL    HW225236   2.771   0.465   5.396
 8113SOL     OW25237   3.479   2.422   0.221
 8113SOL    HW125238   3.486   2.482   0.301
 8113SOL    HW225239   3.570   2.386   0.199
 8114SOL     OW25240   2.106   3.152   2.528
 8114SOL    HW125241   2.074   3.065   2.565
 8114SOL    HW225242   2.137   3.139   2.433
 8115SOL     OW25243   3.395   1.341   1.397
 8115SOL    HW125244   3.465   1.383   1.454
 8115SOL    HW225245   3.390   1.389   1.309
 8116SOL     OW25246   5.950   6.941   5.220
 8116SOL    HW125247   5.921   7.013   5.283
 8116SOL    HW225248   5.970   6.981   5.131
 8117SOL     OW25249   1.075   1.983   4.392
 8117SOL    HW125250   0.984   1.949   4.416
 8117SOL    HW225251   1.107   1.937   4.309
 8118SOL     OW25252   1.210   4.391   5.331
 8118SOL    HW125253   1.209   4.315   5.397
 8118SOL    HW225254   1.188   4.476   5.379
 8119SOL     OW25255   0.522   5.662   3.568
 8119SOL    HW125256   0.581   5.743   3.565
 8119SOL    HW225257   0.559   5.598   3.636
 8120SOL     OW25258   4.071   4.598   0.676
 8120SOL    HW125259   3.979   4.563   0.663
 8120SOL    HW225260   4.082   4.627   0.771
 8121SOL     OW25261   0.044   6.923   2.905
 8121SOL    HW125262   7.017   6.958   2.983
 8121SOL    HW225263   0.135   6.966   2.902
 8122SOL     OW25264   0.316   5.994   1.979
 8122SOL    HW125265   0.342   5.919   2.039
 8122SOL    HW225266   0.365   6.077   2.006
 8123SOL     OW25267   1.108   6.619   6.412
 8123SOL    HW125268   1.106   6.521   6.432
 8123SOL    HW225269   1.036   6.665   6.464
 8124SOL     OW25270   1.667   5.329   1.677
 8124SOL    HW125271   1.572   5.333   1.644
 8124SOL    HW225272   1.695   5.233   1.683
 8125SOL     OW25273   6.004   4.323   2.978
 8125SOL    HW125274   5.973   4.295   2.887
 8125SOL    HW225275   5.940   4.390   3.016
 8126SOL     OW25276   5.835   4.230   2.752
 8126SOL    HW125277   5.858   4.290   2.675
 8126SOL    HW225278   5.737   4.209   2.749
 8127SOL     OW25279   2.165   4.980   0.484
 8127SOL    HW125280   2.118   4.905   0.437
 8127SOL    HW225281   2.118   5.066   0.466
 8128SOL     OW25282   3.233   2.726   6.017
 8128SOL    HW125283   3.296   2.742   5.941
 8128SOL    HW225284   3.272   2.659   6.079
 8129SOL     OW25285   5.760   0.820   6.619
 8129SOL    HW125286   5.854   0.846   6.594
 8129SOL    HW225287   5.696   0.889   6.584
 8130SOL     OW25288   0.885   5.224   6.677
 8130SOL    HW125289   0.959   5.281   6.640
 8130SOL    HW225290   0.836   5.275   6.748
 8131SOL     OW25291   3.228   0.457   0.254
 8131SOL    HW125292   3.136   0.491   0.236
 8131SOL    HW225293   3.293   0.533   0.255
 8132SOL     OW25294   5.750   5.178   4.305
 8132SOL    HW125295   5.777   5.266   4.265
 8132SOL    HW225296   5.815   5.108   4.278
 8133SOL     OW25297   2.989   5.228   3.408
 8133SOL    HW125298   3.079   5.232   3.364
 8133SOL    HW225299   2.997   5.261   3.502
 8134SOL     OW25300   2.182   2.502   4.017
 8134SOL    HW125301   2.261   2.522   3.959
 8134SOL    HW225302   2.137   2.418   3.984
 8135SOL     OW25303   3.748   5.315   2.029
 8135SOL    HW125304   3.793   5.308   2.118
 8135SOL    HW225305   3.685   5.393   2.029
 8136SOL     OW25306   3.687   5.668   2.498
 8136SOL    HW125307   3.769   5.610   2.497
 8136SOL    HW225308   3.661   5.686   2.592
 8137SOL     OW25309   2.101   3.870   5.014
 8137SOL    HW125310   2.049   3.849   5.097
 8137SOL    HW225311   2.166   3.944   5.033
 8138SOL     OW25312   5.518   1.871   2.363
 8138SOL    HW125313   5.588   1.801   2.380
 8138SOL    HW225314   5.447   1.833   2.304
 8139SOL     OW25315   0.955   3.049   3.371
 8139SOL    HW125316   0.925   2.954   3.360
 8139SOL    HW225317   1.030   3.068   3.308
 8140SOL     OW25318   5.219   0.080   7.011
 8140SOL    HW125319   5.182   0.101   6.921
 8140SOL    HW225320   5.156   0.020   0.037
 8141SOL     OW25321   5.036   1.278   6.091
 8141SOL    HW125322   4.994   1.245   6.175
 8141SOL    HW225323   5.028   1.377   6.086
 8142SOL     OW25324   1.815   5.819   0.204
 8142SOL    HW125325   1.849   5.912   0.222
 8142SOL    HW225326   1.853   5.756   0.272
 8143SOL     OW25327   5.183   4.382   0.549
 8143SOL    HW125328   5.271   4.371   0.595
 8143SOL    HW225329   5.173   4.311   0.479
 8144SOL     OW25330   0.369   5.258   5.814
 8144SOL    HW125331   0.425   5.340   5.797
 8144SOL    HW225332   0.393   5.219   5.902
 8145SOL     OW25333   5.828   5.814   0.181
 8145SOL    HW125334   5.850   5.911   0.183
 8145SOL    HW225335   5.906   5.763   0.143
 8146SOL     OW25336   5.827   0.346   4.637
 8146SOL    HW125337   5.881   0.262   4.644
 8146SOL    HW225338   5.855   0.409   4.710
 8147SOL     OW25339   1.027   0.873   6.035
 8147SOL    HW125340   1.045   0.883   6.133
 8147SOL    HW225341   1.107   0.903   5.983
 8148SOL     OW25342   4.053   4.474   6.700
 8148SOL    HW125343   3.960   4.441   6.684
 8148SOL    HW225344   4.117   4.397   6.692
 8149SOL     OW25345   1.315   6.972   4.226
 8149SOL    HW125346   1.237   6.928   4.179
 8149SOL    HW225347   1.399   6.952   4.175
 8150SOL     OW25348   1.141   3.389   0.461
 8150SOL    HW125349   1.073   3.337   0.410
 8150SOL    HW225350   1.233   3.361   0.431
 8151SOL     OW25351   6.423   4.221   3.857
 8151SOL    HW125352   6.376   4.285   3.918
 8151SOL    HW225353   6.396   4.128   3.878
 8152SOL     OW25354   4.473   2.029   3.409
 8152SOL    HW125355   4.387   2.079   3.402
 8152SOL    HW225356   4.509   2.037   3.502
 8153SOL     OW25357   0.806   1.555   3.594
 8153SOL    HW125358   0.750   1.585   3.671
 8153SOL    HW225359   0.848   1.635   3.551
 8154SOL     OW25360   2.476   1.911   3.593
 8154SOL    HW125361   2.447   1.940   3.684
 8154SOL    HW225362   2.512   1.818   3.598
 8155SOL     OW25363   1.419   4.240   1.819
 8155SOL    HW125364   1.433   4.333   1.852
 8155SOL    HW225365   1.370   4.187   1.888
 8156SOL     OW25366   6.271   5.087   1.836
 8156SOL    HW125367   6.207   5.131   1.773
 8156SOL    HW225368   6.348   5.148   1.854
 8157SOL     OW25369   6.720   3.032   6.470
 8157SOL    HW125370   6.763   2.942   6.479
 8157SOL    HW225371   6.699   3.069   6.560
 8158SOL     OW25372   5.751   4.850   6.046
 8158SOL    HW125373   5.742   4.911   6.124
 8158SOL    HW225374   5.692   4.883   5.971
 8159SOL     OW25375   3.477   5.837   5.912
 8159SOL    HW125376   3.520   5.755   5.947
 8159SOL    HW225377   3.479   5.909   5.982
 8160SOL     OW25378   5.045   1.400   3.426
 8160SOL    HW125379   5.098   1.422   3.507
 8160SOL    HW225380   5.106   1.393   3.347
 8161SOL     OW25381   6.007   3.433   0.395
 8161SOL    HW125382   6.090   3.441   0.339
 8161SOL    HW225383   5.996   3.338   0.424
 8162SOL     OW25384   0.259   5.093   6.610
 8162SOL    HW125385   0.162   5.118   6.608
 8162SOL    HW225386   0.269   5.004   6.654
 8163SOL     OW25387   4.180   4.675   5.399
 8163SOL    HW125388   4.240   4.631   5.466
 8163SOL    HW225389   4.084   4.657   5.422
 8164SOL     OW25390   5.997   1.175   7.006
 8164SOL    HW125391   5.999   1.235   0.063
 8164SOL    HW225392   6.008   1.080   0.011
 8165SOL     OW25393   6.545   2.263   6.070
 8165SOL    HW125394   6.618   2.206   6.106
 8165SOL    HW225395   6.471   2.270   6.137
 8166SOL     OW25396   1.747   2.146   4.422
 8166SOL    HW125397   1.668   2.186   4.376
 8166SOL    HW225398   1.719   2.065   4.473
 8167SOL     OW25399   6.405   1.908   4.077
 8167SOL    HW125400   6.319   1.942   4.115
 8167SOL    HW225401   6.387   1.855   3.994
 8168SOL     OW25402   2.588   0.448   1.293
 8168SOL    HW125403   2.594   0.548   1.297
 8168SOL    HW225404   2.503   0.422   1.248
 8169SOL     OW25405   5.396   2.109   0.742
 8169SOL    HW125406   5.465   2.180   0.759
 8169SOL    HW225407   5.406   2.036   0.810
 8170SOL     OW25408   6.562   4.131   2.147
 8170SOL    HW125409   6.566   4.087   2.236
 8170SOL    HW225410   6.522   4.068   2.080
 8171SOL     OW25411   1.621   1.369   0.059
 8171SOL    HW125412   1.611   1.277   0.021
 8171SOL    HW225413   1.682   1.423   0.000
 8172SOL     OW25414   0.800   2.739   2.028
 8172SOL    HW125415   0.877   2.687   1.992
 8172SOL    HW225416   0.720   2.680   2.035
 8173SOL     OW25417   5.530   2.050   2.007
 8173SOL    HW125418   5.517   1.951   2.009
 8173SOL    HW225419   5.594   2.077   2.079
 8174SOL     OW25420   2.099   5.819   2.760
 8174SOL    HW125421   2.095   5.761   2.841
 8174SOL    HW225422   2.097   5.915   2.787
 8175SOL     OW25423   0.551   2.415   4.618
 8175SOL    HW125424   0.590   2.495   4.663
 8175SOL    HW225425   0.492   2.366   4.682
 8176SOL     OW25426   1.766   4.594   0.867
 8176SOL    HW125427   1.689   4.635   0.819
 8176SOL    HW225428   1.765   4.495   0.852
 8177SOL     OW25429   3.838   1.381   2.362
 8177SOL    HW125430   3.867   1.406   2.454
 8177SOL    HW225431   3.746   1.342   2.365
 8178SOL     OW25432   2.235   6.719   0.940
 8178SOL    HW125433   2.267   6.814   0.942
 8178SOL    HW225434   2.301   6.663   0.889
 8179SOL     OW25435   5.339   0.865   3.760
 8179SOL    HW125436   5.260   0.811   3.789
 8179SOL    HW225437   5.309   0.937   3.697
 8180SOL     OW25438   5.573   6.694   7.019
 8180SOL    HW125439   5.624   6.777   6.996
 8180SOL    HW225440   5.637   6.619   0.012
 8181SOL     OW25441   1.051   1.110   1.357
 8181SOL    HW125442   1.116   1.071   1.291
 8181SOL    HW225443   1.100   1.147   1.435
 8182SOL     OW25444   3.379   3.595   5.160
 8182SOL    HW125445   3.468   3.583   5.205
 8182SOL    HW225446   3.392   3.603   5.062
 8183SOL     OW25447   6.269   0.390   4.818
 8183SOL    HW125448   6.369   0.387   4.827
 8183SOL    HW225449   6.245   0.435   4.732
 8184SOL     OW25450   0.754   6.911   6.746
 8184SOL    HW125451   0.826   6.865   6.694
 8184SOL    HW225452   0.791   6.994   6.788
 8185SOL     OW25453   0.743   0.213   0.445
 8185SOL    HW125454   0.744   0.165   0.533
 8185SOL    HW225455   0.673   0.285   0.448
 8186SOL     OW25456   1.218   4.924   6.473
 8186SOL    HW125457   1.248   4.834   6.506
 8186SOL    HW225458   1.297   4.976   6.441
 8187SOL     OW25459   1.777   1.338   5.212
 8187SOL    HW125460   1.732   1.407   5.156
 8187SOL    HW225461   1.834   1.280   5.153
 8188SOL     OW25462   3.742   2.164   3.755
 8188SOL    HW125463   3.722   2.186   3.659
 8188SOL    HW225464   3.664   2.116   3.795
 8189SOL     OW25465   4.607   4.409   3.710
 8189SOL    HW125466   4.677   4.480   3.719
 8189SOL    HW225467   4.521   4.449   3.679
 8190SOL     OW25468   5.508   3.439   2.768
 8190SOL    HW125469   5.573   3.413   2.839
 8190SOL    HW225470   5.499   3.364   2.702
 8191SOL     OW25471   4.428   4.998   1.756
 8191SOL    HW125472   4.453   4.901   1.766
 8191SOL    HW225473   4.468   5.034   1.672
 8192SOL     OW25474   1.741   5.024   3.516
 8192SOL    HW125475   1.687   5.078   3.581
 8192SOL    HW225476   1.694   4.938   3.496
 8193SOL     OW25477   6.748   5.233   5.181
 8193SOL    HW125478   6.733   5.135   5.170
 8193SOL    HW225479   6.827   5.261   5.126
 8194SOL     OW25480   4.561   6.778   1.625
 8194SOL    HW125481   4.462   6.772   1.624
 8194SOL    HW225482   4.594   6.761   1.718
 8195SOL     OW25483   6.103   6.949   3.442
 8195SOL    HW125484   6.061   6.858   3.449
 8195SOL    HW225485   6.192   6.948   3.488
 8196SOL     OW25486   4.807   1.257   0.192
 8196SOL    HW125487   4.784   1.222   0.283
 8196SOL    HW225488   4.764   1.346   0.179
 8197SOL     OW25489   4.765   1.600   1.472
 8197SOL    HW125490   4.726   1.671   1.415
 8197SOL    HW225491   4.697   1.569   1.538
 8198SOL     OW25492   2.246   0.242   1.836
 8198SOL    HW125493   2.265   0.169   1.901
 8198SOL    HW225494   2.332   0.279   1.801
 8199SOL     OW25495   5.109   2.841   5.959
 8199SOL    HW125496   5.060   2.879   6.037
 8199SOL    HW225497   5.061   2.760   5.925
 8200SOL     OW25498   5.697   3.887   0.865
 8200SOL    HW125499   5.738   3.973   0.894
 8200SOL    HW225500   5.722   3.868   0.770
 8201SOL     OW25501   0.024   0.574   5.273
 8201SOL    HW125502   0.121   0.596   5.272
 8201SOL    HW225503   7.014   0.574   5.367
 8202SOL     OW25504   0.079   6.271   2.066
 8202SOL    HW125505   0.115   6.357   2.031
 8202SOL    HW225506   0.124   6.194   2.020
 8203SOL     OW25507   2.052   2.949   0.622
 8203SOL    HW125508   2.011   2.879   0.680
 8203SOL    HW225509   2.104   3.013   0.679
 8204SOL     OW25510   4.676   3.515   0.913
 8204SOL    HW125511   4.664   3.593   0.852
 8204SOL    HW225512   4.709   3.437   0.860
 8205SOL     OW25513   0.621   2.861   0.628
 8205SOL    HW125514   0.602   2.936   0.565
 8205SOL    HW225515   0.538   2.809   0.645
 8206SOL     OW25516   4.055   1.306   0.237
 8206SOL    HW125517   4.019   1.363   0.163
 8206SOL    HW225518   4.132   1.353   0.281
 8207SOL     OW25519   3.406   2.867   4.433
 8207SOL    HW125520   3.414   2.774   4.468
 8207SOL    HW225521   3.383   2.930   4.507
 8208SOL     OW25522   1.085   1.055   0.593
 8208SOL    HW125523   1.020   0.990   0.553
 8208SOL    HW225524   1.107   1.126   0.526
 8209SOL     OW25525   6.745   0.924   5.267
 8209SOL    HW125526   6.781   0.854   5.206
 8209SOL    HW225527   6.808   1.001   5.270
 8210SOL     OW25528   2.072   2.717   0.412
 8210SOL    HW125529   2.052   2.814   0.407
 8210SOL    HW225530   2.066   2.677   0.320
 8211SOL     OW25531   3.246   3.717   1.294
 8211SOL    HW125532   3.318   3.770   1.250
 8211SOL    HW225533   3.160   3.731   1.245
 8212SOL     OW25534   1.702   2.629   2.889
 8212SOL    HW125535   1.701   2.649   2.791
 8212SOL    HW225536   1.660   2.539   2.904
 8213SOL     OW25537   0.475   5.228   1.634
 8213SOL    HW125538   0.439   5.292   1.702
 8213SOL    HW225539   0.536   5.163   1.678
 8214SOL     OW25540   5.730   4.917   3.586
 8214SOL    HW125541   5.763   5.005   3.552
 8214SOL    HW225542   5.785   4.844   3.548
 8215SOL     OW25543   3.418   5.329   4.739
 8215SOL    HW125544   3.474   5.272   4.679
 8215SOL    HW225545   3.419   5.291   4.832
 8216SOL     OW25546   4.954   4.925   3.961
 8216SOL    HW125547   4.909   5.014   3.952
 8216SOL    HW225548   5.037   4.935   4.015
 8217SOL     OW25549   1.836   5.195   0.851
 8217SOL    HW125550   1.805   5.197   0.946
 8217SOL    HW225551   1.770   5.243   0.793
 8218SOL     OW25552   0.949   2.078   6.705
 8218SOL    HW125553   0.949   2.177   6.715
 8218SOL    HW225554   0.894   2.037   6.777
 8219SOL     OW25555   4.709   2.256   0.409
 8219SOL    HW125556   4.755   2.202   0.479
 8219SOL    HW225557   4.771   2.326   0.374
 8220SOL     OW25558   3.772   3.343   3.023
 8220SOL    HW125559   3.856   3.294   3.002
 8220SOL    HW225560   3.697   3.277   3.035
 8221SOL     OW25561   4.667   6.372   4.323
 8221SOL    HW125562   4.639   6.295   4.267
 8221SOL    HW225563   4.725   6.340   4.398
 8222SOL     OW25564   5.287   1.790   2.194
 8222SOL    HW125565   5.342   1.787   2.112
 8222SOL    HW225566   5.194   1.821   2.171
 8223SOL     OW25567   0.567   4.674   5.573
 8223SOL    HW125568   0.499   4.607   5.543
 8223SOL    HW225569   0.523   4.747   5.625
 8224SOL     OW25570   1.330   2.687   3.266
 8224SOL    HW125571   1.248   2.638   3.238
 8224SOL    HW225572   1.306   2.780   3.292
 8225SOL     OW25573   4.790   0.998   0.064
 8225SOL    HW125574   4.786   1.076   0.127
 8225SOL    HW225575   4.854   1.020   7.013
 8226SOL     OW25576   5.481   0.455   1.523
 8226SOL    HW125577   5.472   0.398   1.605
 8226SOL    HW225578   5.574   0.489   1.517
 8227SOL     OW25579   6.905   2.599   4.015
 8227SOL    HW125580   7.001   2.615   3.994
 8227SOL    HW225581   6.864   2.684   4.050
 8228SOL     OW25582   0.528   2.592   5.474
 8228SOL    HW125583   0.509   2.614   5.378
 8228SOL    HW225584   0.569   2.501   5.480
 8229SOL     OW25585   3.061   5.438   0.286
 8229SOL    HW125586   3.063   5.534   0.314
 8229SOL    HW225587   3.009   5.385   0.352
 8230SOL     OW25588   5.202   0.295   5.826
 8230SOL    HW125589   5.280   0.277   5.886
 8230SOL    HW225590   5.200   0.227   5.753
 8231SOL     OW25591   4.826   5.769   1.793
 8231SOL    HW125592   4.828   5.804   1.887
 8231SOL    HW225593   4.915   5.729   1.771
 8232SOL     OW25594   4.282   1.456   0.307
 8232SOL    HW125595   4.257   1.428   0.400
 8232SOL    HW225596   4.237   1.542   0.285
 8233SOL     OW25597   0.615   5.643   6.171
 8233SOL    HW125598   0.523   5.658   6.136
 8233SOL    HW225599   0.663   5.578   6.113
 8234SOL     OW25600   2.933   2.613   0.163
 8234SOL    HW125601   2.896   2.520   0.158
 8234SOL    HW225602   2.859   2.679   0.152
 8235SOL     OW25603   3.033   3.481   0.572
 8235SOL    HW125604   3.099   3.431   0.516
 8235SOL    HW225605   2.940   3.461   0.540
 8236SOL     OW25606   0.040   3.765   6.948
 8236SOL    HW125607   6.987   3.766   6.884
 8236SOL    HW225608   0.078   3.857   6.955
 8237SOL     OW25609   4.960   5.623   4.991
 8237SOL    HW125610   4.984   5.720   4.983
 8237SOL    HW225611   4.947   5.584   4.900
 8238SOL     OW25612   1.534   4.042   0.101
 8238SOL    HW125613   1.573   4.081   0.017
 8238SOL    HW225614   1.438   4.067   0.108
 8239SOL     OW25615   6.041   2.137   5.655
 8239SOL    HW125616   5.955   2.088   5.641
 8239SOL    HW225617   6.109   2.105   5.591
 8240SOL     OW25618   3.516   3.869   2.788
 8240SOL    HW125619   3.428   3.836   2.821
 8240SOL    HW225620   3.545   3.815   2.709
 8241SOL     OW25621   2.892   6.816   0.758
 8241SOL    HW125622   2.919   6.908   0.729
 8241SOL    HW225623   2.966   6.776   0.812
 8242SOL     OW25624   0.803   4.512   5.562
 8242SOL    HW125625   0.892   4.555   5.549
 8242SOL    HW225626   0.733   4.582   5.572
 8243SOL     OW25627   0.782   3.022   6.000
 8243SOL    HW125628   0.847   2.980   6.063
 8243SOL    HW225629   0.699   2.967   5.996
 8244SOL     OW25630   0.564   6.948   4.015
 8244SOL    HW125631   0.638   6.982   3.958
 8244SOL    HW225632   0.589   6.960   4.112
 8245SOL     OW25633   4.651   1.779   2.314
 8245SOL    HW125634   4.651   1.767   2.414
 8245SOL    HW225635   4.661   1.690   2.270
 8246SOL     OW25636   6.526   4.442   5.663
 8246SOL    HW125637   6.560   4.496   5.586
 8246SOL    HW225638   6.497   4.503   5.737
 8247SOL     OW25639   0.907   1.329   1.163
 8247SOL    HW125640   0.855   1.250   1.194
 8247SOL    HW225641   1.003   1.319   1.191
 8248SOL     OW25642   6.331   4.767   3.516
 8248SOL    HW125643   6.359   4.863   3.518
 8248SOL    HW225644   6.389   4.714   3.578
 8249SOL     OW25645   2.213   4.226   4.631
 8249SOL    HW125646   2.260   4.138   4.640
 8249SOL    HW225647   2.116   4.213   4.651
 8250SOL     OW25648   3.485   4.143   2.844
 8250SOL    HW125649   3.515   4.197   2.766
 8250SOL    HW225650   3.514   4.048   2.832
 8251SOL     OW25651   5.214   2.234   5.021
 8251SOL    HW125652   5.304   2.220   5.062
 8251SOL    HW225653   5.225   2.276   4.931
 8252SOL     OW25654   3.289   3.621   6.253
 8252SOL    HW125655   3.283   3.643   6.350
 8252SOL    HW225656   3.259   3.700   6.199
 8253SOL     OW25657   3.883   2.896   5.211
 8253SOL    HW125658   3.792   2.871   5.177
 8253SOL    HW225659   3.908   2.986   5.175
 8254SOL     OW25660   4.463   4.791   5.017
 8254SOL    HW125661   4.556   4.773   5.052
 8254SOL    HW225662   4.432   4.712   4.965
 8255SOL     OW25663   3.892   5.990   4.439
 8255SOL    HW125664   3.932   6.082   4.446
 8255SOL    HW225665   3.862   5.960   4.530
 8256SOL     OW25666   6.278   0.331   3.303
 8256SOL    HW125667   6.203   0.279   3.343
 8256SOL    HW225668   6.350   0.346   3.372
 8257SOL     OW25669   6.282   4.581   3.216
 8257SOL    HW125670   6.372   4.551   3.249
 8257SOL    HW225671   6.257   4.667   3.260
 8258SOL     OW25672   4.539   1.625   0.518
 8258SOL    HW125673   4.469   1.670   0.462
 8258SOL    HW225674   4.614   1.688   0.535
 8259SOL     OW25675   4.382   1.374   3.671
 8259SOL    HW125676   4.340   1.465   3.675
 8259SOL    HW225677   4.477   1.380   3.702
 8260SOL     OW25678   2.358   6.971   1.716
 8260SOL    HW125679   2.456   6.979   1.700
 8260SOL    HW225680   2.319   0.038   1.733
 8261SOL     OW25681   5.614   0.987   1.588
 8261SOL    HW125682   5.670   0.908   1.613
 8261SOL    HW225683   5.595   1.041   1.670
 8262SOL     OW25684   0.901   2.339   1.454
 8262SOL    HW125685   0.931   2.431   1.428
 8262SOL    HW225686   0.808   2.342   1.489
 8263SOL     OW25687   0.509   2.159   1.045
 8263SOL    HW125688   0.410   2.167   1.062
 8263SOL    HW225689   0.547   2.250   1.028
 8264SOL     OW25690   1.159   5.553   2.134
 8264SOL    HW125691   1.118   5.463   2.118
 8264SOL    HW225692   1.258   5.544   2.136
 8265SOL     OW25693   1.664   0.159   1.556
 8265SOL    HW125694   1.702   0.072   1.524
 8265SOL    HW225695   1.694   0.176   1.650
 8266SOL     OW25696   2.244   0.092   2.766
 8266SOL    HW125697   2.151   0.065   2.743
 8266SOL    HW225698   2.255   0.191   2.754
 8267SOL     OW25699   2.158   3.393   1.108
 8267SOL    HW125700   2.245   3.346   1.090
 8267SOL    HW225701   2.155   3.421   1.204
 8268SOL     OW25702   2.386   6.335   6.367
 8268SOL    HW125703   2.323   6.258   6.379
 8268SOL    HW225704   2.338   6.411   6.323
 8269SOL     OW25705   5.786   1.461   1.106
 8269SOL    HW125706   5.716   1.531   1.116
 8269SOL    HW225707   5.845   1.483   1.028
 8270SOL     OW25708   2.515   6.804   4.548
 8270SOL    HW125709   2.504   6.752   4.633
 8270SOL    HW225710   2.604   6.781   4.507
 8271SOL     OW25711   6.840   0.488   2.603
 8271SOL    HW125712   6.902   0.473   2.525
 8271SOL    HW225713   6.795   0.577   2.592
 8272SOL     OW25714   4.953   1.108   1.227
 8272SOL    HW125715   4.988   1.194   1.264
 8272SOL    HW225716   5.004   1.031   1.266
 8273SOL     OW25717   1.834   6.213   0.832
 8273SOL    HW125718   1.930   6.234   0.853
 8273SOL    HW225719   1.779   6.296   0.843
 8274SOL     OW25720   4.957   4.835   3.103
 8274SOL    HW125721   4.914   4.835   3.193
 8274SOL    HW225722   4.939   4.747   3.057
 8275SOL     OW25723   4.480   1.433   6.558
 8275SOL    HW125724   4.447   1.398   6.645
 8275SOL    HW225725   4.579   1.448   6.563
 8276SOL     OW25726   1.184   2.100   3.652
 8276SOL    HW125727   1.185   2.052   3.564
 8276SOL    HW225728   1.097   2.147   3.663
 8277SOL     OW25729   0.200   0.721   6.681
 8277SOL    HW125730   0.184   0.819   6.669
 8277SOL    HW225731   0.295   0.705   6.706
 8278SOL     OW25732   2.526   2.191   6.805
 8278SOL    HW125733   2.477   2.123   6.751
 8278SOL    HW225734   2.492   2.282   6.783
 8279SOL     OW25735   1.019   6.616   4.586
 8279SOL    HW125736   1.080   6.542   4.613
 8279SOL    HW225737   0.928   6.602   4.627
 8280SOL     OW25738   2.794   3.407   0.088
 8280SOL    HW125739   2.752   3.328   0.043
 8280SOL    HW225740   2.728   3.482   0.092
 8281SOL     OW25741   1.088   5.461   1.593
 8281SOL    HW125742   1.133   5.506   1.516
 8281SOL    HW225743   1.114   5.506   1.678
 8282SOL     OW25744   5.357   3.276   6.281
 8282SOL    HW125745   5.405   3.326   6.352
 8282SOL    HW225746   5.378   3.178   6.289
 8283SOL     OW25747   1.159   4.484   6.366
 8283SOL    HW125748   1.099   4.525   6.297
 8283SOL    HW225749   1.175   4.388   6.343
 8284SOL     OW25750   0.462   3.698   1.689
 8284SOL    HW125751   0.367   3.728   1.685
 8284SOL    HW225752   0.522   3.772   1.659
 8285SOL     OW25753   3.944   3.143   5.142
 8285SOL    HW125754   3.963   3.237   5.169
 8285SOL    HW225755   3.924   3.138   5.045
 8286SOL     OW25756   5.703   2.727   6.260
 8286SOL    HW125757   5.623   2.719   6.201
 8286SOL    HW225758   5.721   2.639   6.305
 8287SOL     OW25759   1.213   5.838   4.880
 8287SOL    HW125760   1.175   5.828   4.788
 8287SOL    HW225761   1.143   5.876   4.941
 8288SOL     OW25762   2.804   2.215   2.858
 8288SOL    HW125763   2.787   2.256   2.769
 8288SOL    HW225764   2.895   2.242   2.890
 8289SOL     OW25765   0.372   7.014   1.368
 8289SOL    HW125766   0.429   6.976   1.440
 8289SOL    HW225767   0.381   0.090   1.368
 8290SOL     OW25768   6.483   1.198   0.085
 8290SOL    HW125769   6.408   1.159   0.138
 8290SOL    HW225770   6.524   1.126   0.028
 8291SOL     OW25771   4.932   6.934   6.862
 8291SOL    HW125772   4.956   6.970   6.952
 8291SOL    HW225773   4.996   6.861   6.837
 8292SOL     OW25774   2.522   6.632   0.150
 8292SOL    HW125775   2.520   6.541   0.192
 8292SOL    HW225776   2.605   6.680   0.178
 8293SOL     OW25777   3.652   6.829   0.235
 8293SOL    HW125778   3.719   6.777   0.183
 8293SOL    HW225779   3.560   6.814   0.198
 8294SOL     OW25780   5.706   3.923   5.309
 8294SOL    HW125781   5.659   3.850   5.259
 8294SOL    HW225782   5.639   3.991   5.339
 8295SOL     OW25783   5.298   4.927   1.797
 8295SOL    HW125784   5.298   4.869   1.715
 8295SOL    HW225785   5.221   4.903   1.855
 8296SOL     OW25786   1.574   6.948   6.060
 8296SOL    HW125787   1.668   6.982   6.061
 8296SOL    HW225788   1.545   6.930   6.154
 8297SOL     OW25789   6.344   2.441   3.029
 8297SOL    HW125790   6.435   2.441   2.987
 8297SOL    HW225791   6.318   2.347   3.053
 8298SOL     OW25792   6.023   1.418   1.458
 8298SOL    HW125793   6.000   1.374   1.371
 8298SOL    HW225794   6.122   1.414   1.472
 8299SOL     OW25795   6.931   2.307   2.259
 8299SOL    HW125796   6.969   2.276   2.346
 8299SOL    HW225797   6.886   2.395   2.271
 8300SOL     OW25798   0.814   5.453   5.760
 8300SOL    HW125799   0.816   5.471   5.662
 8300SOL    HW225800   0.877   5.379   5.782
 8301SOL     OW25801   3.954   1.402   1.298
 8301SOL    HW125802   3.980   1.462   1.373
 8301SOL    HW225803   4.021   1.409   1.224
 8302SOL     OW25804   6.424   5.792   6.017
 8302SOL    HW125805   6.420   5.892   6.009
 8302SOL    HW225806   6.519   5.762   6.010
 8303SOL     OW25807   6.975   0.492   4.345
 8303SOL    HW125808   0.033   0.438   4.325
 8303SOL    HW225809   6.924   0.449   4.420
 8304SOL     OW25810   1.479   3.378   6.732
 8304SOL    HW125811   1.481   3.347   6.637
 8304SOL    HW225812   1.386   3.410   6.755
 8305SOL     OW25813   3.621   5.094   4.177
 8305SOL    HW125814   3.682   5.149   4.120
 8305SOL    HW225815   3.675   5.035   4.236
 8306SOL     OW25816   0.340   3.209   5.154
 8306SOL    HW125817   0.319   3.124   5.202
 8306SOL    HW225818   0.340   3.192   5.055
 8307SOL     OW25819   4.261   5.248   1.847
 8307SOL    HW125820   4.329   5.284   1.911
 8307SOL    HW225821   4.270   5.294   1.759
 8308SOL     OW25822   4.669   6.265   1.420
 8308SOL    HW125823   4.744   6.327   1.443
 8308SOL    HW225824   4.595   6.316   1.376
 8309SOL     OW25825   5.861   5.354   3.387
 8309SOL    HW125826   5.856   5.280   3.453
 8309SOL    HW225827   5.797   5.336   3.312
 8310SOL     OW25828   1.170   4.497   1.015
 8310SOL    HW125829   1.115   4.467   0.938
 8310SOL    HW225830   1.166   4.429   1.088
 8311SOL     OW25831   0.682   1.294   5.600
 8311SOL    HW125832   0.628   1.275   5.518
 8311SOL    HW225833   0.644   1.373   5.648
 8312SOL     OW25834   4.541   6.099   1.586
 8312SOL    HW125835   4.570   6.008   1.559
 8312SOL    HW225836   4.559   6.164   1.512
 8313SOL     OW25837   4.039   1.430   2.613
 8313SOL    HW125838   4.061   1.519   2.573
 8313SOL    HW225839   4.110   1.364   2.590
 8314SOL     OW25840   5.048   6.610   0.763
 8314SOL    HW125841   5.100   6.649   0.687
 8314SOL    HW225842   5.107   6.602   0.843
 8315SOL     OW25843   4.182   3.462   0.503
 8315SOL    HW125844   4.198   3.533   0.572
 8315SOL    HW225845   4.113   3.397   0.538
 8316SOL     OW25846   0.615   3.036   1.394
 8316SOL    HW125847   0.548   2.992   1.333
 8316SOL    HW225848   0.624   2.981   1.478
 8317SOL     OW25849   2.101   3.033   2.227
 8317SOL    HW125850   2.160   2.958   2.196
 8317SOL    HW225851   2.096   3.103   2.155
 8318SOL     OW25852   4.780   1.396   4.624
 8318SOL    HW125853   4.755   1.418   4.529
 8318SOL    HW225854   4.879   1.401   4.634
 8319SOL     OW25855   2.604   2.123   5.827
 8319SOL    HW125856   2.505   2.133   5.827
 8319SOL    HW225857   2.630   2.038   5.781
 8320SOL     OW25858   3.415   4.705   1.242
 8320SOL    HW125859   3.350   4.630   1.257
 8320SOL    HW225860   3.365   4.791   1.233
 8321SOL     OW25861   0.512   1.103   6.466
 8321SOL    HW125862   0.458   1.158   6.403
 8321SOL    HW225863   0.567   1.037   6.415
 8322SOL     OW25864   6.844   0.153   0.469
 8322SOL    HW125865   6.817   0.212   0.545
 8322SOL    HW225866   6.901   0.079   0.504
 8323SOL     OW25867   6.957   6.871   2.673
 8323SOL    HW125868   6.981   6.899   2.766
 8323SOL    HW225869   0.001   6.806   2.638
 8324SOL     OW25870   6.610   0.288   2.486
 8324SOL    HW125871   6.676   0.218   2.510
 8324SOL    HW225872   6.555   0.311   2.567
 8325SOL     OW25873   3.339   3.127   4.576
 8325SOL    HW125874   3.432   3.103   4.605
 8325SOL    HW225875   3.343   3.188   4.497
 8326SOL     OW25876   4.339   3.194   5.331
 8326SOL    HW125877   4.380   3.284   5.343
 8326SOL    HW225878   4.242   3.198   5.354
 8327SOL     OW25879   5.193   1.951   5.921
 8327SOL    HW125880   5.118   1.909   5.870
 8327SOL    HW225881   5.263   1.982   5.857
 8328SOL     OW25882   2.342   4.058   5.857
 8328SOL    HW125883   2.387   4.048   5.946
 8328SOL    HW225884   2.348   3.972   5.807
 8329SOL     OW25885   0.574   3.264   5.770
 8329SOL    HW125886   0.572   3.208   5.853
 8329SOL    HW225887   0.592   3.359   5.794
 8330SOL     OW25888   1.674   0.424   0.006
 8330SOL    HW125889   1.729   0.402   0.087
 8330SOL    HW225890   1.642   0.519   0.012
 8331SOL     OW25891   3.249   0.008   0.823
 8331SOL    HW125892   3.224   7.008   0.917
 8331SOL    HW225893   3.343   0.042   0.821
 8332SOL     OW25894   4.719   5.061   2.764
 8332SOL    HW125895   4.680   5.066   2.856
 8332SOL    HW225896   4.817   5.079   2.768
 8333SOL     OW25897   0.338   6.031   0.381
 8333SOL    HW125898   0.243   6.001   0.382
 8333SOL    HW225899   0.350   6.106   0.446
 8334SOL     OW25900   5.685   1.706   3.782
 8334SOL    HW125901   5.680   1.694   3.881
 8334SOL    HW225902   5.773   1.674   3.749
 8335SOL     OW25903   6.360   5.493   5.652
 8335SOL    HW125904   6.443   5.545   5.630
 8335SOL    HW225905   6.335   5.510   5.747
 8336SOL     OW25906   0.187   0.691   1.902
 8336SOL    HW125907   0.089   0.678   1.885
 8336SOL    HW225908   0.233   0.712   1.816
 8337SOL     OW25909   0.913   6.830   3.478
 8337SOL    HW125910   0.983   6.862   3.414
 8337SOL    HW225911   0.920   6.730   3.487
 8338SOL     OW25912   1.896   4.548   1.987
 8338SOL    HW125913   1.961   4.608   1.941
 8338SOL    HW225914   1.840   4.500   1.920
 8339SOL     OW25915   5.684   1.295   1.664
 8339SOL    HW125916   5.625   1.368   1.699
 8339SOL    HW225917   5.696   1.308   1.565
 8340SOL     OW25918   4.902   3.890   0.866
 8340SOL    HW125919   4.883   3.959   0.935
 8340SOL    HW225920   4.962   3.928   0.795
 8341SOL     OW25921   2.300   6.085   0.296
 8341SOL    HW125922   2.243   6.040   0.227
 8341SOL    HW225923   2.304   6.028   0.378
 8342SOL     OW25924   3.524   6.705   1.381
 8342SOL    HW125925   3.599   6.731   1.321
 8342SOL    HW225926   3.482   6.787   1.420
 8343SOL     OW25927   1.501   4.727   6.392
 8343SOL    HW125928   1.561   4.784   6.449
 8343SOL    HW225929   1.557   4.668   6.334
 8344SOL     OW25930   4.861   6.718   5.436
 8344SOL    HW125931   4.767   6.754   5.429
 8344SOL    HW225932   4.889   6.717   5.532
 8345SOL     OW25933   5.500   1.958   3.178
 8345SOL    HW125934   5.462   1.985   3.266
 8345SOL    HW225935   5.450   2.004   3.104
 8346SOL     OW25936   2.476   4.747   0.190
 8346SOL    HW125937   2.445   4.788   0.104
 8346SOL    HW225938   2.506   4.653   0.175
 8347SOL     OW25939   2.944   6.712   4.961
 8347SOL    HW125940   3.013   6.728   5.031
 8347SOL    HW225941   2.893   6.796   4.944
 8348SOL     OW25942   1.745   0.334   1.310
 8348SOL    HW125943   1.679   0.398   1.271
 8348SOL    HW225944   1.697   0.266   1.365
 8349SOL     OW25945   6.062   4.577   0.791
 8349SOL    HW125946   5.977   4.543   0.750
 8349SOL    HW225947   6.092   4.514   0.863
 8350SOL     OW25948   4.999   0.869   4.853
 8350SOL    HW125949   5.097   0.874   4.836
 8350SOL    HW225950   4.982   0.812   4.933
 8351SOL     OW25951   3.673   5.267   4.984
 8351SOL    HW125952   3.663   5.173   5.017
 8351SOL    HW225953   3.769   5.283   4.959
 8352SOL     OW25954   6.828   7.000   2.068
 8352SOL    HW125955   6.899   6.931   2.059
 8352SOL    HW225956   6.833   0.017   2.160
 8353SOL     OW25957   5.548   4.024   2.204
 8353SOL    HW125958   5.480   4.058   2.139
 8353SOL    HW225959   5.528   3.928   2.226
 8354SOL     OW25960   3.418   1.132   6.776
 8354SOL    HW125961   3.369   1.213   6.807
 8354SOL    HW225962   3.454   1.148   6.684
 8355SOL     OW25963   3.037   0.667   6.708
 8355SOL    HW125964   2.944   0.633   6.722
 8355SOL    HW225965   3.098   0.625   6.775
 8356SOL     OW25966   1.028   6.496   0.646
 8356SOL    HW125967   0.992   6.463   0.734
 8356SOL    HW225968   1.059   6.590   0.656
 8357SOL     OW25969   3.800   5.707   5.931
 8357SOL    HW125970   3.846   5.722   6.018
 8357SOL    HW225971   3.859   5.654   5.870
 8358SOL     OW25972   2.136   2.881   5.376
 8358SOL    HW125973   2.063   2.948   5.389
 8358SOL    HW225974   2.146   2.862   5.279
 8359SOL     OW25975   3.642   6.006   4.322
 8359SOL    HW125976   3.696   6.074   4.272
 8359SOL    HW225977   3.702   5.952   4.380
 8360SOL     OW25978   3.598   7.001   2.276
 8360SOL    HW125979   3.629   6.934   2.345
 8360SOL    HW225980   3.508   6.973   2.242
 8361SOL     OW25981   1.581   1.279   1.978
 8361SOL    HW125982   1.545   1.301   1.887
 8361SOL    HW225983   1.681   1.272   1.973
 8362SOL     OW25984   2.592   2.152   0.469
 8362SOL    HW125985   2.578   2.245   0.437
 8362SOL    HW225986   2.517   2.094   0.438
 8363SOL     OW25987   0.919   2.537   0.257
 8363SOL    HW125988   0.973   2.456   0.231
 8363SOL    HW225989   0.848   2.509   0.322
 8364SOL     OW25990   0.315   3.712   3.010
 8364SOL    HW125991   0.359   3.639   2.957
 8364SOL    HW225992   0.378   3.789   3.019
 8365SOL     OW25993   1.576   3.889   1.685
 8365SOL    HW125994   1.605   3.801   1.722
 8365SOL    HW225995   1.479   3.885   1.660
 8366SOL     OW25996   4.163   6.064   2.485
 8366SOL    HW125997   4.117   6.128   2.423
 8366SOL    HW225998   4.095   6.003   2.526
 8367SOL     OW25999   4.235   5.785   4.528
 8367SOL    HW126000   4.218   5.883   4.539
 8367SOL    HW226001   4.333   5.768   4.522
 8368SOL     OW26002   3.294   6.153   5.898
 8368SOL    HW126003   3.214   6.199   5.859
 8368SOL    HW226004   3.295   6.057   5.870
 8369SOL     OW26005   1.782   1.412   6.356
 8369SOL    HW126006   1.772   1.416   6.456
 8369SOL    HW226007   1.710   1.468   6.313
 8370SOL     OW26008   2.793   2.248   5.948
 8370SOL    HW126009   2.712   2.210   5.903
 8370SOL    HW226010   2.764   2.321   6.010
 8371SOL     OW26011   1.578   3.858   0.814
 8371SOL    HW126012   1.628   3.802   0.748
 8371SOL    HW226013   1.501   3.904   0.768
 8372SOL     OW26014   1.169   6.027   2.782
 8372SOL    HW126015   1.081   6.057   2.820
 8372SOL    HW226016   1.179   6.065   2.690
 8373SOL     OW26017   0.805   0.140   5.019
 8373SOL    HW126018   0.886   0.094   4.984
 8373SOL    HW226019   0.723   0.100   4.979
 8374SOL     OW26020   0.086   0.992   6.660
 8374SOL    HW126021   0.112   0.990   6.563
 8374SOL    HW226022   0.143   1.059   6.708
 8375SOL     OW26023   3.371   5.714   6.239
 8375SOL    HW126024   3.389   5.699   6.336
 8375SOL    HW226025   3.429   5.789   6.206
 8376SOL     OW26026   2.428   0.455   4.531
 8376SOL    HW126027   2.512   0.426   4.577
 8376SOL    HW226028   2.443   0.543   4.487
 8377SOL     OW26029   6.140   5.804   1.893
 8377SOL    HW126030   6.185   5.889   1.921
 8377SOL    HW226031   6.097   5.817   1.804
 8378SOL     OW26032   4.847   4.506   3.317
 8378SOL    HW126033   4.892   4.500   3.406
 8378SOL    HW226034   4.896   4.450   3.251
 8379SOL     OW26035   6.723   3.219   1.288
 8379SOL    HW126036   6.694   3.128   1.257
 8379SOL    HW226037   6.755   3.212   1.383
 8380SOL     OW26038   6.265   0.786   2.222
 8380SOL    HW126039   6.339   0.832   2.172
 8380SOL    HW226040   6.303   0.708   2.272
 8381SOL     OW26041   0.874   4.909   4.581
 8381SOL    HW126042   0.870   4.925   4.482
 8381SOL    HW226043   0.965   4.934   4.614
 8382SOL     OW26044   1.502   1.648   2.304
 8382SOL    HW126045   1.590   1.630   2.259
 8382SOL    HW226046   1.483   1.746   2.301
 8383SOL     OW26047   2.789   2.157   6.600
 8383SOL    HW126048   2.828   2.123   6.514
 8383SOL    HW226049   2.761   2.252   6.589
 8384SOL     OW26050   0.100   0.062   0.857
 8384SOL    HW126051   0.194   0.030   0.864
 8384SOL    HW226052   0.100   0.160   0.834
 8385SOL     OW26053   6.220   2.593   1.820
 8385SOL    HW126054   6.264   2.644   1.894
 8385SOL    HW226055   6.285   2.582   1.745
 8386SOL     OW26056   0.842   4.118   2.297
 8386SOL    HW126057   0.860   4.101   2.394
 8386SOL    HW226058   0.874   4.209   2.271
 8387SOL     OW26059   1.204   1.543   1.305
 8387SOL    HW126060   1.164   1.561   1.395
 8387SOL    HW226061   1.164   1.460   1.267
 8388SOL     OW26062   2.379   6.246   1.825
 8388SOL    HW126063   2.446   6.274   1.894
 8388SOL    HW226064   2.287   6.255   1.862
 8389SOL     OW26065   5.161   3.840   2.095
 8389SOL    HW126066   5.198   3.878   2.010
 8389SOL    HW226067   5.173   3.740   2.094
 8390SOL     OW26068   3.658   1.682   6.478
 8390SOL    HW126069   3.651   1.583   6.464
 8390SOL    HW226070   3.571   1.718   6.509
 8391SOL     OW26071   6.129   6.786   0.756
 8391SOL    HW126072   6.057   6.794   0.825
 8391SOL    HW226073   6.182   6.703   0.772
 8392SOL     OW26074   6.388   3.627   3.594
 8392SOL    HW126075   6.292   3.654   3.606
 8392SOL    HW226076   6.447   3.707   3.608
 8393SOL     OW26077   5.342   0.362   2.507
 8393SOL    HW126078   5.441   0.358   2.522
 8393SOL    HW226079   5.297   0.394   2.590
 8394SOL     OW26080   6.015   3.437   1.488
 8394SOL    HW126081   5.924   3.465   1.459
 8394SOL    HW226082   6.042   3.490   1.569
 8395SOL     OW26083   2.442   0.338   5.504
 8395SOL    HW126084   2.535   0.375   5.496
 8395SOL    HW226085   2.432   0.293   5.593
 8396SOL     OW26086   4.183   4.776   3.888
 8396SOL    HW126087   4.196   4.818   3.978
 8396SOL    HW226088   4.184   4.676   3.897
 8397SOL     OW26089   0.630   1.572   3.812
 8397SOL    HW126090   0.670   1.528   3.893
 8397SOL    HW226091   0.533   1.549   3.807
 8398SOL     OW26092   4.810   1.675   6.538
 8398SOL    HW126093   4.789   1.661   6.635
 8398SOL    HW226094   4.755   1.750   6.503
 8399SOL     OW26095   6.627   6.272   6.771
 8399SOL    HW126096   6.559   6.307   6.835
 8399SOL    HW226097   6.713   6.321   6.784
 8400SOL     OW26098   1.505   2.499   4.160
 8400SOL    HW126099   1.408   2.518   4.168
 8400SOL    HW226100   1.539   2.532   4.072
 8401SOL     OW26101   1.966   0.428   5.427
 8401SOL    HW126102   1.993   0.351   5.484
 8401SOL    HW226103   2.044   0.489   5.412
 8402SOL     OW26104   4.801   1.142   6.549
 8402SOL    HW126105   4.785   1.240   6.553
 8402SOL    HW226106   4.812   1.113   6.454
 8403SOL     OW26107   0.287   4.472   4.131
 8403SOL    HW126108   0.295   4.372   4.139
 8403SOL    HW226109   0.201   4.501   4.174
 8404SOL     OW26110   3.005   1.022   6.129
 8404SOL    HW126111   2.918   0.976   6.143
 8404SOL    HW226112   3.013   1.049   6.033
 8405SOL     OW26113   4.103   1.740   6.239
 8405SOL    HW126114   4.201   1.740   6.221
 8405SOL    HW226115   4.062   1.821   6.199
 8406SOL     OW26116   4.790   0.589   0.338
 8406SOL    HW126117   4.783   0.643   0.422
 8406SOL    HW226118   4.882   0.599   0.300
 8407SOL     OW26119   4.309   5.949   3.566
 8407SOL    HW126120   4.364   5.962   3.483
 8407SOL    HW226121   4.213   5.963   3.543
 8408SOL     OW26122   5.314   6.451   0.442
 8408SOL    HW126123   5.329   6.476   0.346
 8408SOL    HW226124   5.264   6.525   0.488
 8409SOL     OW26125   4.520   2.524   2.157
 8409SOL    HW126126   4.619   2.512   2.170
 8409SOL    HW226127   4.500   2.522   2.059
 8410SOL     OW26128   6.324   1.514   1.820
 8410SOL    HW126129   6.413   1.518   1.864
 8410SOL    HW226130   6.253   1.502   1.890
 8411SOL     OW26131   0.265   6.598   1.743
 8411SOL    HW126132   0.309   6.632   1.660
 8411SOL    HW226133   0.316   6.521   1.779
 8412SOL     OW26134   3.569   2.944   0.775
 8412SOL    HW126135   3.496   2.975   0.837
 8412SOL    HW226136   3.620   3.024   0.742
 8413SOL     OW26137   4.169   5.981   6.283
 8413SOL    HW126138   4.239   6.034   6.331
 8413SOL    HW226139   4.213   5.916   6.221
 8414SOL     OW26140   2.356   1.616   2.545
 8414SOL    HW126141   2.406   1.559   2.480
 8414SOL    HW226142   2.329   1.560   2.624
 8415SOL     OW26143   3.156   0.089   3.972
 8415SOL    HW126144   3.065   0.109   3.934
 8415SOL    HW226145   3.219   0.065   3.898
 8416SOL     OW26146   5.904   1.935   5.175
 8416SOL    HW126147   5.894   1.890   5.264
 8416SOL    HW226148   5.983   1.897   5.127
 8417SOL     OW26149   1.994   3.329   5.401
 8417SOL    HW126150   2.088   3.355   5.376
 8417SOL    HW226151   1.974   3.238   5.364
 8418SOL     OW26152   1.038   5.524   2.494
 8418SOL    HW126153   1.043   5.486   2.587
 8418SOL    HW226154   1.092   5.608   2.490
 8419SOL     OW26155   5.944   1.104   3.280
 8419SOL    HW126156   5.899   1.169   3.341
 8419SOL    HW226157   5.972   1.151   3.197
 8420SOL     OW26158   3.218   6.854   2.008
 8420SOL    HW126159   3.171   6.857   2.096
 8420SOL    HW226160   3.258   6.763   1.994
 8421SOL     OW26161   2.780   6.254   6.874
 8421SOL    HW126162   2.802   6.157   6.865
 8421SOL    HW226163   2.805   6.285   6.966
 8422SOL     OW26164   4.870   2.525   2.407
 8422SOL    HW126165   4.880   2.427   2.389
 8422SOL    HW226166   4.774   2.547   2.423
 8423SOL     OW26167   4.583   4.383   5.829
 8423SOL    HW126168   4.575   4.469   5.879
 8423SOL    HW226169   4.668   4.337   5.854
 8424SOL     OW26170   1.934   0.938   3.849
 8424SOL    HW126171   1.921   0.938   3.750
 8424SOL    HW226172   1.859   0.886   3.891
 8425SOL     OW26173   3.412   3.707   3.877
 8425SOL    HW126174   3.332   3.767   3.869
 8425SOL    HW226175   3.429   3.663   3.789
 8426SOL     OW26176   3.385   3.356   2.492
 8426SOL    HW126177   3.348   3.445   2.463
 8426SOL    HW226178   3.318   3.310   2.550
 8427SOL     OW26179   3.064   3.524   3.081
 8427SOL    HW126180   3.162   3.510   3.068
 8427SOL    HW226181   3.029   3.584   3.009
 8428SOL     OW26182   0.382   0.394   1.200
 8428SOL    HW126183   0.405   0.343   1.283
 8428SOL    HW226184   0.458   0.390   1.136
 8429SOL     OW26185   2.052   5.940   6.061
 8429SOL    HW126186   2.123   6.011   6.060
 8429SOL    HW226187   2.029   5.918   6.156
 8430SOL     OW26188   4.101   5.051   4.816
 8430SOL    HW126189   4.198   5.077   4.825
 8430SOL    HW226190   4.056   5.057   4.905
 8431SOL     OW26191   2.965   3.941   6.432
 8431SOL    HW126192   2.886   3.993   6.398
 8431SOL    HW226193   2.937   3.847   6.451
 8432SOL     OW26194   6.984   5.328   6.481
 8432SOL    HW126195   6.889   5.356   6.478
 8432SOL    HW226196   0.015   5.388   6.423
 8433SOL     OW26197   4.330   2.344   0.966
 8433SOL    HW126198   4.255   2.402   0.998
 8433SOL    HW226199   4.405   2.348   1.032
 8434SOL     OW26200   2.188   5.236   5.048
 8434SOL    HW126201   2.264   5.232   4.984
 8434SOL    HW226202   2.213   5.190   5.133
 8435SOL     OW26203   5.300   0.710   2.958
 8435SOL    HW126204   5.342   0.780   2.902
 8435SOL    HW226205   5.302   0.622   2.910
 8436SOL     OW26206   2.677   6.352   3.698
 8436SOL    HW126207   2.599   6.307   3.654
 8436SOL    HW226208   2.644   6.430   3.752
 8437SOL     OW26209   2.009   3.400   2.402
 8437SOL    HW126210   1.912   3.417   2.419
 8437SOL    HW226211   2.038   3.320   2.455
 8438SOL     OW26212   1.912   4.006   2.634
 8438SOL    HW126213   1.922   4.103   2.653
 8438SOL    HW226214   1.999   3.969   2.602
 8439SOL     OW26215   6.295   5.439   4.055
 8439SOL    HW126216   6.227   5.453   4.127
 8439SOL    HW226217   6.274   5.500   3.978
 8440SOL     OW26218   2.429   1.946   3.866
 8440SOL    HW126219   2.337   1.928   3.900
 8440SOL    HW226220   2.491   1.874   3.897
 8441SOL     OW26221   5.496   5.457   5.202
 8441SOL    HW126222   5.544   5.370   5.202
 8441SOL    HW226223   5.554   5.528   5.161
 8442SOL     OW26224   3.283   0.914   5.210
 8442SOL    HW126225   3.345   0.836   5.199
 8442SOL    HW226226   3.195   0.893   5.166
 8443SOL     OW26227   1.882   5.038   4.128
 8443SOL    HW126228   1.917   5.106   4.063
 8443SOL    HW226229   1.817   4.978   4.082
 8444SOL     OW26230   4.091   6.734   3.456
 8444SOL    HW126231   4.102   6.641   3.491
 8444SOL    HW226232   4.044   6.790   3.525
 8445SOL     OW26233   2.080   0.306   6.821
 8445SOL    HW126234   2.101   0.403   6.827
 8445SOL    HW226235   2.077   0.266   6.913
 8446SOL     OW26236   0.219   6.216   4.920
 8446SOL    HW126237   0.133   6.166   4.922
 8446SOL    HW226238   0.237   6.255   5.010
 8447SOL     OW26239   4.340   1.519   2.309
 8447SOL    HW126240   4.340   1.491   2.213
 8447SOL    HW226241   4.351   1.438   2.367
 8448SOL     OW26242   4.790   5.951   3.703
 8448SOL    HW126243   4.711   5.890   3.714
 8448SOL    HW226244   4.802   6.006   3.786
 8449SOL     OW26245   1.490   3.253   3.628
 8449SOL    HW126246   1.473   3.158   3.603
 8449SOL    HW226247   1.575   3.284   3.586
 8450SOL     OW26248   0.442   1.034   0.190
 8450SOL    HW126249   0.402   0.959   0.138
 8450SOL    HW226250   0.483   0.998   0.274
 8451SOL     OW26251   3.710   0.987   1.086
 8451SOL    HW126252   3.740   1.082   1.080
 8451SOL    HW226253   3.754   0.934   1.013
 8452SOL     OW26254   5.198   1.976   4.486
 8452SOL    HW126255   5.102   2.005   4.481
 8452SOL    HW226256   5.237   2.006   4.573
 8453SOL     OW26257   0.635   5.460   0.074
 8453SOL    HW126258   0.668   5.502   7.013
 8453SOL    HW226259   0.536   5.471   0.080
 8454SOL     OW26260   0.709   4.464   0.495
 8454SOL    HW126261   0.700   4.558   0.462
 8454SOL    HW226262   0.662   4.402   0.432
 8455SOL     OW26263   0.486   0.620   2.668
 8455SOL    HW126264   0.542   0.702   2.679
 8455SOL    HW226265   0.532   0.542   2.710
 8456SOL     OW26266   5.294   0.670   3.535
 8456SOL    HW126267   5.367   0.725   3.575
 8456SOL    HW226268   5.284   0.691   3.438
 8457SOL     OW26269   6.275   0.118   4.450
 8457SOL    HW126270   6.335   0.094   4.373
 8457SOL    HW226271   6.251   0.036   4.501
 8458SOL     OW26272   0.410   0.398   0.449
 8458SOL    HW126273   0.477   0.467   0.477
 8458SOL    HW226274   0.358   0.432   0.371
 8459SOL     OW26275   1.758   5.769   3.027
 8459SOL    HW126276   1.668   5.792   2.991
 8459SOL    HW226277   1.750   5.744   3.124
 8460SOL     OW26278   4.403   3.901   5.346
 8460SOL    HW126279   4.454   3.815   5.355
 8460SOL    HW226280   4.466   3.976   5.327
 8461SOL     OW26281   0.089   2.929   5.008
 8461SOL    HW126282   0.166   2.972   4.960
 8461SOL    HW226283   0.082   2.967   5.100
 8462SOL     OW26284   3.269   1.732   1.231
 8462SOL    HW126285   3.196   1.769   1.174
 8462SOL    HW226286   3.231   1.704   1.319
 8463SOL     OW26287   6.215   7.005   1.845
 8463SOL    HW126288   6.265   0.065   1.864
 8463SOL    HW226289   6.128   7.006   1.893
 8464SOL     OW26290   5.917   3.256   4.292
 8464SOL    HW126291   5.921   3.318   4.213
 8464SOL    HW226292   5.831   3.270   4.340
 8465SOL     OW26293   1.518   1.997   0.338
 8465SOL    HW126294   1.430   2.018   0.381
 8465SOL    HW226295   1.539   2.068   0.269
 8466SOL     OW26296   1.275   5.459   3.665
 8466SOL    HW126297   1.319   5.549   3.663
 8466SOL    HW226298   1.325   5.398   3.726
 8467SOL     OW26299   2.545   6.055   1.198
 8467SOL    HW126300   2.598   6.106   1.266
 8467SOL    HW226301   2.496   5.981   1.243
 8468SOL     OW26302   3.778   2.213   0.451
 8468SOL    HW126303   3.801   2.303   0.415
 8468SOL    HW226304   3.699   2.219   0.511
 8469SOL     OW26305   3.362   2.901   6.894
 8469SOL    HW126306   3.426   2.887   6.970
 8469SOL    HW226307   3.384   2.839   6.819
 8470SOL     OW26308   1.996   2.490   1.075
 8470SOL    HW126309   1.925   2.446   1.130
 8470SOL    HW226310   2.064   2.531   1.135
 8471SOL     OW26311   3.080   0.666   4.044
 8471SOL    HW126312   3.065   0.743   3.981
 8471SOL    HW226313   3.170   0.676   4.087
 8472SOL     OW26314   0.411   6.703   4.322
 8472SOL    HW126315   0.408   6.700   4.223
 8472SOL    HW226316   0.484   6.765   4.351
 8473SOL     OW26317   0.129   5.790   0.575
 8473SOL    HW126318   0.129   5.704   0.524
 8473SOL    HW226319   0.109   5.865   0.513
 8474SOL     OW26320   3.087   2.905   1.834
 8474SOL    HW126321   3.156   2.881   1.903
 8474SOL    HW226322   3.025   2.828   1.821
 8475SOL     OW26323   5.512   1.627   2.662
 8475SOL    HW126324   5.437   1.686   2.632
 8475SOL    HW226325   5.489   1.531   2.641
 8476SOL     OW26326   5.973   6.982   2.022
 8476SOL    HW126327   6.014   6.897   1.988
 8476SOL    HW226328   5.877   6.967   2.043
 8477SOL     OW26329   2.849   6.738   1.223
 8477SOL    HW126330   2.898   6.824   1.232
 8477SOL    HW226331   2.897   6.679   1.157
 8478SOL     OW26332   1.967   0.835   5.565
 8478SOL    HW126333   1.919   0.922   5.556
 8478SOL    HW226334   1.919   0.778   5.632
 8479SOL     OW26335   6.254   1.067   0.203
 8479SOL    HW126336   6.260   0.990   0.266
 8479SOL    HW226337   6.196   1.042   0.125
 8480SOL     OW26338   3.505   0.631   0.812
 8480SOL    HW126339   3.452   0.560   0.767
 8480SOL    HW226340   3.582   0.658   0.754
 8481SOL     OW26341   4.150   1.548   4.629
 8481SOL    HW126342   4.211   1.585   4.699
 8481SOL    HW226343   4.199   1.538   4.543
 8482SOL     OW26344   1.675   0.470   2.185
 8482SOL    HW126345   1.609   0.544   2.199
 8482SOL    HW226346   1.682   0.450   2.087
 8483SOL     OW26347   3.273   5.775   2.447
 8483SOL    HW126348   3.286   5.832   2.366
 8483SOL    HW226349   3.183   5.731   2.442
 8484SOL     OW26350   0.613   4.565   3.484
 8484SOL    HW126351   0.610   4.631   3.409
 8484SOL    HW226352   0.637   4.612   3.569
 8485SOL     OW26353   2.071   3.938   0.128
 8485SOL    HW126354   2.070   3.864   0.195
 8485SOL    HW226355   2.107   4.021   0.171
 8486SOL     OW26356   5.512   1.153   2.425
 8486SOL    HW126357   5.557   1.193   2.344
 8486SOL    HW226358   5.491   1.057   2.407
 8487SOL     OW26359   5.261   6.931   1.632
 8487SOL    HW126360   5.353   6.969   1.632
 8487SOL    HW226361   5.200   6.991   1.684
 8488SOL     OW26362   5.419   4.666   4.086
 8488SOL    HW126363   5.501   4.720   4.065
 8488SOL    HW226364   5.402   4.601   4.012
 8489SOL     OW26365   5.717   4.931   1.269
 8489SOL    HW126366   5.785   4.915   1.198
 8489SOL    HW226367   5.648   4.996   1.236
 8490SOL     OW26368   4.229   5.438   3.145
 8490SOL    HW126369   4.130   5.452   3.146
 8490SOL    HW226370   4.260   5.424   3.051
 8491SOL     OW26371   2.243   0.696   2.098
 8491SOL    HW126372   2.274   0.671   2.006
 8491SOL    HW226373   2.224   0.794   2.101
 8492SOL     OW26374   5.019   3.281   5.632
 8492SOL    HW126375   4.922   3.260   5.627
 8492SOL    HW226376   5.036   3.373   5.597
 8493SOL     OW26377   4.007   1.877   6.933
 8493SOL    HW126378   4.007   1.833   6.843
 8493SOL    HW226379   4.087   1.846   6.985
 8494SOL     OW26380   2.659   5.716   6.800
 8494SOL    HW126381   2.656   5.690   6.703
 8494SOL    HW226382   2.581   5.676   6.848
 8495SOL     OW26383   6.576   3.353   0.443
 8495SOL    HW126384   6.671   3.368   0.470
 8495SOL    HW226385   6.569   3.272   0.385
 8496SOL     OW26386   0.587   2.004   3.619
 8496SOL    HW126387   0.577   2.068   3.542
 8496SOL    HW226388   0.552   2.047   3.702
 8497SOL     OW26389   5.154   5.336   4.846
 8497SOL    HW126390   5.239   5.368   4.887
 8497SOL    HW226391   5.151   5.236   4.848
 8498SOL     OW26392   0.453   0.256   1.418
 8498SOL    HW126393   0.400   0.278   1.500
 8498SOL    HW226394   0.551   0.260   1.439
 8499SOL     OW26395   3.303   5.103   6.974
 8499SOL    HW126396   3.218   5.074   7.018
 8499SOL    HW226397   3.286   5.182   6.916
 8500SOL     OW26398   2.368   6.966   5.639
 8500SOL    HW126399   2.368   6.924   5.730
 8500SOL    HW226400   2.292   6.931   5.586
 8501SOL     OW26401   1.850   3.306   6.527
 8501SOL    HW126402   1.839   3.288   6.429
 8501SOL    HW226403   1.766   3.280   6.574
 8502SOL     OW26404   0.603   6.086   1.595
 8502SOL    HW126405   0.505   6.106   1.603
 8502SOL    HW226406   0.654   6.172   1.591
 8503SOL     OW26407   1.389   4.976   3.518
 8503SOL    HW126408   1.438   5.063   3.514
 8503SOL    HW226409   1.330   4.967   3.438
 8504SOL     OW26410   2.239   6.078   3.743
 8504SOL    HW126411   2.321   6.128   3.715
 8504SOL    HW226412   2.252   6.040   3.834
 8505SOL     OW26413   5.474   4.080   3.754
 8505SOL    HW126414   5.452   3.983   3.746
 8505SOL    HW226415   5.456   4.112   3.847
 8506SOL     OW26416   0.924   6.309   0.310
 8506SOL    HW126417   0.852   6.249   0.274
 8506SOL    HW226418   0.975   6.260   0.380
 8507SOL     OW26419   2.485   0.985   5.963
 8507SOL    HW126420   2.393   1.018   5.982
 8507SOL    HW226421   2.550   1.023   6.029
 8508SOL     OW26422   6.623   2.586   5.254
 8508SOL    HW126423   6.526   2.593   5.233
 8508SOL    HW226424   6.661   2.504   5.210
 8509SOL     OW26425   5.863   0.980   4.310
 8509SOL    HW126426   5.950   0.997   4.262
 8509SOL    HW226427   5.796   0.944   4.246
 8510SOL     OW26428   6.151   5.572   3.158
 8510SOL    HW126429   6.130   5.497   3.221
 8510SOL    HW226430   6.243   5.559   3.121
 8511SOL     OW26431   6.525   4.492   0.669
 8511SOL    HW126432   6.514   4.478   0.571
 8511SOL    HW226433   6.615   4.457   0.698
 8512SOL     OW26434   4.124   2.448   0.297
 8512SOL    HW126435   4.035   2.481   0.263
 8512SOL    HW226436   4.197   2.501   0.253
 8513SOL     OW26437   5.092   3.955   0.312
 8513SOL    HW126438   5.035   3.874   0.296
 8513SOL    HW226439   5.159   3.936   0.383
 8514SOL     OW26440   3.043   1.572   3.879
 8514SOL    HW126441   2.997   1.579   3.967
 8514SOL    HW226442   2.975   1.558   3.807
 8515SOL     OW26443   0.584   1.425   6.970
 8515SOL    HW126444   0.523   1.396   6.897
 8515SOL    HW226445   0.635   1.346   7.005
 8516SOL     OW26446   5.869   2.625   2.357
 8516SOL    HW126447   5.821   2.680   2.426
 8516SOL    HW226448   5.810   2.613   2.277
 8517SOL     OW26449   2.344   2.830   5.834
 8517SOL    HW126450   2.420   2.878   5.789
 8517SOL    HW226451   2.291   2.780   5.765
 8518SOL     OW26452   5.063   4.188   6.000
 8518SOL    HW126453   5.059   4.225   5.907
 8518SOL    HW226454   5.116   4.249   6.058
 8519SOL     OW26455   1.355   4.628   0.868
 8519SOL    HW126456   1.307   4.707   0.828
 8519SOL    HW226457   1.290   4.574   0.921
 8520SOL     OW26458   3.926   3.773   5.116
 8520SOL    HW126459   3.939   3.769   5.215
 8520SOL    HW226460   4.001   3.723   5.071
 8521SOL     OW26461   1.733   6.471   5.532
 8521SOL    HW126462   1.828   6.463   5.561
 8521SOL    HW226463   1.703   6.386   5.490
 8522SOL     OW26464   1.263   0.660   1.045
 8522SOL    HW126465   1.305   0.709   1.122
 8522SOL    HW226466   1.323   0.666   0.965
 8523SOL     OW26467   2.750   6.791   6.420
 8523SOL    HW126468   2.737   6.858   6.348
 8523SOL    HW226469   2.666   6.738   6.432
 8524SOL     OW26470   1.254   4.791   4.744
 8524SOL    HW126471   1.231   4.735   4.664
 8524SOL    HW226472   1.284   4.731   4.819
 8525SOL     OW26473   6.074   4.837   0.824
 8525SOL    HW126474   6.055   4.739   0.816
 8525SOL    HW226475   6.111   4.871   0.738
 8526SOL     OW26476   3.062   6.874   1.331
 8526SOL    HW126477   3.083   6.912   1.421
 8526SOL    HW226478   3.092   6.938   1.260
 8527SOL     OW26479   3.188   0.560   6.933
 8527SOL    HW126480   3.239   0.497   6.874
 8527SOL    HW226481   3.114   0.512   6.978
 8528SOL     OW26482   4.766   1.770   1.077
 8528SOL    HW126483   4.730   1.733   1.162
 8528SOL    HW226484   4.698   1.761   1.005
 8529SOL     OW26485   1.160   6.439   6.921
 8529SOL    HW126486   1.060   6.446   6.918
 8529SOL    HW226487   1.194   6.408   6.832
 8530SOL     OW26488   2.933   3.696   3.864
 8530SOL    HW126489   3.006   3.760   3.889
 8530SOL    HW226490   2.914   3.704   3.766
 8531SOL     OW26491   6.882   5.590   3.780
 8531SOL    HW126492   6.961   5.625   3.829
 8531SOL    HW226493   6.875   5.635   3.690
 8532SOL     OW26494   3.465   6.570   4.238
 8532SOL    HW126495   3.401   6.606   4.170
 8532SOL    HW226496   3.420   6.567   4.327
 8533SOL     OW26497   0.852   6.020   7.010
 8533SOL    HW126498   0.796   6.101   6.989
 8533SOL    HW226499   0.793   5.947   0.020
 8534SOL     OW26500   4.486   2.498   3.896
 8534SOL    HW126501   4.550   2.424   3.917
 8534SOL    HW226502   4.534   2.571   3.848
 8535SOL     OW26503   5.544   1.132   4.327
 8535SOL    HW126504   5.446   1.111   4.327
 8535SOL    HW226505   5.597   1.048   4.322
 8536SOL     OW26506   1.032   1.903   4.976
 8536SOL    HW126507   0.994   1.854   4.897
 8536SOL    HW226508   1.113   1.953   4.947
 8537SOL     OW26509   6.321   1.314   3.113
 8537SOL    HW126510   6.282   1.279   3.198
 8537SOL    HW226511   6.389   1.249   3.078
 8538SOL     OW26512   1.751   1.596   0.285
 8538SOL    HW126513   1.709   1.589   0.195
 8538SOL    HW226514   1.716   1.678   0.331
 8539SOL     OW26515   6.108   2.232   2.305
 8539SOL    HW126516   6.091   2.251   2.208
 8539SOL    HW226517   6.086   2.136   2.325
 8540SOL     OW26518   4.771   0.062   6.716
 8540SOL    HW126519   4.759   0.038   6.620
 8540SOL    HW226520   4.817   7.011   6.764
 8541SOL     OW26521   2.893   1.969   3.956
 8541SOL    HW126522   2.883   1.967   3.857
 8541SOL    HW226523   2.916   2.061   3.986
 8542SOL     OW26524   3.293   5.269   6.518
 8542SOL    HW126525   3.376   5.324   6.508
 8542SOL    HW226526   3.319   5.177   6.547
 8543SOL     OW26527   1.982   2.104   0.751
 8543SOL    HW126528   1.962   2.007   0.734
 8543SOL    HW226529   1.927   2.137   0.827
 8544SOL     OW26530   5.168   2.871   4.665
 8544SOL    HW126531   5.149   2.806   4.591
 8544SOL    HW226532   5.092   2.935   4.674
 8545SOL     OW26533   4.867   6.527   6.133
 8545SOL    HW126534   4.960   6.550   6.104
 8545SOL    HW226535   4.859   6.536   6.232
 8546SOL     OW26536   6.378   2.155   3.395
 8546SOL    HW126537   6.325   2.106   3.464
 8546SOL    HW226538   6.447   2.094   3.356
 8547SOL     OW26539   1.330   5.603   5.589
 8547SOL    HW126540   1.376   5.612   5.678
 8547SOL    HW226541   1.243   5.555   5.602
 8548SOL     OW26542   5.661   1.756   5.608
 8548SOL    HW126543   5.568   1.729   5.634
 8548SOL    HW226544   5.724   1.739   5.684
 8549SOL     OW26545   6.713   3.974   3.809
 8549SOL    HW126546   6.795   3.977   3.751
 8549SOL    HW226547   6.697   4.065   3.847
 8550SOL     OW26548   1.572   4.707   6.951
 8550SOL    HW126549   1.638   4.671   7.018
 8550SOL    HW226550   1.592   4.669   6.861
 8551SOL     OW26551   3.499   4.145   6.652
 8551SOL    HW126552   3.429   4.216   6.656
 8551SOL    HW226553   3.562   4.157   6.729
 8552SOL     OW26554   3.310   5.556   3.172
 8552SOL    HW126555   3.217   5.521   3.190
 8552SOL    HW226556   3.313   5.654   3.191
 8553SOL     OW26557   5.211   6.249   6.942
 8553SOL    HW126558   5.157   6.251   0.002
 8553SOL    HW226559   5.150   6.242   6.863
 8554SOL     OW26560   0.264   4.136   0.291
 8554SOL    HW126561   0.324   4.121   0.213
 8554SOL    HW226562   0.316   4.126   0.376
 8555SOL     OW26563   1.073   0.422   3.406
 8555SOL    HW126564   1.125   0.386   3.328
 8555SOL    HW226565   1.004   0.486   3.374
 8556SOL     OW26566   0.659   0.394   3.235
 8556SOL    HW126567   0.601   0.381   3.315
 8556SOL    HW226568   0.601   0.403   3.154
 8557SOL     OW26569   6.425   6.796   2.086
 8557SOL    HW126570   6.419   6.895   2.094
 8557SOL    HW226571   6.344   6.754   2.128
 8558SOL     OW26572   2.220   5.711   2.510
 8558SOL    HW126573   2.146   5.740   2.448
 8558SOL    HW226574   2.217   5.765   2.594
 8559SOL     OW26575   1.067   0.884   2.050
 8559SOL    HW126576   1.112   0.972   2.036
 8559SOL    HW226577   1.052   0.868   2.147
 8560SOL     OW26578   0.052   1.128   0.337
 8560SOL    HW126579   0.001   1.150   0.420
 8560SOL    HW226580   0.106   1.045   0.352
 8561SOL     OW26581   4.333   6.283   2.554
 8561SOL    HW126582   4.292   6.364   2.514
 8561SOL    HW226583   4.277   6.203   2.532
 8562SOL     OW26584   4.218   6.571   4.616
 8562SOL    HW126585   4.287   6.536   4.679
 8562SOL    HW226586   4.264   6.606   4.533
 8563SOL     OW26587   3.049   3.214   0.038
 8563SOL    HW126588   3.116   3.141   0.045
 8563SOL    HW226589   2.957   3.174   0.039
 8564SOL     OW26590   1.291   0.623   3.552
 8564SOL    HW126591   1.313   0.528   3.576
 8564SOL    HW226592   1.223   0.623   3.479
 8565SOL     OW26593   3.718   0.105   0.994
 8565SOL    HW126594   3.719   0.168   1.071
 8565SOL    HW226595   3.812   0.089   0.963
 8566SOL     OW26596   1.309   2.116   3.043
 8566SOL    HW126597   1.407   2.098   3.052
 8566SOL    HW226598   1.269   2.054   2.975
 8567SOL     OW26599   5.992   1.441   1.741
 8567SOL    HW126600   6.007   1.448   1.643
 8567SOL    HW226601   5.999   1.345   1.770
 8568SOL     OW26602   4.858   1.592   0.292
 8568SOL    HW126603   4.925   1.667   0.287
 8568SOL    HW226604   4.769   1.627   0.264
 8569SOL     OW26605   4.424   0.588   4.926
 8569SOL    HW126606   4.512   0.581   4.973
 8569SOL    HW226607   4.384   0.496   4.917
 8570SOL     OW26608   1.325   4.437   6.005
 8570SOL    HW126609   1.285   4.379   6.076
 8570SOL    HW226610   1.366   4.518   6.047
 8571SOL     OW26611   6.987   4.609   5.056
 8571SOL    HW126612   0.040   4.589   5.116
 8571SOL    HW226613   6.959   4.525   5.009
 8572SOL     OW26614   2.013   5.325   5.416
 8572SOL    HW126615   2.084   5.395   5.409
 8572SOL    HW226616   1.929   5.367   5.451
 8573SOL     OW26617   4.181   5.860   6.704
 8573SOL    HW126618   4.090   5.887   6.735
 8573SOL    HW226619   4.213   5.782   6.757
 8574SOL     OW26620   0.948   4.383   6.165
 8574SOL    HW126621   0.919   4.389   6.260
 8574SOL    HW226622   0.953   4.475   6.126
 8575SOL     OW26623   3.396   2.740   6.656
 8575SOL    HW126624   3.432   2.719   6.565
 8575SOL    HW226625   3.331   2.669   6.684
 8576SOL     OW26626   0.947   6.820   2.279
 8576SOL    HW126627   1.003   6.744   2.310
 8576SOL    HW226628   0.852   6.803   2.302
 8577SOL     OW26629   6.402   5.438   3.499
 8577SOL    HW126630   6.343   5.362   3.525
 8577SOL    HW226631   6.450   5.472   3.580
 8578SOL     OW26632   4.436   0.025   4.143
 8578SOL    HW126633   4.533   0.047   4.131
 8578SOL    HW226634   4.411   0.037   4.239
 8579SOL     OW26635   1.006   4.903   3.386
 8579SOL    HW126636   1.024   4.963   3.464
 8579SOL    HW226637   1.063   4.931   3.308
 8580SOL     OW26638   1.661   6.480   1.902
 8580SOL    HW126639   1.574   6.470   1.854
 8580SOL    HW226640   1.721   6.404   1.878
 8581SOL     OW26641   3.347   1.780   0.900
 8581SOL    HW126642   3.304   1.694   0.927
 8581SOL    HW226643   3.441   1.782   0.935
 8582SOL     OW26644   4.716   4.694   2.092
 8582SOL    HW126645   4.780   4.712   2.018
 8582SOL    HW226646   4.767   4.663   2.173
 8583SOL     OW26647   6.636   0.562   6.153
 8583SOL    HW126648   6.675   0.654   6.149
 8583SOL    HW226649   6.709   0.495   6.147
 8584SOL     OW26650   6.911   4.453   0.577
 8584SOL    HW126651   6.962   4.524   0.624
 8584SOL    HW226652   6.975   4.393   0.528
 8585SOL     OW26653   0.444   0.686   0.755
 8585SOL    HW126654   0.367   0.623   0.762
 8585SOL    HW226655   0.439   0.738   0.670
 8586SOL     OW26656   3.599   6.041   2.958
 8586SOL    HW126657   3.588   6.096   2.875
 8586SOL    HW226658   3.509   6.026   3.000
 8587SOL     OW26659   0.805   1.873   2.737
 8587SOL    HW126660   0.737   1.804   2.712
 8587SOL    HW226661   0.895   1.844   2.706
 8588SOL     OW26662   3.638   2.069   0.803
 8588SOL    HW126663   3.550   2.026   0.785
 8588SOL    HW226664   3.649   2.150   0.745
 8589SOL     OW26665   3.608   1.170   5.062
 8589SOL    HW126666   3.513   1.201   5.071
 8589SOL    HW226667   3.652   1.222   4.988
 8590SOL     OW26668   6.730   5.301   4.862
 8590SOL    HW126669   6.681   5.290   4.948
 8590SOL    HW226670   6.669   5.281   4.785
 8591SOL     OW26671   0.956   3.999   6.328
 8591SOL    HW126672   0.879   4.050   6.366
 8591SOL    HW226673   0.926   3.946   6.249
 8592SOL     OW26674   0.041   4.290   0.431
 8592SOL    HW126675   0.008   4.228   0.502
 8592SOL    HW226676   0.115   4.246   0.380
 8593SOL     OW26677   1.386   6.868   2.406
 8593SOL    HW126678   1.382   6.962   2.374
 8593SOL    HW226679   1.309   6.850   2.467
 8594SOL     OW26680   3.216   4.003   4.194
 8594SOL    HW126681   3.284   3.941   4.231
 8594SOL    HW226682   3.143   4.017   4.260
 8595SOL     OW26683   2.038   2.111   2.527
 8595SOL    HW126684   1.959   2.114   2.466
 8595SOL    HW226685   2.022   2.044   2.599
 8596SOL     OW26686   5.489   5.066   1.903
 8596SOL    HW126687   5.434   5.019   1.833
 8596SOL    HW226688   5.571   5.012   1.923
 8597SOL     OW26689   3.126   1.550   0.932
 8597SOL    HW126690   3.075   1.471   0.964
 8597SOL    HW226691   3.087   1.583   0.846
 8598SOL     OW26692   6.366   4.958   1.161
 8598SOL    HW126693   6.367   4.907   1.075
 8598SOL    HW226694   6.359   4.894   1.238
 8599SOL     OW26695   0.768   2.419   3.870
 8599SOL    HW126696   0.858   2.448   3.837
 8599SOL    HW226697   0.726   2.493   3.922
 8600SOL     OW26698   6.631   5.046   6.583
 8600SOL    HW126699   6.588   4.972   6.530
 8600SOL    HW226700   6.603   5.134   6.545
 8601SOL     OW26701   0.164   1.349   4.348
 8601SOL    HW126702   0.212   1.303   4.423
 8601SOL    HW226703   0.230   1.400   4.293
 8602SOL     OW26704   2.978   6.184   2.527
 8602SOL    HW126705   2.984   6.190   2.627
 8602SOL    HW226706   2.891   6.222   2.496
 8603SOL     OW26707   3.801   3.701   0.308
 8603SOL    HW126708   3.896   3.731   0.318
 8603SOL    HW226709   3.797   3.602   0.315
 8604SOL     OW26710   5.808   3.127   3.590
 8604SOL    HW126711   5.837   3.032   3.585
 8604SOL    HW226712   5.888   3.187   3.586
 8605SOL     OW26713   3.386   5.473   3.848
 8605SOL    HW126714   3.437   5.527   3.781
 8605SOL    HW226715   3.405   5.507   3.940
 8606SOL     OW26716   3.021   4.553   6.202
 8606SOL    HW126717   3.000   4.535   6.106
 8606SOL    HW226718   3.036   4.467   6.250
 8607SOL     OW26719   3.449   5.391   1.578
 8607SOL    HW126720   3.426   5.458   1.649
 8607SOL    HW226721   3.406   5.303   1.599
 8608SOL     OW26722   4.159   4.794   2.663
 8608SOL    HW126723   4.219   4.806   2.742
 8608SOL    HW226724   4.208   4.745   2.591
 8609SOL     OW26725   3.726   0.412   4.769
 8609SOL    HW126726   3.631   0.430   4.798
 8609SOL    HW226727   3.756   0.324   4.807
 8610SOL     OW26728   1.345   6.862   3.250
 8610SOL    HW126729   1.318   6.846   3.154
 8610SOL    HW226730   1.382   6.778   3.288
 8611SOL     OW26731   1.215   2.112   4.582
 8611SOL    HW126732   1.169   2.063   4.509
 8611SOL    HW226733   1.265   2.190   4.545
 8612SOL     OW26734   2.999   3.162   6.600
 8612SOL    HW126735   2.999   3.063   6.588
 8612SOL    HW226736   3.056   3.204   6.530
 8613SOL     OW26737   1.675   1.609   1.032
 8613SOL    HW126738   1.642   1.657   1.113
 8613SOL    HW226739   1.664   1.667   0.952
 8614SOL     OW26740   0.908   3.861   2.916
 8614SOL    HW126741   0.973   3.855   2.840
 8614SOL    HW226742   0.849   3.780   2.916
 8615SOL     OW26743   4.374   2.008   5.635
 8615SOL    HW126744   4.430   1.928   5.656
 8615SOL    HW226745   4.338   2.000   5.542
 8616SOL     OW26746   0.767   4.873   0.172
 8616SOL    HW126747   0.685   4.918   0.208
 8616SOL    HW226748   0.830   4.853   0.246
 8617SOL     OW26749   6.671   2.105   0.486
 8617SOL    HW126750   6.635   2.033   0.427
 8617SOL    HW226751   6.608   2.119   0.563
 8618SOL     OW26752   4.591   6.453   2.513
 8618SOL    HW126753   4.610   6.507   2.431
 8618SOL    HW226754   4.545   6.367   2.487
 8619SOL     OW26755   4.076   4.936   6.883
 8619SOL    HW126756   4.025   5.012   6.922
 8619SOL    HW226757   4.042   4.850   6.920
 8620SOL     OW26758   5.585   6.745   2.747
 8620SOL    HW126759   5.539   6.656   2.751
 8620SOL    HW226760   5.650   6.753   2.822
 8621SOL     OW26761   6.285   1.300   4.035
 8621SOL    HW126762   6.226   1.250   3.971
 8621SOL    HW226763   6.365   1.244   4.057
 8622SOL     OW26764   4.459   4.907   0.234
 8622SOL    HW126765   4.494   4.815   0.253
 8622SOL    HW226766   4.364   4.913   0.266
 8623SOL     OW26767   0.837   4.093   2.752
 8623SOL    HW126768   0.867   4.167   2.813
 8623SOL    HW226769   0.830   4.008   2.804
 8624SOL     OW26770   1.485   4.249   3.548
 8624SOL    HW126771   1.493   4.230   3.450
 8624SOL    HW226772   1.423   4.183   3.589
 8625SOL     OW26773   4.546   0.802   4.828
 8625SOL    HW126774   4.485   0.880   4.839
 8625SOL    HW226775   4.496   0.717   4.847
 8626SOL     OW26776   3.395   3.524   4.051
 8626SOL    HW126777   3.352   3.444   4.009
 8626SOL    HW226778   3.406   3.596   3.982
 8627SOL     OW26779   1.406   0.792   1.238
 8627SOL    HW126780   1.500   0.758   1.236
 8627SOL    HW226781   1.374   0.796   1.333
 8628SOL     OW26782   6.494   0.421   0.039
 8628SOL    HW126783   6.556   0.498   0.052
 8628SOL    HW226784   6.442   0.434   6.979
 8629SOL     OW26785   0.974   5.255   4.227
 8629SOL    HW126786   1.004   5.313   4.151
 8629SOL    HW226787   0.892   5.204   4.199
 8630SOL     OW26788   5.753   3.599   3.953
 8630SOL    HW126789   5.687   3.540   3.907
 8630SOL    HW226790   5.705   3.660   4.016
 8631SOL     OW26791   3.976   5.562   5.783
 8631SOL    HW126792   4.045   5.590   5.850
 8631SOL    HW226793   4.002   5.473   5.745
 8632SOL     OW26794   3.732   0.120   3.526
 8632SOL    HW126795   3.781   0.049   3.474
 8632SOL    HW226796   3.649   0.082   3.564
 8633SOL     OW26797   5.818   1.100   3.779
 8633SOL    HW126798   5.722   1.105   3.809
 8633SOL    HW226799   5.876   1.148   3.845
 8634SOL     OW26800   6.369   4.293   1.760
 8634SOL    HW126801   6.399   4.260   1.671
 8634SOL    HW226802   6.299   4.231   1.796
 8635SOL     OW26803   6.126   3.809   5.921
 8635SOL    HW126804   6.161   3.757   5.844
 8635SOL    HW226805   6.030   3.833   5.904
 8636SOL     OW26806   6.243   5.331   0.198
 8636SOL    HW126807   6.193   5.359   0.115
 8636SOL    HW226808   6.200   5.372   0.278
 8637SOL     OW26809   1.900   0.943   0.143
 8637SOL    HW126810   1.969   0.892   0.194
 8637SOL    HW226811   1.810   0.902   0.157
 8638SOL     OW26812   2.031   4.268   7.019
 8638SOL    HW126813   2.026   4.175   6.982
 8638SOL    HW226814   2.110   4.276   0.055
 8639SOL     OW26815   5.062   2.874   2.322
 8639SOL    HW126816   4.969   2.874   2.286
 8639SOL    HW226817   5.103   2.784   2.305
 8640SOL     OW26818   4.239   3.931   0.857
 8640SOL    HW126819   4.279   3.891   0.775
 8640SOL    HW226820   4.307   3.932   0.930
 8641SOL     OW26821   6.961   4.123   3.099
 8641SOL    HW126822   0.008   4.053   3.105
 8641SOL    HW226823   7.003   4.214   3.105
 8642SOL     OW26824   4.900   0.476   2.361
 8642SOL    HW126825   4.841   0.457   2.282
 8642SOL    HW226826   4.919   0.390   2.408
 8643SOL     OW26827   4.289   0.230   6.843
 8643SOL    HW126828   4.349   0.243   6.765
 8643SOL    HW226829   4.331   0.166   6.908
 8644SOL     OW26830   5.435   2.275   5.231
 8644SOL    HW126831   5.377   2.205   5.272
 8644SOL    HW226832   5.444   2.352   5.293
 8645SOL     OW26833   6.422   4.529   0.920
 8645SOL    HW126834   6.504   4.511   0.974
 8645SOL    HW226835   6.440   4.506   0.824
 8646SOL     OW26836   4.551   1.140   0.579
 8646SOL    HW126837   4.484   1.086   0.630
 8646SOL    HW226838   4.600   1.201   0.641
 8647SOL     OW26839   3.533   5.124   0.293
 8647SOL    HW126840   3.502   5.040   0.338
 8647SOL    HW226841   3.553   5.194   0.362
 8648SOL     OW26842   6.012   0.750   4.071
 8648SOL    HW126843   5.955   0.705   4.140
 8648SOL    HW226844   5.963   0.752   3.984
 8649SOL     OW26845   6.410   4.006   5.547
 8649SOL    HW126846   6.318   3.966   5.543
 8649SOL    HW226847   6.478   3.933   5.537
 8650SOL     OW26848   1.735   5.160   4.309
 8650SOL    HW126849   1.722   5.094   4.383
 8650SOL    HW226850   1.777   5.116   4.231
 8651SOL     OW26851   3.864   1.117   0.281
 8651SOL    HW126852   3.950   1.165   0.263
 8651SOL    HW226853   3.832   1.075   0.197
 8652SOL     OW26854   1.758   4.134   3.815
 8652SOL    HW126855   1.842   4.158   3.864
 8652SOL    HW226856   1.706   4.217   3.795
 8653SOL     OW26857   0.041   2.011   5.977
 8653SOL    HW126858   6.966   2.010   5.961
 8653SOL    HW226859   0.060   1.977   6.069
 8654SOL     OW26860   0.295   6.393   2.665
 8654SOL    HW126861   0.256   6.359   2.579
 8654SOL    HW226862   0.297   6.318   2.732
 8655SOL     OW26863   6.222   6.899   4.094
 8655SOL    HW126864   6.226   6.998   4.107
 8655SOL    HW226865   6.135   6.875   4.050
 8656SOL     OW26866   6.169   1.050   1.323
 8656SOL    HW126867   6.225   1.133   1.322
 8656SOL    HW226868   6.203   0.987   1.252
 8657SOL     OW26869   4.846   4.954   5.852
 8657SOL    HW126870   4.946   4.953   5.858
 8657SOL    HW226871   4.813   5.048   5.860
 8658SOL     OW26872   5.111   4.923   0.143
 8658SOL    HW126873   5.157   4.860   0.079
 8658SOL    HW226874   5.026   4.881   0.175
 8659SOL     OW26875   4.446   0.529   3.554
 8659SOL    HW126876   4.417   0.623   3.534
 8659SOL    HW226877   4.530   0.532   3.608
 8660SOL     OW26878   6.283   4.218   6.947
 8660SOL    HW126879   6.233   4.305   6.937
 8660SOL    HW226880   6.217   4.143   6.957
 8661SOL     OW26881   5.621   3.644   1.784
 8661SOL    HW126882   5.607   3.547   1.765
 8661SOL    HW226883   5.713   3.671   1.756
 8662SOL     OW26884   5.876   6.540   1.416
 8662SOL    HW126885   5.929   6.516   1.335
 8662SOL    HW226886   5.793   6.484   1.419
 8663SOL     OW26887   2.399   5.433   0.851
 8663SOL    HW126888   2.493   5.399   0.848
 8663SOL    HW226889   2.348   5.385   0.922
 8664SOL     OW26890   4.563   5.424   6.772
 8664SOL    HW126891   4.536   5.372   6.852
 8664SOL    HW226892   4.556   5.366   6.691
 8665SOL     OW26893   4.883   5.615   5.772
 8665SOL    HW126894   4.898   5.613   5.871
 8665SOL    HW226895   4.958   5.568   5.726
 8666SOL     OW26896   4.708   1.699   4.793
 8666SOL    HW126897   4.702   1.608   4.752
 8666SOL    HW226898   4.796   1.709   4.840
 8667SOL     OW26899   5.278   1.662   3.402
 8667SOL    HW126900   5.357   1.722   3.418
 8667SOL    HW226901   5.305   1.587   3.341
 8668SOL     OW26902   5.263   2.327   4.095
 8668SOL    HW126903   5.197   2.252   4.092
 8668SOL    HW226904   5.220   2.406   4.139
 8669SOL     OW26905   3.828   0.478   6.332
 8669SOL    HW126906   3.841   0.527   6.246
 8669SOL    HW226907   3.826   0.379   6.315
 8670SOL     OW26908   3.578   5.433   4.371
 8670SOL    HW126909   3.563   5.514   4.428
 8670SOL    HW226910   3.523   5.440   4.288
 8671SOL     OW26911   5.711   0.337   3.973
 8671SOL    HW126912   5.696   0.362   4.069
 8671SOL    HW226913   5.653   0.258   3.950
 8672SOL     OW26914   2.561   5.489   4.417
 8672SOL    HW126915   2.610   5.550   4.354
 8672SOL    HW226916   2.468   5.473   4.383
 8673SOL     OW26917   0.785   1.947   6.878
 8673SOL    HW126918   0.775   1.856   6.840
 8673SOL    HW226919   0.797   1.940   6.978
 8674SOL     OW26920   6.847   6.557   2.534
 8674SOL    HW126921   6.906   6.499   2.478
 8674SOL    HW226922   6.760   6.511   2.550
 8675SOL     OW26923   3.041   1.809   4.522
 8675SOL    HW126924   2.954   1.772   4.488
 8675SOL    HW226925   3.115   1.784   4.460
 8676SOL     OW26926   3.067   0.817   2.993
 8676SOL    HW126927   2.969   0.817   3.009
 8676SOL    HW226928   3.111   0.882   3.054
 8677SOL     OW26929   2.433   5.951   6.277
 8677SOL    HW126930   2.384   5.866   6.295
 8677SOL    HW226931   2.458   5.994   6.364
 8678SOL     OW26932   0.726   0.519   0.033
 8678SOL    HW126933   0.745   0.555   6.966
 8678SOL    HW226934   0.700   0.423   0.027
 8679SOL     OW26935   5.745   1.948   4.669
 8679SOL    HW126936   5.733   1.850   4.684
 8679SOL    HW226937   5.753   1.995   4.758
 8680SOL     OW26938   1.475   3.888   1.322
 8680SOL    HW126939   1.492   3.899   1.224
 8680SOL    HW226940   1.500   3.972   1.370
 8681SOL     OW26941   4.987   4.587   6.855
 8681SOL    HW126942   4.932   4.506   6.833
 8681SOL    HW226943   4.931   4.650   6.909
 8682SOL     OW26944   3.376   6.689   3.432
 8682SOL    HW126945   3.426   6.752   3.491
 8682SOL    HW226946   3.436   6.656   3.359
 8683SOL     OW26947   1.322   2.851   2.073
 8683SOL    HW126948   1.291   2.821   2.163
 8683SOL    HW226949   1.244   2.887   2.021
 8684SOL     OW26950   6.911   2.816   4.830
 8684SOL    HW126951   6.855   2.749   4.879
 8684SOL    HW226952   6.985   2.847   4.890
 8685SOL     OW26953   1.518   2.602   5.886
 8685SOL    HW126954   1.568   2.615   5.800
 8685SOL    HW226955   1.572   2.543   5.946
 8686SOL     OW26956   6.624   2.258   2.320
 8686SOL    HW126957   6.657   2.239   2.228
 8686SOL    HW226958   6.545   2.319   2.315
 8687SOL     OW26959   3.708   6.535   2.701
 8687SOL    HW126960   3.753   6.447   2.688
 8687SOL    HW226961   3.639   6.548   2.630
 8688SOL     OW26962   2.661   6.565   0.805
 8688SOL    HW126963   2.710   6.636   0.754
 8688SOL    HW226964   2.611   6.607   0.881
 8689SOL     OW26965   3.994   5.778   0.038
 8689SOL    HW126966   3.922   5.709   0.030
 8689SOL    HW226967   3.974   5.839   0.115
 8690SOL     OW26968   1.011   2.245   4.258
 8690SOL    HW126969   1.071   2.314   4.300
 8690SOL    HW226970   0.981   2.180   4.328
 8691SOL     OW26971   4.318   2.639   6.557
 8691SOL    HW126972   4.393   2.667   6.618
 8691SOL    HW226973   4.244   2.600   6.612
 8692SOL     OW26974   3.168   1.989   3.147
 8692SOL    HW126975   3.234   2.064   3.146
 8692SOL    HW226976   3.080   2.022   3.182
 8693SOL     OW26977   5.393   2.088   1.237
 8693SOL    HW126978   5.324   2.158   1.256
 8693SOL    HW226979   5.462   2.124   1.175
 8694SOL     OW26980   4.813   0.639   6.342
 8694SOL    HW126981   4.752   0.683   6.408
 8694SOL    HW226982   4.774   0.552   6.313
 8695SOL     OW26983   4.583   2.807   6.001
 8695SOL    HW126984   4.504   2.827   6.058
 8695SOL    HW226985   4.593   2.878   5.931
 8696SOL     OW26986   3.410   5.966   1.069
 8696SOL    HW126987   3.482   5.988   1.003
 8696SOL    HW226988   3.329   5.934   1.020
 8697SOL     OW26989   6.594   3.716   6.873
 8697SOL    HW126990   6.595   3.618   6.855
 8697SOL    HW226991   6.684   3.755   6.855
 8698SOL     OW26992   5.149   5.511   3.993
 8698SOL    HW126993   5.099   5.543   3.913
 8698SOL    HW226994   5.087   5.464   4.055
 8699SOL     OW26995   1.275   2.543   5.407
 8699SOL    HW126996   1.215   2.610   5.450
 8699SOL    HW226997   1.220   2.481   5.351
 8700SOL     OW26998   2.181   0.685   4.796
 8700SOL    HW126999   2.225   0.704   4.883
 8700SOL    HW227000   2.161   0.587   4.789
 8701SOL     OW27001   0.539   0.896   5.886
 8701SOL    HW127002   0.527   0.976   5.945
 8701SOL    HW227003   0.489   0.818   5.924
 8702SOL     OW27004   5.383   4.440   6.895
 8702SOL    HW127005   5.338   4.366   6.944
 8702SOL    HW227006   5.441   4.491   6.958
 8703SOL     OW27007   3.178   6.015   1.751
 8703SOL    HW127008   3.170   5.924   1.792
 8703SOL    HW227009   3.244   6.011   1.676
 8704SOL     OW27010   6.497   4.016   2.381
 8704SOL    HW127011   6.449   3.930   2.392
 8704SOL    HW227012   6.577   4.018   2.441
 8705SOL     OW27013   4.694   0.818   6.559
 8705SOL    HW127014   4.761   0.777   6.621
 8705SOL    HW227015   4.706   0.917   6.558
 8706SOL     OW27016   4.930   1.947   6.499
 8706SOL    HW127017   4.933   1.911   6.406
 8706SOL    HW227018   4.836   1.941   6.533
 8707SOL     OW27019   4.109   3.150   0.128
 8707SOL    HW127020   4.169   3.149   0.209
 8707SOL    HW227021   4.026   3.098   0.148
 8708SOL     OW27022   3.716   0.683   2.334
 8708SOL    HW127023   3.755   0.596   2.302
 8708SOL    HW227024   3.655   0.665   2.411
 8709SOL     OW27025   6.769   4.711   6.872
 8709SOL    HW127026   6.768   4.712   6.972
 8709SOL    HW227027   6.809   4.797   6.838
 8710SOL     OW27028   1.586   2.751   3.138
 8710SOL    HW127029   1.498   2.710   3.162
 8710SOL    HW227030   1.618   2.714   3.051
 8711SOL     OW27031   0.356   6.756   2.545
 8711SOL    HW127032   0.264   6.733   2.575
 8711SOL    HW227033   0.358   6.850   2.512
 8712SOL     OW27034   3.558   2.017   3.534
 8712SOL    HW127035   3.532   1.921   3.524
 8712SOL    HW227036   3.481   2.068   3.572
 8713SOL     OW27037   6.918   4.050   3.649
 8713SOL    HW127038   6.908   3.983   3.576
 8713SOL    HW227039   6.928   4.141   3.609
 8714SOL     OW27040   0.811   0.812   5.855
 8714SOL    HW127041   0.873   0.823   5.934
 8714SOL    HW227042   0.719   0.841   5.881
 8715SOL     OW27043   5.878   0.960   1.211
 8715SOL    HW127044   5.836   1.042   1.250
 8715SOL    HW227045   5.970   0.948   1.250
 8716SOL     OW27046   1.036   1.754   0.937
 8716SOL    HW127047   1.074   1.824   0.877
 8716SOL    HW227048   0.995   1.681   0.883
 8717SOL     OW27049   4.022   3.597   2.419
 8717SOL    HW127050   3.997   3.693   2.425
 8717SOL    HW227051   4.098   3.578   2.481
 8718SOL     OW27052   0.441   2.592   5.157
 8718SOL    HW127053   0.476   2.677   5.117
 8718SOL    HW227054   0.382   2.546   5.091
 8719SOL     OW27055   1.301   0.854   5.287
 8719SOL    HW127056   1.265   0.915   5.358
 8719SOL    HW227057   1.372   0.902   5.236
 8720SOL     OW27058   6.648   4.814   5.211
 8720SOL    HW127059   6.573   4.793   5.274
 8720SOL    HW227060   6.735   4.787   5.252
 8721SOL     OW27061   6.105   2.405   4.460
 8721SOL    HW127062   6.136   2.492   4.421
 8721SOL    HW227063   6.153   2.389   4.546
 8722SOL     OW27064   3.654   1.032   0.814
 8722SOL    HW127065   3.579   1.077   0.863
 8722SOL    HW227066   3.617   0.982   0.735
 8723SOL     OW27067   5.975   5.895   1.129
 8723SOL    HW127068   6.067   5.876   1.097
 8723SOL    HW227069   5.915   5.914   1.052
 8724SOL     OW27070   5.992   7.017   5.541
 8724SOL    HW127071   6.032   0.076   5.504
 8724SOL    HW227072   6.044   6.938   5.509
 8725SOL     OW27073   1.624   1.123   6.916
 8725SOL    HW127074   1.661   1.034   6.890
 8725SOL    HW227075   1.566   1.158   6.842
 8726SOL     OW27076   5.973   0.151   1.163
 8726SOL    HW127077   5.978   0.114   1.256
 8726SOL    HW227078   6.029   0.094   1.102
 8727SOL     OW27079   6.379   6.311   2.088
 8727SOL    HW127080   6.381   6.361   2.001
 8727SOL    HW227081   6.287   6.318   2.128
 8728SOL     OW27082   3.345   0.180   5.184
 8728SOL    HW127083   3.333   0.180   5.085
 8728SOL    HW227084   3.439   0.205   5.206
 8729SOL     OW27085   4.722   5.167   3.049
 8729SOL    HW127086   4.659   5.101   3.089
 8729SOL    HW227087   4.698   5.259   3.080
 8730SOL     OW27088   0.264   5.337   2.742
 8730SOL    HW127089   0.177   5.317   2.696
 8730SOL    HW227090   0.285   5.434   2.731
 8731SOL     OW27091   1.846   1.939   3.381
 8731SOL    HW127092   1.829   1.881   3.461
 8731SOL    HW227093   1.782   2.015   3.380
 8732SOL     OW27094   5.403   4.388   1.785
 8732SOL    HW127095   5.350   4.382   1.869
 8732SOL    HW227096   5.403   4.482   1.752
 8733SOL     OW27097   0.912   6.033   2.889
 8733SOL    HW127098   0.893   5.956   2.829
 8733SOL    HW227099   0.835   6.097   2.887
 8734SOL     OW27100   0.922   5.005   1.959
 8734SOL    HW127101   0.902   5.088   1.908
 8734SOL    HW227102   0.888   4.926   1.908
 8735SOL     OW27103   0.975   1.862   6.521
 8735SOL    HW127104   0.999   1.781   6.575
 8735SOL    HW227105   0.981   1.944   6.578
 8736SOL     OW27106   0.599   6.617   0.233
 8736SOL    HW127107   0.508   6.647   0.260
 8736SOL    HW227108   0.622   6.655   0.143
 8737SOL     OW27109   4.269   6.503   6.115
 8737SOL    HW127110   4.223   6.526   6.030
 8737SOL    HW227111   4.288   6.587   6.166
 8738SOL     OW27112   1.125   3.941   4.875
 8738SOL    HW127113   1.055   3.928   4.945
 8738SOL    HW227114   1.085   3.922   4.785
 8739SOL     OW27115   6.923   4.467   6.167
 8739SOL    HW127116   6.898   4.406   6.243
 8739SOL    HW227117   7.001   4.429   6.118
 8740SOL     OW27118   3.793   0.725   5.663
 8740SOL    HW127119   3.744   0.733   5.749
 8740SOL    HW227120   3.786   0.812   5.613
 8741SOL     OW27121   1.883   1.850   1.877
 8741SOL    HW127122   1.922   1.902   1.801
 8741SOL    HW227123   1.858   1.758   1.845
 8742SOL     OW27124   4.916   6.006   1.622
 8742SOL    HW127125   4.890   6.100   1.645
 8742SOL    HW227126   4.859   5.942   1.675
 8743SOL     OW27127   2.049   5.810   2.339
 8743SOL    HW127128   1.981   5.873   2.376
 8743SOL    HW227129   2.005   5.748   2.274
 8744SOL     OW27130   4.168   2.670   6.285
 8744SOL    HW127131   4.267   2.673   6.300
 8744SOL    HW227132   4.124   2.739   6.342
 8745SOL     OW27133   5.937   1.775   5.454
 8745SOL    HW127134   5.879   1.784   5.535
 8745SOL    HW227135   5.936   1.681   5.422
 8746SOL     OW27136   4.189   4.211   5.520
 8746SOL    HW127137   4.229   4.235   5.432
 8746SOL    HW227138   4.157   4.294   5.565
 8747SOL     OW27139   0.962   2.728   3.564
 8747SOL    HW127140   0.940   2.727   3.467
 8747SOL    HW227141   1.056   2.696   3.577
 8748SOL     OW27142   0.572   0.677   0.210
 8748SOL    HW127143   0.582   0.633   0.299
 8748SOL    HW227144   0.607   0.616   0.138
 8749SOL     OW27145   2.837   0.655   4.566
 8749SOL    HW127146   2.884   0.615   4.487
 8749SOL    HW227147   2.785   0.735   4.536
 8750SOL     OW27148   2.433   2.514   5.325
 8750SOL    HW127149   2.460   2.590   5.265
 8750SOL    HW227150   2.373   2.452   5.274
 8751SOL     OW27151   6.952   0.475   1.887
 8751SOL    HW127152   6.995   0.485   1.797
 8751SOL    HW227153   6.903   0.388   1.890
 8752SOL     OW27154   2.629   4.559   0.074
 8752SOL    HW127155   2.722   4.546   0.039
 8752SOL    HW227156   2.571   4.484   0.041
 8753SOL     OW27157   5.052   1.162   4.539
 8753SOL    HW127158   5.061   1.261   4.534
 8753SOL    HW227159   5.017   1.136   4.629
 8754SOL     OW27160   0.684   2.003   5.899
 8754SOL    HW127161   0.757   1.986   5.965
 8754SOL    HW227162   0.597   2.013   5.948
 8755SOL     OW27163   2.856   1.697   6.654
 8755SOL    HW127164   2.850   1.773   6.591
 8755SOL    HW227165   2.855   1.611   6.603
 8756SOL     OW27166   2.244   3.010   3.622
 8756SOL    HW127167   2.159   2.961   3.638
 8756SOL    HW227168   2.270   3.061   3.704
 8757SOL     OW27169   5.729   6.418   5.889
 8757SOL    HW127170   5.774   6.367   5.963
 8757SOL    HW227171   5.630   6.418   5.904
 8758SOL     OW27172   5.435   6.323   2.070
 8758SOL    HW127173   5.372   6.371   2.009
 8758SOL    HW227174   5.453   6.232   2.035
 8759SOL     OW27175   4.639   1.246   6.106
 8759SOL    HW127176   4.637   1.279   6.012
 8759SOL    HW227177   4.564   1.182   6.122
 8760SOL     OW27178   1.989   1.744   4.240
 8760SOL    HW127179   1.902   1.711   4.205
 8760SOL    HW227180   2.009   1.833   4.200
 8761SOL     OW27181   5.245   0.635   0.711
 8761SOL    HW127182   5.221   0.543   0.742
 8761SOL    HW227183   5.332   0.663   0.753
 8762SOL     OW27184   1.369   3.645   2.835
 8762SOL    HW127185   1.418   3.560   2.817
 8762SOL    HW227186   1.287   3.626   2.889
 8763SOL     OW27187   6.544   5.926   5.111
 8763SOL    HW127188   6.489   5.868   5.052
 8763SOL    HW227189   6.596   5.991   5.055
 8764SOL     OW27190   5.304   2.146   3.847
 8764SOL    HW127191   5.296   2.098   3.934
 8764SOL    HW227192   5.266   2.238   3.856
 8765SOL     OW27193   5.560   6.657   4.524
 8765SOL    HW127194   5.529   6.717   4.450
 8765SOL    HW227195   5.552   6.705   4.611
 8766SOL     OW27196   3.090   4.957   3.648
 8766SOL    HW127197   3.060   4.894   3.720
 8766SOL    HW227198   3.010   4.997   3.603
 8767SOL     OW27199   4.484   0.811   2.752
 8767SOL    HW127200   4.484   0.759   2.667
 8767SOL    HW227201   4.569   0.792   2.802
 8768SOL     OW27202   2.025   2.993   0.354
 8768SOL    HW127203   2.019   2.985   0.453
 8768SOL    HW227204   1.990   3.082   0.325
 8769SOL     OW27205   0.381   0.029   5.106
 8769SOL    HW127206   0.285   0.043   5.084
 8769SOL    HW227207   0.420   0.115   5.140
 8770SOL     OW27208   4.831   4.240   1.937
 8770SOL    HW127209   4.735   4.260   1.957
 8770SOL    HW227210   4.859   4.160   1.989
 8771SOL     OW27211   1.727   1.769   6.588
 8771SOL    HW127212   1.644   1.715   6.596
 8771SOL    HW227213   1.743   1.792   6.492
 8772SOL     OW27214   6.882   1.112   6.475
 8772SOL    HW127215   6.796   1.157   6.500
 8772SOL    HW227216   6.890   1.026   6.525
 8773SOL     OW27217   3.847   1.970   3.437
 8773SOL    HW127218   3.754   2.007   3.442
 8773SOL    HW227219   3.860   1.903   3.510
 8774SOL     OW27220   1.294   1.611   0.792
 8774SOL    HW127221   1.321   1.704   0.766
 8774SOL    HW227222   1.372   1.564   0.834
 8775SOL     OW27223   5.616   6.954   3.516
 8775SOL    HW127224   5.582   6.865   3.545
 8775SOL    HW227225   5.541   7.020   3.516
 8776SOL     OW27226   3.613   3.286   4.918
 8776SOL    HW127227   3.697   3.239   4.891
 8776SOL    HW227228   3.628   3.385   4.918
 8777SOL     OW27229   6.733   4.832   1.298
 8777SOL    HW127230   6.634   4.835   1.309
 8777SOL    HW227231   6.776   4.822   1.388
 8778SOL     OW27232   0.056   1.968   3.323
 8778SOL    HW127233   7.021   1.950   3.244
 8778SOL    HW227234   0.140   2.013   3.292
 8779SOL     OW27235   1.953   4.221   2.360
 8779SOL    HW127236   1.934   4.203   2.263
 8779SOL    HW227237   1.886   4.286   2.396
 8780SOL     OW27238   1.828   5.948   3.961
 8780SOL    HW127239   1.741   5.913   3.996
 8780SOL    HW227240   1.879   5.992   4.035
 8781SOL     OW27241   0.183   1.386   3.344
 8781SOL    HW127242   0.149   1.480   3.357
 8781SOL    HW227243   0.177   1.336   3.430
 8782SOL     OW27244   5.247   1.011   2.241
 8782SOL    HW127245   5.274   1.104   2.216
 8782SOL    HW227246   5.319   0.969   2.297
 8783SOL     OW27247   6.046   3.920   3.772
 8783SOL    HW127248   5.959   3.943   3.815
 8783SOL    HW227249   6.103   4.002   3.765
 8784SOL     OW27250   5.460   4.883   5.382
 8784SOL    HW127251   5.393   4.942   5.426
 8784SOL    HW227252   5.421   4.791   5.372
 8785SOL     OW27253   5.531   3.929   6.731
 8785SOL    HW127254   5.564   4.023   6.720
 8785SOL    HW227255   5.441   3.920   6.688
 8786SOL     OW27256   1.525   6.370   6.988
 8786SOL    HW127257   1.613   6.399   6.951
 8786SOL    HW227258   1.510   6.273   6.967
 8787SOL     OW27259   1.521   3.323   2.303
 8787SOL    HW127260   1.576   3.261   2.247
 8787SOL    HW227261   1.573   3.351   2.384
 8788SOL     OW27262   6.656   1.843   4.901
 8788SOL    HW127263   6.621   1.786   4.974
 8788SOL    HW227264   6.664   1.789   4.817
 8789SOL     OW27265   0.057   0.573   6.504
 8789SOL    HW127266   7.014   0.514   6.549
 8789SOL    HW227267   0.095   0.637   6.571
 8790SOL     OW27268   6.911   1.819   6.781
 8790SOL    HW127269   6.988   1.775   6.827
 8790SOL    HW227270   6.842   1.846   6.848
 8791SOL     OW27271   5.433   0.085   5.621
 8791SOL    HW127272   5.430   7.014   5.591
 8791SOL    HW227273   5.527   0.120   5.615
 8792SOL     OW27274   4.052   0.070   3.475
 8792SOL    HW127275   4.147   0.049   3.455
 8792SOL    HW227276   3.995   0.046   3.396
 8793SOL     OW27277   2.613   5.774   3.943
 8793SOL    HW127278   2.709   5.745   3.946
 8793SOL    HW227279   2.566   5.741   4.024
 8794SOL     OW27280   3.141   6.730   2.936
 8794SOL    HW127281   3.213   6.778   2.886
 8794SOL    HW227282   3.144   6.757   3.032
 8795SOL     OW27283   1.595   6.666   5.406
 8795SOL    HW127284   1.662   6.601   5.441
 8795SOL    HW227285   1.548   6.627   5.326
 8796SOL     OW27286   4.364   1.614   5.636
 8796SOL    HW127287   4.288   1.551   5.654
 8796SOL    HW227288   4.392   1.606   5.540
 8797SOL     OW27289   2.011   6.848   6.107
 8797SOL    HW127290   2.110   6.835   6.117
 8797SOL    HW227291   1.970   6.762   6.076
 8798SOL     OW27292   5.534   3.746   5.165
 8798SOL    HW127293   5.567   3.660   5.205
 8798SOL    HW227294   5.455   3.726   5.106
 8799SOL     OW27295   2.303   4.248   3.516
 8799SOL    HW127296   2.334   4.266   3.423
 8799SOL    HW227297   2.256   4.160   3.520
 8800SOL     OW27298   4.367   3.724   5.683
 8800SOL    HW127299   4.409   3.649   5.632
 8800SOL    HW227300   4.345   3.693   5.776
 8801SOL     OW27301   2.454   1.397   4.206
 8801SOL    HW127302   2.356   1.404   4.227
 8801SOL    HW227303   2.482   1.301   4.208
 8802SOL     OW27304   1.403   6.704   2.190
 8802SOL    HW127305   1.449   6.741   2.110
 8802SOL    HW227306   1.410   6.769   2.266
 8803SOL     OW27307   1.988   5.545   6.619
 8803SOL    HW127308   2.028   5.536   6.528
 8803SOL    HW227309   1.888   5.543   6.613
 8804SOL     OW27310   3.960   0.768   1.681
 8804SOL    HW127311   4.023   0.695   1.708
 8804SOL    HW227312   3.922   0.811   1.763
 8805SOL     OW27313   1.535   0.510   3.411
 8805SOL    HW127314   1.509   0.419   3.443
 8805SOL    HW227315   1.573   0.563   3.487
 8806SOL     OW27316   1.648   5.506   0.531
 8806SOL    HW127317   1.572   5.491   0.593
 8806SOL    HW227318   1.621   5.570   0.459
 8807SOL     OW27319   6.362   6.054   5.939
 8807SOL    HW127320   6.407   6.134   5.901
 8807SOL    HW227321   6.293   6.020   5.874
 8808SOL     OW27322   5.385   1.403   0.787
 8808SOL    HW127323   5.448   1.436   0.717
 8808SOL    HW227324   5.293   1.436   0.766
 8809SOL     OW27325   5.711   3.400   1.451
 8809SOL    HW127326   5.703   3.316   1.504
 8809SOL    HW227327   5.727   3.377   1.355
 8810SOL     OW27328   5.563   1.585   4.146
 8810SOL    HW127329   5.633   1.651   4.116
 8810SOL    HW227330   5.476   1.607   4.102
 8811SOL     OW27331   2.439   1.888   4.228
 8811SOL    HW127332   2.533   1.870   4.199
 8811SOL    HW227333   2.408   1.814   4.288
 8812SOL     OW27334   0.839   0.828   0.589
 8812SOL    HW127335   0.765   0.895   0.582
 8812SOL    HW227336   0.880   0.815   0.499
 8813SOL     OW27337   0.971   5.901   1.309
 8813SOL    HW127338   1.070   5.900   1.296
 8813SOL    HW227339   0.946   5.839   1.384
 8814SOL     OW27340   0.468   0.753   6.439
 8814SOL    HW127341   0.501   0.688   6.507
 8814SOL    HW227342   0.394   0.808   6.478
 8815SOL     OW27343   0.087   5.526   1.462
 8815SOL    HW127344   7.022   5.550   1.423
 8815SOL    HW227345   0.156   5.526   1.389
 8816SOL     OW27346   1.302   6.348   1.109
 8816SOL    HW127347   1.311   6.355   1.010
 8816SOL    HW227348   1.390   6.368   1.153
 8817SOL     OW27349   0.920   6.368   5.350
 8817SOL    HW127350   0.970   6.454   5.339
 8817SOL    HW227351   0.982   6.298   5.386
 8818SOL     OW27352   0.318   3.807   3.464
 8818SOL    HW127353   0.359   3.724   3.501
 8818SOL    HW227354   0.218   3.799   3.466
 8819SOL     OW27355   4.338   6.159   4.181
 8819SOL    HW127356   4.273   6.235   4.190
 8819SOL    HW227357   4.294   6.084   4.131
 8820SOL     OW27358   1.327   2.654   4.609
 8820SOL    HW127359   1.366   2.745   4.596
 8820SOL    HW227360   1.391   2.597   4.661
 8821SOL     OW27361   1.884   0.183   6.313
 8821SOL    HW127362   1.861   0.088   6.288
 8821SOL    HW227363   1.927   0.227   6.234
 8822SOL     OW27364   0.823   0.522   2.674
 8822SOL    HW127365   0.771   0.543   2.757
 8822SOL    HW227366   0.763   0.480   2.607
 8823SOL     OW27367   2.142   0.359   1.031
 8823SOL    HW127368   2.074   0.422   0.994
 8823SOL    HW227369   2.097   0.272   1.053
 8824SOL     OW27370   2.451   3.932   0.871
 8824SOL    HW127371   2.522   3.992   0.835
 8824SOL    HW227372   2.494   3.851   0.911
 8825SOL     OW27373   1.866   1.325   1.948
 8825SOL    HW127374   1.959   1.359   1.962
 8825SOL    HW227375   1.859   1.284   1.857
 8826SOL     OW27376   5.999   1.971   0.302
 8826SOL    HW127377   5.920   1.992   0.359
 8826SOL    HW227378   5.994   1.876   0.272
 8827SOL     OW27379   2.549   1.326   3.471
 8827SOL    HW127380   2.506   1.378   3.545
 8827SOL    HW227381   2.503   1.238   3.461
 8828SOL     OW27382   3.331   5.944   3.872
 8828SOL    HW127383   3.346   5.922   3.775
 8828SOL    HW227384   3.279   6.029   3.880
 8829SOL     OW27385   0.462   3.106   6.881
 8829SOL    HW127386   0.532   3.057   6.829
 8829SOL    HW227387   0.419   3.175   6.823
 8830SOL     OW27388   0.219   1.218   0.121
 8830SOL    HW127389   0.171   1.204   0.208
 8830SOL    HW227390   0.295   1.153   0.114
 8831SOL     OW27391   5.592   0.867   3.254
 8831SOL    HW127392   5.687   0.879   3.282
 8831SOL    HW227393   5.588   0.797   3.182
 8832SOL     OW27394   0.675   6.708   2.270
 8832SOL    HW127395   0.628   6.721   2.183
 8832SOL    HW227396   0.663   6.790   2.327
 8833SOL     OW27397   1.942   5.964   4.587
 8833SOL    HW127398   1.977   5.961   4.681
 8833SOL    HW227399   1.896   5.878   4.566
 8834SOL     OW27400   5.933   3.229   4.603
 8834SOL    HW127401   5.908   3.179   4.520
 8834SOL    HW227402   5.890   3.187   4.682
 8835SOL     OW27403   6.521   0.281   5.556
 8835SOL    HW127404   6.585   0.208   5.581
 8835SOL    HW227405   6.431   0.261   5.596
 8836SOL     OW27406   4.048   0.677   0.656
 8836SOL    HW127407   3.952   0.685   0.681
 8836SOL    HW227408   4.103   0.661   0.738
 8837SOL     OW27409   0.817   0.809   1.745
 8837SOL    HW127410   0.806   0.898   1.790
 8837SOL    HW227411   0.822   0.737   1.814
 8838SOL     OW27412   2.454   5.061   3.568
 8838SOL    HW127413   2.415   5.097   3.484
 8838SOL    HW227414   2.547   5.030   3.552
 8839SOL     OW27415   6.329   6.029   3.266
 8839SOL    HW127416   6.238   6.051   3.232
 8839SOL    HW227417   6.333   6.049   3.364
 8840SOL     OW27418   5.764   2.174   2.123
 8840SOL    HW127419   5.840   2.143   2.066
 8840SOL    HW227420   5.782   2.267   2.155
 8841SOL     OW27421   1.184   1.686   5.416
 8841SOL    HW127422   1.180   1.725   5.324
 8841SOL    HW227423   1.097   1.640   5.437
 8842SOL     OW27424   2.814   2.781   1.303
 8842SOL    HW127425   2.911   2.804   1.299
 8842SOL    HW227426   2.783   2.783   1.398
 8843SOL     OW27427   1.226   3.157   5.180
 8843SOL    HW127428   1.314   3.149   5.132
 8843SOL    HW227429   1.160   3.202   5.119
 8844SOL     OW27430   5.782   1.348   6.108
 8844SOL    HW127431   5.864   1.389   6.149
 8844SOL    HW227432   5.780   1.250   6.130
 8845SOL     OW27433   4.422   4.064   6.937
 8845SOL    HW127434   4.408   4.042   0.009
 8845SOL    HW227435   4.339   4.102   6.898
 8846SOL     OW27436   1.883   5.208   3.883
 8846SOL    HW127437   1.941   5.215   3.801
 8846SOL    HW227438   1.886   5.295   3.932
 8847SOL     OW27439   2.629   0.533   3.012
 8847SOL    HW127440   2.637   0.437   3.040
 8847SOL    HW227441   2.532   0.557   3.003
 8848SOL     OW27442   2.134   0.975   1.525
 8848SOL    HW127443   2.199   0.902   1.504
 8848SOL    HW227444   2.183   1.056   1.556
 8849SOL     OW27445   1.564   5.946   2.516
 8849SOL    HW127446   1.521   5.883   2.452
 8849SOL    HW227447   1.604   6.023   2.467
 8850SOL     OW27448   2.841   1.975   6.813
 8850SOL    HW127449   2.898   2.025   6.878
 8850SOL    HW227450   2.855   2.011   6.721
 8851SOL     OW27451   1.759   4.793   2.390
 8851SOL    HW127452   1.700   4.816   2.467
 8851SOL    HW227453   1.836   4.738   2.422
 8852SOL     OW27454   1.645   1.984   5.320
 8852SOL    HW127455   1.624   1.897   5.364
 8852SOL    HW227456   1.560   2.036   5.308
 8853SOL     OW27457   3.043   0.609   1.369
 8853SOL    HW127458   3.100   0.670   1.424
 8853SOL    HW227459   2.964   0.579   1.423
 8854SOL     OW27460   1.634   2.787   4.872
 8854SOL    HW127461   1.576   2.707   4.854
 8854SOL    HW227462   1.661   2.829   4.786
 8855SOL     OW27463   6.178   5.278   1.625
 8855SOL    HW127464   6.138   5.227   1.549
 8855SOL    HW227465   6.183   5.375   1.600
 8856SOL     OW27466   6.987   5.563   6.114
 8856SOL    HW127467   6.923   5.520   6.051
 8856SOL    HW227468   6.973   5.527   6.206
 8857SOL     OW27469   6.334   1.439   5.312
 8857SOL    HW127470   6.394   1.444   5.232
 8857SOL    HW227471   6.317   1.531   5.347
 8858SOL     OW27472   6.412   4.998   5.417
 8858SOL    HW127473   6.462   5.068   5.469
 8858SOL    HW227474   6.338   4.962   5.474
 8859SOL     OW27475   0.876   0.752   3.552
 8859SOL    HW127476   0.829   0.840   3.543
 8859SOL    HW227477   0.864   0.699   3.468
 8860SOL     OW27478   0.036   2.595   1.319
 8860SOL    HW127479   0.040   2.677   1.376
 8860SOL    HW227480   0.101   2.527   1.352
 8861SOL     OW27481   4.330   1.491   1.430
 8861SOL    HW127482   4.344   1.469   1.334
 8861SOL    HW227483   4.255   1.556   1.440
 8862SOL     OW27484   4.505   5.713   5.042
 8862SOL    HW127485   4.591   5.662   5.044
 8862SOL    HW227486   4.479   5.730   4.947
 8863SOL     OW27487   2.330   4.687   3.505
 8863SOL    HW127488   2.319   4.761   3.439
 8863SOL    HW227489   2.240   4.652   3.532
 8864SOL     OW27490   5.066   2.676   6.436
 8864SOL    HW127491   4.985   2.630   6.472
 8864SOL    HW227492   5.038   2.746   6.370
 8865SOL     OW27493   2.943   1.600   6.142
 8865SOL    HW127494   2.993   1.634   6.221
 8865SOL    HW227495   2.845   1.608   6.159
 8866SOL     OW27496   5.927   6.010   2.544
 8866SOL    HW127497   5.936   5.913   2.568
 8866SOL    HW227498   5.940   6.065   2.627
 8867SOL     OW27499   6.125   3.471   2.507
 8867SOL    HW127500   6.065   3.441   2.433
 8867SOL    HW227501   6.083   3.547   2.556
 8868SOL     OW27502   6.763   3.700   2.953
 8868SOL    HW127503   6.682   3.749   2.921
 8868SOL    HW227504   6.812   3.661   2.875
 8869SOL     OW27505   3.589   5.880   3.964
 8869SOL    HW127506   3.590   5.793   4.013
 8869SOL    HW227507   3.495   5.908   3.947
 8870SOL     OW27508   1.788   6.891   1.779
 8870SOL    HW127509   1.740   6.971   1.815
 8870SOL    HW227510   1.803   6.902   1.681
 8871SOL     OW27511   1.529   0.372   2.985
 8871SOL    HW127512   1.529   0.342   3.081
 8871SOL    HW227513   1.621   0.397   2.958
 8872SOL     OW27514   0.577   4.556   5.940
 8872SOL    HW127515   0.587   4.456   5.937
 8872SOL    HW227516   0.592   4.588   6.033
 8873SOL     OW27517   1.704   0.421   1.886
 8873SOL    HW127518   1.736   0.435   1.793
 8873SOL    HW227519   1.604   0.431   1.889
 8874SOL     OW27520   1.740   5.243   0.525
 8874SOL    HW127521   1.686   5.327   0.515
 8874SOL    HW227522   1.779   5.218   0.437
 8875SOL     OW27523   0.038   2.933   3.522
 8875SOL    HW127524   0.024   2.837   3.545
 8875SOL    HW227525   0.060   2.985   3.604
 8876SOL     OW27526   3.094   0.377   5.998
 8876SOL    HW127527   3.149   0.391   5.916
 8876SOL    HW227528   3.150   0.334   6.069
 8877SOL     OW27529   1.190   3.848   1.205
 8877SOL    HW127530   1.274   3.813   1.246
 8877SOL    HW227531   1.144   3.774   1.155
 8878SOL     OW27532   3.761   4.656   0.917
 8878SOL    HW127533   3.859   4.674   0.927
 8878SOL    HW227534   3.710   4.734   0.953
 8879SOL     OW27535   6.278   4.766   2.877
 8879SOL    HW127536   6.369   4.776   2.917
 8879SOL    HW227537   6.249   4.671   2.884
 8880SOL     OW27538   4.855   6.711   3.711
 8880SOL    HW127539   4.952   6.688   3.716
 8880SOL    HW227540   4.810   6.686   3.796
 8881SOL     OW27541   4.123   5.318   3.628
 8881SOL    HW127542   4.092   5.269   3.710
 8881SOL    HW227543   4.198   5.379   3.652
 8882SOL     OW27544   3.775   0.722   0.620
 8882SOL    HW127545   3.784   0.821   0.608
 8882SOL    HW227546   3.712   0.686   0.550
 8883SOL     OW27547   6.851   6.630   5.438
 8883SOL    HW127548   6.909   6.652   5.360
 8883SOL    HW227549   6.766   6.589   5.407
 8884SOL     OW27550   5.601   3.779   4.489
 8884SOL    HW127551   5.699   3.791   4.470
 8884SOL    HW227552   5.566   3.703   4.435
 8885SOL     OW27553   5.808   5.438   0.434
 8885SOL    HW127554   5.717   5.425   0.473
 8885SOL    HW227555   5.844   5.349   0.404
 8886SOL     OW27556   3.035   5.400   0.012
 8886SOL    HW127557   2.981   5.468   6.985
 8886SOL    HW227558   3.025   5.417   0.110
 8887SOL     OW27559   4.307   1.220   0.861
 8887SOL    HW127560   4.361   1.298   0.831
 8887SOL    HW227561   4.209   1.243   0.857
 8888SOL     OW27562   1.969   1.725   3.890
 8888SOL    HW127563   1.910   1.660   3.937
 8888SOL    HW227564   2.065   1.700   3.906
 8889SOL     OW27565   6.652   6.615   6.457
 8889SOL    HW127566   6.619   6.521   6.470
 8889SOL    HW227567   6.611   6.652   6.373
 8890SOL     OW27568   0.182   6.969   0.351
 8890SOL    HW127569   0.242   0.015   0.312
 8890SOL    HW227570   0.089   6.983   0.318
 8891SOL     OW27571   5.909   4.468   6.393
 8891SOL    HW127572   5.998   4.434   6.361
 8891SOL    HW227573   5.885   4.551   6.344
 8892SOL     OW27574   3.340   5.047   3.669
 8892SOL    HW127575   3.335   5.147   3.678
 8892SOL    HW227576   3.247   5.010   3.664
 8893SOL     OW27577   1.212   5.405   4.458
 8893SOL    HW127578   1.181   5.476   4.395
 8893SOL    HW227579   1.307   5.381   4.438
 8894SOL     OW27580   4.421   2.865   0.456
 8894SOL    HW127581   4.504   2.883   0.509
 8894SOL    HW227582   4.345   2.851   0.519
 8895SOL     OW27583   0.883   3.124   0.878
 8895SOL    HW127584   0.977   3.126   0.844
 8895SOL    HW227585   0.856   3.030   0.899
 8896SOL     OW27586   0.477   2.296   4.062
 8896SOL    HW127587   0.569   2.286   4.100
 8896SOL    HW227588   0.411   2.303   4.137
 8897SOL     OW27589   1.708   3.854   3.817
 8897SOL    HW127590   1.702   3.832   3.720
 8897SOL    HW227591   1.702   3.953   3.829
 8898SOL     OW27592   5.039   3.473   2.502
 8898SOL    HW127593   5.069   3.385   2.466
 8898SOL    HW227594   5.024   3.465   2.600
 8899SOL     OW27595   0.497   3.996   6.185
 8899SOL    HW127596   0.482   3.900   6.207
 8899SOL    HW227597   0.499   4.008   6.085
 8900SOL     OW27598   5.664   2.171   3.491
 8900SOL    HW127599   5.748   2.213   3.457
 8900SOL    HW227600   5.668   2.166   3.591
 8901SOL     OW27601   0.627   2.317   3.678
 8901SOL    HW127602   0.682   2.349   3.755
 8901SOL    HW227603   0.554   2.257   3.711
 8902SOL     OW27604   1.283   4.159   0.138
 8902SOL    HW127605   1.245   4.239   0.091
 8902SOL    HW227606   1.235   4.146   0.224
 8903SOL     OW27607   1.646   1.177   4.714
 8903SOL    HW127608   1.644   1.207   4.809
 8903SOL    HW227609   1.658   1.256   4.654
 8904SOL     OW27610   0.681   1.168   2.475
 8904SOL    HW127611   0.668   1.123   2.563
 8904SOL    HW227612   0.669   1.267   2.486
 8905SOL     OW27613   1.476   3.600   2.193
 8905SOL    HW127614   1.489   3.506   2.224
 8905SOL    HW227615   1.565   3.644   2.182
 8906SOL     OW27616   0.041   0.322   0.807
 8906SOL    HW127617   0.051   0.352   0.712
 8906SOL    HW227618   0.079   0.391   0.868
 8907SOL     OW27619   3.337   2.562   5.306
 8907SOL    HW127620   3.277   2.483   5.290
 8907SOL    HW227621   3.292   2.645   5.275
 8908SOL     OW27622   1.323   5.545   0.443
 8908SOL    HW127623   1.362   5.526   0.533
 8908SOL    HW227624   1.226   5.521   0.444
 8909SOL     OW27625   2.315   1.558   6.484
 8909SOL    HW127626   2.361   1.601   6.406
 8909SOL    HW227627   2.221   1.536   6.459
 8910SOL     OW27628   0.901   2.963   4.893
 8910SOL    HW127629   0.911   3.031   4.966
 8910SOL    HW227630   0.857   2.881   4.930
 8911SOL     OW27631   5.325   1.992   4.066
 8911SOL    HW127632   5.306   1.894   4.069
 8911SOL    HW227633   5.257   2.040   4.121
 8912SOL     OW27634   4.144   3.823   5.342
 8912SOL    HW127635   4.097   3.888   5.283
 8912SOL    HW227636   4.239   3.852   5.355
 8913SOL     OW27637   4.943   5.343   0.228
 8913SOL    HW127638   5.027   5.301   0.263
 8913SOL    HW227639   4.915   5.297   0.144
 8914SOL     OW27640   5.071   6.472   4.860
 8914SOL    HW127641   5.021   6.439   4.940
 8914SOL    HW227642   5.163   6.434   4.861
 8915SOL     OW27643   0.592   1.128   3.721
 8915SOL    HW127644   0.623   1.046   3.769
 8915SOL    HW227645   0.504   1.157   3.757
 8916SOL     OW27646   5.821   1.425   6.486
 8916SOL    HW127647   5.754   1.497   6.471
 8916SOL    HW227648   5.775   1.337   6.490
 8917SOL     OW27649   6.080   1.818   0.669
 8917SOL    HW127650   5.993   1.793   0.712
 8917SOL    HW227651   6.075   1.913   0.638
 8918SOL     OW27652   1.804   5.080   1.721
 8918SOL    HW127653   1.894   5.092   1.763
 8918SOL    HW227654   1.810   5.009   1.651
 8919SOL     OW27655   5.458   4.257   6.476
 8919SOL    HW127656   5.534   4.212   6.522
 8919SOL    HW227657   5.408   4.314   6.541
 8920SOL     OW27658   0.405   1.053   6.730
 8920SOL    HW127659   0.439   0.963   6.756
 8920SOL    HW227660   0.428   1.071   6.634
 8921SOL     OW27661   1.278   3.051   1.251
 8921SOL    HW127662   1.354   3.062   1.188
 8921SOL    HW227663   1.293   2.970   1.309
 8922SOL     OW27664   3.911   7.012   3.255
 8922SOL    HW127665   3.919   6.916   3.229
 8922SOL    HW227666   3.827   0.026   3.216
 8923SOL     OW27667   1.738   2.267   5.745
 8923SOL    HW127668   1.650   2.269   5.792
 8923SOL    HW227669   1.727   2.221   5.657
 8924SOL     OW27670   5.475   4.839   4.594
 8924SOL    HW127671   5.460   4.836   4.693
 8924SOL    HW227672   5.515   4.927   4.569
 8925SOL     OW27673   1.299   0.865   2.652
 8925SOL    HW127674   1.389   0.859   2.609
 8925SOL    HW227675   1.281   0.781   2.704
 8926SOL     OW27676   6.561   3.673   5.704
 8926SOL    HW127677   6.523   3.615   5.631
 8926SOL    HW227678   6.638   3.625   5.747
 8927SOL     OW27679   6.695   2.164   5.427
 8927SOL    HW127680   6.637   2.165   5.346
 8927SOL    HW227681   6.659   2.099   5.493
 8928SOL     OW27682   2.489   0.049   5.305
 8928SOL    HW127683   2.508   0.136   5.260
 8928SOL    HW227684   2.395   0.047   5.337
 8929SOL     OW27685   6.385   2.613   5.044
 8929SOL    HW127686   6.353   2.639   4.953
 8929SOL    HW227687   6.308   2.579   5.098
 8930SOL     OW27688   1.380   4.177   3.254
 8930SOL    HW127689   1.340   4.088   3.237
 8930SOL    HW227690   1.314   4.249   3.230
 8931SOL     OW27691   3.498   3.000   1.828
 8931SOL    HW127692   3.521   2.949   1.910
 8931SOL    HW227693   3.409   3.046   1.841
 8932SOL     OW27694   0.656   2.420   3.158
 8932SOL    HW127695   0.620   2.427   3.251
 8932SOL    HW227696   0.657   2.511   3.116
 8933SOL     OW27697   3.371   2.548   6.179
 8933SOL    HW127698   3.452   2.511   6.135
 8933SOL    HW227699   3.394   2.632   6.227
 8934SOL     OW27700   3.829   5.324   3.825
 8934SOL    HW127701   3.764   5.326   3.901
 8934SOL    HW227702   3.918   5.293   3.858
 8935SOL     OW27703   6.946   5.378   1.200
 8935SOL    HW127704   6.949   5.290   1.247
 8935SOL    HW227705   6.865   5.429   1.229
 8936SOL     OW27706   1.802   3.885   0.427
 8936SOL    HW127707   1.739   3.856   0.356
 8936SOL    HW227708   1.893   3.850   0.408
 8937SOL     OW27709   0.027   6.687   5.261
 8937SOL    HW127710   0.124   6.670   5.278
 8937SOL    HW227711   0.018   6.758   5.190
 8938SOL     OW27712   6.621   5.165   1.858
 8938SOL    HW127713   6.549   5.186   1.925
 8938SOL    HW227714   6.702   5.220   1.877
 8939SOL     OW27715   4.807   2.122   4.936
 8939SOL    HW127716   4.744   2.051   4.968
 8939SOL    HW227717   4.857   2.159   5.014
 8940SOL     OW27718   6.655   0.695   4.068
 8940SOL    HW127719   6.746   0.701   4.109
 8940SOL    HW227720   6.629   0.599   4.057
 8941SOL     OW27721   5.357   2.227   5.621
 8941SOL    HW127722   5.419   2.304   5.634
 8941SOL    HW227723   5.286   2.252   5.554
 8942SOL     OW27724   0.370   2.841   5.519
 8942SOL    HW127725   0.386   2.928   5.564
 8942SOL    HW227726   0.376   2.767   5.586
 8943SOL     OW27727   5.614   4.144   0.513
 8943SOL    HW127728   5.713   4.132   0.512
 8943SOL    HW227729   5.570   4.058   0.485
 8944SOL     OW27730   5.540   5.427   6.549
 8944SOL    HW127731   5.473   5.362   6.585
 8944SOL    HW227732   5.504   5.470   6.467
 8945SOL     OW27733   2.574   0.395   4.862
 8945SOL    HW127734   2.482   0.369   4.892
 8945SOL    HW227735   2.595   0.348   4.777
 8946SOL     OW27736   2.999   1.788   5.256
 8946SOL    HW127737   2.970   1.817   5.165
 8946SOL    HW227738   3.019   1.868   5.311
 8947SOL     OW27739   2.733   3.772   5.914
 8947SOL    HW127740   2.817   3.826   5.908
 8947SOL    HW227741   2.726   3.713   5.833
 8948SOL     OW27742   5.344   4.943   3.250
 8948SOL    HW127743   5.342   5.042   3.231
 8948SOL    HW227744   5.295   4.925   3.336
 8949SOL     OW27745   1.788   6.784   6.854
 8949SOL    HW127746   1.836   6.769   6.940
 8949SOL    HW227747   1.810   6.875   6.819
 8950SOL     OW27748   4.667   2.997   5.568
 8950SOL    HW127749   4.764   2.974   5.579
 8950SOL    HW227750   4.649   3.019   5.472
 8951SOL     OW27751   1.344   2.865   5.574
 8951SOL    HW127752   1.422   2.810   5.546
 8951SOL    HW227753   1.358   2.960   5.547
 8952SOL     OW27754   1.070   1.302   2.824
 8952SOL    HW127755   1.134   1.329   2.896
 8952SOL    HW227756   1.083   1.360   2.744
 8953SOL     OW27757   1.605   3.596   0.012
 8953SOL    HW127758   1.552   3.661   6.981
 8953SOL    HW227759   1.660   3.538   6.975
 8954SOL     OW27760   0.583   6.222   6.379
 8954SOL    HW127761   0.545   6.224   6.286
 8954SOL    HW227762   0.612   6.128   6.400
 8955SOL     OW27763   7.010   4.266   3.527
 8955SOL    HW127764   7.019   4.350   3.581
 8955SOL    HW227765   0.009   4.286   3.432
 8956SOL     OW27766   0.463   0.789   6.173
 8956SOL    HW127767   0.376   0.834   6.155
 8956SOL    HW227768   0.470   0.767   6.271
 8957SOL     OW27769   2.761   4.450   1.642
 8957SOL    HW127770   2.808   4.474   1.727
 8957SOL    HW227771   2.814   4.483   1.564
 8958SOL     OW27772   0.675   6.884   4.278
 8958SOL    HW127773   0.674   6.943   4.358
 8958SOL    HW227774   0.743   6.811   4.291
 8959SOL     OW27775   1.160   4.941   0.865
 8959SOL    HW127776   1.203   4.988   0.788
 8959SOL    HW227777   1.117   4.857   0.833
 8960SOL     OW27778   4.359   5.440   2.896
 8960SOL    HW127779   4.400   5.501   2.828
 8960SOL    HW227780   4.408   5.353   2.897
 8961SOL     OW27781   1.283   1.635   4.578
 8961SOL    HW127782   1.379   1.611   4.588
 8961SOL    HW227783   1.260   1.639   4.481
 8962SOL     OW27784   5.594   7.008   2.639
 8962SOL    HW127785   5.496   7.022   2.628
 8962SOL    HW227786   5.611   6.915   2.672
 8963SOL     OW27787   5.314   6.672   4.346
 8963SOL    HW127788   5.364   6.617   4.280
 8963SOL    HW227789   5.299   6.620   4.429
 8964SOL     OW27790   5.489   5.273   2.223
 8964SOL    HW127791   5.570   5.225   2.191
 8964SOL    HW227792   5.447   5.221   2.298
 8965SOL     OW27793   1.678   5.575   1.025
 8965SOL    HW127794   1.634   5.665   1.026
 8965SOL    HW227795   1.737   5.568   0.945
 8966SOL     OW27796   1.469   3.077   6.262
 8966SOL    HW127797   1.432   2.991   6.227
 8966SOL    HW227798   1.511   3.127   6.187
 8967SOL     OW27799   3.689   6.636   1.674
 8967SOL    HW127800   3.630   6.713   1.648
 8967SOL    HW227801   3.688   6.568   1.600
 8968SOL     OW27802   5.275   5.682   1.910
 8968SOL    HW127803   5.339   5.663   1.984
 8968SOL    HW227804   5.201   5.740   1.944
 8969SOL     OW27805   6.073   0.695   3.432
 8969SOL    HW127806   6.052   0.640   3.513
 8969SOL    HW227807   6.135   0.770   3.457
 8970SOL     OW27808   3.148   2.469   1.444
 8970SOL    HW127809   3.174   2.561   1.416
 8970SOL    HW227810   3.156   2.460   1.543
 8971SOL     OW27811   3.435   6.343   2.295
 8971SOL    HW127812   3.361   6.296   2.342
 8971SOL    HW227813   3.403   6.375   2.206
 8972SOL     OW27814   4.795   6.305   0.070
 8972SOL    HW127815   4.806   6.236   7.022
 8972SOL    HW227816   4.885   6.337   0.098
 8973SOL     OW27817   1.149   4.482   1.526
 8973SOL    HW127818   1.189   4.393   1.546
 8973SOL    HW227819   1.201   4.526   1.453
 8974SOL     OW27820   1.108   4.195   6.601
 8974SOL    HW127821   1.091   4.187   6.503
 8974SOL    HW227822   1.092   4.106   6.644
 8975SOL     OW27823   2.664   0.482   0.166
 8975SOL    HW127824   2.660   0.559   0.230
 8975SOL    HW227825   2.571   0.457   0.139
 8976SOL     OW27826   1.608   5.483   5.069
 8976SOL    HW127827   1.619   5.562   5.129
 8976SOL    HW227828   1.580   5.513   4.978
 8977SOL     OW27829   6.379   1.231   5.716
 8977SOL    HW127830   6.396   1.282   5.800
 8977SOL    HW227831   6.283   1.202   5.714
 8978SOL     OW27832   5.883   6.302   0.041
 8978SOL    HW127833   5.936   6.369   0.093
 8978SOL    HW227834   5.908   6.210   0.069
 8979SOL     OW27835   1.842   4.041   5.028
 8979SOL    HW127836   1.906   4.046   5.104
 8979SOL    HW227837   1.749   4.053   5.062
 8980SOL     OW27838   2.987   3.644   5.356
 8980SOL    HW127839   2.991   3.657   5.257
 8980SOL    HW227840   3.029   3.723   5.402
 8981SOL     OW27841   3.616   1.585   5.494
 8981SOL    HW127842   3.590   1.551   5.404
 8981SOL    HW227843   3.700   1.640   5.486
 8982SOL     OW27844   1.982   3.296   0.283
 8982SOL    HW127845   2.039   3.338   0.212
 8982SOL    HW227846   2.041   3.260   0.355
 8983SOL     OW27847   3.221   6.188   6.926
 8983SOL    HW127848   3.195   6.220   6.835
 8983SOL    HW227849   3.309   6.142   6.921
 8984SOL     OW27850   2.280   6.578   2.922
 8984SOL    HW127851   2.351   6.566   2.853
 8984SOL    HW227852   2.217   6.649   2.893
 8985SOL     OW27853   3.067   2.228   0.492
 8985SOL    HW127854   3.112   2.271   0.414
 8985SOL    HW227855   3.117   2.250   0.575
 8986SOL     OW27856   3.404   4.937   2.748
 8986SOL    HW127857   3.333   4.931   2.818
 8986SOL    HW227858   3.493   4.921   2.790
 8987SOL     OW27859   4.592   6.392   3.327
 8987SOL    HW127860   4.503   6.408   3.286
 8987SOL    HW227861   4.582   6.387   3.427
 8988SOL     OW27862   0.414   6.101   3.674
 8988SOL    HW127863   0.450   6.191   3.697
 8988SOL    HW227864   0.410   6.045   3.757
 8989SOL     OW27865   4.161   3.082   6.445
 8989SOL    HW127866   4.253   3.048   6.427
 8989SOL    HW227867   4.149   3.169   6.398
 8990SOL     OW27868   0.275   4.607   3.892
 8990SOL    HW127869   0.243   4.582   3.801
 8990SOL    HW227870   0.277   4.525   3.950
 8991SOL     OW27871   1.508   3.188   4.573
 8991SOL    HW127872   1.598   3.162   4.539
 8991SOL    HW227873   1.518   3.263   4.638
 8992SOL     OW27874   4.971   1.431   0.472
 8992SOL    HW127875   4.900   1.364   0.493
 8992SOL    HW227876   4.937   1.497   0.406
 8993SOL     OW27877   4.114   2.928   6.929
 8993SOL    HW127878   4.205   2.891   6.909
 8993SOL    HW227879   4.102   2.935   0.004
 8994SOL     OW27880   1.487   4.751   4.450
 8994SOL    HW127881   1.407   4.788   4.496
 8994SOL    HW227882   1.476   4.652   4.439
 8995SOL     OW27883   6.162   1.707   1.080
 8995SOL    HW127884   6.245   1.729   1.030
 8995SOL    HW227885   6.088   1.686   1.015
 8996SOL     OW27886   5.359   4.168   5.748
 8996SOL    HW127887   5.270   4.137   5.783
 8996SOL    HW227888   5.386   4.251   5.796
 8997SOL     OW27889   4.728   0.838   6.158
 8997SOL    HW127890   4.639   0.859   6.198
 8997SOL    HW227891   4.785   0.793   6.226
 8998SOL     OW27892   6.026   3.345   3.650
 8998SOL    HW127893   6.098   3.276   3.642
 8998SOL    HW227894   6.057   3.418   3.710
 8999SOL     OW27895   5.102   0.240   6.249
 8999SOL    HW127896   5.024   0.282   6.295
 8999SOL    HW227897   5.159   0.192   6.315
 9000SOL     OW27898   1.579   3.269   1.887
 9000SOL    HW127899   1.642   3.334   1.845
 9000SOL    HW227900   1.500   3.319   1.925
 9001SOL     OW27901   0.082   5.498   1.914
 9001SOL    HW127902   0.054   5.589   1.944
 9001SOL    HW227903   0.079   5.435   1.992
 9002SOL     OW27904   1.227   4.845   5.170
 9002SOL    HW127905   1.181   4.757   5.178
 9002SOL    HW227906   1.183   4.899   5.099
 9003SOL     OW27907   4.999   2.988   1.008
 9003SOL    HW127908   4.918   2.957   1.058
 9003SOL    HW227909   5.003   3.088   1.011
 9004SOL     OW27910   4.461   4.990   0.892
 9004SOL    HW127911   4.536   5.018   0.952
 9004SOL    HW227912   4.402   4.925   0.940
 9005SOL     OW27913   5.802   1.356   5.508
 9005SOL    HW127914   5.872   1.407   5.558
 9005SOL    HW227915   5.817   1.258   5.519
 9006SOL     OW27916   2.392   6.519   0.795
 9006SOL    HW127917   2.489   6.540   0.779
 9006SOL    HW227918   2.379   6.420   0.791
 9007SOL     OW27919   2.744   1.523   2.307
 9007SOL    HW127920   2.819   1.543   2.369
 9007SOL    HW227921   2.780   1.493   2.219
 9008SOL     OW27922   0.455   4.954   2.863
 9008SOL    HW127923   0.474   4.961   2.765
 9008SOL    HW227924   0.407   5.036   2.893
 9009SOL     OW27925   3.265   5.483   1.370
 9009SOL    HW127926   3.360   5.451   1.360
 9009SOL    HW227927   3.234   5.466   1.463
 9010SOL     OW27928   2.531   6.333   4.365
 9010SOL    HW127929   2.610   6.323   4.305
 9010SOL    HW227930   2.507   6.430   4.374
 9011SOL     OW27931   3.966   0.797   1.417
 9011SOL    HW127932   3.952   0.793   1.516
 9011SOL    HW227933   3.982   0.892   1.390
 9012SOL     OW27934   2.384   5.583   0.262
 9012SOL    HW127935   2.434   5.641   0.326
 9012SOL    HW227936   2.446   5.513   0.226
 9013SOL     OW27937   0.572   0.519   4.944
 9013SOL    HW127938   0.588   0.607   4.988
 9013SOL    HW227939   0.646   0.455   4.968
 9014SOL     OW27940   6.152   2.820   1.078
 9014SOL    HW127941   6.240   2.778   1.059
 9014SOL    HW227942   6.139   2.827   1.177
 9015SOL     OW27943   4.856   2.348   1.659
 9015SOL    HW127944   4.814   2.439   1.659
 9015SOL    HW227945   4.827   2.298   1.577
 9016SOL     OW27946   5.528   5.117   6.805
 9016SOL    HW127947   5.535   5.095   6.708
 9016SOL    HW227948   5.495   5.037   6.855
 9017SOL     OW27949   4.067   1.120   4.471
 9017SOL    HW127950   4.100   1.033   4.435
 9017SOL    HW227951   4.145   1.181   4.486
 9018SOL     OW27952   3.616   3.790   6.439
 9018SOL    HW127953   3.523   3.813   6.469
 9018SOL    HW227954   3.626   3.813   6.342
 9019SOL     OW27955   1.068   4.128   2.539
 9019SOL    HW127956   1.007   4.069   2.591
 9019SOL    HW227957   1.136   4.169   2.601
 9020SOL     OW27958   6.873   4.441   1.047
 9020SOL    HW127959   6.832   4.414   0.960
 9020SOL    HW227960   6.964   4.400   1.055
 9021SOL     OW27961   6.708   0.934   3.718
 9021SOL    HW127962   6.644   1.011   3.723
 9021SOL    HW227963   6.763   0.942   3.635
 9022SOL     OW27964   3.739   1.055   0.050
 9022SOL    HW127965   3.812   1.057   7.006
 9022SOL    HW227966   3.689   1.142   0.049
 9023SOL     OW27967   4.534   3.476   1.691
 9023SOL    HW127968   4.447   3.449   1.733
 9023SOL    HW227969   4.537   3.576   1.682
 9024SOL     OW27970   0.882   4.701   5.070
 9024SOL    HW127971   0.936   4.668   4.992
 9024SOL    HW227972   0.897   4.641   5.148
 9025SOL     OW27973   6.549   6.068   0.689
 9025SOL    HW127974   6.594   5.980   0.707
 9025SOL    HW227975   6.533   6.115   0.776
 9026SOL     OW27976   2.914   1.945   0.592
 9026SOL    HW127977   2.961   1.969   0.677
 9026SOL    HW227978   2.982   1.927   0.521
 9027SOL     OW27979   0.925   3.620   3.558
 9027SOL    HW127980   0.948   3.544   3.618
 9027SOL    HW227981   0.998   3.688   3.561
 9028SOL     OW27982   3.959   2.677   5.339
 9028SOL    HW127983   4.028   2.626   5.288
 9028SOL    HW227984   3.935   2.760   5.288
 9029SOL     OW27985   4.239   0.112   5.018
 9029SOL    HW127986   4.261   0.016   5.003
 9029SOL    HW227987   4.249   0.133   5.116
 9030SOL     OW27988   2.033   2.583   4.259
 9030SOL    HW127989   1.969   2.608   4.185
 9030SOL    HW227990   2.124   2.568   4.220
 9031SOL     OW27991   4.266   6.944   4.721
 9031SOL    HW127992   4.194   6.995   4.674
 9031SOL    HW227993   4.224   6.871   4.775
 9032SOL     OW27994   4.680   3.748   1.141
 9032SOL    HW127995   4.723   3.715   1.056
 9032SOL    HW227996   4.599   3.802   1.119
 9033SOL     OW27997   0.495   4.722   2.695
 9033SOL    HW127998   0.499   4.725   2.795
 9033SOL    HW227999   0.481   4.627   2.666
 9034SOL     OW28000   3.387   6.183   4.718
 9034SOL    HW128001   3.289   6.163   4.720
 9034SOL    HW228002   3.436   6.104   4.681
 9035SOL     OW28003   1.786   5.634   6.809
 9035SOL    HW128004   1.856   5.694   6.770
 9035SOL    HW228005   1.829   5.563   6.864
 9036SOL     OW28006   1.558   4.125   5.630
 9036SOL    HW128007   1.649   4.086   5.640
 9036SOL    HW228008   1.541   4.190   5.705
 9037SOL     OW28009   1.141   3.002   4.341
 9037SOL    HW128010   1.110   2.911   4.367
 9037SOL    HW228011   1.241   3.001   4.330
 9038SOL     OW28012   4.526   3.391   0.092
 9038SOL    HW128013   4.460   3.423   0.024
 9038SOL    HW228014   4.615   3.433   0.074
 9039SOL     OW28015   3.342   4.618   0.009
 9039SOL    HW128016   3.430   4.605   0.054
 9039SOL    HW228017   3.286   4.681   0.064
 9040SOL     OW28018   2.920   2.161   2.258
 9040SOL    HW128019   2.912   2.237   2.193
 9040SOL    HW228020   2.960   2.082   2.212
 9041SOL     OW28021   1.177   2.350   1.213
 9041SOL    HW128022   1.195   2.256   1.187
 9041SOL    HW228023   1.082   2.373   1.193
 9042SOL     OW28024   3.726   6.630   5.039
 9042SOL    HW128025   3.788   6.671   5.105
 9042SOL    HW228026   3.774   6.618   4.951
 9043SOL     OW28027   2.039   1.429   6.018
 9043SOL    HW128028   2.138   1.425   6.030
 9043SOL    HW228029   2.017   1.434   5.920
 9044SOL     OW28030   0.708   1.153   0.066
 9044SOL    HW128031   0.758   1.137   7.005
 9044SOL    HW228032   0.627   1.094   0.068
 9045SOL     OW28033   4.063   0.402   3.045
 9045SOL    HW128034   4.082   0.304   3.035
 9045SOL    HW228035   4.132   0.444   3.103
 9046SOL     OW28036   3.988   3.866   2.487
 9046SOL    HW128037   3.960   3.857   2.583
 9046SOL    HW228038   4.059   3.936   2.480
 9047SOL     OW28039   1.154   4.231   5.102
 9047SOL    HW128040   1.230   4.182   5.059
 9047SOL    HW228041   1.186   4.276   5.185
 9048SOL     OW28042   6.310   2.757   6.271
 9048SOL    HW128043   6.316   2.742   6.370
 9048SOL    HW228044   6.357   2.842   6.248
 9049SOL     OW28045   3.631   6.367   5.687
 9049SOL    HW128046   3.655   6.313   5.768
 9049SOL    HW228047   3.545   6.333   5.649
 9050SOL     OW28048   0.508   3.521   1.215
 9050SOL    HW128049   0.517   3.423   1.196
 9050SOL    HW228050   0.434   3.559   1.159
 9051SOL     OW28051   2.038   0.532   1.666
 9051SOL    HW128052   2.110   0.509   1.600
 9051SOL    HW228053   1.952   0.492   1.636
 9052SOL     OW28054   2.110   3.305   4.044
 9052SOL    HW128055   2.181   3.326   4.112
 9052SOL    HW228056   2.021   3.330   4.081
 9053SOL     OW28057   2.117   1.293   0.786
 9053SOL    HW128058   2.027   1.299   0.829
 9053SOL    HW228059   2.149   1.384   0.761
 9054SOL     OW28060   2.367   5.799   4.363
 9054SOL    HW128061   2.292   5.750   4.408
 9054SOL    HW228062   2.337   5.892   4.341
 9055SOL     OW28063   6.492   3.722   4.451
 9055SOL    HW128064   6.561   3.790   4.429
 9055SOL    HW228065   6.519   3.672   4.533
 9056SOL     OW28066   6.569   1.798   2.408
 9056SOL    HW128067   6.552   1.800   2.310
 9056SOL    HW228068   6.527   1.715   2.447
 9057SOL     OW28069   4.400   2.093   4.573
 9057SOL    HW128070   4.333   2.061   4.506
 9057SOL    HW228071   4.358   2.163   4.631
 9058SOL     OW28072   1.295   0.814   0.316
 9058SOL    HW128073   1.335   0.904   0.304
 9058SOL    HW228074   1.228   0.816   0.391
 9059SOL     OW28075   0.977   2.560   2.971
 9059SOL    HW128076   0.903   2.515   2.922
 9059SOL    HW228077   1.039   2.605   2.906
 9060SOL     OW28078   5.671   2.917   4.590
 9060SOL    HW128079   5.722   2.980   4.649
 9060SOL    HW228080   5.662   2.829   4.636
 9061SOL     OW28081   3.910   5.506   2.415
 9061SOL    HW128082   3.999   5.505   2.370
 9061SOL    HW228083   3.906   5.435   2.485
 9062SOL     OW28084   1.423   5.278   1.542
 9062SOL    HW128085   1.391   5.187   1.571
 9062SOL    HW228086   1.364   5.311   1.468
 9063SOL     OW28087   2.638   1.171   3.763
 9063SOL    HW128088   2.704   1.245   3.749
 9063SOL    HW228089   2.554   1.208   3.803
 9064SOL     OW28090   6.719   3.657   6.385
 9064SOL    HW128091   6.665   3.582   6.424
 9064SOL    HW228092   6.662   3.737   6.371
 9065SOL     OW28093   4.374   0.129   0.558
 9065SOL    HW128094   4.370   0.180   0.644
 9065SOL    HW228095   4.456   0.156   0.508
 9066SOL     OW28096   5.820   0.414   0.226
 9066SOL    HW128097   5.771   0.406   0.139
 9066SOL    HW228098   5.793   0.340   0.287
 9067SOL     OW28099   1.860   0.360   3.442
 9067SOL    HW128100   1.852   0.439   3.503
 9067SOL    HW228101   1.923   0.294   3.483
 9068SOL     OW28102   0.817   6.297   4.942
 9068SOL    HW128103   0.749   6.312   5.014
 9068SOL    HW228104   0.834   6.383   4.895
 9069SOL     OW28105   1.232   3.209   6.356
 9069SOL    HW128106   1.247   3.211   6.455
 9069SOL    HW228107   1.310   3.164   6.312
 9070SOL     OW28108   2.191   3.988   4.740
 9070SOL    HW128109   2.108   3.932   4.743
 9070SOL    HW228110   2.232   3.991   4.831
 9071SOL     OW28111   6.548   6.403   0.844
 9071SOL    HW128112   6.529   6.318   0.892
 9071SOL    HW228113   6.591   6.468   0.908
 9072SOL     OW28114   0.001   3.694   0.602
 9072SOL    HW128115   0.089   3.676   0.645
 9072SOL    HW228116   6.991   3.612   0.557
 9073SOL     OW28117   1.933   0.771   1.563
 9073SOL    HW128118   1.997   0.846   1.573
 9073SOL    HW228119   1.963   0.694   1.620
 9074SOL     OW28120   1.519   0.241   2.443
 9074SOL    HW128121   1.424   0.266   2.460
 9074SOL    HW228122   1.579   0.291   2.506
 9075SOL     OW28123   6.629   0.290   2.072
 9075SOL    HW128124   6.687   0.257   2.146
 9075SOL    HW228125   6.607   0.387   2.087
 9076SOL     OW28126   0.589   1.095   6.032
 9076SOL    HW128127   0.655   1.166   6.007
 9076SOL    HW228128   0.532   1.127   6.108
 9077SOL     OW28129   3.911   6.998   2.249
 9077SOL    HW128130   3.866   6.967   2.332
 9077SOL    HW228131   3.848   0.030   2.195
 9078SOL     OW28132   3.968   3.385   4.699
 9078SOL    HW128133   3.928   3.473   4.672
 9078SOL    HW228134   3.998   3.335   4.617
 9079SOL     OW28135   3.165   6.713   4.439
 9079SOL    HW128136   3.084   6.721   4.498
 9079SOL    HW228137   3.166   6.790   4.375
 9080SOL     OW28138   5.317   2.513   6.768
 9080SOL    HW128139   5.224   2.492   6.798
 9080SOL    HW228140   5.316   2.544   6.673
 9081SOL     OW28141   5.177   6.084   3.086
 9081SOL    HW128142   5.174   6.020   3.010
 9081SOL    HW228143   5.173   6.178   3.051
 9082SOL     OW28144   2.300   0.469   3.559
 9082SOL    HW128145   2.374   0.453   3.624
 9082SOL    HW228146   2.337   0.500   3.472
 9083SOL     OW28147   4.840   4.706   5.330
 9083SOL    HW128148   4.824   4.787   5.386
 9083SOL    HW228149   4.939   4.690   5.323
 9084SOL     OW28150   2.993   3.825   3.093
 9084SOL    HW128151   2.944   3.765   3.029
 9084SOL    HW228152   3.054   3.886   3.041
 9085SOL     OW28153   2.072   1.642   1.140
 9085SOL    HW128154   2.037   1.625   1.048
 9085SOL    HW228155   2.097   1.555   1.183
 9086SOL     OW28156   0.838   3.489   0.764
 9086SOL    HW128157   0.827   3.586   0.786
 9086SOL    HW228158   0.934   3.468   0.750
 9087SOL     OW28159   5.014   3.170   2.501
 9087SOL    HW128160   4.943   3.153   2.433
 9087SOL    HW228161   4.973   3.202   2.586
 9088SOL     OW28162   6.528   0.483   6.796
 9088SOL    HW128163   6.593   0.409   6.776
 9088SOL    HW228164   6.458   0.487   6.724
 9089SOL     OW28165   5.004   6.869   6.110
 9089SOL    HW128166   4.989   6.940   6.179
 9089SOL    HW228167   5.030   6.912   6.023
 9090SOL     OW28168   5.460   0.465   4.849
 9090SOL    HW128169   5.514   0.548   4.833
 9090SOL    HW228170   5.363   0.486   4.833
 9091SOL     OW28171   3.302   3.916   6.770
 9091SOL    HW128172   3.332   3.985   6.835
 9091SOL    HW228173   3.283   3.959   6.682
 9092SOL     OW28174   0.170   1.953   6.647
 9092SOL    HW128175   0.095   1.990   6.703
 9092SOL    HW228176   0.221   1.886   6.701
 9093SOL     OW28177   1.373   6.842   5.504
 9093SOL    HW128178   1.316   6.760   5.493
 9093SOL    HW228179   1.338   6.915   5.445
 9094SOL     OW28180   0.333   3.261   1.928
 9094SOL    HW128181   0.391   3.181   1.913
 9094SOL    HW228182   0.253   3.256   1.869
 9095SOL     OW28183   5.428   5.232   5.392
 9095SOL    HW128184   5.394   5.325   5.381
 9095SOL    HW228185   5.392   5.174   5.319
 9096SOL     OW28186   6.446   5.089   2.991
 9096SOL    HW128187   6.376   5.114   3.058
 9096SOL    HW228188   6.510   5.024   3.031
 9097SOL     OW28189   0.687   2.658   5.941
 9097SOL    HW128190   0.641   2.697   5.861
 9097SOL    HW228191   0.618   2.637   6.012
 9098SOL     OW28192   1.722   2.343   4.656
 9098SOL    HW128193   1.756   2.404   4.584
 9098SOL    HW228194   1.798   2.293   4.696
 9099SOL     OW28195   2.031   3.450   6.164
 9099SOL    HW128196   2.066   3.474   6.255
 9099SOL    HW228197   2.108   3.433   6.103
 9100SOL     OW28198   1.739   4.355   2.466
 9100SOL    HW128199   1.662   4.343   2.530
 9100SOL    HW228200   1.704   4.359   2.373
 9101SOL     OW28201   2.713   1.300   2.109
 9101SOL    HW128202   2.704   1.221   2.169
 9101SOL    HW228203   2.622   1.326   2.074
 9102SOL     OW28204   4.357   6.432   3.161
 9102SOL    HW128205   4.350   6.525   3.126
 9102SOL    HW228206   4.377   6.369   3.086
 9103SOL     OW28207   6.500   1.629   6.485
 9103SOL    HW128208   6.589   1.625   6.530
 9103SOL    HW228209   6.494   1.711   6.429
 9104SOL     OW28210   0.184   0.867   0.410
 9104SOL    HW128211   0.161   0.782   0.363
 9104SOL    HW228212   0.168   0.857   0.508
 9105SOL     OW28213   1.867   0.032   5.958
 9105SOL    HW128214   1.830   0.091   5.886
 9105SOL    HW228215   1.928   0.086   6.016
 9106SOL     OW28216   0.529   4.731   6.459
 9106SOL    HW128217   0.446   4.777   6.428
 9106SOL    HW228218   0.591   4.717   6.382
 9107SOL     OW28219   2.538   0.692   6.306
 9107SOL    HW128220   2.512   0.776   6.354
 9107SOL    HW228221   2.591   0.633   6.368
 9108SOL     OW28222   5.513   5.468   5.660
 9108SOL    HW128223   5.414   5.473   5.660
 9108SOL    HW228224   5.542   5.376   5.686
 9109SOL     OW28225   5.529   2.542   2.018
 9109SOL    HW128226   5.434   2.514   2.033
 9109SOL    HW228227   5.553   2.615   2.082
 9110SOL     OW28228   1.676   5.673   5.245
 9110SOL    HW128229   1.637   5.755   5.286
 9110SOL    HW228230   1.768   5.693   5.212
 9111SOL     OW28231   4.632   2.460   5.262
 9111SOL    HW128232   4.582   2.382   5.224
 9111SOL    HW228233   4.567   2.534   5.280
 9112SOL     OW28234   2.178   5.429   2.607
 9112SOL    HW128235   2.100   5.485   2.634
 9112SOL    HW228236   2.149   5.334   2.595
 9113SOL     OW28237   4.804   2.187   3.396
 9113SOL    HW128238   4.903   2.193   3.410
 9113SOL    HW228239   4.785   2.134   3.313
 9114SOL     OW28240   1.127   6.197   5.127
 9114SOL    HW128241   1.082   6.123   5.076
 9114SOL    HW228242   1.112   6.183   5.225
 9115SOL     OW28243   5.871   4.617   3.658
 9115SOL    HW128244   5.798   4.555   3.631
 9115SOL    HW228245   5.920   4.579   3.737
 9116SOL     OW28246   0.659   6.878   3.560
 9116SOL    HW128247   0.723   6.844   3.492
 9116SOL    HW228248   0.650   6.977   3.552
 9117SOL     OW28249   4.111   0.431   6.744
 9117SOL    HW128250   4.174   0.366   6.785
 9117SOL    HW228251   4.020   0.418   6.784
 9118SOL     OW28252   5.439   4.327   0.617
 9118SOL    HW128253   5.502   4.277   0.557
 9118SOL    HW228254   5.458   4.304   0.712
 9119SOL     OW28255   3.510   6.690   0.773
 9119SOL    HW128256   3.597   6.651   0.745
 9119SOL    HW228257   3.471   6.635   0.848
 9120SOL     OW28258   6.023   2.848   5.749
 9120SOL    HW128259   5.997   2.762   5.704
 9120SOL    HW228260   5.944   2.909   5.753
 9121SOL     OW28261   3.243   0.226   5.582
 9121SOL    HW128262   3.323   0.166   5.574
 9121SOL    HW228263   3.242   0.290   5.505
 9122SOL     OW28264   2.352   4.427   1.982
 9122SOL    HW128265   2.370   4.400   2.077
 9122SOL    HW228266   2.273   4.488   1.979
 9123SOL     OW28267   1.198   1.030   3.300
 9123SOL    HW128268   1.273   0.985   3.350
 9123SOL    HW228269   1.144   1.086   3.363
 9124SOL     OW28270   3.062   5.210   1.569
 9124SOL    HW128271   3.157   5.189   1.591
 9124SOL    HW228272   3.046   5.308   1.584
 9125SOL     OW28273   4.206   6.550   0.622
 9125SOL    HW128274   4.260   6.555   0.538
 9125SOL    HW228275   4.226   6.465   0.670
 9126SOL     OW28276   3.956   5.235   0.512
 9126SOL    HW128277   4.009   5.174   0.453
 9126SOL    HW228278   3.974   5.212   0.608
 9127SOL     OW28279   0.203   3.902   5.287
 9127SOL    HW128280   0.169   3.952   5.367
 9127SOL    HW228281   0.150   3.926   5.206
 9128SOL     OW28282   5.811   3.383   4.934
 9128SOL    HW128283   5.777   3.300   4.979
 9128SOL    HW228284   5.849   3.445   5.004
 9129SOL     OW28285   1.801   1.832   0.881
 9129SOL    HW128286   1.883   1.867   0.927
 9129SOL    HW228287   1.763   1.903   0.822
 9130SOL     OW28288   2.710   4.228   5.486
 9130SOL    HW128289   2.617   4.228   5.447
 9130SOL    HW228290   2.777   4.223   5.412
 9131SOL     OW28291   6.158   2.474   0.977
 9131SOL    HW128292   6.179   2.500   0.883
 9131SOL    HW228293   6.084   2.532   1.012
 9132SOL     OW28294   0.511   3.757   3.741
 9132SOL    HW128295   0.572   3.741   3.664
 9132SOL    HW228296   0.448   3.680   3.751
 9133SOL     OW28297   4.864   0.722   0.884
 9133SOL    HW128298   4.841   0.818   0.900
 9133SOL    HW228299   4.873   0.675   0.972
 9134SOL     OW28300   4.514   5.315   0.932
 9134SOL    HW128301   4.518   5.388   1.000
 9134SOL    HW228302   4.606   5.296   0.897
 9135SOL     OW28303   0.831   6.055   2.476
 9135SOL    HW128304   0.800   6.076   2.569
 9135SOL    HW228305   0.774   6.105   2.410
 9136SOL     OW28306   6.486   4.838   6.443
 9136SOL    HW128307   6.419   4.879   6.381
 9136SOL    HW228308   6.508   4.745   6.412
 9137SOL     OW28309   4.407   5.943   0.098
 9137SOL    HW128310   4.400   5.951   7.023
 9137SOL    HW228311   4.476   6.006   0.132
 9138SOL     OW28312   2.922   3.391   0.837
 9138SOL    HW128313   2.870   3.469   0.873
 9138SOL    HW228314   2.949   3.409   0.743
 9139SOL     OW28315   6.902   0.417   1.360
 9139SOL    HW128316   6.999   0.432   1.344
 9139SOL    HW228317   6.861   0.499   1.401
 9140SOL     OW28318   0.524   4.177   2.317
 9140SOL    HW128319   0.585   4.151   2.392
 9140SOL    HW228320   0.525   4.277   2.307
 9141SOL     OW28321   6.673   5.725   5.993
 9141SOL    HW128322   6.733   5.797   5.956
 9141SOL    HW228323   6.706   5.635   5.962
 9142SOL     OW28324   1.122   3.820   3.574
 9142SOL    HW128325   1.183   3.792   3.649
 9142SOL    HW228326   1.070   3.901   3.602
 9143SOL     OW28327   6.931   3.245   2.402
 9143SOL    HW128328   6.900   3.246   2.307
 9143SOL    HW228329   7.010   3.184   2.411
 9144SOL     OW28330   2.752   4.496   5.577
 9144SOL    HW128331   2.848   4.467   5.570
 9144SOL    HW228332   2.693   4.418   5.558
 9145SOL     OW28333   1.392   6.519   5.832
 9145SOL    HW128334   1.326   6.567   5.775
 9145SOL    HW228335   1.427   6.440   5.783
 9146SOL     OW28336   5.914   3.312   2.868
 9146SOL    HW128337   5.925   3.217   2.897
 9146SOL    HW228338   5.980   3.370   2.916
 9147SOL     OW28339   4.414   0.475   4.385
 9147SOL    HW128340   4.381   0.401   4.444
 9147SOL    HW228341   4.440   0.438   4.296
 9148SOL     OW28342   6.387   6.815   1.784
 9148SOL    HW128343   6.475   6.843   1.823
 9148SOL    HW228344   6.314   6.871   1.822
 9149SOL     OW28345   6.858   3.790   1.038
 9149SOL    HW128346   6.852   3.887   1.062
 9149SOL    HW228347   6.851   3.734   1.120
 9150SOL     OW28348   2.810   3.019   0.173
 9150SOL    HW128349   2.787   2.929   0.135
 9150SOL    HW228350   2.729   3.059   0.217
 9151SOL     OW28351   1.764   3.343   3.536
 9151SOL    HW128352   1.761   3.432   3.490
 9151SOL    HW228353   1.829   3.348   3.612
 9152SOL     OW28354   2.117   4.275   3.932
 9152SOL    HW128355   2.181   4.225   3.990
 9152SOL    HW228356   2.135   4.373   3.939
 9153SOL     OW28357   6.688   3.398   6.800
 9153SOL    HW128358   6.675   3.318   6.742
 9153SOL    HW228359   6.629   3.391   6.881
 9154SOL     OW28360   5.981   4.854   3.042
 9154SOL    HW128361   6.051   4.850   3.112
 9154SOL    HW228362   6.023   4.845   2.952
 9155SOL     OW28363   0.632   6.117   3.042
 9155SOL    HW128364   0.577   6.076   3.115
 9155SOL    HW228365   0.631   6.216   3.051
 9156SOL     OW28366   6.460   3.895   6.677
 9156SOL    HW128367   6.469   3.977   6.734
 9156SOL    HW228368   6.510   3.820   6.719
 9157SOL     OW28369   2.355   5.254   6.262
 9157SOL    HW128370   2.271   5.277   6.213
 9157SOL    HW228371   2.336   5.252   6.360
 9158SOL     OW28372   6.889   3.220   4.466
 9158SOL    HW128373   6.879   3.143   4.530
 9158SOL    HW228374   6.800   3.262   4.451
 9159SOL     OW28375   3.632   1.207   3.251
 9159SOL    HW128376   3.540   1.201   3.288
 9159SOL    HW228377   3.699   1.208   3.326
 9160SOL     OW28378   0.350   4.485   0.438
 9160SOL    HW128379   0.311   4.567   0.396
 9160SOL    HW228380   0.418   4.445   0.376
 9161SOL     OW28381   6.068   3.847   1.615
 9161SOL    HW128382   6.027   3.900   1.540
 9161SOL    HW228383   6.118   3.769   1.578
 9162SOL     OW28384   4.605   1.901   1.893
 9162SOL    HW128385   4.538   1.972   1.873
 9162SOL    HW228386   4.560   1.826   1.942
 9163SOL     OW28387   1.743   2.631   3.322
 9163SOL    HW128388   1.694   2.668   3.243
 9163SOL    HW228389   1.678   2.612   3.396
 9164SOL     OW28390   2.257   0.655   6.300
 9164SOL    HW128391   2.352   0.671   6.326
 9164SOL    HW228392   2.236   0.557   6.310
 9165SOL     OW28393   5.240   1.869   5.572
 9165SOL    HW128394   5.294   1.921   5.638
 9165SOL    HW228395   5.188   1.932   5.514
 9166SOL     OW28396   5.246   5.304   1.600
 9166SOL    HW128397   5.157   5.265   1.627
 9166SOL    HW228398   5.288   5.349   1.679
 9167SOL     OW28399   2.056   0.920   4.719
 9167SOL    HW128400   1.958   0.913   4.701
 9167SOL    HW228401   2.092   0.830   4.741
 9168SOL     OW28402   6.493   5.954   4.660
 9168SOL    HW128403   6.511   6.051   4.643
 9168SOL    HW228404   6.396   5.942   4.682
 9169SOL     OW28405   6.347   6.404   0.641
 9169SOL    HW128406   6.348   6.500   0.610
 9169SOL    HW228407   6.429   6.385   0.694
 9170SOL     OW28408   1.317   1.380   5.182
 9170SOL    HW128409   1.241   1.316   5.171
 9170SOL    HW228410   1.304   1.433   5.266
 9171SOL     OW28411   3.200   4.572   0.654
 9171SOL    HW128412   3.115   4.553   0.605
 9171SOL    HW228413   3.216   4.671   0.657
 9172SOL     OW28414   5.132   1.498   4.175
 9172SOL    HW128415   5.038   1.483   4.204
 9172SOL    HW228416   5.154   1.437   4.099
 9173SOL     OW28417   5.531   3.123   4.033
 9173SOL    HW128418   5.595   3.049   4.015
 9173SOL    HW228419   5.479   3.143   3.950
 9174SOL     OW28420   6.761   4.807   0.405
 9174SOL    HW128421   6.764   4.907   0.402
 9174SOL    HW228422   6.720   4.773   0.320
 9175SOL     OW28423   1.819   6.570   6.670
 9175SOL    HW128424   1.811   6.655   6.722
 9175SOL    HW228425   1.838   6.592   6.574
 9176SOL     OW28426   1.912   1.510   2.380
 9176SOL    HW128427   1.927   1.452   2.460
 9176SOL    HW228428   1.920   1.606   2.406
 9177SOL     OW28429   0.641   3.935   3.868
 9177SOL    HW128430   0.594   3.859   3.823
 9177SOL    HW228431   0.680   3.904   3.954
 9178SOL     OW28432   1.701   6.572   0.404
 9178SOL    HW128433   1.783   6.526   0.438
 9178SOL    HW228434   1.717   6.607   0.312
 9179SOL     OW28435   4.250   5.656   5.483
 9179SOL    HW128436   4.181   5.596   5.442
 9179SOL    HW228437   4.285   5.719   5.414
 9180SOL     OW28438   0.297   0.865   4.186
 9180SOL    HW128439   0.237   0.817   4.122
 9180SOL    HW228440   0.241   0.924   4.245
 9181SOL     OW28441   3.877   1.820   3.668
 9181SOL    HW128442   3.959   1.876   3.664
 9181SOL    HW228443   3.903   1.723   3.669
 9182SOL     OW28444   1.923   1.319   2.576
 9182SOL    HW128445   2.009   1.272   2.597
 9182SOL    HW228446   1.875   1.340   2.661
 9183SOL     OW28447   6.539   2.888   5.858
 9183SOL    HW128448   6.440   2.874   5.851
 9183SOL    HW228449   6.573   2.843   5.941
 9184SOL     OW28450   3.531   3.168   0.963
 9184SOL    HW128451   3.553   3.217   0.879
 9184SOL    HW228452   3.434   3.181   0.984
 9185SOL     OW28453   0.892   0.137   6.453
 9185SOL    HW128454   0.922   0.151   6.547
 9185SOL    HW228455   0.934   0.054   6.416
 9186SOL     OW28456   5.748   1.102   6.287
 9186SOL    HW128457   5.651   1.088   6.273
 9186SOL    HW228458   5.766   1.114   6.385
 9187SOL     OW28459   4.789   1.815   0.620
 9187SOL    HW128460   4.726   1.793   0.695
 9187SOL    HW228461   4.871   1.759   0.628
 9188SOL     OW28462   1.018   0.517   1.534
 9188SOL    HW128463   1.077   0.501   1.613
 9188SOL    HW228464   1.074   0.528   1.452
 9189SOL     OW28465   4.005   1.342   4.118
 9189SOL    HW128466   3.917   1.363   4.160
 9189SOL    HW228467   3.992   1.279   4.042
 9190SOL     OW28468   6.091   3.591   5.432
 9190SOL    HW128469   6.123   3.639   5.350
 9190SOL    HW228470   6.154   3.516   5.454
 9191SOL     OW28471   5.564   6.130   0.507
 9191SOL    HW128472   5.623   6.211   0.503
 9191SOL    HW228473   5.472   6.157   0.535
 9192SOL     OW28474   6.386   4.425   4.846
 9192SOL    HW128475   6.394   4.513   4.893
 9192SOL    HW228476   6.472   4.404   4.799
 9193SOL     OW28477   3.381   3.245   3.606
 9193SOL    HW128478   3.326   3.169   3.570
 9193SOL    HW228479   3.463   3.209   3.650
 9194SOL     OW28480   2.964   5.590   2.725
 9194SOL    HW128481   2.951   5.633   2.815
 9194SOL    HW228482   2.877   5.557   2.691
 9195SOL     OW28483   6.588   3.147   2.661
 9195SOL    HW128484   6.608   3.049   2.655
 9195SOL    HW228485   6.524   3.172   2.589
 9196SOL     OW28486   4.764   0.172   3.691
 9196SOL    HW128487   4.692   0.113   3.729
 9196SOL    HW228488   4.832   0.190   3.761
 9197SOL     OW28489   3.747   3.524   6.323
 9197SOL    HW128490   3.749   3.624   6.322
 9197SOL    HW228491   3.798   3.491   6.403
 9198SOL     OW28492   5.816   2.515   5.267
 9198SOL    HW128493   5.761   2.587   5.310
 9198SOL    HW228494   5.782   2.499   5.174
 9199SOL     OW28495   1.383   3.779   6.920
 9199SOL    HW128496   1.345   3.852   6.977
 9199SOL    HW228497   1.401   3.814   6.828
 9200SOL     OW28498   6.681   0.628   0.108
 9200SOL    HW128499   6.725   0.661   0.192
 9200SOL    HW228500   6.654   0.705   0.051
 9201SOL     OW28501   1.103   3.857   2.719
 9201SOL    HW128502   1.125   3.825   2.627
 9201SOL    HW228503   1.182   3.904   2.758
 9202SOL     OW28504   3.083   5.193   4.349
 9202SOL    HW128505   3.178   5.163   4.354
 9202SOL    HW228506   3.060   5.247   4.430
 9203SOL     OW28507   5.184   0.796   5.830
 9203SOL    HW128508   5.129   0.714   5.845
 9203SOL    HW228509   5.129   0.864   5.782
 9204SOL     OW28510   4.714   4.277   2.243
 9204SOL    HW128511   4.772   4.196   2.235
 9204SOL    HW228512   4.659   4.287   2.161
 9205SOL     OW28513   5.349   2.743   2.433
 9205SOL    HW128514   5.326   2.822   2.490
 9205SOL    HW228515   5.265   2.702   2.398
 9206SOL     OW28516   0.710   0.115   3.277
 9206SOL    HW128517   0.751   0.199   3.244
 9206SOL    HW228518   0.698   0.120   3.376
 9207SOL     OW28519   4.353   6.885   0.627
 9207SOL    HW128520   4.346   6.980   0.598
 9207SOL    HW228521   4.265   6.839   0.613
 9208SOL     OW28522   5.172   4.171   1.675
 9208SOL    HW128523   5.107   4.210   1.610
 9208SOL    HW228524   5.240   4.241   1.699
 9209SOL     OW28525   4.223   1.200   2.613
 9209SOL    HW128526   4.299   1.165   2.667
 9209SOL    HW228527   4.150   1.132   2.610
 9210SOL     OW28528   1.339   0.328   1.161
 9210SOL    HW128529   1.262   0.350   1.101
 9210SOL    HW228530   1.379   0.240   1.134
 9211SOL     OW28531   5.174   1.293   6.709
 9211SOL    HW128532   5.265   1.280   6.748
 9211SOL    HW228533   5.136   1.380   6.742
 9212SOL     OW28534   5.451   3.544   4.684
 9212SOL    HW128535   5.484   3.525   4.776
 9212SOL    HW228536   5.484   3.634   4.654
 9213SOL     OW28537   5.791   6.760   2.962
 9213SOL    HW128538   5.852   6.691   2.999
 9213SOL    HW228539   5.843   6.844   2.942
 9214SOL     OW28540   2.075   2.253   4.979
 9214SOL    HW128541   2.037   2.162   4.995
 9214SOL    HW228542   2.172   2.246   4.959
 9215SOL     OW28543   0.743   3.593   3.042
 9215SOL    HW128544   0.682   3.673   3.037
 9215SOL    HW228545   0.691   3.514   3.074
 9216SOL     OW28546   2.337   5.643   4.660
 9216SOL    HW128547   2.364   5.547   4.664
 9216SOL    HW228548   2.240   5.651   4.683
 9217SOL     OW28549   4.412   1.080   6.215
 9217SOL    HW128550   4.407   1.139   6.295
 9217SOL    HW228551   4.319   1.065   6.179
 9218SOL     OW28552   5.685   5.447   6.197
 9218SOL    HW128553   5.587   5.429   6.189
 9218SOL    HW228554   5.720   5.404   6.281
 9219SOL     OW28555   3.589   2.798   5.725
 9219SOL    HW128556   3.610   2.769   5.632
 9219SOL    HW228557   3.541   2.885   5.722
 9220SOL     OW28558   1.389   6.299   3.506
 9220SOL    HW128559   1.410   6.235   3.579
 9220SOL    HW228560   1.383   6.392   3.544
 9221SOL     OW28561   2.311   0.882   0.324
 9221SOL    HW128562   2.311   0.797   0.378
 9221SOL    HW228563   2.349   0.863   0.234
 9222SOL     OW28564   1.601   3.803   3.534
 9222SOL    HW128565   1.574   3.710   3.507
 9222SOL    HW228566   1.603   3.861   3.453
 9223SOL     OW28567   0.851   3.688   4.660
 9223SOL    HW128568   0.859   3.780   4.700
 9223SOL    HW228569   0.755   3.661   4.657
 9224SOL     OW28570   1.894   4.421   4.276
 9224SOL    HW128571   1.924   4.357   4.205
 9224SOL    HW228572   1.970   4.439   4.339
 9225SOL     OW28573   4.683   6.472   6.848
 9225SOL    HW128574   4.644   6.380   6.841
 9225SOL    HW228575   4.677   6.503   6.942
 9226SOL     OW28576   0.780   1.063   1.022
 9226SOL    HW128577   0.717   1.003   0.973
 9226SOL    HW228578   0.858   1.085   0.963
 9227SOL     OW28579   2.373   5.659   0.721
 9227SOL    HW128580   2.282   5.693   0.745
 9227SOL    HW228581   2.393   5.576   0.773
 9228SOL     OW28582   3.050   2.898   5.710
 9228SOL    HW128583   2.988   2.823   5.733
 9228SOL    HW228584   3.078   2.944   5.794
 9229SOL     OW28585   0.294   4.878   6.778
 9229SOL    HW128586   0.303   4.955   6.840
 9229SOL    HW228587   0.383   4.832   6.770
 9230SOL     OW28588   4.396   1.497   4.468
 9230SOL    HW128589   4.488   1.493   4.506
 9230SOL    HW228590   4.388   1.576   4.407
 9231SOL     OW28591   6.706   5.737   4.204
 9231SOL    HW128592   6.661   5.797   4.137
 9231SOL    HW228593   6.645   5.661   4.226
 9232SOL     OW28594   1.521   5.098   1.813
 9232SOL    HW128595   1.451   5.038   1.853
 9232SOL    HW228596   1.606   5.047   1.802
 9233SOL     OW28597   0.864   6.727   0.381
 9233SOL    HW128598   0.841   6.631   0.365
 9233SOL    HW228599   0.877   6.773   0.293
 9234SOL     OW28600   2.251   4.338   0.149
 9234SOL    HW128601   2.231   4.265   0.215
 9234SOL    HW228602   2.184   4.411   0.158
 9235SOL     OW28603   2.395   2.412   3.870
 9235SOL    HW128604   2.397   2.493   3.813
 9235SOL    HW228605   2.355   2.336   3.819
 9236SOL     OW28606   2.366   3.832   6.396
 9236SOL    HW128607   2.300   3.862   6.327
 9236SOL    HW228608   2.387   3.909   6.457
 9237SOL     OW28609   6.259   4.856   3.243
 9237SOL    HW128610   6.194   4.876   3.316
 9237SOL    HW228611   6.286   4.941   3.198
 9238SOL     OW28612   1.894   3.064   5.387
 9238SOL    HW128613   1.886   3.051   5.486
 9238SOL    HW228614   1.809   3.038   5.342
 9239SOL     OW28615   0.508   4.711   6.783
 9239SOL    HW128616   0.517   4.675   6.691
 9239SOL    HW228617   0.597   4.741   6.816
 9240SOL     OW28618   4.757   2.284   2.744
 9240SOL    HW128619   4.695   2.362   2.748
 9240SOL    HW228620   4.839   2.309   2.692
 9241SOL     OW28621   5.912   0.019   0.863
 9241SOL    HW128622   5.999   0.038   0.907
 9241SOL    HW228623   5.840   0.075   0.904
 9242SOL     OW28624   1.437   2.721   0.604
 9242SOL    HW128625   1.500   2.658   0.558
 9242SOL    HW228626   1.378   2.669   0.666
 9243SOL     OW28627   1.178   0.792   0.033
 9243SOL    HW128628   1.222   0.843   0.107
 9243SOL    HW228629   1.091   0.755   0.067
 9244SOL     OW28630   4.170   6.322   5.305
 9244SOL    HW128631   4.072   6.340   5.312
 9244SOL    HW228632   4.221   6.402   5.335
 9245SOL     OW28633   0.840   4.283   2.954
 9245SOL    HW128634   0.791   4.367   2.929
 9245SOL    HW228635   0.883   4.295   3.043
 9246SOL     OW28636   6.594   0.749   5.384
 9246SOL    HW128637   6.507   0.724   5.342
 9246SOL    HW228638   6.637   0.821   5.330
 9247SOL     OW28639   3.707   6.183   3.393
 9247SOL    HW128640   3.696   6.084   3.407
 9247SOL    HW228641   3.657   6.210   3.311
 9248SOL     OW28642   2.222   1.287   5.804
 9248SOL    HW128643   2.234   1.230   5.723
 9248SOL    HW228644   2.149   1.249   5.861
 9249SOL     OW28645   3.975   5.482   1.660
 9249SOL    HW128646   3.949   5.386   1.669
 9249SOL    HW228647   4.017   5.513   1.745
 9250SOL     OW28648   0.353   2.795   4.044
 9250SOL    HW128649   0.371   2.703   4.009
 9250SOL    HW228650   0.401   2.807   4.131
 9251SOL     OW28651   3.318   2.638   1.310
 9251SOL    HW128652   3.395   2.651   1.248
 9251SOL    HW228653   3.338   2.563   1.373
 9252SOL     OW28654   5.386   1.333   6.184
 9252SOL    HW128655   5.427   1.408   6.132
 9252SOL    HW228656   5.298   1.309   6.143
 9253SOL     OW28657   1.050   5.349   5.025
 9253SOL    HW128658   1.011   5.270   4.977
 9253SOL    HW228659   1.150   5.342   5.026
 9254SOL     OW28660   6.948   4.925   3.079
 9254SOL    HW128661   6.937   4.828   3.057
 9254SOL    HW228662   6.864   4.959   3.121
 9255SOL     OW28663   6.710   4.377   0.421
 9255SOL    HW128664   6.767   4.419   0.491
 9255SOL    HW228665   6.756   4.382   0.332
 9256SOL     OW28666   1.823   6.467   1.514
 9256SOL    HW128667   1.885   6.520   1.455
 9256SOL    HW228668   1.784   6.528   1.583
 9257SOL     OW28669   6.543   5.894   4.068
 9257SOL    HW128670   6.533   5.849   3.979
 9257SOL    HW228671   6.517   5.990   4.060
 9258SOL     OW28672   3.650   4.581   1.150
 9258SOL    HW128673   3.576   4.649   1.160
 9258SOL    HW228674   3.684   4.583   1.056
 9259SOL     OW28675   2.050   1.461   6.344
 9259SOL    HW128676   1.952   1.445   6.352
 9259SOL    HW228677   2.077   1.454   6.248
 9260SOL     OW28678   5.849   3.774   4.878
 9260SOL    HW128679   5.911   3.853   4.885
 9260SOL    HW228680   5.869   3.724   4.793
 9261SOL     OW28681   3.924   2.505   1.636
 9261SOL    HW128682   3.929   2.605   1.636
 9261SOL    HW228683   3.848   2.476   1.695
 9262SOL     OW28684   6.018   5.834   4.023
 9262SOL    HW128685   6.071   5.870   4.100
 9262SOL    HW228686   6.051   5.875   3.938
 9263SOL     OW28687   2.085   3.711   3.737
 9263SOL    HW128688   2.076   3.783   3.807
 9263SOL    HW228689   2.005   3.651   3.741
 9264SOL     OW28690   4.451   4.039   0.191
 9264SOL    HW128691   4.512   4.118   0.187
 9264SOL    HW228692   4.506   3.956   0.200
 9265SOL     OW28693   5.298   2.111   0.455
 9265SOL    HW128694   5.303   2.015   0.426
 9265SOL    HW228695   5.346   2.122   0.542
 9266SOL     OW28696   0.393   4.228   1.088
 9266SOL    HW128697   0.346   4.306   1.129
 9266SOL    HW228698   0.478   4.210   1.138
 9267SOL     OW28699   0.168   0.879   4.545
 9267SOL    HW128700   0.100   0.895   4.616
 9267SOL    HW228701   0.153   0.942   4.469
 9268SOL     OW28702   0.821   6.449   2.193
 9268SOL    HW128703   0.779   6.441   2.102
 9268SOL    HW228704   0.804   6.540   2.230
 9269SOL     OW28705   4.109   0.773   1.118
 9269SOL    HW128706   4.162   0.748   1.200
 9269SOL    HW228707   4.132   0.867   1.092
 9270SOL     OW28708   1.587   0.581   6.051
 9270SOL    HW128709   1.495   0.581   6.013
 9270SOL    HW228710   1.585   0.622   6.142
 9271SOL     OW28711   1.360   0.226   4.846
 9271SOL    HW128712   1.383   0.150   4.786
 9271SOL    HW228713   1.260   0.237   4.848
 9272SOL     OW28714   6.597   6.770   6.212
 9272SOL    HW128715   6.564   6.772   6.118
 9272SOL    HW228716   6.543   6.834   6.268
 9273SOL     OW28717   4.704   4.844   4.554
 9273SOL    HW128718   4.756   4.866   4.472
 9273SOL    HW228719   4.728   4.752   4.585
 9274SOL     OW28720   1.173   2.863   6.989
 9274SOL    HW128721   1.221   2.813   0.037
 9274SOL    HW228722   1.133   2.946   0.003
 9275SOL     OW28723   0.537   0.238   0.766
 9275SOL    HW128724   0.562   0.318   0.711
 9275SOL    HW228725   0.590   0.159   0.736
 9276SOL     OW28726   3.070   5.013   0.523
 9276SOL    HW128727   3.037   5.084   0.585
 9276SOL    HW228728   3.131   5.053   0.455
 9277SOL     OW28729   5.192   5.445   2.129
 9277SOL    HW128730   5.267   5.444   2.196
 9277SOL    HW228731   5.214   5.508   2.055
 9278SOL     OW28732   0.470   0.541   4.678
 9278SOL    HW128733   0.545   0.579   4.624
 9278SOL    HW228734   0.501   0.527   4.772
 9279SOL     OW28735   4.573   6.023   1.297
 9279SOL    HW128736   4.628   5.946   1.331
 9279SOL    HW228737   4.612   6.108   1.332
 9280SOL     OW28738   1.749   0.489   2.882
 9280SOL    HW128739   1.771   0.440   2.967
 9280SOL    HW228740   1.738   0.586   2.903
 9281SOL     OW28741   2.755   5.100   0.301
 9281SOL    HW128742   2.822   5.152   0.354
 9281SOL    HW228743   2.715   5.029   0.359
 9282SOL     OW28744   3.197   6.551   4.878
 9282SOL    HW128745   3.282   6.529   4.926
 9282SOL    HW228746   3.141   6.612   4.935
 9283SOL     OW28747   4.430   5.943   6.867
 9283SOL    HW128748   4.386   5.946   6.778
 9283SOL    HW228749   4.529   5.930   6.855
 9284SOL     OW28750   3.410   3.672   4.887
 9284SOL    HW128751   3.355   3.624   4.819
 9284SOL    HW228752   3.437   3.761   4.851
 9285SOL     OW28753   6.982   4.064   2.354
 9285SOL    HW128754   0.034   4.011   2.316
 9285SOL    HW228755   7.017   4.147   2.398
 9286SOL     OW28756   4.843   5.721   1.311
 9286SOL    HW128757   4.771   5.694   1.374
 9286SOL    HW228758   4.861   5.819   1.320
 9287SOL     OW28759   3.353   5.076   6.239
 9287SOL    HW128760   3.290   5.144   6.276
 9287SOL    HW228761   3.308   4.987   6.236
 9288SOL     OW28762   4.266   2.226   2.970
 9288SOL    HW128763   4.177   2.194   2.939
 9288SOL    HW228764   4.328   2.234   2.892
 9289SOL     OW28765   4.799   6.037   6.998
 9289SOL    HW128766   4.750   6.016   6.913
 9289SOL    HW228767   4.793   5.959   0.036
 9290SOL     OW28768   5.033   0.317   4.460
 9290SOL    HW128769   5.100   0.390   4.447
 9290SOL    HW228770   5.077   0.238   4.502
 9291SOL     OW28771   1.332   4.688   5.795
 9291SOL    HW128772   1.368   4.657   5.882
 9291SOL    HW228773   1.292   4.611   5.745
 9292SOL     OW28774   1.805   1.968   6.417
 9292SOL    HW128775   1.887   2.017   6.387
 9292SOL    HW228776   1.743   2.032   6.462
 9293SOL     OW28777   5.586   2.747   5.250
 9293SOL    HW128778   5.626   2.775   5.162
 9293SOL    HW228779   5.642   2.784   5.324
 9294SOL     OW28780   4.544   1.030   6.994
 9294SOL    HW128781   4.632   1.000   0.007
 9294SOL    HW228782   4.474   1.021   0.041
 9295SOL     OW28783   0.934   1.617   5.499
 9295SOL    HW128784   0.861   1.662   5.449
 9295SOL    HW228785   0.933   1.519   5.479
 9296SOL     OW28786   1.448   4.510   0.194
 9296SOL    HW128787   1.490   4.492   0.282
 9296SOL    HW228788   1.431   4.608   0.184
 9297SOL     OW28789   5.699   6.250   2.743
 9297SOL    HW128790   5.723   6.331   2.690
 9297SOL    HW228791   5.730   6.263   2.838
 9298SOL     OW28792   1.268   6.131   5.860
 9298SOL    HW128793   1.241   6.170   5.948
 9298SOL    HW228794   1.237   6.036   5.855
 9299SOL     OW28795   2.197   2.538   4.939
 9299SOL    HW128796   2.151   2.467   4.993
 9299SOL    HW228797   2.160   2.539   4.846
 9300SOL     OW28798   1.476   5.906   6.009
 9300SOL    HW128799   1.405   5.864   5.952
 9300SOL    HW228800   1.526   5.834   6.057
 9301SOL     OW28801   0.285   3.912   4.891
 9301SOL    HW128802   0.353   3.983   4.875
 9301SOL    HW228803   0.312   3.858   4.971
 9302SOL     OW28804   1.728   3.567   4.969
 9302SOL    HW128805   1.781   3.619   4.901
 9302SOL    HW228806   1.791   3.525   5.034
 9303SOL     OW28807   2.311   4.586   0.758
 9303SOL    HW128808   2.382   4.594   0.829
 9303SOL    HW228809   2.272   4.676   0.740
 9304SOL     OW28810   4.743   5.305   0.396
 9304SOL    HW128811   4.694   5.218   0.383
 9304SOL    HW228812   4.819   5.310   0.332
 9305SOL     OW28813   2.134   1.756   1.694
 9305SOL    HW128814   2.097   1.667   1.670
 9305SOL    HW228815   2.206   1.781   1.629
 9306SOL     OW28816   0.091   5.615   4.720
 9306SOL    HW128817   0.024   5.657   4.781
 9306SOL    HW228818   0.159   5.683   4.693
 9307SOL     OW28819   2.567   3.208   1.530
 9307SOL    HW128820   2.625   3.178   1.454
 9307SOL    HW228821   2.556   3.132   1.595
 9308SOL     OW28822   2.060   3.574   1.829
 9308SOL    HW128823   2.065   3.666   1.868
 9308SOL    HW228824   2.115   3.511   1.885
 9309SOL     OW28825   5.162   5.694   5.872
 9309SOL    HW128826   5.229   5.765   5.848
 9309SOL    HW228827   5.070   5.731   5.861
 9310SOL     OW28828   5.499   6.080   6.596
 9310SOL    HW128829   5.421   6.080   6.532
 9310SOL    HW228830   5.469   6.045   6.685
 9311SOL     OW28831   4.435   3.524   1.439
 9311SOL    HW128832   4.501   3.586   1.396
 9311SOL    HW228833   4.471   3.494   1.528
 9312SOL     OW28834   0.444   2.437   2.139
 9312SOL    HW128835   0.450   2.346   2.180
 9312SOL    HW228836   0.348   2.463   2.129
 9313SOL     OW28837   0.458   6.302   2.427
 9313SOL    HW128838   0.364   6.277   2.450
 9313SOL    HW228839   0.459   6.393   2.385
 9314SOL     OW28840   4.802   3.168   6.955
 9314SOL    HW128841   4.896   3.201   6.947
 9314SOL    HW228842   4.784   3.146   0.027
 9315SOL     OW28843   5.865   0.823   6.255
 9315SOL    HW128844   5.773   0.792   6.232
 9315SOL    HW228845   5.863   0.921   6.275
 9316SOL     OW28846   4.223   0.765   5.494
 9316SOL    HW128847   4.212   0.703   5.572
 9316SOL    HW228848   4.321   0.777   5.475
 9317SOL     OW28849   4.034   6.012   3.441
 9317SOL    HW128850   3.983   5.945   3.387
 9317SOL    HW228851   4.053   6.093   3.385
 9318SOL     OW28852   4.997   6.188   1.238
 9318SOL    HW128853   4.949   6.267   1.278
 9318SOL    HW228854   4.972   6.179   1.142
 9319SOL     OW28855   2.373   3.884   0.075
 9319SOL    HW128856   2.340   3.912   7.009
 9319SOL    HW228857   2.363   3.785   0.086
 9320SOL     OW28858   6.169   6.458   6.763
 9320SOL    HW128859   6.235   6.489   6.831
 9320SOL    HW228860   6.188   6.364   6.738
 9321SOL     OW28861   0.581   3.694   4.661
 9321SOL    HW128862   0.571   3.793   4.663
 9321SOL    HW228863   0.493   3.651   4.680
 9322SOL     OW28864   5.732   3.810   5.638
 9322SOL    HW128865   5.635   3.792   5.657
 9322SOL    HW228866   5.739   3.891   5.580
 9323SOL     OW28867   1.124   2.761   4.447
 9323SOL    HW128868   1.176   2.756   4.532
 9323SOL    HW228869   1.030   2.729   4.463
 9324SOL     OW28870   0.399   4.251   1.535
 9324SOL    HW128871   0.361   4.314   1.602
 9324SOL    HW228872   0.498   4.263   1.529
 9325SOL     OW28873   1.142   4.908   2.723
 9325SOL    HW128874   1.107   4.988   2.674
 9325SOL    HW228875   1.242   4.913   2.729
 9326SOL     OW28876   4.314   4.270   0.818
 9326SOL    HW128877   4.275   4.330   0.888
 9326SOL    HW228878   4.279   4.177   0.830
 9327SOL     OW28879   4.002   6.979   3.992
 9327SOL    HW128880   4.099   6.952   3.994
 9327SOL    HW228881   3.953   6.931   4.064
 9328SOL     OW28882   2.808   6.288   4.695
 9328SOL    HW128883   2.841   6.350   4.766
 9328SOL    HW228884   2.875   6.286   4.620
 9329SOL     OW28885   0.200   5.596   6.623
 9329SOL    HW128886   0.233   5.671   6.680
 9329SOL    HW228887   0.100   5.595   6.622
 9330SOL     OW28888   6.033   5.489   6.607
 9330SOL    HW128889   6.069   5.525   6.693
 9330SOL    HW228890   5.988   5.401   6.624
 9331SOL     OW28891   1.402   2.926   4.652
 9331SOL    HW128892   1.325   2.949   4.712
 9331SOL    HW228893   1.460   3.007   4.640
 9332SOL     OW28894   4.594   5.528   1.139
 9332SOL    HW128895   4.686   5.489   1.143
 9332SOL    HW228896   4.591   5.601   1.070
 9333SOL     OW28897   3.784   4.556   0.655
 9333SOL    HW128898   3.758   4.602   0.740
 9333SOL    HW228899   3.753   4.461   0.657
 9334SOL     OW28900   5.614   6.307   5.511
 9334SOL    HW128901   5.571   6.278   5.426
 9334SOL    HW228902   5.706   6.267   5.517
 9335SOL     OW28903   2.032   2.775   1.426
 9335SOL    HW128904   2.108   2.814   1.374
 9335SOL    HW228905   2.063   2.755   1.519
 9336SOL     OW28906   6.769   0.168   5.160
 9336SOL    HW128907   6.856   0.212   5.180
 9336SOL    HW228908   6.760   0.084   5.213
 9337SOL     OW28909   2.328   0.530   6.600
 9337SOL    HW128910   2.305   0.618   6.642
 9337SOL    HW228911   2.423   0.532   6.570
 9338SOL     OW28912   5.849   6.678   6.727
 9338SOL    HW128913   5.827   6.613   6.800
 9338SOL    HW228914   5.789   6.661   6.649
 9339SOL     OW28915   6.620   4.234   5.439
 9339SOL    HW128916   6.553   4.165   5.413
 9339SOL    HW228917   6.573   4.313   5.478
 9340SOL     OW28918   4.295   6.022   2.225
 9340SOL    HW128919   4.283   6.112   2.183
 9340SOL    HW228920   4.242   6.017   2.309
 9341SOL     OW28921   5.248   3.599   6.869
 9341SOL    HW128922   5.254   3.595   6.769
 9341SOL    HW228923   5.337   3.626   6.906
 9342SOL     OW28924   2.902   0.543   4.244
 9342SOL    HW128925   2.802   0.548   4.239
 9342SOL    HW228926   2.942   0.603   4.175
 9343SOL     OW28927   5.023   4.269   1.478
 9343SOL    HW128928   5.045   4.366   1.487
 9343SOL    HW228929   4.924   4.258   1.475
 9344SOL     OW28930   5.798   5.740   4.644
 9344SOL    HW128931   5.880   5.776   4.689
 9344SOL    HW228932   5.820   5.713   4.551
 9345SOL     OW28933   0.485   6.653   1.559
 9345SOL    HW128934   0.534   6.740   1.546
 9345SOL    HW228935   0.433   6.631   1.476
 9346SOL     OW28936   5.677   6.375   1.428
 9346SOL    HW128937   5.702   6.289   1.383
 9346SOL    HW228938   5.580   6.394   1.413
 9347SOL     OW28939   3.603   5.466   1.014
 9347SOL    HW128940   3.651   5.439   1.097
 9347SOL    HW228941   3.627   5.560   0.991
 9348SOL     OW28942   1.967   5.788   1.553
 9348SOL    HW128943   1.932   5.879   1.530
 9348SOL    HW228944   1.891   5.729   1.580
 9349SOL     OW28945   6.327   5.607   1.777
 9349SOL    HW128946   6.314   5.595   1.678
 9349SOL    HW228947   6.243   5.642   1.817
 9350SOL     OW28948   0.091   1.001   5.287
 9350SOL    HW128949   0.099   0.961   5.196
 9350SOL    HW228950   0.125   0.937   5.356
 9351SOL     OW28951   3.216   1.629   6.623
 9351SOL    HW128952   3.139   1.665   6.676
 9351SOL    HW228953   3.227   1.531   6.644
 9352SOL     OW28954   3.438   1.799   6.620
 9352SOL    HW128955   3.413   1.895   6.611
 9352SOL    HW228956   3.359   1.741   6.600
 9353SOL     OW28957   1.357   3.491   1.077
 9353SOL    HW128958   1.455   3.485   1.099
 9353SOL    HW228959   1.304   3.464   1.157
 9354SOL     OW28960   5.187   1.795   1.500
 9354SOL    HW128961   5.129   1.738   1.442
 9354SOL    HW228962   5.158   1.890   1.494
 9355SOL     OW28963   6.263   6.829   3.707
 9355SOL    HW128964   6.308   6.788   3.787
 9355SOL    HW228965   6.237   6.923   3.728
 9356SOL     OW28966   4.562   4.910   2.363
 9356SOL    HW128967   4.499   4.832   2.373
 9356SOL    HW228968   4.579   4.926   2.266
 9357SOL     OW28969   2.896   3.024   0.906
 9357SOL    HW128970   2.930   3.059   0.819
 9357SOL    HW228971   2.973   3.001   0.965
 9358SOL     OW28972   6.359   4.619   2.054
 9358SOL    HW128973   6.368   4.565   1.970
 9358SOL    HW228974   6.280   4.586   2.106
 9359SOL     OW28975   0.124   4.107   6.029
 9359SOL    HW128976   0.038   4.068   5.996
 9359SOL    HW228977   0.130   4.093   6.128
 9360SOL     OW28978   2.339   1.149   6.266
 9360SOL    HW128979   2.434   1.125   6.285
 9360SOL    HW228980   2.309   1.103   6.182
 9361SOL     OW28981   2.753   6.222   2.363
 9361SOL    HW128982   2.702   6.137   2.378
 9361SOL    HW228983   2.824   6.207   2.294
 9362SOL     OW28984   2.299   1.287   2.371
 9362SOL    HW128985   2.370   1.328   2.427
 9362SOL    HW228986   2.246   1.359   2.327
 9363SOL     OW28987   3.352   6.388   2.787
 9363SOL    HW128988   3.315   6.461   2.730
 9363SOL    HW228989   3.276   6.336   2.827
 9364SOL     OW28990   4.527   3.133   6.808
 9364SOL    HW128991   4.605   3.167   6.860
 9364SOL    HW228992   4.443   3.145   6.861
 9365SOL     OW28993   2.518   2.013   4.996
 9365SOL    HW128994   2.558   2.058   4.916
 9365SOL    HW228995   2.521   1.914   4.982
 9366SOL     OW28996   3.209   2.001   0.380
 9366SOL    HW128997   3.157   2.074   0.423
 9366SOL    HW228998   3.269   2.039   0.310
 9367SOL     OW28999   6.762   5.406   3.110
 9367SOL    HW129000   6.813   5.327   3.078
 9367SOL    HW229001   6.668   5.401   3.075
 9368SOL     OW29002   3.327   2.177   1.783
 9368SOL    HW129003   3.257   2.167   1.854
 9368SOL    HW229004   3.322   2.100   1.720
 9369SOL     OW29005   0.430   1.888   5.467
 9369SOL    HW129006   0.406   1.950   5.541
 9369SOL    HW229007   0.356   1.822   5.453
 9370SOL     OW29008   6.629   0.672   2.609
 9370SOL    HW129009   6.564   0.601   2.638
 9370SOL    HW229010   6.592   0.720   2.529
 9371SOL     OW29011   0.820   6.149   0.624
 9371SOL    HW129012   0.805   6.248   0.614
 9371SOL    HW229013   0.734   6.106   0.650
 9372SOL     OW29014   6.018   6.661   3.475
 9372SOL    HW129015   6.013   6.677   3.573
 9372SOL    HW229016   5.979   6.572   3.453
 9373SOL     OW29017   4.553   1.615   3.196
 9373SOL    HW129018   4.541   1.521   3.230
 9373SOL    HW229019   4.545   1.615   3.096
 9374SOL     OW29020   5.549   2.512   0.544
 9374SOL    HW129021   5.628   2.550   0.592
 9374SOL    HW229022   5.493   2.460   0.609
 9375SOL     OW29023   0.051   1.077   2.811
 9375SOL    HW129024   0.069   1.078   2.713
 9375SOL    HW229025   0.121   1.130   2.859
 9376SOL     OW29026   3.020   3.778   0.564
 9376SOL    HW129027   3.094   3.717   0.590
 9376SOL    HW229028   2.961   3.732   0.497
 9377SOL     OW29029   6.501   5.770   3.836
 9377SOL    HW129030   6.539   5.690   3.789
 9377SOL    HW229031   6.415   5.796   3.793
 9378SOL     OW29032   2.113   0.192   0.047
 9378SOL    HW129033   2.180   0.120   0.065
 9378SOL    HW229034   2.115   0.260   0.120
 9379SOL     OW29035   4.868   4.667   3.929
 9379SOL    HW129036   4.852   4.634   3.836
 9379SOL    HW229037   4.891   4.764   3.926
 9380SOL     OW29038   6.053   6.989   5.803
 9380SOL    HW129039   6.009   6.997   5.714
 9380SOL    HW229040   6.151   6.977   5.791
 9381SOL     OW29041   2.694   2.398   5.450
 9381SOL    HW129042   2.728   2.453   5.373
 9381SOL    HW229043   2.596   2.411   5.460
 9382SOL     OW29044   3.810   0.928   2.757
 9382SOL    HW129045   3.719   0.945   2.720
 9382SOL    HW229046   3.811   0.950   2.855
 9383SOL     OW29047   3.693   6.486   4.568
 9383SOL    HW129048   3.609   6.534   4.541
 9383SOL    HW229049   3.772   6.532   4.528
 9384SOL     OW29050   4.914   6.061   2.724
 9384SOL    HW129051   4.870   6.103   2.645
 9384SOL    HW229052   4.994   6.008   2.694
 9385SOL     OW29053   4.027   1.107   3.632
 9385SOL    HW129054   4.007   1.018   3.591
 9385SOL    HW229055   4.124   1.127   3.622
 9386SOL     OW29056   3.359   6.313   5.620
 9386SOL    HW129057   3.289   6.247   5.649
 9386SOL    HW229058   3.326   6.362   5.540
 9387SOL     OW29059   3.248   6.652   1.341
 9387SOL    HW129060   3.334   6.682   1.300
 9387SOL    HW229061   3.175   6.716   1.317
 9388SOL     OW29062   0.458   0.127   3.118
 9388SOL    HW129063   0.524   0.141   3.192
 9388SOL    HW229064   0.500   0.153   3.031
 9389SOL     OW29065   2.282   0.486   5.723
 9389SOL    HW129066   2.267   0.511   5.627
 9389SOL    HW229067   2.289   0.386   5.731
 9390SOL     OW29068   3.601   5.342   2.847
 9390SOL    HW129069   3.579   5.267   2.909
 9390SOL    HW229070   3.541   5.419   2.865
 9391SOL     OW29071   1.257   1.912   5.636
 9391SOL    HW129072   1.231   1.976   5.563
 9391SOL    HW229073   1.234   1.819   5.608
 9392SOL     OW29074   1.401   6.797   4.696
 9392SOL    HW129075   1.463   6.855   4.748
 9392SOL    HW229076   1.438   6.704   4.690
 9393SOL     OW29077   4.043   2.132   5.553
 9393SOL    HW129078   3.959   2.185   5.558
 9393SOL    HW229079   4.109   2.166   5.620
 9394SOL     OW29080   6.315   2.693   2.882
 9394SOL    HW129081   6.237   2.743   2.845
 9394SOL    HW229082   6.292   2.597   2.892
 9395SOL     OW29083   2.540   2.699   0.336
 9395SOL    HW129084   2.442   2.720   0.332
 9395SOL    HW229085   2.569   2.697   0.432
 9396SOL     OW29086   6.153   6.800   5.468
 9396SOL    HW129087   6.107   6.723   5.513
 9396SOL    HW229088   6.237   6.768   5.426
 9397SOL     OW29089   2.008   0.605   6.843
 9397SOL    HW129090   1.977   0.545   6.917
 9397SOL    HW229091   1.946   0.596   6.765
 9398SOL     OW29092   2.376   1.883   0.158
 9398SOL    HW129093   2.426   1.850   0.238
 9398SOL    HW229094   2.439   1.932   0.097
 9399SOL     OW29095   6.558   1.600   6.022
 9399SOL    HW129096   6.573   1.528   6.089
 9399SOL    HW229097   6.549   1.688   6.069
 9400SOL     OW29098   5.007   3.357   1.540
 9400SOL    HW129099   4.986   3.343   1.637
 9400SOL    HW229100   5.099   3.322   1.522
 9401SOL     OW29101   2.946   6.209   3.790
 9401SOL    HW129102   2.877   6.247   3.729
 9401SOL    HW229103   2.927   6.111   3.804
 9402SOL     OW29104   2.838   5.246   6.933
 9402SOL    HW129105   2.880   5.171   6.883
 9402SOL    HW229106   2.910   5.302   6.976
 9403SOL     OW29107   5.606   1.310   3.510
 9403SOL    HW129108   5.606   1.360   3.423
 9403SOL    HW229109   5.585   1.373   3.585
 9404SOL     OW29110   0.679   5.067   6.852
 9404SOL    HW129111   0.606   5.096   6.914
 9404SOL    HW229112   0.658   5.097   6.759
 9405SOL     OW29113   5.972   6.622   1.659
 9405SOL    HW129114   5.950   6.600   1.564
 9405SOL    HW229115   6.030   6.703   1.662
 9406SOL     OW29116   0.172   2.011   5.276
 9406SOL    HW129117   0.210   1.978   5.363
 9406SOL    HW229118   0.082   2.052   5.293
 9407SOL     OW29119   3.220   6.270   3.608
 9407SOL    HW129120   3.231   6.228   3.698
 9407SOL    HW229121   3.208   6.369   3.619
 9408SOL     OW29122   3.614   1.329   0.007
 9408SOL    HW129123   3.702   1.357   6.992
 9408SOL    HW229124   3.544   1.329   6.960
 9409SOL     OW29125   5.418   3.775   3.790
 9409SOL    HW129126   5.381   3.760   3.882
 9409SOL    HW229127   5.475   3.697   3.764
 9410SOL     OW29128   4.056   6.216   2.299
 9410SOL    HW129129   4.003   6.299   2.318
 9410SOL    HW229130   4.134   6.238   2.241
 9411SOL     OW29131   4.254   5.644   1.002
 9411SOL    HW129132   4.160   5.675   0.986
 9411SOL    HW229133   4.316   5.721   0.995
 9412SOL     OW29134   0.430   2.972   1.170
 9412SOL    HW129135   0.407   2.893   1.112
 9412SOL    HW229136   0.377   2.968   1.254
 9413SOL     OW29137   4.800   5.535   5.474
 9413SOL    HW129138   4.738   5.594   5.422
 9413SOL    HW229139   4.807   5.569   5.568
 9414SOL     OW29140   3.168   1.792   2.597
 9414SOL    HW129141   3.136   1.847   2.675
 9414SOL    HW229142   3.257   1.753   2.618
 9415SOL     OW29143   1.990   6.481   2.244
 9415SOL    HW129144   2.040   6.538   2.179
 9415SOL    HW229145   1.895   6.512   2.249
 9416SOL     OW29146   1.309   1.541   1.614
 9416SOL    HW129147   1.288   1.639   1.609
 9416SOL    HW229148   1.224   1.489   1.611
 9417SOL     OW29149   2.819   6.022   5.416
 9417SOL    HW129150   2.753   5.958   5.375
 9417SOL    HW229151   2.834   6.099   5.354
 9418SOL     OW29152   2.354   5.409   1.376
 9418SOL    HW129153   2.422   5.411   1.302
 9418SOL    HW229154   2.396   5.442   1.461
 9419SOL     OW29155   2.664   6.446   5.130
 9419SOL    HW129156   2.622   6.416   5.044
 9419SOL    HW229157   2.592   6.471   5.195
 9420SOL     OW29158   6.550   1.480   4.578
 9420SOL    HW129159   6.493   1.439   4.508
 9420SOL    HW229160   6.572   1.411   4.648
 9421SOL     OW29161   1.628   4.718   5.418
 9421SOL    HW129162   1.624   4.618   5.410
 9421SOL    HW229163   1.596   4.760   5.333
 9422SOL     OW29164   5.618   0.160   2.230
 9422SOL    HW129165   5.663   0.226   2.291
 9422SOL    HW229166   5.533   0.129   2.272
 9423SOL     OW29167   4.192   0.967   3.392
 9423SOL    HW129168   4.208   1.036   3.463
 9423SOL    HW229169   4.100   0.928   3.402
 9424SOL     OW29170   4.523   0.274   5.624
 9424SOL    HW129171   4.570   0.339   5.684
 9424SOL    HW229172   4.532   0.305   5.529
 9425SOL     OW29173   0.559   3.779   5.598
 9425SOL    HW129174   0.583   3.683   5.605
 9425SOL    HW229175   0.489   3.802   5.666
 9426SOL     OW29176   2.841   0.947   0.077
 9426SOL    HW129177   2.812   0.990   7.015
 9426SOL    HW229178   2.851   1.018   0.147
 9427SOL     OW29179   2.799   5.057   4.912
 9427SOL    HW129180   2.780   5.072   4.815
 9427SOL    HW229181   2.752   4.975   4.944
 9428SOL     OW29182   5.964   6.976   2.911
 9428SOL    HW129183   5.969   0.003   2.824
 9428SOL    HW229184   5.975   0.016   2.987
 9429SOL     OW29185   1.143   4.230   2.054
 9429SOL    HW129186   1.064   4.250   2.112
 9429SOL    HW229187   1.119   4.245   1.959
 9430SOL     OW29188   6.446   6.899   2.394
 9430SOL    HW129189   6.406   6.811   2.367
 9430SOL    HW229190   6.545   6.890   2.402
 9431SOL     OW29191   6.216   3.918   6.530
 9431SOL    HW129192   6.304   3.900   6.575
 9431SOL    HW229193   6.144   3.918   6.599
 9432SOL     OW29194   5.980   0.220   3.638
 9432SOL    HW129195   5.961   0.187   3.546
 9432SOL    HW229196   6.067   0.270   3.638
 9433SOL     OW29197   3.297   5.075   5.322
 9433SOL    HW129198   3.203   5.072   5.357
 9433SOL    HW229199   3.314   4.995   5.265
 9434SOL     OW29200   5.764   4.114   3.068
 9434SOL    HW129201   5.684   4.059   3.042
 9434SOL    HW229202   5.749   4.208   3.038
 9435SOL     OW29203   1.770   1.615   4.113
 9435SOL    HW129204   1.798   1.543   4.176
 9435SOL    HW229205   1.678   1.594   4.079
 9436SOL     OW29206   1.814   3.709   0.670
 9436SOL    HW129207   1.765   3.636   0.621
 9436SOL    HW229208   1.813   3.792   0.614
 9437SOL     OW29209   1.257   5.567   3.360
 9437SOL    HW129210   1.187   5.578   3.430
 9437SOL    HW229211   1.213   5.555   3.270
 9438SOL     OW29212   0.697   6.248   2.321
 9438SOL    HW129213   0.724   6.337   2.284
 9438SOL    HW229214   0.603   6.254   2.356
 9439SOL     OW29215   6.809   3.277   1.956
 9439SOL    HW129216   6.736   3.332   1.996
 9439SOL    HW229217   6.894   3.294   2.005
 9440SOL     OW29218   4.855   6.471   4.700
 9440SOL    HW129219   4.945   6.458   4.740
 9440SOL    HW229220   4.800   6.529   4.761
 9441SOL     OW29221   1.756   5.243   5.117
 9441SOL    HW129222   1.722   5.336   5.100
 9441SOL    HW229223   1.701   5.201   5.189
 9442SOL     OW29224   0.120   2.213   6.969
 9442SOL    HW129225   0.162   2.127   6.995
 9442SOL    HW229226   0.142   2.283   0.013
 9443SOL     OW29227   1.952   4.703   1.287
 9443SOL    HW129228   1.867   4.714   1.338
 9443SOL    HW229229   1.933   4.706   1.189
 9444SOL     OW29230   0.681   2.938   0.074
 9444SOL    HW129231   0.601   2.891   0.111
 9444SOL    HW229232   0.762   2.913   0.128
 9445SOL     OW29233   4.883   3.778   2.175
 9445SOL    HW129234   4.979   3.800   2.159
 9445SOL    HW229235   4.846   3.732   2.094
 9446SOL     OW29236   6.562   6.255   2.786
 9446SOL    HW129237   6.532   6.332   2.843
 9446SOL    HW229238   6.491   6.234   2.719
 9447SOL     OW29239   5.219   3.522   1.781
 9447SOL    HW129240   5.249   3.426   1.783
 9447SOL    HW229241   5.181   3.547   1.870
 9448SOL     OW29242   5.406   6.194   6.149
 9448SOL    HW129243   5.480   6.169   6.212
 9448SOL    HW229244   5.338   6.249   6.198
 9449SOL     OW29245   6.307   5.515   5.313
 9449SOL    HW129246   6.383   5.469   5.267
 9449SOL    HW229247   6.278   5.460   5.392
 9450SOL     OW29248   2.243   4.832   4.747
 9450SOL    HW129249   2.318   4.899   4.749
 9450SOL    HW229250   2.215   4.816   4.652
 9451SOL     OW29251   5.185   5.487   6.370
 9451SOL    HW129252   5.269   5.518   6.415
 9451SOL    HW229253   5.198   5.486   6.271
 9452SOL     OW29254   2.294   3.493   0.857
 9452SOL    HW129255   2.213   3.544   0.826
 9452SOL    HW229256   2.266   3.423   0.922
 9453SOL     OW29257   1.991   4.819   2.944
 9453SOL    HW129258   1.935   4.777   2.872
 9453SOL    HW229259   1.953   4.795   3.033
 9454SOL     OW29260   1.416   4.142   6.150
 9454SOL    HW129261   1.345   4.134   6.081
 9454SOL    HW229262   1.470   4.058   6.153
 9455SOL     OW29263   3.437   1.757   2.656
 9455SOL    HW129264   3.403   1.847   2.682
 9455SOL    HW229265   3.492   1.764   2.573
 9456SOL     OW29266   0.814   3.973   0.829
 9456SOL    HW129267   0.902   4.019   0.835
 9456SOL    HW229268   0.807   3.904   0.901
 9457SOL     OW29269   1.945   3.538   6.626
 9457SOL    HW129270   1.947   3.447   6.584
 9457SOL    HW229271   1.921   3.529   6.723
 9458SOL     OW29272   0.042   4.923   5.725
 9458SOL    HW129273   0.026   5.021   5.710
 9458SOL    HW229274   0.111   4.891   5.660
 9459SOL     OW29275   6.157   5.283   2.073
 9459SOL    HW129276   6.086   5.275   2.143
 9459SOL    HW229277   6.117   5.267   1.983
 9460SOL     OW29278   0.330   2.579   4.795
 9460SOL    HW129279   0.353   2.501   4.853
 9460SOL    HW229280   0.277   2.547   4.716
 9461SOL     OW29281   0.306   1.188   2.875
 9461SOL    HW129282   0.380   1.246   2.841
 9461SOL    HW229283   0.306   1.187   2.975
 9462SOL     OW29284   1.797   3.231   2.926
 9462SOL    HW129285   1.856   3.290   2.871
 9462SOL    HW229286   1.818   3.245   3.023
 9463SOL     OW29287   0.102   0.876   0.686
 9463SOL    HW129288   0.076   0.934   0.763
 9463SOL    HW229289   0.127   0.785   0.720
 9464SOL     OW29290   5.991   6.815   6.440
 9464SOL    HW129291   6.024   6.727   6.474
 9464SOL    HW229292   5.892   6.821   6.451
 9465SOL     OW29293   6.631   0.706   3.138
 9465SOL    HW129294   6.578   0.791   3.143
 9465SOL    HW229295   6.651   0.673   3.230
 9466SOL     OW29296   2.765   3.222   5.535
 9466SOL    HW129297   2.767   3.152   5.463
 9466SOL    HW229298   2.821   3.300   5.507
 9467SOL     OW29299   1.642   2.519   1.744
 9467SOL    HW129300   1.668   2.535   1.648
 9467SOL    HW229301   1.571   2.585   1.770
 9468SOL     OW29302   6.239   3.197   5.897
 9468SOL    HW129303   6.213   3.193   5.993
 9468SOL    HW229304   6.274   3.108   5.868
 9469SOL     OW29305   6.520   5.726   1.901
 9469SOL    HW129306   6.480   5.646   1.857
 9469SOL    HW229307   6.466   5.751   1.981
 9470SOL     OW29308   5.028   3.054   6.565
 9470SOL    HW129309   5.030   3.019   6.659
 9470SOL    HW229310   5.074   3.143   6.562
 9471SOL     OW29311   6.666   2.726   5.655
 9471SOL    HW129312   6.602   2.764   5.722
 9471SOL    HW229313   6.695   2.799   5.593
 9472SOL     OW29314   6.468   4.353   4.405
 9472SOL    HW129315   6.493   4.290   4.479
 9472SOL    HW229316   6.528   4.433   4.409
 9473SOL     OW29317   3.389   6.473   5.847
 9473SOL    HW129318   3.333   6.452   5.927
 9473SOL    HW229319   3.345   6.438   5.765
 9474SOL     OW29320   5.673   4.015   1.810
 9474SOL    HW129321   5.674   4.096   1.868
 9474SOL    HW229322   5.578   3.984   1.797
 9475SOL     OW29323   3.230   3.193   0.976
 9475SOL    HW129324   3.171   3.235   1.045
 9475SOL    HW229325   3.198   3.100   0.958
 9476SOL     OW29326   3.695   3.291   5.240
 9476SOL    HW129327   3.739   3.273   5.152
 9476SOL    HW229328   3.598   3.266   5.234
 9477SOL     OW29329   1.214   2.745   0.924
 9477SOL    HW129330   1.150   2.803   0.974
 9477SOL    HW229331   1.247   2.672   0.984
 9478SOL     OW29332   5.200   4.127   5.516
 9478SOL    HW129333   5.112   4.118   5.469
 9478SOL    HW229334   5.265   4.061   5.478
 9479SOL     OW29335   5.952   5.589   5.957
 9479SOL    HW129336   5.874   5.573   5.898
 9479SOL    HW229337   5.977   5.505   6.005
 9480SOL     OW29338   4.235   4.157   6.771
 9480SOL    HW129339   4.175   4.101   6.713
 9480SOL    HW229340   4.318   4.181   6.720
 9481SOL     OW29341   6.609   3.997   1.595
 9481SOL    HW129342   6.539   4.053   1.551
 9481SOL    HW229343   6.696   4.046   1.595
 9482SOL     OW29344   5.721   0.459   3.218
 9482SOL    HW129345   5.651   0.528   3.237
 9482SOL    HW229346   5.793   0.498   3.161
 9483SOL     OW29347   1.340   1.991   1.102
 9483SOL    HW129348   1.423   2.003   1.158
 9483SOL    HW229349   1.321   1.893   1.091
 9484SOL     OW29350   6.124   1.437   3.766
 9484SOL    HW129351   6.214   1.394   3.757
 9484SOL    HW229352   6.072   1.392   3.839
 9485SOL     OW29353   1.643   0.705   1.612
 9485SOL    HW129354   1.623   0.667   1.702
 9485SOL    HW229355   1.725   0.762   1.617
 9486SOL     OW29356   2.250   5.442   0.559
 9486SOL    HW129357   2.264   5.495   0.474
 9486SOL    HW229358   2.316   5.473   0.628
 9487SOL     OW29359   3.734   4.078   3.625
 9487SOL    HW129360   3.736   4.051   3.529
 9487SOL    HW229361   3.774   4.169   3.635
 9488SOL     OW29362   1.792   5.991   1.484
 9488SOL    HW129363   1.840   6.079   1.478
 9488SOL    HW229364   1.793   5.945   1.395
 9489SOL     OW29365   4.170   4.054   1.147
 9489SOL    HW129366   4.126   3.964   1.141
 9489SOL    HW229367   4.121   4.119   1.088
 9490SOL     OW29368   5.119   0.849   1.043
 9490SOL    HW129369   5.175   0.907   0.984
 9490SOL    HW229370   5.093   0.767   0.993
 9491SOL     OW29371   6.717   5.001   4.681
 9491SOL    HW129372   6.669   5.088   4.670
 9491SOL    HW229373   6.650   4.927   4.690
 9492SOL     OW29374   3.236   3.823   2.278
 9492SOL    HW129375   3.258   3.852   2.185
 9492SOL    HW229376   3.137   3.825   2.291
 9493SOL     OW29377   4.733   5.119   3.613
 9493SOL    HW129378   4.635   5.104   3.600
 9493SOL    HW229379   4.760   5.205   3.569
 9494SOL     OW29380   5.014   3.513   6.961
 9494SOL    HW129381   5.093   3.558   6.919
 9494SOL    HW229382   5.041   3.421   6.991
 9495SOL     OW29383   6.233   2.278   3.624
 9495SOL    HW129384   6.270   2.360   3.667
 9495SOL    HW229385   6.276   2.265   3.535
 9496SOL     OW29386   5.447   3.866   6.324
 9496SOL    HW129387   5.417   3.831   6.235
 9496SOL    HW229388   5.380   3.933   6.357
 9497SOL     OW29389   5.050   4.509   0.744
 9497SOL    HW129390   4.975   4.561   0.701
 9497SOL    HW229391   5.114   4.479   0.673
 9498SOL     OW29392   4.005   6.598   5.430
 9498SOL    HW129393   4.016   6.680   5.486
 9498SOL    HW229394   3.994   6.518   5.489
 9499SOL     OW29395   2.359   4.505   5.631
 9499SOL    HW129396   2.400   4.592   5.657
 9499SOL    HW229397   2.330   4.508   5.535
 9500SOL     OW29398   4.561   6.517   1.834
 9500SOL    HW129399   4.495   6.541   1.763
 9500SOL    HW229400   4.600   6.600   1.873
 9501SOL     OW29401   3.524   2.102   4.743
 9501SOL    HW129402   3.501   2.037   4.814
 9501SOL    HW229403   3.617   2.137   4.758
 9502SOL     OW29404   6.424   2.208   4.673
 9502SOL    HW129405   6.428   2.111   4.693
 9502SOL    HW229406   6.366   2.224   4.593
 9503SOL     OW29407   0.368   1.138   1.799
 9503SOL    HW129408   0.388   1.100   1.890
 9503SOL    HW229409   0.452   1.138   1.744
 9504SOL     OW29410   6.769   2.946   1.200
 9504SOL    HW129411   6.844   2.998   1.242
 9504SOL    HW229412   6.804   2.898   1.119
 9505SOL     OW29413   6.261   3.583   3.123
 9505SOL    HW129414   6.348   3.608   3.080
 9505SOL    HW229415   6.200   3.662   3.122
 9506SOL     OW29416   0.129   3.271   0.219
 9506SOL    HW129417   0.092   3.362   0.202
 9506SOL    HW229418   0.162   3.232   0.134
 9507SOL     OW29419   2.013   1.157   4.290
 9507SOL    HW129420   1.977   1.068   4.260
 9507SOL    HW229421   2.019   1.157   4.390
 9508SOL     OW29422   5.477   2.135   0.234
 9508SOL    HW129423   5.492   2.141   0.135
 9508SOL    HW229424   5.381   2.116   0.252
 9509SOL     OW29425   1.223   6.468   5.463
 9509SOL    HW129426   1.189   6.510   5.379
 9509SOL    HW229427   1.306   6.417   5.444
 9510SOL     OW29428   6.730   3.810   2.326
 9510SOL    HW129429   6.630   3.803   2.316
 9510SOL    HW229430   6.765   3.875   2.259
 9511SOL     OW29431   0.886   2.224   7.023
 9511SOL    HW129432   0.789   2.205   7.014
 9511SOL    HW229433   0.905   2.318   6.998
 9512SOL     OW29434   6.763   2.023   3.532
 9512SOL    HW129435   6.800   2.094   3.472
 9512SOL    HW229436   6.715   2.065   3.608
 9513SOL     OW29437   1.900   4.248   4.836
 9513SOL    HW129438   1.856   4.173   4.886
 9513SOL    HW229439   1.897   4.229   4.738
 9514SOL     OW29440   1.731   3.655   6.474
 9514SOL    HW129441   1.636   3.622   6.472
 9514SOL    HW229442   1.788   3.589   6.521
 9515SOL     OW29443   1.165   6.206   0.085
 9515SOL    HW129444   1.164   6.291   0.031
 9515SOL    HW229445   1.092   6.210   0.154
 9516SOL     OW29446   4.884   3.474   4.189
 9516SOL    HW129447   4.814   3.403   4.190
 9516SOL    HW229448   4.892   3.513   4.281
 9517SOL     OW29449   1.044   5.173   1.612
 9517SOL    HW129450   1.114   5.103   1.626
 9517SOL    HW229451   1.087   5.263   1.604
 9518SOL     OW29452   1.107   3.055   5.895
 9518SOL    HW129453   1.048   3.109   5.956
 9518SOL    HW229454   1.153   2.983   5.948
 9519SOL     OW29455   2.862   3.404   2.701
 9519SOL    HW129456   2.921   3.326   2.723
 9519SOL    HW229457   2.838   3.401   2.604
 9520SOL     OW29458   6.742   0.852   4.660
 9520SOL    HW129459   6.667   0.917   4.662
 9520SOL    HW229460   6.772   0.837   4.566
 9521SOL     OW29461   3.184   5.751   1.809
 9521SOL    HW129462   3.171   5.739   1.907
 9521SOL    HW229463   3.125   5.687   1.759
 9522SOL     OW29464   4.239   5.046   2.134
 9522SOL    HW129465   4.291   5.097   2.203
 9522SOL    HW229466   4.195   4.968   2.177
 9523SOL     OW29467   2.359   5.245   4.851
 9523SOL    HW129468   2.371   5.149   4.828
 9523SOL    HW229469   2.332   5.297   4.769
 9524SOL     OW29470   0.864   3.816   1.549
 9524SOL    HW129471   0.945   3.859   1.509
 9524SOL    HW229472   0.834   3.741   1.491
 9525SOL     OW29473   2.008   2.489   5.910
 9525SOL    HW129474   1.969   2.482   5.818
 9525SOL    HW229475   1.976   2.573   5.954
 9526SOL     OW29476   5.502   5.031   0.607
 9526SOL    HW129477   5.511   4.986   0.518
 9526SOL    HW229478   5.409   5.069   0.616
 9527SOL     OW29479   2.715   7.010   4.171
 9527SOL    HW129480   2.662   0.068   4.147
 9527SOL    HW229481   2.765   0.004   4.256
 9528SOL     OW29482   5.734   1.140   1.360
 9528SOL    HW129483   5.683   1.223   1.382
 9528SOL    HW229484   5.692   1.062   1.406
 9529SOL     OW29485   6.169   3.276   0.750
 9529SOL    HW129486   6.255   3.318   0.723
 9529SOL    HW229487   6.183   3.178   0.767
 9530SOL     OW29488   1.514   5.772   4.667
 9530SOL    HW129489   1.445   5.770   4.594
 9530SOL    HW229490   1.517   5.864   4.707
 9531SOL     OW29491   4.638   4.486   3.017
 9531SOL    HW129492   4.574   4.484   2.940
 9531SOL    HW229493   4.704   4.412   3.008
 9532SOL     OW29494   6.316   4.913   1.581
 9532SOL    HW129495   6.408   4.932   1.617
 9532SOL    HW229496   6.249   4.921   1.655
 9533SOL     OW29497   1.126   5.827   4.595
 9533SOL    HW129498   1.051   5.772   4.558
 9533SOL    HW229499   1.102   5.924   4.589
 9534SOL     OW29500   5.904   4.519   4.896
 9534SOL    HW129501   5.821   4.484   4.940
 9534SOL    HW229502   5.975   4.448   4.898
 9535SOL     OW29503   1.953   1.918   5.623
 9535SOL    HW129504   1.860   1.881   5.629
 9535SOL    HW229505   1.966   1.960   5.533
 9536SOL     OW29506   3.505   2.964   4.876
 9536SOL    HW129507   3.534   3.059   4.885
 9536SOL    HW229508   3.406   2.958   4.883
 9537SOL     OW29509   2.702   1.898   4.166
 9537SOL    HW129510   2.680   1.855   4.079
 9537SOL    HW229511   2.773   1.967   4.153
 9538SOL     OW29512   3.803   1.148   4.455
 9538SOL    HW129513   3.749   1.067   4.476
 9538SOL    HW229514   3.898   1.122   4.439
 9539SOL     OW29515   3.236   2.956   3.951
 9539SOL    HW129516   3.171   3.018   3.908
 9539SOL    HW229517   3.252   2.985   4.046
 9540SOL     OW29518   4.716   5.326   4.234
 9540SOL    HW129519   4.704   5.340   4.136
 9540SOL    HW229520   4.684   5.234   4.259
 9541SOL     OW29521   0.999   0.787   5.573
 9541SOL    HW129522   0.903   0.813   5.581
 9541SOL    HW229523   1.033   0.809   5.482
 9542SOL     OW29524   5.864   4.848   4.408
 9542SOL    HW129525   5.894   4.769   4.461
 9542SOL    HW229526   5.791   4.896   4.457
 9543SOL     OW29527   3.253   0.239   6.160
 9543SOL    HW129528   3.237   0.200   6.250
 9543SOL    HW229529   3.326   0.187   6.114
 9544SOL     OW29530   4.906   4.009   3.870
 9544SOL    HW129531   4.847   4.090   3.865
 9544SOL    HW229532   4.911   3.966   3.780
 9545SOL     OW29533   0.823   5.130   2.228
 9545SOL    HW129534   0.864   5.104   2.140
 9545SOL    HW229535   0.731   5.165   2.213
 9546SOL     OW29536   3.321   1.847   6.283
 9546SOL    HW129537   3.404   1.878   6.328
 9546SOL    HW229538   3.337   1.840   6.185
 9547SOL     OW29539   3.286   5.642   4.358
 9547SOL    HW129540   3.280   5.666   4.261
 9547SOL    HW229541   3.194   5.628   4.394
 9548SOL     OW29542   1.064   5.447   5.381
 9548SOL    HW129543   1.025   5.365   5.340
 9548SOL    HW229544   1.152   5.468   5.338
 9549SOL     OW29545   3.623   0.656   2.621
 9549SOL    HW129546   3.587   0.749   2.628
 9549SOL    HW229547   3.570   0.596   2.681
 9550SOL     OW29548   6.255   2.529   0.712
 9550SOL    HW129549   6.347   2.561   0.733
 9550SOL    HW229550   6.259   2.461   0.638
 9551SOL     OW29551   5.938   3.145   6.033
 9551SOL    HW129552   5.941   3.122   5.936
 9551SOL    HW229553   5.913   3.064   6.087
 9552SOL     OW29554   2.186   0.504   5.996
 9552SOL    HW129555   2.234   0.495   5.909
 9552SOL    HW229556   2.226   0.441   6.063
 9553SOL     OW29557   5.360   1.824   0.432
 9553SOL    HW129558   5.325   1.775   0.512
 9553SOL    HW229559   5.459   1.812   0.425
 9554SOL     OW29560   2.336   6.477   3.580
 9554SOL    HW129561   2.395   6.400   3.605
 9554SOL    HW229562   2.327   6.539   3.658
 9555SOL     OW29563   7.003   1.638   3.685
 9555SOL    HW129564   6.942   1.683   3.620
 9555SOL    HW229565   0.073   1.670   3.670
 9556SOL     OW29566   1.675   4.689   1.382
 9556SOL    HW129567   1.580   4.710   1.358
 9556SOL    HW229568   1.703   4.604   1.338
 9557SOL     OW29569   4.922   6.822   1.772
 9557SOL    HW129570   4.902   6.819   1.674
 9557SOL    HW229571   4.955   6.914   1.797
 9558SOL     OW29572   5.544   6.587   5.465
 9558SOL    HW129573   5.560   6.494   5.497
 9558SOL    HW229574   5.618   6.647   5.496
 9559SOL     OW29575   1.226   3.677   0.211
 9559SOL    HW129576   1.227   3.746   0.138
 9559SOL    HW229577   1.291   3.703   0.283
 9560SOL     OW29578   2.834   0.762   2.524
 9560SOL    HW129579   2.830   0.849   2.475
 9560SOL    HW229580   2.772   0.765   2.603
 9561SOL     OW29581   0.367   0.886   1.632
 9561SOL    HW129582   0.356   0.944   1.714
 9561SOL    HW229583   0.440   0.924   1.575
 9562SOL     OW29584   3.084   6.303   4.365
 9562SOL    HW129585   3.089   6.203   4.377
 9562SOL    HW229586   3.173   6.344   4.384
 9563SOL     OW29587   0.410   6.267   0.542
 9563SOL    HW129588   0.477   6.306   0.479
 9563SOL    HW229589   0.457   6.210   0.609
 9564SOL     OW29590   1.799   1.420   1.486
 9564SOL    HW129591   1.716   1.417   1.542
 9564SOL    HW229592   1.777   1.397   1.392
 9565SOL     OW29593   3.485   1.359   4.491
 9565SOL    HW129594   3.408   1.330   4.434
 9565SOL    HW229595   3.455   1.428   4.556
 9566SOL     OW29596   2.340   6.278   0.486
 9566SOL    HW129597   2.344   6.194   0.432
 9566SOL    HW229598   2.257   6.279   0.542
 9567SOL     OW29599   5.775   4.465   0.313
 9567SOL    HW129600   5.692   4.452   0.368
 9567SOL    HW229601   5.800   4.379   0.270
 9568SOL     OW29602   4.254   1.291   0.532
 9568SOL    HW129603   4.279   1.203   0.492
 9568SOL    HW229604   4.157   1.292   0.553
 9569SOL     OW29605   0.157   0.831   2.158
 9569SOL    HW129606   0.166   0.767   2.081
 9569SOL    HW229607   0.120   0.783   2.237
 9570SOL     OW29608   0.953   2.862   0.949
 9570SOL    HW129609   0.955   2.899   1.042
 9570SOL    HW229610   0.859   2.861   0.916
 9571SOL     OW29611   2.225   2.549   6.071
 9571SOL    HW129612   2.215   2.488   6.149
 9571SOL    HW229613   2.156   2.527   6.002
 9572SOL     OW29614   2.457   4.783   2.746
 9572SOL    HW129615   2.516   4.823   2.676
 9572SOL    HW229616   2.448   4.685   2.730
 9573SOL     OW29617   6.898   1.332   5.681
 9573SOL    HW129618   6.833   1.301   5.750
 9573SOL    HW229619   6.894   1.271   5.602
 9574SOL     OW29620   3.549   2.837   2.052
 9574SOL    HW129621   3.528   2.765   2.118
 9574SOL    HW229622   3.621   2.895   2.089
 9575SOL     OW29623   6.481   0.927   2.103
 9575SOL    HW129624   6.572   0.903   2.070
 9575SOL    HW229625   6.469   1.026   2.097
 9576SOL     OW29626   1.783   2.232   6.946
 9576SOL    HW129627   1.864   2.175   6.962
 9576SOL    HW229628   1.704   2.173   6.927
 9577SOL     OW29629   0.000   5.901   6.781
 9577SOL    HW129630   6.946   5.923   6.839
 9577SOL    HW229631   0.006   5.967   6.707
 9578SOL     OW29632   1.370   2.519   2.734
 9578SOL    HW129633   1.308   2.591   2.765
 9578SOL    HW229634   1.376   2.447   2.803
 9579SOL     OW29635   6.321   5.943   2.595
 9579SOL    HW129636   6.400   5.885   2.574
 9579SOL    HW229637   6.336   6.034   2.557
 9580SOL     OW29638   4.941   3.684   1.021
 9580SOL    HW129639   4.930   3.774   0.979
 9580SOL    HW229640   4.994   3.625   0.960
 9581SOL     OW29641   0.546   0.375   6.350
 9581SOL    HW129642   0.557   0.276   6.359
 9581SOL    HW229643   0.562   0.401   6.255
 9582SOL     OW29644   3.756   5.424   4.678
 9582SOL    HW129645   3.759   5.361   4.756
 9582SOL    HW229646   3.712   5.510   4.706
 9583SOL     OW29647   3.211   4.526   1.298
 9583SOL    HW129648   3.235   4.527   1.395
 9583SOL    HW229649   3.113   4.538   1.288
 9584SOL     OW29650   1.549   5.071   5.724
 9584SOL    HW129651   1.490   5.140   5.683
 9584SOL    HW229652   1.519   4.980   5.695
 9585SOL     OW29653   5.395   6.627   2.235
 9585SOL    HW129654   5.371   6.700   2.300
 9585SOL    HW229655   5.377   6.538   2.277
 9586SOL     OW29656   4.392   5.218   2.284
 9586SOL    HW129657   4.344   5.286   2.340
 9586SOL    HW229658   4.491   5.224   2.301
 9587SOL     OW29659   1.279   6.527   2.681
 9587SOL    HW129660   1.191   6.533   2.635
 9587SOL    HW229661   1.330   6.449   2.647
 9588SOL     OW29662   6.176   6.220   0.587
 9588SOL    HW129663   6.235   6.298   0.608
 9588SOL    HW229664   6.233   6.140   0.567
 9589SOL     OW29665   1.683   4.011   6.827
 9589SOL    HW129666   1.620   4.084   6.855
 9589SOL    HW229667   1.652   3.972   6.740
 9590SOL     OW29668   6.430   2.595   1.638
 9590SOL    HW129669   6.453   2.592   1.541
 9590SOL    HW229670   6.498   2.544   1.691
 9591SOL     OW29671   3.972   5.874   6.121
 9591SOL    HW129672   4.038   5.830   6.059
 9591SOL    HW229673   4.022   5.916   6.197
 9592SOL     OW29674   3.348   5.377   1.029
 9592SOL    HW129675   3.443   5.406   1.027
 9592SOL    HW229676   3.288   5.456   1.042
 9593SOL     OW29677   1.172   2.084   5.414
 9593SOL    HW129678   1.080   2.091   5.452
 9593SOL    HW229679   1.171   2.022   5.335
 9594SOL     OW29680   2.557   6.186   4.606
 9594SOL    HW129681   2.645   6.219   4.640
 9594SOL    HW229682   2.531   6.238   4.525
 9595SOL     OW29683   0.676   2.810   3.567
 9595SOL    HW129684   0.769   2.776   3.575
 9595SOL    HW229685   0.671   2.878   3.494
 9596SOL     OW29686   0.793   5.003   0.489
 9596SOL    HW129687   0.724   5.037   0.425
 9596SOL    HW229688   0.850   4.935   0.443
 9597SOL     OW29689   0.183   4.174   1.332
 9597SOL    HW129690   0.257   4.216   1.385
 9597SOL    HW229691   0.124   4.123   1.394
 9598SOL     OW29692   2.137   4.042   3.478
 9598SOL    HW129693   2.039   4.060   3.487
 9598SOL    HW229694   2.159   3.953   3.517
 9599SOL     OW29695   3.211   0.213   4.212
 9599SOL    HW129696   3.135   0.257   4.260
 9599SOL    HW229697   3.179   0.176   4.125
 9600SOL     OW29698   2.789   0.233   0.103
 9600SOL    HW129699   2.826   0.227   0.011
 9600SOL    HW229700   2.754   0.326   0.119
 9601SOL     OW29701   5.605   4.503   0.028
 9601SOL    HW129702   5.649   4.421   7.016
 9601SOL    HW229703   5.618   4.507   0.127
 9602SOL     OW29704   4.955   3.683   5.527
 9602SOL    HW129705   4.931   3.779   5.520
 9602SOL    HW229706   4.885   3.634   5.579
 9603SOL     OW29707   5.350   6.898   6.658
 9603SOL    HW129708   5.407   6.858   6.731
 9603SOL    HW229709   5.291   6.968   6.697
 9604SOL     OW29710   5.160   6.690   1.540
 9604SOL    HW129711   5.116   6.698   1.451
 9604SOL    HW229712   5.184   6.781   1.573
 9605SOL     OW29713   1.006   5.422   2.829
 9605SOL    HW129714   1.090   5.429   2.882
 9605SOL    HW229715   0.949   5.503   2.844
 9606SOL     OW29716   1.420   6.629   6.479
 9606SOL    HW129717   1.327   6.606   6.453
 9606SOL    HW229718   1.419   6.708   6.540
 9607SOL     OW29719   2.832   1.183   0.229
 9607SOL    HW129720   2.762   1.230   0.176
 9607SOL    HW229721   2.920   1.230   0.217
 9608SOL     OW29722   0.194   4.905   1.924
 9608SOL    HW129723   0.229   4.994   1.896
 9608SOL    HW229724   0.137   4.867   1.852
 9609SOL     OW29725   3.880   2.974   0.103
 9609SOL    HW129726   3.789   2.994   0.067
 9609SOL    HW229727   3.873   2.904   0.174
 9610SOL     OW29728   1.618   4.679   3.545
 9610SOL    HW129729   1.565   4.620   3.484
 9610SOL    HW229730   1.556   4.738   3.596
 9611SOL     OW29731   1.286   5.974   0.451
 9611SOL    HW129732   1.192   6.007   0.448
 9611SOL    HW229733   1.310   5.951   0.546
 9612SOL     OW29734   0.515   2.998   1.887
 9612SOL    HW129735   0.587   3.059   1.919
 9612SOL    HW229736   0.512   2.917   1.946
 9613SOL     OW29737   5.491   6.602   3.796
 9613SOL    HW129738   5.536   6.626   3.710
 9613SOL    HW229739   5.426   6.528   3.780
 9614SOL     OW29740   3.761   2.079   1.770
 9614SOL    HW129741   3.742   2.144   1.697
 9614SOL    HW229742   3.768   2.127   1.858
 9615SOL     OW29743   2.336   1.339   1.226
 9615SOL    HW129744   2.371   1.388   1.306
 9615SOL    HW229745   2.267   1.273   1.255
 9616SOL     OW29746   3.646   3.853   0.876
 9616SOL    HW129747   3.651   3.757   0.849
 9616SOL    HW229748   3.738   3.885   0.900
 9617SOL     OW29749   1.824   3.075   3.432
 9617SOL    HW129750   1.883   3.082   3.351
 9617SOL    HW229751   1.805   3.166   3.468
 9618SOL     OW29752   2.805   6.993   0.946
 9618SOL    HW129753   2.814   6.903   0.903
 9618SOL    HW229754   2.774   0.036   0.879
 9619SOL     OW29755   1.797   0.231   5.751
 9619SOL    HW129756   1.796   0.232   5.651
 9619SOL    HW229757   1.713   0.272   5.785
 9620SOL     OW29758   4.335   0.080   5.294
 9620SOL    HW129759   4.333   7.006   5.272
 9620SOL    HW229760   4.283   0.096   5.378
 9621SOL     OW29761   1.980   3.106   1.780
 9621SOL    HW129762   1.922   3.026   1.763
 9621SOL    HW229763   1.954   3.180   1.718
 9622SOL     OW29764   6.471   1.655   0.531
 9622SOL    HW129765   6.395   1.590   0.522
 9622SOL    HW229766   6.534   1.643   0.453
 9623SOL     OW29767   2.824   3.452   5.818
 9623SOL    HW129768   2.880   3.420   5.741
 9623SOL    HW229769   2.757   3.519   5.785
 9624SOL     OW29770   5.935   3.948   2.881
 9624SOL    HW129771   5.873   3.875   2.910
 9624SOL    HW229772   5.904   4.036   2.918
 9625SOL     OW29773   5.318   5.269   6.910
 9625SOL    HW129774   5.340   5.285   7.006
 9625SOL    HW229775   5.391   5.214   6.868
 9626SOL     OW29776   4.433   5.236   0.632
 9626SOL    HW129777   4.377   5.239   0.549
 9626SOL    HW229778   4.500   5.310   0.629
 9627SOL     OW29779   0.861   6.046   6.360
 9627SOL    HW129780   0.796   5.973   6.336
 9627SOL    HW229781   0.906   6.024   6.446
 9628SOL     OW29782   5.391   4.693   0.986
 9628SOL    HW129783   5.465   4.743   0.941
 9628SOL    HW229784   5.428   4.610   1.027
 9629SOL     OW29785   1.891   0.453   0.945
 9629SOL    HW129786   1.911   0.479   0.850
 9629SOL    HW229787   1.825   0.517   0.984
 9630SOL     OW29788   6.184   6.852   4.480
 9630SOL    HW129789   6.119   6.780   4.503
 9630SOL    HW229790   6.263   6.845   4.540
 9631SOL     OW29791   6.938   6.294   6.501
 9631SOL    HW129792   6.872   6.347   6.554
 9631SOL    HW229793   6.954   6.339   6.413
 9632SOL     OW29794   1.573   6.891   2.732
 9632SOL    HW129795   1.650   6.876   2.670
 9632SOL    HW229796   1.593   6.969   2.791
 9633SOL     OW29797   5.257   4.987   6.607
 9633SOL    HW129798   5.204   4.972   6.690
 9633SOL    HW229799   5.259   4.903   6.552
 9634SOL     OW29800   1.292   6.381   3.893
 9634SOL    HW129801   1.355   6.352   3.821
 9634SOL    HW229802   1.322   6.468   3.931
 9635SOL     OW29803   1.891   6.509   4.876
 9635SOL    HW129804   1.971   6.569   4.880
 9635SOL    HW229805   1.866   6.481   4.968
 9636SOL     OW29806   3.914   1.313   5.550
 9636SOL    HW129807   3.953   1.222   5.535
 9636SOL    HW229808   3.816   1.311   5.532
 9637SOL     OW29809   2.511   2.485   6.887
 9637SOL    HW129810   2.415   2.460   6.893
 9637SOL    HW229811   2.520   2.585   6.895
 9638SOL     OW29812   0.159   3.460   6.152
 9638SOL    HW129813   0.089   3.403   6.194
 9638SOL    HW229814   0.188   3.419   6.065
 9639SOL     OW29815   4.037   1.766   1.988
 9639SOL    HW129816   4.120   1.754   2.042
 9639SOL    HW229817   4.058   1.819   1.906
 9640SOL     OW29818   2.197   3.103   3.900
 9640SOL    HW129819   2.194   3.163   3.980
 9640SOL    HW229820   2.104   3.071   3.879
 9641SOL     OW29821   4.624   0.205   0.409
 9641SOL    HW129822   4.714   0.222   0.369
 9641SOL    HW229823   4.566   0.159   0.342
 9642SOL     OW29824   2.803   6.947   4.969
 9642SOL    HW129825   2.868   7.017   4.939
 9642SOL    HW229826   2.715   6.961   4.922
 9643SOL     OW29827   5.614   4.173   3.540
 9643SOL    HW129828   5.546   4.124   3.595
 9643SOL    HW229829   5.568   4.238   3.481
 9644SOL     OW29830   0.846   3.627   6.286
 9644SOL    HW129831   0.803   3.706   6.244
 9644SOL    HW229832   0.847   3.638   6.386
 9645SOL     OW29833   2.457   4.994   4.825
 9645SOL    HW129834   2.502   4.937   4.894
 9645SOL    HW229835   2.515   5.000   4.744
 9646SOL     OW29836   3.642   4.860   2.880
 9646SOL    HW129837   3.733   4.840   2.844
 9646SOL    HW229838   3.613   4.786   2.941
 9647SOL     OW29839   6.302   4.304   1.137
 9647SOL    HW129840   6.304   4.336   1.043
 9647SOL    HW229841   6.394   4.310   1.176
 9648SOL     OW29842   4.341   1.477   1.146
 9648SOL    HW129843   4.419   1.517   1.097
 9648SOL    HW229844   4.261   1.475   1.086
 9649SOL     OW29845   2.674   7.022   0.190
 9649SOL    HW129846   2.702   0.082   0.145
 9649SOL    HW229847   2.586   6.992   0.152
 9650SOL     OW29848   0.043   5.276   2.545
 9650SOL    HW129849   7.015   5.233   2.619
 9650SOL    HW229850   0.064   5.208   2.475
 9651SOL     OW29851   0.071   1.841   5.746
 9651SOL    HW129852   0.044   1.745   5.751
 9651SOL    HW229853   0.041   1.889   5.828
 9652SOL     OW29854   1.065   4.852   1.352
 9652SOL    HW129855   0.992   4.891   1.409
 9652SOL    HW229856   1.043   4.864   1.256
 9653SOL     OW29857   4.135   4.849   5.151
 9653SOL    HW129858   4.153   4.935   5.199
 9653SOL    HW229859   4.047   4.855   5.104
 9654SOL     OW29860   2.857   2.211   1.531
 9654SOL    HW129861   2.853   2.278   1.457
 9654SOL    HW229862   2.802   2.243   1.608
 9655SOL     OW29863   6.866   1.765   6.304
 9655SOL    HW129864   6.933   1.839   6.294
 9655SOL    HW229865   6.830   1.766   6.397
 9656SOL     OW29866   2.337   0.573   2.995
 9656SOL    HW129867   2.285   0.573   3.080
 9656SOL    HW229868   2.301   0.642   2.933
 9657SOL     OW29869   5.299   0.970   4.200
 9657SOL    HW129870   5.332   0.888   4.248
 9657SOL    HW229871   5.348   0.979   4.114
 9658SOL     OW29872   0.156   1.984   2.566
 9658SOL    HW129873   0.161   1.939   2.477
 9658SOL    HW229874   0.097   1.931   2.627
 9659SOL     OW29875   0.004   4.013   0.200
 9659SOL    HW129876   0.059   4.094   0.217
 9659SOL    HW229877   0.031   3.971   0.114
 9660SOL     OW29878   0.625   6.185   1.108
 9660SOL    HW129879   0.551   6.222   1.164
 9660SOL    HW229880   0.668   6.258   1.056
 9661SOL     OW29881   4.648   5.997   1.005
 9661SOL    HW129882   4.747   6.003   1.017
 9661SOL    HW229883   4.603   6.010   1.093
 9662SOL     OW29884   6.037   2.781   4.577
 9662SOL    HW129885   5.946   2.773   4.535
 9662SOL    HW229886   6.030   2.834   4.661
 9663SOL     OW29887   1.524   5.469   3.978
 9663SOL    HW129888   1.609   5.520   3.982
 9663SOL    HW229889   1.447   5.530   3.996
 9664SOL     OW29890   4.395   6.705   2.690
 9664SOL    HW129891   4.420   6.659   2.605
 9664SOL    HW229892   4.475   6.710   2.750
 9665SOL     OW29893   5.900   4.769   5.457
 9665SOL    HW129894   5.840   4.848   5.471
 9665SOL    HW229895   5.859   4.688   5.501
 9666SOL     OW29896   5.995   4.324   1.016
 9666SOL    HW129897   6.053   4.276   0.950
 9666SOL    HW229898   6.052   4.383   1.073
 9667SOL     OW29899   3.994   3.549   4.118
 9667SOL    HW129900   4.006   3.648   4.126
 9667SOL    HW229901   4.000   3.522   4.022
 9668SOL     OW29902   6.771   1.568   5.234
 9668SOL    HW129903   6.742   1.472   5.244
 9668SOL    HW229904   6.829   1.577   5.154
 9669SOL     OW29905   0.613   0.954   0.845
 9669SOL    HW129906   0.545   0.882   0.832
 9669SOL    HW229907   0.648   0.984   0.756
 9670SOL     OW29908   4.374   4.320   6.105
 9670SOL    HW129909   4.353   4.284   6.014
 9670SOL    HW229910   4.450   4.385   6.097
 9671SOL     OW29911   6.767   5.445   6.008
 9671SOL    HW129912   6.785   5.366   5.948
 9671SOL    HW229913   6.670   5.448   6.031
 9672SOL     OW29914   1.088   6.592   5.259
 9672SOL    HW129915   1.022   6.667   5.272
 9672SOL    HW229916   1.087   6.563   5.163
 9673SOL     OW29917   3.684   4.925   6.846
 9673SOL    HW129918   3.687   4.997   6.777
 9673SOL    HW229919   3.740   4.848   6.816
 9674SOL     OW29920   2.713   6.295   1.990
 9674SOL    HW129921   2.679   6.231   2.058
 9674SOL    HW229922   2.794   6.257   1.946
 9675SOL     OW29923   5.999   0.780   2.235
 9675SOL    HW129924   5.996   0.705   2.168
 9675SOL    HW229925   6.095   0.800   2.256
 9676SOL     OW29926   1.542   3.537   5.782
 9676SOL    HW129927   1.582   3.546   5.691
 9676SOL    HW229928   1.591   3.595   5.847
 9677SOL     OW29929   2.234   4.264   5.706
 9677SOL    HW129930   2.295   4.337   5.676
 9677SOL    HW229931   2.287   4.186   5.739
 9678SOL     OW29932   3.818   3.604   2.961
 9678SOL    HW129933   3.909   3.569   2.936
 9678SOL    HW229934   3.760   3.527   2.989
 9679SOL     OW29935   0.802   2.962   2.211
 9679SOL    HW129936   0.865   3.039   2.215
 9679SOL    HW229937   0.836   2.894   2.146
 9680SOL     OW29938   5.946   6.634   3.739
 9680SOL    HW129939   5.989   6.711   3.787
 9680SOL    HW229940   5.978   6.548   3.778
 9681SOL     OW29941   2.008   0.824   1.281
 9681SOL    HW129942   2.089   0.872   1.312
 9681SOL    HW229943   1.982   0.754   1.348
 9682SOL     OW29944   4.909   5.105   3.319
 9682SOL    HW129945   4.842   5.061   3.378
 9682SOL    HW229946   4.922   5.051   3.236
 9683SOL     OW29947   4.050   5.491   0.501
 9683SOL    HW129948   4.137   5.493   0.450
 9683SOL    HW229949   4.024   5.397   0.519
 9684SOL     OW29950   0.226   3.609   4.924
 9684SOL    HW129951   0.245   3.679   4.855
 9684SOL    HW229952   0.295   3.614   4.996
 9685SOL     OW29953   2.665   3.017   1.263
 9685SOL    HW129954   2.740   2.988   1.204
 9685SOL    HW229955   2.619   2.937   1.302
 9686SOL     OW29956   6.928   1.258   1.146
 9686SOL    HW129957   6.960   1.339   1.097
 9686SOL    HW229958   6.855   1.284   1.209
 9687SOL     OW29959   2.130   0.847   3.179
 9687SOL    HW129960   2.104   0.944   3.175
 9687SOL    HW229961   2.074   0.801   3.248
 9688SOL     OW29962   0.077   2.372   2.871
 9688SOL    HW129963   0.117   2.440   2.933
 9688SOL    HW229964   0.015   2.417   2.807
 9689SOL     OW29965   1.883   6.790   0.145
 9689SOL    HW129966   1.783   6.793   0.141
 9689SOL    HW229967   1.918   6.879   0.175
 9690SOL     OW29968   6.131   4.563   0.168
 9690SOL    HW129969   6.115   4.635   0.100
 9690SOL    HW229970   6.068   4.487   0.151
 9691SOL     OW29971   1.992   4.953   1.988
 9691SOL    HW129972   1.917   4.890   1.966
 9691SOL    HW229973   2.018   5.003   1.905
 9692SOL     OW29974   2.726   4.956   2.277
 9692SOL    HW129975   2.825   4.959   2.293
 9692SOL    HW229976   2.691   5.050   2.268
 9693SOL     OW29977   6.929   5.703   2.031
 9693SOL    HW129978   6.912   5.799   2.009
 9693SOL    HW229979   6.874   5.645   1.971
 9694SOL     OW29980   2.092   2.200   6.931
 9694SOL    HW129981   2.072   2.233   6.839
 9694SOL    HW229982   2.133   2.109   6.925
 9695SOL     OW29983   5.860   4.708   0.428
 9695SOL    HW129984   5.831   4.626   0.379
 9695SOL    HW229985   5.959   4.707   0.441
 9696SOL     OW29986   3.933   2.718   1.393
 9696SOL    HW129987   3.875   2.639   1.412
 9696SOL    HW229988   3.916   2.789   1.462
 9697SOL     OW29989   0.726   4.831   6.926
 9697SOL    HW129990   0.711   4.918   6.879
 9697SOL    HW229991   0.728   4.846   0.001
 9698SOL     OW29992   5.903   0.732   4.738
 9698SOL    HW129993   5.944   0.790   4.809
 9698SOL    HW229994   5.898   0.783   4.652
 9699SOL     OW29995   0.940   4.054   5.860
 9699SOL    HW129996   0.914   4.139   5.906
 9699SOL    HW229997   0.878   4.037   5.784
 9700SOL     OW29998   3.572   4.838   5.279
 9700SOL    HW129999   3.647   4.888   5.322
 9700SOL    HW230000   3.573   4.743   5.310
 9701SOL     OW30001   3.845   5.896   5.473
 9701SOL    HW130002   3.907   5.955   5.422
 9701SOL    HW230003   3.853   5.915   5.571
 9702SOL     OW30004   5.501   1.442   0.428
 9702SOL    HW130005   5.540   1.350   0.440
 9702SOL    HW230006   5.402   1.436   0.425
 9703SOL     OW30007   2.998   5.901   4.473
 9703SOL    HW130008   3.023   5.809   4.443
 9703SOL    HW230009   3.063   5.967   4.435
 9704SOL     OW30010   3.399   6.876   2.951
 9704SOL    HW130011   3.415   6.928   2.867
 9704SOL    HW230012   3.482   6.828   2.978
 9705SOL     OW30013   4.183   5.105   0.390
 9705SOL    HW130014   4.174   5.006   0.402
 9705SOL    HW230015   4.190   5.126   0.293
 9706SOL     OW30016   6.927   2.318   0.807
 9706SOL    HW130017   6.876   2.315   0.893
 9706SOL    HW230018   6.865   2.346   0.733
 9707SOL     OW30019   0.773   4.324   2.005
 9707SOL    HW130020   0.801   4.243   1.955
 9707SOL    HW230021   0.674   4.336   1.998
 9708SOL     OW30022   1.834   2.802   3.726
 9708SOL    HW130023   1.854   2.722   3.782
 9708SOL    HW230024   1.737   2.803   3.701
 9709SOL     OW30025   1.075   6.192   3.876
 9709SOL    HW130026   1.144   6.254   3.914
 9709SOL    HW230027   1.086   6.187   3.777
 9710SOL     OW30028   0.104   0.758   2.666
 9710SOL    HW130029   0.100   0.732   2.570
 9710SOL    HW230030   0.094   0.677   2.724
 9711SOL     OW30031   1.536   3.110   5.943
 9711SOL    HW130032   1.538   3.020   5.900
 9711SOL    HW230033   1.468   3.167   5.897
 9712SOL     OW30034   5.369   2.373   4.769
 9712SOL    HW130035   5.438   2.375   4.697
 9712SOL    HW230036   5.279   2.389   4.728
 9713SOL     OW30037   0.183   4.451   2.821
 9713SOL    HW130038   0.203   4.507   2.740
 9713SOL    HW230039   0.265   4.443   2.877
 9714SOL     OW30040   2.052   1.394   1.347
 9714SOL    HW130041   2.053   1.415   1.445
 9714SOL    HW230042   2.034   1.297   1.334
 9715SOL     OW30043   6.105   5.695   4.799
 9715SOL    HW130044   6.147   5.626   4.740
 9715SOL    HW230045   6.146   5.785   4.781
 9716SOL     OW30046   3.709   1.999   6.645
 9716SOL    HW130047   3.725   1.933   6.571
 9716SOL    HW230048   3.619   2.040   6.634
 9717SOL     OW30049   4.844   5.675   4.280
 9717SOL    HW130050   4.923   5.636   4.233
 9717SOL    HW230051   4.819   5.616   4.357
 9718SOL     OW30052   4.318   2.544   1.336
 9718SOL    HW130053   4.302   2.629   1.286
 9718SOL    HW230054   4.405   2.550   1.385
 9719SOL     OW30055   0.924   2.289   0.561
 9719SOL    HW130056   0.977   2.290   0.476
 9719SOL    HW230057   0.836   2.334   0.547
 9720SOL     OW30058   0.497   6.188   2.033
 9720SOL    HW130059   0.572   6.122   2.044
 9720SOL    HW230060   0.530   6.280   2.053
 9721SOL     OW30061   0.710   3.370   2.119
 9721SOL    HW130062   0.615   3.355   2.148
 9721SOL    HW230063   0.747   3.450   2.166
 9722SOL     OW30064   0.364   0.782   3.602
 9722SOL    HW130065   0.429   0.749   3.671
 9722SOL    HW230066   0.403   0.862   3.556
 9723SOL     OW30067   0.969   6.359   2.847
 9723SOL    HW130068   0.988   6.408   2.762
 9723SOL    HW230069   1.039   6.289   2.861
 9724SOL     OW30070   3.008   2.659   1.735
 9724SOL    HW130071   2.910   2.651   1.720
 9724SOL    HW230072   3.038   2.588   1.799
 9725SOL     OW30073   4.119   3.593   6.486
 9725SOL    HW130074   4.188   3.665   6.488
 9725SOL    HW230075   4.029   3.634   6.477
 9726SOL     OW30076   5.450   6.822   4.710
 9726SOL    HW130077   5.451   6.881   4.790
 9726SOL    HW230078   5.412   6.871   4.632
 9727SOL     OW30079   1.341   3.984   5.549
 9727SOL    HW130080   1.414   4.046   5.577
 9727SOL    HW230081   1.343   3.902   5.605
 9728SOL     OW30082   1.653   6.472   6.438
 9728SOL    HW130083   1.720   6.449   6.508
 9728SOL    HW230084   1.584   6.534   6.476
 9729SOL     OW30085   1.225   4.622   3.314
 9729SOL    HW130086   1.128   4.641   3.299
 9729SOL    HW230087   1.276   4.707   3.320
 9730SOL     OW30088   6.795   3.320   2.626
 9730SOL    HW130089   6.837   3.270   2.550
 9730SOL    HW230090   6.706   3.278   2.647
 9731SOL     OW30091   4.109   5.114   0.760
 9731SOL    HW130092   4.141   5.031   0.713
 9731SOL    HW230093   4.017   5.099   0.795
 9732SOL     OW30094   6.689   6.078   2.577
 9732SOL    HW130095   6.636   6.101   2.659
 9732SOL    HW230096   6.629   6.039   2.508
 9733SOL     OW30097   6.168   5.044   4.454
 9733SOL    HW130098   6.133   5.074   4.365
 9733SOL    HW230099   6.191   4.947   4.449
 9734SOL     OW30100   5.747   1.774   4.067
 9734SOL    HW130101   5.763   1.841   4.140
 9734SOL    HW230102   5.833   1.758   4.018
 9735SOL     OW30103   1.900   4.995   3.161
 9735SOL    HW130104   1.893   4.896   3.172
 9735SOL    HW230105   1.893   5.020   3.064
 9736SOL     OW30106   5.445   0.972   6.953
 9736SOL    HW130107   5.531   0.924   6.937
 9736SOL    HW230108   5.381   0.953   6.877
 9737SOL     OW30109   4.142   2.238   4.649
 9737SOL    HW130110   4.091   2.167   4.698
 9737SOL    HW230111   4.139   2.323   4.701
 9738SOL     OW30112   1.266   0.728   3.075
 9738SOL    HW130113   1.208   0.806   3.051
 9738SOL    HW230114   1.318   0.700   2.995
 9739SOL     OW30115   6.876   4.852   1.529
 9739SOL    HW130116   6.975   4.846   1.538
 9739SOL    HW230117   6.843   4.933   1.577
 9740SOL     OW30118   5.769   3.742   2.903
 9740SOL    HW130119   5.772   3.692   2.816
 9740SOL    HW230120   5.781   3.679   2.979
 9741SOL     OW30121   4.833   1.440   2.907
 9741SOL    HW130122   4.823   1.489   2.993
 9741SOL    HW230123   4.769   1.363   2.904
 9742SOL     OW30124   5.016   0.154   3.385
 9742SOL    HW130125   4.993   0.225   3.452
 9742SOL    HW230126   4.997   0.188   3.293
 9743SOL     OW30127   1.921   2.709   6.034
 9743SOL    HW130128   1.875   2.726   6.121
 9743SOL    HW230129   2.001   2.768   6.026
 9744SOL     OW30130   1.497   0.687   2.209
 9744SOL    HW130131   1.542   0.725   2.289
 9744SOL    HW230132   1.508   0.749   2.131
 9745SOL     OW30133   0.550   2.220   5.092
 9745SOL    HW130134   0.615   2.162   5.043
 9745SOL    HW230135   0.544   2.190   5.187
 9746SOL     OW30136   5.545   0.976   5.403
 9746SOL    HW130137   5.454   1.010   5.429
 9746SOL    HW230138   5.612   1.048   5.418
 9747SOL     OW30139   1.452   1.225   1.165
 9747SOL    HW130140   1.396   1.143   1.171
 9747SOL    HW230141   1.546   1.200   1.140
 9748SOL     OW30142   1.364   6.139   5.038
 9748SOL    HW130143   1.274   6.165   5.073
 9748SOL    HW230144   1.407   6.075   5.101
 9749SOL     OW30145   1.183   3.153   5.445
 9749SOL    HW130146   1.205   3.158   5.347
 9749SOL    HW230147   1.244   3.214   5.495
 9750SOL     OW30148   5.285   4.661   3.592
 9750SOL    HW130149   5.357   4.731   3.596
 9750SOL    HW230150   5.290   4.605   3.675
 9751SOL     OW30151   1.812   2.213   0.932
 9751SOL    HW130152   1.747   2.282   0.900
 9751SOL    HW230153   1.802   2.201   1.031
 9752SOL     OW30154   4.581   0.537   6.219
 9752SOL    HW130155   4.545   0.474   6.151
 9752SOL    HW230156   4.559   0.631   6.192
 9753SOL     OW30157   6.600   6.420   4.991
 9753SOL    HW130158   6.507   6.457   4.996
 9753SOL    HW230159   6.636   6.433   4.899
 9754SOL     OW30160   1.595   1.764   6.982
 9754SOL    HW130161   1.536   1.779   0.037
 9754SOL    HW230162   1.573   1.831   6.911
 9755SOL     OW30163   4.169   3.411   4.891
 9755SOL    HW130164   4.258   3.385   4.855
 9755SOL    HW230165   4.098   3.387   4.824
 9756SOL     OW30166   5.828   2.849   6.956
 9756SOL    HW130167   5.840   2.904   0.015
 9756SOL    HW230168   5.900   2.779   6.953
 9757SOL     OW30169   5.182   3.100   3.480
 9757SOL    HW130170   5.238   3.154   3.542
 9757SOL    HW230171   5.099   3.071   3.527
 9758SOL     OW30172   2.034   0.151   5.578
 9758SOL    HW130173   2.057   0.143   5.675
 9758SOL    HW230174   1.999   0.063   5.545
 9759SOL     OW30175   1.758   6.704   1.214
 9759SOL    HW130176   1.788   6.690   1.120
 9759SOL    HW230177   1.720   6.796   1.224
 9760SOL     OW30178   5.441   4.421   4.816
 9760SOL    HW130179   5.534   4.390   4.801
 9760SOL    HW230180   5.438   4.483   4.894
 9761SOL     OW30181   5.944   4.980   1.412
 9761SOL    HW130182   5.915   4.991   1.507
 9761SOL    HW230183   5.874   4.930   1.361
 9762SOL     OW30184   2.031   1.913   4.591
 9762SOL    HW130185   2.081   2.000   4.587
 9762SOL    HW230186   2.091   1.839   4.561
 9763SOL     OW30187   4.523   1.359   1.585
 9763SOL    HW130188   4.444   1.381   1.527
 9763SOL    HW230189   4.588   1.304   1.533
 9764SOL     OW30190   1.502   2.601   3.478
 9764SOL    HW130191   1.458   2.586   3.389
 9764SOL    HW230192   1.465   2.684   3.520
 9765SOL     OW30193   6.793   1.888   5.258
 9765SOL    HW130194   6.697   1.861   5.259
 9765SOL    HW230195   6.811   1.943   5.177
 9766SOL     OW30196   3.109   0.640   3.227
 9766SOL    HW130197   3.155   0.727   3.210
 9766SOL    HW230198   3.054   0.615   3.147
 9767SOL     OW30199   5.436   1.388   5.080
 9767SOL    HW130200   5.370   1.370   5.007
 9767SOL    HW230201   5.453   1.486   5.085
 9768SOL     OW30202   4.605   2.050   2.645
 9768SOL    HW130203   4.526   2.028   2.703
 9768SOL    HW230204   4.658   2.123   2.688
 9769SOL     OW30205   1.265   2.589   1.125
 9769SOL    HW130206   1.218   2.652   1.187
 9769SOL    HW230207   1.239   2.495   1.147
 9770SOL     OW30208   5.793   5.318   5.692
 9770SOL    HW130209   5.750   5.343   5.779
 9770SOL    HW230210   5.846   5.395   5.658
 9771SOL     OW30211   4.329   4.609   1.037
 9771SOL    HW130212   4.339   4.617   0.938
 9771SOL    HW230213   4.403   4.658   1.083
 9772SOL     OW30214   0.263   6.884   1.694
 9772SOL    HW130215   0.266   6.791   1.730
 9772SOL    HW230216   0.189   6.893   1.628
 9773SOL     OW30217   5.447   5.413   3.751
 9773SOL    HW130218   5.394   5.486   3.795
 9773SOL    HW230219   5.386   5.355   3.698
 9774SOL     OW30220   5.953   5.312   3.907
 9774SOL    HW130221   5.876   5.260   3.871
 9774SOL    HW230222   5.982   5.380   3.839
 9775SOL     OW30223   2.034   2.497   4.704
 9775SOL    HW130224   2.121   2.459   4.672
 9775SOL    HW230225   1.967   2.493   4.630
 9776SOL     OW30226   6.954   5.794   4.601
 9776SOL    HW130227   6.855   5.809   4.600
 9776SOL    HW230228   6.973   5.697   4.614
 9777SOL     OW30229   5.962   4.644   5.780
 9777SOL    HW130230   6.014   4.577   5.834
 9777SOL    HW230231   6.025   4.710   5.740
 9778SOL     OW30232   4.600   6.774   2.861
 9778SOL    HW130233   4.647   6.836   2.797
 9778SOL    HW230234   4.591   6.819   2.950
 9779SOL     OW30235   2.570   1.458   4.919
 9779SOL    HW130236   2.649   1.416   4.875
 9779SOL    HW230237   2.598   1.498   5.007
 9780SOL     OW30238   2.336   3.120   0.480
 9780SOL    HW130239   2.355   3.087   0.572
 9780SOL    HW230240   2.264   3.190   0.484
 9781SOL     OW30241   1.728   4.557   4.520
 9781SOL    HW130242   1.711   4.590   4.427
 9781SOL    HW230243   1.642   4.526   4.561
 9782SOL     OW30244   6.829   0.169   1.552
 9782SOL    HW130245   6.744   0.120   1.572
 9782SOL    HW230246   6.812   0.267   1.554
 9783SOL     OW30247   5.968   1.141   1.757
 9783SOL    HW130248   5.899   1.203   1.720
 9783SOL    HW230249   5.933   1.096   1.839
 9784SOL     OW30250   4.406   1.128   3.259
 9784SOL    HW130251   4.386   1.222   3.289
 9784SOL    HW230252   4.330   1.069   3.285
 9785SOL     OW30253   6.947   2.834   2.683
 9785SOL    HW130254   6.952   2.776   2.765
 9785SOL    HW230255   0.011   2.878   2.668
 9786SOL     OW30256   2.215   5.501   5.893
 9786SOL    HW130257   2.276   5.546   5.828
 9786SOL    HW230258   2.137   5.462   5.845
 9787SOL     OW30259   5.089   3.926   1.761
 9787SOL    HW130260   4.990   3.940   1.756
 9787SOL    HW230261   5.136   4.011   1.738
 9788SOL     OW30262   0.380   0.032   4.190
 9788SOL    HW130263   0.441   7.015   4.121
 9788SOL    HW230264   0.398   0.130   4.196
 9789SOL     OW30265   2.258   5.909   5.692
 9789SOL    HW130266   2.321   5.926   5.617
 9789SOL    HW230267   2.310   5.896   5.777
 9790SOL     OW30268   5.356   1.842   4.317
 9790SOL    HW130269   5.280   1.885   4.366
 9790SOL    HW230270   5.442   1.886   4.342
 9791SOL     OW30271   1.713   1.154   1.087
 9791SOL    HW130272   1.763   1.229   1.132
 9791SOL    HW230273   1.774   1.076   1.075
 9792SOL     OW30274   4.864   5.034   0.930
 9792SOL    HW130275   4.859   4.941   0.968
 9792SOL    HW230276   4.910   5.032   0.842
 9793SOL     OW30277   5.483   6.420   2.645
 9793SOL    HW130278   5.547   6.345   2.627
 9793SOL    HW230279   5.409   6.418   2.577
 9794SOL     OW30280   5.361   2.924   5.807
 9794SOL    HW130281   5.319   2.871   5.733
 9794SOL    HW230282   5.291   2.953   5.872
 9795SOL     OW30283   1.274   3.375   4.575
 9795SOL    HW130284   1.281   3.347   4.480
 9795SOL    HW230285   1.290   3.297   4.635
 9796SOL     OW30286   3.124   5.242   0.909
 9796SOL    HW130287   3.216   5.267   0.940
 9796SOL    HW230288   3.090   5.166   0.964
 9797SOL     OW30289   4.302   3.796   6.503
 9797SOL    HW130290   4.392   3.833   6.526
 9797SOL    HW230291   4.288   3.801   6.404
 9798SOL     OW30292   2.733   0.386   1.062
 9798SOL    HW130293   2.681   0.378   1.147
 9798SOL    HW230294   2.672   0.414   0.988
 9799SOL     OW30295   3.132   3.096   2.484
 9799SOL    HW130296   3.174   3.121   2.396
 9799SOL    HW230297   3.194   3.037   2.535
 9800SOL     OW30298   4.348   5.781   6.464
 9800SOL    HW130299   4.292   5.833   6.528
 9800SOL    HW230300   4.298   5.768   6.378
 9801SOL     OW30301   4.613   5.763   0.517
 9801SOL    HW130302   4.535   5.802   0.468
 9801SOL    HW230303   4.689   5.827   0.517
 9802SOL     OW30304   0.952   3.408   1.045
 9802SOL    HW130305   0.983   3.340   1.111
 9802SOL    HW230306   0.913   3.363   0.965
 9803SOL     OW30307   6.384   0.026   0.110
 9803SOL    HW130308   6.291   0.037   0.077
 9803SOL    HW230309   6.384   6.997   0.195
 9804SOL     OW30310   0.307   5.342   3.672
 9804SOL    HW130311   0.398   5.330   3.712
 9804SOL    HW230312   0.298   5.435   3.637
 9805SOL     OW30313   1.163   5.175   6.821
 9805SOL    HW130314   1.219   5.237   6.876
 9805SOL    HW230315   1.220   5.105   6.780
 9806SOL     OW30316   0.127   2.663   1.765
 9806SOL    HW130317   0.054   2.595   1.758
 9806SOL    HW230318   0.091   2.748   1.804
 9807SOL     OW30319   4.181   1.761   0.121
 9807SOL    HW130320   4.276   1.754   0.152
 9807SOL    HW230321   4.126   1.804   0.193
 9808SOL     OW30322   6.423   1.960   4.760
 9808SOL    HW130323   6.350   1.893   4.747
 9808SOL    HW230324   6.500   1.917   4.807
 9809SOL     OW30325   0.711   1.461   4.475
 9809SOL    HW130326   0.641   1.393   4.453
 9809SOL    HW230327   0.669   1.540   4.519
 9810SOL     OW30328   2.624   1.662   3.324
 9810SOL    HW130329   2.685   1.601   3.274
 9810SOL    HW230330   2.552   1.695   3.262
 9811SOL     OW30331   6.721   6.120   2.969
 9811SOL    HW130332   6.765   6.198   3.013
 9811SOL    HW230333   6.651   6.153   2.905
 9812SOL     OW30334   4.881   2.191   5.874
 9812SOL    HW130335   4.831   2.106   5.853
 9812SOL    HW230336   4.830   2.269   5.837
 9813SOL     OW30337   6.508   5.426   7.003
 9813SOL    HW130338   6.511   5.484   6.922
 9813SOL    HW230339   6.480   5.479   0.059
 9814SOL     OW30340   6.641   6.573   5.988
 9814SOL    HW130341   6.694   6.652   5.956
 9814SOL    HW230342   6.692   6.489   5.969
 9815SOL     OW30343   6.255   3.643   1.528
 9815SOL    HW130344   6.335   3.607   1.576
 9815SOL    HW230345   6.275   3.648   1.430
 9816SOL     OW30346   6.618   0.190   0.014
 9816SOL    HW130347   6.570   0.118   0.064
 9816SOL    HW230348   6.578   0.279   0.037
 9817SOL     OW30349   3.255   5.975   1.300
 9817SOL    HW130350   3.295   5.979   1.208
 9817SOL    HW230351   3.173   5.919   1.298
 9818SOL     OW30352   1.595   0.630   3.644
 9818SOL    HW130353   1.547   0.715   3.670
 9818SOL    HW230354   1.559   0.554   3.698
 9819SOL     OW30355   6.157   3.661   4.872
 9819SOL    HW130356   6.217   3.582   4.879
 9819SOL    HW230357   6.079   3.639   4.812
 9820SOL     OW30358   2.840   2.368   6.277
 9820SOL    HW130359   2.927   2.410   6.252
 9820SOL    HW230360   2.776   2.377   6.201
 9821SOL     OW30361   4.695   2.276   2.002
 9821SOL    HW130362   4.595   2.270   2.001
 9821SOL    HW230363   4.725   2.353   1.947
 9822SOL     OW30364   4.168   5.654   4.784
 9822SOL    HW130365   4.084   5.601   4.772
 9822SOL    HW230366   4.191   5.699   4.697
 9823SOL     OW30367   1.942   0.811   2.814
 9823SOL    HW130368   1.951   0.723   2.769
 9823SOL    HW230369   1.857   0.812   2.868
 9824SOL     OW30370   1.113   6.102   5.610
 9824SOL    HW130371   1.101   6.180   5.672
 9824SOL    HW230372   1.164   6.030   5.657
 9825SOL     OW30373   5.025   6.214   6.299
 9825SOL    HW130374   4.942   6.230   6.245
 9825SOL    HW230375   5.090   6.288   6.282
 9826SOL     OW30376   3.072   6.398   5.522
 9826SOL    HW130377   3.054   6.494   5.544
 9826SOL    HW230378   2.988   6.356   5.486
 9827SOL     OW30379   1.791   5.681   2.263
 9827SOL    HW130380   1.802   5.651   2.168
 9827SOL    HW230381   1.828   5.611   2.324
 9828SOL     OW30382   3.820   1.780   5.429
 9828SOL    HW130383   3.770   1.859   5.465
 9828SOL    HW230384   3.898   1.760   5.489
 9829SOL     OW30385   4.190   5.526   6.006
 9829SOL    HW130386   4.229   5.457   5.945
 9829SOL    HW230387   4.117   5.485   6.061
 9830SOL     OW30388   5.571   1.929   2.833
 9830SOL    HW130389   5.619   1.870   2.769
 9830SOL    HW230390   5.482   1.890   2.855
 9831SOL     OW30391   0.479   4.208   1.926
 9831SOL    HW130392   0.411   4.180   1.993
 9831SOL    HW230393   0.516   4.127   1.880
 9832SOL     OW30394   4.798   4.125   4.380
 9832SOL    HW130395   4.892   4.155   4.362
 9832SOL    HW230396   4.746   4.202   4.417
 9833SOL     OW30397   3.379   3.806   4.295
 9833SOL    HW130398   3.375   3.802   4.394
 9833SOL    HW230399   3.470   3.781   4.264
 9834SOL     OW30400   2.537   5.633   5.243
 9834SOL    HW130401   2.635   5.647   5.256
 9834SOL    HW230402   2.505   5.693   5.169
 9835SOL     OW30403   3.745   4.175   4.837
 9835SOL    HW130404   3.809   4.134   4.902
 9835SOL    HW230405   3.712   4.262   4.873
 9836SOL     OW30406   0.866   3.603   5.653
 9836SOL    HW130407   0.800   3.569   5.586
 9836SOL    HW230408   0.817   3.632   5.735
 9837SOL     OW30409   5.055   2.156   1.707
 9837SOL    HW130410   5.109   2.164   1.790
 9837SOL    HW230411   4.994   2.234   1.699
 9838SOL     OW30412   0.883   6.476   1.805
 9838SOL    HW130413   0.936   6.396   1.833
 9838SOL    HW230414   0.904   6.553   1.865
 9839SOL     OW30415   4.262   0.878   2.429
 9839SOL    HW130416   4.262   0.778   2.436
 9839SOL    HW230417   4.209   0.917   2.505
 9840SOL     OW30418   5.998   1.647   6.534
 9840SOL    HW130419   5.949   1.562   6.513
 9840SOL    HW230420   5.968   1.682   6.622
 9841SOL     OW30421   0.075   6.137   3.297
 9841SOL    HW130422   0.164   6.160   3.336
 9841SOL    HW230423   0.041   6.215   3.244
 9842SOL     OW30424   2.741   2.375   6.828
 9842SOL    HW130425   2.677   2.451   6.843
 9842SOL    HW230426   2.690   2.289   6.828
 9843SOL     OW30427   0.057   6.698   0.796
 9843SOL    HW130428   0.077   6.601   0.794
 9843SOL    HW230429   0.103   6.744   0.720
 9844SOL     OW30430   4.722   0.107   4.125
 9844SOL    HW130431   4.758   0.144   4.211
 9844SOL    HW230432   4.784   0.035   4.092
 9845SOL     OW30433   1.524   3.065   1.710
 9845SOL    HW130434   1.425   3.060   1.699
 9845SOL    HW230435   1.545   3.132   1.781
 9846SOL     OW30436   5.110   1.310   1.368
 9846SOL    HW130437   5.163   1.231   1.398
 9846SOL    HW230438   5.082   1.364   1.447
 9847SOL     OW30439   4.022   3.931   0.621
 9847SOL    HW130440   4.048   3.948   0.716
 9847SOL    HW230441   3.964   4.005   0.588
 9848SOL     OW30442   3.879   3.625   5.390
 9848SOL    HW130443   3.794   3.577   5.367
 9848SOL    HW230444   3.956   3.561   5.385
 9849SOL     OW30445   0.874   1.730   5.724
 9849SOL    HW130446   0.922   1.696   5.643
 9849SOL    HW230447   0.908   1.821   5.747
 9850SOL     OW30448   0.887   0.363   4.581
 9850SOL    HW130449   0.877   0.268   4.612
 9850SOL    HW230450   0.967   0.404   4.625
 9851SOL     OW30451   3.806   5.028   4.463
 9851SOL    HW130452   3.805   4.962   4.388
 9851SOL    HW230453   3.863   4.993   4.538
 9852SOL     OW30454   1.955   1.692   6.723
 9852SOL    HW130455   1.872   1.718   6.675
 9852SOL    HW230456   2.033   1.744   6.687
 9853SOL     OW30457   6.937   4.336   3.837
 9853SOL    HW130458   6.863   4.275   3.865
 9853SOL    HW230459   0.001   4.288   3.841
 9854SOL     OW30460   1.272   5.448   6.217
 9854SOL    HW130461   1.256   5.391   6.297
 9854SOL    HW230462   1.265   5.545   6.242
 9855SOL     OW30463   1.859   3.587   1.483
 9855SOL    HW130464   1.896   3.679   1.501
 9855SOL    HW230465   1.768   3.596   1.443
 9856SOL     OW30466   5.936   3.883   3.273
 9856SOL    HW130467   5.993   3.897   3.192
 9856SOL    HW230468   5.874   3.806   3.258
 9857SOL     OW30469   4.145   1.621   3.836
 9857SOL    HW130470   4.235   1.660   3.850
 9857SOL    HW230471   4.099   1.611   3.925
 9858SOL     OW30472   6.416   6.202   2.551
 9858SOL    HW130473   6.443   6.261   2.475
 9858SOL    HW230474   6.341   6.244   2.602
 9859SOL     OW30475   6.988   5.840   4.300
 9859SOL    HW130476   6.954   5.842   4.394
 9859SOL    HW230477   0.013   5.754   4.283
 9860SOL     OW30478   1.591   3.198   4.918
 9860SOL    HW130479   1.519   3.141   4.957
 9860SOL    HW230480   1.551   3.284   4.886
 9861SOL     OW30481   3.628   1.194   4.257
 9861SOL    HW130482   3.695   1.165   4.325
 9861SOL    HW230483   3.548   1.234   4.303
 9862SOL     OW30484   1.448   5.497   0.704
 9862SOL    HW130485   1.421   5.413   0.751
 9862SOL    HW230486   1.429   5.576   0.762
 9863SOL     OW30487   4.155   6.250   1.010
 9863SOL    HW130488   4.067   6.297   1.005
 9863SOL    HW230489   4.182   6.240   1.105
 9864SOL     OW30490   2.903   6.117   5.149
 9864SOL    HW130491   2.804   6.117   5.131
 9864SOL    HW230492   2.950   6.168   5.078
 9865SOL     OW30493   0.674   6.103   5.828
 9865SOL    HW130494   0.712   6.122   5.919
 9865SOL    HW230495   0.679   6.005   5.810
 9866SOL     OW30496   6.423   5.224   4.341
 9866SOL    HW130497   6.505   5.246   4.288
 9866SOL    HW230498   6.389   5.134   4.313
 9867SOL     OW30499   4.700   1.959   1.558
 9867SOL    HW130500   4.731   2.053   1.573
 9867SOL    HW230501   4.719   1.904   1.639
 9868SOL     OW30502   1.672   4.411   3.652
 9868SOL    HW130503   1.599   4.351   3.620
 9868SOL    HW230504   1.639   4.505   3.656
 9869SOL     OW30505   0.027   2.763   1.090
 9869SOL    HW130506   0.047   2.682   1.145
 9869SOL    HW230507   6.967   2.748   1.037
 9870SOL     OW30508   3.206   1.384   2.264
 9870SOL    HW130509   3.134   1.393   2.195
 9870SOL    HW230510   3.291   1.425   2.230
 9871SOL     OW30511   0.042   3.949   4.458
 9871SOL    HW130512   0.080   4.030   4.414
 9871SOL    HW230513   0.076   3.943   4.552
 9872SOL     OW30514   1.650   5.099   5.328
 9872SOL    HW130515   1.668   5.021   5.268
 9872SOL    HW230516   1.683   5.078   5.420
 9873SOL     OW30517   2.129   1.641   5.341
 9873SOL    HW130518   2.134   1.572   5.414
 9873SOL    HW230519   2.035   1.647   5.308
 9874SOL     OW30520   7.000   2.510   4.799
 9874SOL    HW130521   6.999   2.600   4.842
 9874SOL    HW230522   7.004   2.439   4.870
 9875SOL     OW30523   6.774   5.714   0.476
 9875SOL    HW130524   6.825   5.745   0.396
 9875SOL    HW230525   6.828   5.648   0.527
 9876SOL     OW30526   2.372   6.821   3.579
 9876SOL    HW130527   2.367   6.921   3.568
 9876SOL    HW230528   2.400   6.780   3.493
 9877SOL     OW30529   0.697   5.480   4.908
 9877SOL    HW130530   0.674   5.394   4.954
 9877SOL    HW230531   0.721   5.461   4.813
 9878SOL     OW30532   2.216   3.041   0.127
 9878SOL    HW130533   2.170   2.989   0.199
 9878SOL    HW230534   2.165   3.029   0.041
 9879SOL     OW30535   0.476   5.039   6.295
 9879SOL    HW130536   0.427   4.965   6.341
 9879SOL    HW230537   0.564   5.004   6.262
 9880SOL     OW30538   2.816   1.693   0.430
 9880SOL    HW130539   2.813   1.736   0.520
 9880SOL    HW230540   2.861   1.754   0.365
 9881SOL     OW30541   5.548   0.326   4.603
 9881SOL    HW130542   5.647   0.314   4.602
 9881SOL    HW230543   5.520   0.358   4.693
 9882SOL     OW30544   4.029   3.855   4.433
 9882SOL    HW130545   4.096   3.794   4.390
 9882SOL    HW230546   3.953   3.800   4.469
 9883SOL     OW30547   2.112   0.095   1.153
 9883SOL    HW130548   2.080   0.072   1.245
 9883SOL    HW230549   2.207   0.067   1.143
 9884SOL     OW30550   1.758   3.800   6.251
 9884SOL    HW130551   1.765   3.747   6.336
 9884SOL    HW230552   1.849   3.815   6.214
 9885SOL     OW30553   6.338   3.432   4.416
 9885SOL    HW130554   6.312   3.513   4.364
 9885SOL    HW230555   6.399   3.458   4.491
 9886SOL     OW30556   4.868   5.991   1.354
 9886SOL    HW130557   4.905   6.078   1.322
 9886SOL    HW230558   4.901   5.973   1.447
 9887SOL     OW30559   3.548   0.259   0.275
 9887SOL    HW130560   3.509   0.249   0.184
 9887SOL    HW230561   3.598   0.175   0.299
 9888SOL     OW30562   6.063   4.905   2.280
 9888SOL    HW130563   6.143   4.911   2.222
 9888SOL    HW230564   6.014   4.992   2.279
 9889SOL     OW30565   0.083   5.201   3.765
 9889SOL    HW130566   0.063   5.238   3.856
 9889SOL    HW230567   0.140   5.266   3.715
 9890SOL     OW30568   6.923   4.138   1.892
 9890SOL    HW130569   6.874   4.124   1.978
 9890SOL    HW230570   6.992   4.208   1.905
 9891SOL     OW30571   5.638   4.771   0.900
 9891SOL    HW130572   5.648   4.766   0.801
 9891SOL    HW230573   5.725   4.750   0.944
 9892SOL     OW30574   2.048   5.490   4.268
 9892SOL    HW130575   1.988   5.436   4.328
 9892SOL    HW230576   2.048   5.585   4.297
 9893SOL     OW30577   5.772   4.971   3.188
 9893SOL    HW130578   5.733   4.885   3.221
 9893SOL    HW230579   5.848   4.952   3.126
 9894SOL     OW30580   3.743   2.709   6.112
 9894SOL    HW130581   3.719   2.803   6.085
 9894SOL    HW230582   3.763   2.707   6.210
 9895SOL     OW30583   5.007   2.563   6.883
 9895SOL    HW130584   4.976   2.644   6.834
 9895SOL    HW230585   5.069   2.590   6.957
 9896SOL     OW30586   4.043   4.264   0.545
 9896SOL    HW130587   4.095   4.349   0.551
 9896SOL    HW230588   3.972   4.273   0.474
 9897SOL     OW30589   5.774   2.121   2.898
 9897SOL    HW130590   5.801   2.104   2.994
 9897SOL    HW230591   5.687   2.077   2.880
 9898SOL     OW30592   1.363   5.198   5.583
 9898SOL    HW130593   1.325   5.290   5.578
 9898SOL    HW230594   1.389   5.167   5.491
 9899SOL     OW30595   5.572   4.898   2.464
 9899SOL    HW130596   5.571   4.899   2.364
 9899SOL    HW230597   5.601   4.807   2.495
 9900SOL     OW30598   1.185   2.400   4.401
 9900SOL    HW130599   1.261   2.362   4.455
 9900SOL    HW230600   1.222   2.450   4.323
 9901SOL     OW30601   2.927   2.707   5.912
 9901SOL    HW130602   2.842   2.655   5.919
 9901SOL    HW230603   2.981   2.694   5.994
 9902SOL     OW30604   4.215   3.458   0.194
 9902SOL    HW130605   4.247   3.373   0.152
 9902SOL    HW230606   4.192   3.441   0.290
 9903SOL     OW30607   4.386   2.263   1.966
 9903SOL    HW130608   4.324   2.255   2.044
 9903SOL    HW230609   4.414   2.359   1.956
 9904SOL     OW30610   6.727   1.811   0.989
 9904SOL    HW130611   6.652   1.766   1.037
 9904SOL    HW230612   6.698   1.834   0.896
 9905SOL     OW30613   1.163   0.292   5.955
 9905SOL    HW130614   1.247   0.241   5.974
 9905SOL    HW230615   1.084   0.239   5.985
 9906SOL     OW30616   2.689   3.559   6.584
 9906SOL    HW130617   2.631   3.640   6.576
 9906SOL    HW230618   2.762   3.563   6.516
 9907SOL     OW30619   2.671   6.441   2.535
 9907SOL    HW130620   2.692   6.362   2.478
 9907SOL    HW230621   2.736   6.445   2.612
 9908SOL     OW30622   1.214   4.048   5.979
 9908SOL    HW130623   1.204   3.963   6.031
 9908SOL    HW230624   1.127   4.070   5.936
 9909SOL     OW30625   3.141   1.164   2.632
 9909SOL    HW130626   3.073   1.168   2.705
 9909SOL    HW230627   3.104   1.208   2.550
 9910SOL     OW30628   6.783   3.962   0.269
 9910SOL    HW130629   6.872   4.007   0.274
 9910SOL    HW230630   6.784   3.893   0.197
 9911SOL     OW30631   3.281   5.119   3.338
 9911SOL    HW130632   3.283   5.083   3.431
 9911SOL    HW230633   3.247   5.050   3.275
 9912SOL     OW30634   5.227   0.399   1.386
 9912SOL    HW130635   5.325   0.412   1.402
 9912SOL    HW230636   5.202   0.439   1.298
 9913SOL     OW30637   4.936   2.448   3.081
 9913SOL    HW130638   5.004   2.374   3.074
 9913SOL    HW230639   4.956   2.517   3.012
 9914SOL     OW30640   0.889   0.719   4.797
 9914SOL    HW130641   0.984   0.750   4.808
 9914SOL    HW230642   0.870   0.647   4.863
 9915SOL     OW30643   5.001   3.388   3.637
 9915SOL    HW130644   4.944   3.431   3.707
 9915SOL    HW230645   5.093   3.428   3.640
 9916SOL     OW30646   2.250   2.793   2.809
 9916SOL    HW130647   2.192   2.712   2.798
 9916SOL    HW230648   2.346   2.764   2.814
 9917SOL     OW30649   3.264   3.814   6.084
 9917SOL    HW130650   3.192   3.787   6.019
 9917SOL    HW230651   3.353   3.812   6.037
 9918SOL     OW30652   2.198   1.899   5.725
 9918SOL    HW130653   2.107   1.885   5.687
 9918SOL    HW230654   2.265   1.842   5.677
 9919SOL     OW30655   0.261   5.322   3.193
 9919SOL    HW130656   0.305   5.408   3.218
 9919SOL    HW230657   0.198   5.295   3.266
 9920SOL     OW30658   4.001   6.338   1.538
 9920SOL    HW130659   4.075   6.404   1.541
 9920SOL    HW230660   4.038   6.245   1.538
 9921SOL     OW30661   5.896   0.561   3.014
 9921SOL    HW130662   5.913   0.542   2.917
 9921SOL    HW230663   5.983   0.561   3.063
 9922SOL     OW30664   4.208   4.893   0.660
 9922SOL    HW130665   4.247   4.825   0.723
 9922SOL    HW230666   4.280   4.928   0.600
 9923SOL     OW30667   6.540   2.081   5.843
 9923SOL    HW130668   6.456   2.085   5.790
 9923SOL    HW230669   6.531   2.138   5.925
 9924SOL     OW30670   6.696   0.920   2.695
 9924SOL    HW130671   6.613   0.905   2.749
 9924SOL    HW230672   6.726   0.832   2.656
 9925SOL     OW30673   2.781   2.759   5.375
 9925SOL    HW130674   2.682   2.747   5.365
 9925SOL    HW230675   2.826   2.670   5.366
 9926SOL     OW30676   1.150   1.290   0.436
 9926SOL    HW130677   1.205   1.369   0.464
 9926SOL    HW230678   1.067   1.321   0.390
 9927SOL     OW30679   0.347   1.568   2.160
 9927SOL    HW130680   0.260   1.551   2.113
 9927SOL    HW230681   0.338   1.546   2.257
 9928SOL     OW30682   0.263   4.124   2.086
 9928SOL    HW130683   0.239   4.030   2.112
 9928SOL    HW230684   0.260   4.183   2.167
 9929SOL     OW30685   2.468   4.029   0.284
 9929SOL    HW130686   2.446   3.986   0.196
 9929SOL    HW230687   2.565   4.053   0.285
 9930SOL     OW30688   0.024   6.397   6.254
 9930SOL    HW130689   0.072   6.466   6.200
 9930SOL    HW230690   0.090   6.330   6.289
 9931SOL     OW30691   1.607   6.155   6.096
 9931SOL    HW130692   1.675   6.114   6.034
 9931SOL    HW230693   1.515   6.135   6.062
 9932SOL     OW30694   1.411   1.784   0.187
 9932SOL    HW130695   1.438   1.829   0.272
 9932SOL    HW230696   1.346   1.842   0.138
 9933SOL     OW30697   2.137   1.391   3.586
 9933SOL    HW130698   2.201   1.454   3.629
 9933SOL    HW230699   2.045   1.409   3.618
 9934SOL     OW30700   4.735   1.242   5.728
 9934SOL    HW130701   4.658   1.179   5.716
 9934SOL    HW230702   4.705   1.335   5.712
 9935SOL     OW30703   3.052   2.043   0.837
 9935SOL    HW130704   2.994   2.118   0.867
 9935SOL    HW230705   3.052   1.971   0.906
 9936SOL     OW30706   5.892   5.859   5.681
 9936SOL    HW130707   5.800   5.897   5.688
 9936SOL    HW230708   5.931   5.849   5.772
 9937SOL     OW30709   0.769   6.990   3.064
 9937SOL    HW130710   0.737   7.021   3.153
 9937SOL    HW230711   0.861   6.953   3.072
 9938SOL     OW30712   6.470   1.137   4.153
 9938SOL    HW130713   6.545   1.201   4.170
 9938SOL    HW230714   6.452   1.084   4.236
 9939SOL     OW30715   2.202   4.189   1.289
 9939SOL    HW130716   2.206   4.093   1.261
 9939SOL    HW230717   2.107   4.218   1.297
 9940SOL     OW30718   0.871   0.335   3.097
 9940SOL    HW130719   0.943   0.404   3.087
 9940SOL    HW230720   0.784   0.381   3.116
 9941SOL     OW30721   4.984   5.023   6.166
 9941SOL    HW130722   5.021   4.939   6.206
 9941SOL    HW230723   5.013   5.030   6.070
 9942SOL     OW30724   4.534   4.941   3.837
 9942SOL    HW130725   4.611   4.974   3.891
 9942SOL    HW230726   4.448   4.971   3.879
 9943SOL     OW30727   2.420   4.420   6.787
 9943SOL    HW130728   2.426   4.513   6.753
 9943SOL    HW230729   2.434   4.419   6.886
 9944SOL     OW30730   1.392   4.654   0.467
 9944SOL    HW130731   1.338   4.733   0.438
 9944SOL    HW230732   1.331   4.582   0.500
 9945SOL     OW30733   5.553   3.646   6.422
 9945SOL    HW130734   5.614   3.667   6.499
 9945SOL    HW230735   5.514   3.732   6.387
 9946SOL     OW30736   5.449   1.339   2.591
 9946SOL    HW130737   5.467   1.269   2.521
 9946SOL    HW230738   5.368   1.392   2.564
 9947SOL     OW30739   1.577   1.759   3.732
 9947SOL    HW130740   1.666   1.778   3.691
 9947SOL    HW230741   1.530   1.846   3.750
 9948SOL     OW30742   6.498   0.048   4.245
 9948SOL    HW130743   6.556   0.053   4.327
 9948SOL    HW230744   6.555   0.053   4.163
 9949SOL     OW30745   6.190   4.439   4.384
 9949SOL    HW130746   6.146   4.494   4.313
 9949SOL    HW230747   6.286   4.466   4.392
 9950SOL     OW30748   6.207   4.807   5.682
 9950SOL    HW130749   6.182   4.904   5.683
 9950SOL    HW230750   6.202   4.772   5.589
 9951SOL     OW30751   0.371   2.216   2.318
 9951SOL    HW130752   0.439   2.144   2.306
 9951SOL    HW230753   0.384   2.261   2.406
 9952SOL     OW30754   0.586   4.409   1.781
 9952SOL    HW130755   0.610   4.352   1.702
 9952SOL    HW230756   0.538   4.354   1.849
 9953SOL     OW30757   5.868   2.304   3.366
 9953SOL    HW130758   5.829   2.393   3.390
 9953SOL    HW230759   5.946   2.317   3.305
 9954SOL     OW30760   2.983   1.946   6.069
 9954SOL    HW130761   3.038   2.021   6.106
 9954SOL    HW230762   2.907   1.927   6.131
 9955SOL     OW30763   5.645   3.168   0.439
 9955SOL    HW130764   5.549   3.141   0.435
 9955SOL    HW230765   5.683   3.142   0.527
 9956SOL     OW30766   2.163   3.767   3.489
 9956SOL    HW130767   2.152   3.760   3.588
 9956SOL    HW230768   2.148   3.678   3.447
 9957SOL     OW30769   5.407   6.756   0.934
 9957SOL    HW130770   5.339   6.689   0.962
 9957SOL    HW230771   5.365   6.824   0.873
 9958SOL     OW30772   4.802   4.800   6.962
 9958SOL    HW130773   4.789   4.811   0.037
 9958SOL    HW230774   4.881   4.854   6.933
 9959SOL     OW30775   4.426   4.440   0.641
 9959SOL    HW130776   4.362   4.382   0.693
 9959SOL    HW230777   4.465   4.387   0.566
 9960SOL     OW30778   6.767   6.847   6.623
 9960SOL    HW130779   6.744   6.769   6.564
 9960SOL    HW230780   6.863   6.843   6.648
 9961SOL     OW30781   2.494   5.141   2.001
 9961SOL    HW130782   2.461   5.141   2.095
 9961SOL    HW230783   2.590   5.167   1.999
 9962SOL     OW30784   2.995   6.185   1.888
 9962SOL    HW130785   2.957   6.145   1.972
 9962SOL    HW230786   3.066   6.124   1.852
 9963SOL     OW30787   1.594   1.552   6.246
 9963SOL    HW130788   1.600   1.652   6.240
 9963SOL    HW230789   1.522   1.520   6.185
 9964SOL     OW30790   4.848   3.926   5.439
 9964SOL    HW130791   4.874   4.006   5.386
 9964SOL    HW230792   4.801   3.955   5.522
 9965SOL     OW30793   2.778   5.698   4.602
 9965SOL    HW130794   2.742   5.608   4.628
 9965SOL    HW230795   2.705   5.765   4.607
 9966SOL     OW30796   3.693   4.950   2.373
 9966SOL    HW130797   3.711   4.854   2.395
 9966SOL    HW230798   3.616   4.982   2.429
 9967SOL     OW30799   6.410   6.925   3.326
 9967SOL    HW130800   6.321   6.928   3.280
 9967SOL    HW230801   6.439   6.830   3.335
 9968SOL     OW30802   4.039   6.538   1.146
 9968SOL    HW130803   3.979   6.531   1.225
 9968SOL    HW230804   4.001   6.485   1.070
 9969SOL     OW30805   1.518   5.201   3.552
 9969SOL    HW130806   1.567   5.285   3.529
 9969SOL    HW230807   1.484   5.207   3.646
 9970SOL     OW30808   6.454   4.219   1.497
 9970SOL    HW130809   6.359   4.216   1.466
 9970SOL    HW230810   6.515   4.230   1.419
 9971SOL     OW30811   0.941   4.406   2.198
 9971SOL    HW130812   1.013   4.461   2.155
 9971SOL    HW230813   0.883   4.366   2.127
 9972SOL     OW30814   3.404   3.970   0.173
 9972SOL    HW130815   3.331   3.945   0.237
 9972SOL    HW230816   3.453   3.887   0.145
 9973SOL     OW30817   3.482   1.742   3.471
 9973SOL    HW130818   3.413   1.752   3.399
 9973SOL    HW230819   3.542   1.665   3.449
 9974SOL     OW30820   0.614   2.450   3.428
 9974SOL    HW130821   0.623   2.403   3.515
 9974SOL    HW230822   0.531   2.507   3.429
 9975SOL     OW30823   1.040   4.933   6.696
 9975SOL    HW130824   1.104   4.972   6.629
 9975SOL    HW230825   1.069   4.841   6.721
 9976SOL     OW30826   2.818   4.600   6.640
 9976SOL    HW130827   2.798   4.508   6.674
 9976SOL    HW230828   2.816   4.600   6.540
 9977SOL     OW30829   5.093   6.056   4.821
 9977SOL    HW130830   5.067   6.143   4.779
 9977SOL    HW230831   5.188   6.036   4.798
 9978SOL     OW30832   0.506   2.705   6.195
 9978SOL    HW130833   0.544   2.626   6.242
 9978SOL    HW230834   0.517   2.786   6.253
 9979SOL     OW30835   4.579   3.052   5.283
 9979SOL    HW130836   4.486   3.082   5.305
 9979SOL    HW230837   4.637   3.132   5.270
 9980SOL     OW30838   0.986   0.624   0.118
 9980SOL    HW130839   0.889   0.599   0.116
 9980SOL    HW230840   1.029   0.580   0.197
 9981SOL     OW30841   0.317   2.460   1.747
 9981SOL    HW130842   0.270   2.548   1.759
 9981SOL    HW230843   0.269   2.390   1.799
 9982SOL     OW30844   1.968   2.001   4.991
 9982SOL    HW130845   1.944   1.969   5.082
 9982SOL    HW230846   1.886   2.029   4.942
 9983SOL     OW30847   0.163   3.131   2.127
 9983SOL    HW130848   0.102   3.080   2.066
 9983SOL    HW230849   0.231   3.179   2.072
 9984SOL     OW30850   0.075   5.809   1.260
 9984SOL    HW130851   0.096   5.870   1.183
 9984SOL    HW230852   0.082   5.714   1.230
 9985SOL     OW30853   4.213   5.433   0.814
 9985SOL    HW130854   4.230   5.499   0.887
 9985SOL    HW230855   4.114   5.423   0.800
 9986SOL     OW30856   4.834   4.363   0.080
 9986SOL    HW130857   4.754   4.387   0.026
 9986SOL    HW230858   4.898   4.311   0.024
 9987SOL     OW30859   5.507   3.007   1.546
 9987SOL    HW130860   5.534   2.926   1.598
 9987SOL    HW230861   5.483   2.981   1.453
 9988SOL     OW30862   5.194   6.298   4.574
 9988SOL    HW130863   5.239   6.386   4.586
 9988SOL    HW230864   5.230   6.252   4.493
 9989SOL     OW30865   6.338   5.599   2.420
 9989SOL    HW130866   6.291   5.577   2.335
 9989SOL    HW230867   6.289   5.556   2.497
 9990SOL     OW30868   0.296   0.117   3.506
 9990SOL    HW130869   0.306   0.038   3.445
 9990SOL    HW230870   0.208   0.113   3.553
 9991SOL     OW30871   1.682   4.055   4.390
 9991SOL    HW130872   1.617   4.098   4.328
 9991SOL    HW230873   1.759   4.018   4.338
 9992SOL     OW30874   3.381   4.322   1.189
 9992SOL    HW130875   3.469   4.360   1.215
 9992SOL    HW230876   3.309   4.390   1.204
 9993SOL     OW30877   3.586   6.844   4.312
 9993SOL    HW130878   3.546   6.760   4.277
 9993SOL    HW230879   3.528   6.922   4.286
 9994SOL     OW30880   0.013   4.477   4.152
 9994SOL    HW130881   7.017   4.405   4.218
 9994SOL    HW230882   0.017   4.438   4.060
 9995SOL     OW30883   2.818   0.523   4.966
 9995SOL    HW130884   2.726   0.496   4.939
 9995SOL    HW230885   2.872   0.441   4.988
 9996SOL     OW30886   1.944   4.070   1.215
 9996SOL    HW130887   1.885   4.037   1.289
 9996SOL    HW230888   2.016   4.002   1.197
 9997SOL     OW30889   6.381   2.273   4.394
 9997SOL    HW130890   6.379   2.301   4.299
 9997SOL    HW230891   6.304   2.211   4.413
 9998SOL     OW30892   5.021   3.714   2.677
 9998SOL    HW130893   4.997   3.635   2.734
 9998SOL    HW230894   4.973   3.707   2.590
 9999SOL     OW30895   0.034   6.659   4.164
 9999SOL    HW130896   0.067   6.575   4.206
 9999SOL    HW230897   0.093   6.735   4.191
10000SOL     OW30898   4.844   2.066   1.972
10000SOL    HW130899   4.783   1.995   1.937
10000SOL    HW230900   4.794   2.152   1.980
10001SOL     OW30901   3.224   6.195   2.405
10001SOL    HW130902   3.276   6.110   2.401
10001SOL    HW230903   3.137   6.178   2.452
10002SOL     OW30904   2.474   0.941   1.222
10002SOL    HW130905   2.510   1.021   1.174
10002SOL    HW230906   2.495   0.859   1.169
10003SOL     OW30907   1.984   1.411   3.291
10003SOL    HW130908   1.935   1.448   3.371
10003SOL    HW230909   2.079   1.442   3.294
10004SOL     OW30910   5.508   4.180   4.566
10004SOL    HW130911   5.564   4.263   4.569
10004SOL    HW230912   5.547   4.112   4.627
10005SOL     OW30913   2.593   5.920   3.461
10005SOL    HW130914   2.515   5.958   3.410
10005SOL    HW230915   2.609   5.826   3.432
10006SOL     OW30916   5.242   0.682   5.508
10006SOL    HW130917   5.255   0.781   5.515
10006SOL    HW230918   5.197   0.662   5.421
10007SOL     OW30919   0.997   4.282   4.461
10007SOL    HW130920   0.977   4.372   4.422
10007SOL    HW230921   1.013   4.217   4.386
10008SOL     OW30922   3.821   1.876   4.540
10008SOL    HW130923   3.792   1.819   4.463
10008SOL    HW230924   3.807   1.972   4.518
10009SOL     OW30925   1.674   4.127   1.771
10009SOL    HW130926   1.645   4.034   1.792
10009SOL    HW230927   1.594   4.184   1.751
10010SOL     OW30928   2.515   5.262   6.814
10010SOL    HW130929   2.523   5.163   6.806
10010SOL    HW230930   2.591   5.306   6.765
10011SOL     OW30931   0.462   3.716   0.073
10011SOL    HW130932   0.553   3.740   0.037
10011SOL    HW230933   0.460   3.735   0.171
10012SOL     OW30934   4.863   0.822   2.048
10012SOL    HW130935   4.777   0.802   2.096
10012SOL    HW230936   4.870   0.763   1.968
10013SOL     OW30937   1.297   5.671   5.140
10013SOL    HW130938   1.200   5.690   5.123
10013SOL    HW230939   1.351   5.700   5.060
10014SOL     OW30940   0.381   6.581   3.362
10014SOL    HW130941   0.399   6.567   3.264
10014SOL    HW230942   0.283   6.571   3.379
10015SOL     OW30943   3.528   5.419   6.480
10015SOL    HW130944   3.565   5.444   6.391
10015SOL    HW230945   3.595   5.439   6.551
10016SOL     OW30946   2.205   0.370   3.926
10016SOL    HW130947   2.265   0.448   3.908
10016SOL    HW230948   2.209   0.306   3.849
10017SOL     OW30949   3.204   1.809   3.481
10017SOL    HW130950   3.209   1.909   3.479
10017SOL    HW230951   3.252   1.771   3.403
10018SOL     OW30952   6.635   3.901   5.864
10018SOL    HW130953   6.633   3.843   5.783
10018SOL    HW230954   6.545   3.941   5.880
10019SOL     OW30955   0.506   1.368   2.810
10019SOL    HW130956   0.534   1.403   2.900
10019SOL    HW230957   0.470   1.442   2.754
10020SOL     OW30958   6.721   0.880   2.038
10020SOL    HW130959   6.760   0.878   1.946
10020SOL    HW230960   6.759   0.958   2.089
10021SOL     OW30961   1.245   3.406   1.299
10021SOL    HW130962   1.328   3.368   1.341
10021SOL    HW230963   1.195   3.460   1.367
10022SOL     OW30964   2.585   6.619   0.488
10022SOL    HW130965   2.598   6.527   0.525
10022SOL    HW230966   2.661   6.642   0.428
10023SOL     OW30967   2.612   6.631   6.129
10023SOL    HW130968   2.540   6.587   6.182
10023SOL    HW230969   2.676   6.562   6.096
10024SOL     OW30970   1.524   4.890   3.136
10024SOL    HW130971   1.581   4.966   3.166
10024SOL    HW230972   1.581   4.810   3.118
10025SOL     OW30973   1.651   3.767   1.974
10025SOL    HW130974   1.585   3.829   2.017
10025SOL    HW230975   1.721   3.743   2.041
10026SOL     OW30976   4.812   1.244   2.549
10026SOL    HW130977   4.897   1.280   2.510
10026SOL    HW230978   4.739   1.311   2.536
10027SOL     OW30979   1.533   2.669   5.373
10027SOL    HW130980   1.595   2.600   5.337
10027SOL    HW230981   1.438   2.638   5.360
10028SOL     OW30982   3.055   0.654   1.880
10028SOL    HW130983   3.087   0.603   1.800
10028SOL    HW230984   3.054   0.594   1.960
10029SOL     OW30985   0.042   2.867   4.341
10029SOL    HW130986   0.062   2.950   4.289
10029SOL    HW230987   0.121   2.843   4.397
10030SOL     OW30988   2.452   6.616   5.171
10030SOL    HW130989   2.512   6.695   5.186
10030SOL    HW230990   2.357   6.646   5.170
10031SOL     OW30991   3.573   5.185   4.519
10031SOL    HW130992   3.576   5.270   4.467
10031SOL    HW230993   3.649   5.126   4.489
10032SOL     OW30994   3.240   6.009   5.522
10032SOL    HW130995   3.317   5.972   5.574
10032SOL    HW230996   3.271   6.084   5.465
10033SOL     OW30997   4.923   1.516   3.829
10033SOL    HW130998   4.978   1.562   3.759
10033SOL    HW230999   4.979   1.446   3.874
10034SOL     OW31000   1.924   0.744   3.331
10034SOL    HW131001   1.887   0.757   3.423
10034SOL    HW231002   1.849   0.722   3.268
10035SOL     OW31003   6.254   3.662   0.274
10035SOL    HW131004   6.225   3.567   0.268
10035SOL    HW231005   6.352   3.668   0.258
10036SOL     OW31006   6.868   0.971   6.848
10036SOL    HW131007   6.936   1.006   6.783
10036SOL    HW231008   6.853   0.873   6.830
10037SOL     OW31009   6.457   0.086   6.061
10037SOL    HW131010   6.430   0.078   6.157
10037SOL    HW231011   6.557   0.097   6.056
10038SOL     OW31012   4.494   0.115   0.191
10038SOL    HW131013   4.469   0.210   0.175
10038SOL    HW231014   4.459   0.057   0.117
10039SOL     OW31015   4.886   5.113   4.741
10039SOL    HW131016   4.847   5.026   4.773
10039SOL    HW231017   4.985   5.110   4.752
10040SOL     OW31018   4.243   0.120   0.984
10040SOL    HW131019   4.297   0.192   0.941
10040SOL    HW231020   4.303   0.056   1.032
10041SOL     OW31021   6.984   4.642   5.643
10041SOL    HW131022   6.961   4.587   5.723
10041SOL    HW231023   6.947   4.734   5.654
10042SOL     OW31024   0.762   1.041   5.592
10042SOL    HW131025   0.707   0.978   5.647
10042SOL    HW231026   0.750   1.134   5.626
10043SOL     OW31027   0.840   0.912   2.704
10043SOL    HW131028   0.834   0.993   2.763
10043SOL    HW231029   0.932   0.873   2.710
10044SOL     OW31030   2.400   1.728   4.966
10044SOL    HW131031   2.314   1.772   4.941
10044SOL    HW231032   2.450   1.704   4.882
10045SOL     OW31033   4.804   0.142   4.396
10045SOL    HW131034   4.894   0.185   4.390
10045SOL    HW231035   4.771   0.146   4.490
10046SOL     OW31036   0.010   1.714   2.016
10046SOL    HW131037   0.057   1.639   1.969
10046SOL    HW231038   0.012   1.795   1.957
10047SOL     OW31039   6.190   2.508   5.209
10047SOL    HW131040   6.213   2.538   5.302
10047SOL    HW231041   6.163   2.412   5.212
10048SOL     OW31042   3.124   1.350   1.534
10048SOL    HW131043   3.163   1.410   1.604
10048SOL    HW231044   3.186   1.344   1.456
10049SOL     OW31045   1.602   0.688   6.991
10049SOL    HW131046   1.673   0.732   6.936
10049SOL    HW231047   1.606   0.723   0.061
10050SOL     OW31048   5.682   3.172   5.013
10050SOL    HW131049   5.586   3.150   5.032
10050SOL    HW231050   5.741   3.115   5.070
10051SOL     OW31051   6.423   2.979   4.560
10051SOL    HW131052   6.517   2.958   4.533
10051SOL    HW231053   6.360   2.937   4.495
10052SOL     OW31054   1.986   3.084   1.392
10052SOL    HW131055   2.064   3.135   1.426
10052SOL    HW231056   2.017   3.000   1.349
10053SOL     OW31057   3.715   4.889   3.196
10053SOL    HW131058   3.751   4.867   3.287
10053SOL    HW231059   3.786   4.873   3.128
10054SOL     OW31060   4.519   5.582   6.426
10054SOL    HW131061   4.444   5.642   6.453
10054SOL    HW231062   4.527   5.582   6.326
10055SOL     OW31063   6.233   2.630   4.768
10055SOL    HW131064   6.203   2.661   4.679
10055SOL    HW231065   6.250   2.531   4.766
10056SOL     OW31066   6.234   5.340   0.912
10056SOL    HW131067   6.248   5.278   0.989
10056SOL    HW231068   6.318   5.345   0.857
10057SOL     OW31069   4.068   1.696   4.391
10057SOL    HW131070   3.974   1.683   4.424
10057SOL    HW231071   4.082   1.641   4.308
10058SOL     OW31072   6.715   4.895   4.256
10058SOL    HW131073   6.752   4.812   4.215
10058SOL    HW231074   6.616   4.885   4.268
10059SOL     OW31075   5.663   6.640   0.475
10059SOL    HW131076   5.595   6.641   0.548
10059SOL    HW231077   5.754   6.651   0.514
10060SOL     OW31078   2.608   2.350   1.981
10060SOL    HW131079   2.699   2.321   2.012
10060SOL    HW231080   2.544   2.345   2.058
10061SOL     OW31081   5.548   1.161   3.899
10061SOL    HW131082   5.564   1.229   3.971
10061SOL    HW231083   5.479   1.194   3.836
10062SOL     OW31084   5.994   6.659   4.495
10062SOL    HW131085   5.962   6.615   4.412
10062SOL    HW231086   5.941   6.625   4.573
10063SOL     OW31087   1.564   2.033   3.084
10063SOL    HW131088   1.653   2.062   3.050
10063SOL    HW231089   1.537   1.949   3.037
10064SOL     OW31090   6.147   5.309   5.117
10064SOL    HW131091   6.085   5.270   5.185
10064SOL    HW231092   6.231   5.256   5.113
10065SOL     OW31093   1.438   0.490   1.933
10065SOL    HW131094   1.403   0.459   2.022
10065SOL    HW231095   1.431   0.589   1.927
10066SOL     OW31096   1.162   0.732   3.994
10066SOL    HW131097   1.121   0.769   3.910
10066SOL    HW231098   1.256   0.764   4.001
10067SOL     OW31099   5.939   4.732   4.154
10067SOL    HW131100   5.919   4.786   4.236
10067SOL    HW231101   5.931   4.635   4.176
10068SOL     OW31102   4.995   2.813   4.310
10068SOL    HW131103   4.929   2.883   4.286
10068SOL    HW231104   4.961   2.761   4.389
10069SOL     OW31105   2.037   6.595   3.586
10069SOL    HW131106   2.072   6.514   3.634
10069SOL    HW231107   2.098   6.616   3.509
10070SOL     OW31108   0.533   6.420   4.864
10070SOL    HW131109   0.517   6.481   4.787
10070SOL    HW231110   0.523   6.325   4.835
10071SOL     OW31111   4.646   5.085   4.364
10071SOL    HW131112   4.627   5.123   4.455
10071SOL    HW231113   4.726   5.025   4.369
10072SOL     OW31114   0.404   6.406   3.690
10072SOL    HW131115   0.502   6.409   3.707
10072SOL    HW231116   0.381   6.464   3.612
10073SOL     OW31117   5.985   4.346   4.519
10073SOL    HW131118   6.011   4.272   4.580
10073SOL    HW231119   6.064   4.373   4.464
10074SOL     OW31120   1.037   0.091   5.749
10074SOL    HW131121   0.998   0.110   5.839
10074SOL    HW231122   1.078   7.023   5.749
10075SOL     OW31123   1.276   2.367   2.964
10075SOL    HW131124   1.183   2.405   2.968
10075SOL    HW231125   1.276   2.277   3.008
10076SOL     OW31126   5.466   0.017   4.541
10076SOL    HW131127   5.485   0.109   4.575
10076SOL    HW231128   5.482   0.014   4.443
10077SOL     OW31129   3.728   2.437   6.655
10077SOL    HW131130   3.670   2.446   6.574
10077SOL    HW231131   3.769   2.346   6.657
10078SOL     OW31132   6.092   6.409   4.511
10078SOL    HW131133   6.080   6.505   4.486
10078SOL    HW231134   6.105   6.402   4.610
10079SOL     OW31135   1.809   3.435   2.147
10079SOL    HW131136   1.807   3.337   2.132
10079SOL    HW231137   1.798   3.483   2.060
10080SOL     OW31138   3.140   2.163   6.536
10080SOL    HW131139   3.090   2.246   6.559
10080SOL    HW231140   3.150   2.156   6.436
10081SOL     OW31141   0.353   6.812   6.317
10081SOL    HW131142   0.311   6.760   6.392
10081SOL    HW231143   0.452   6.803   6.322
10082SOL     OW31144   6.837   2.611   2.307
10082SOL    HW131145   6.784   2.570   2.382
10082SOL    HW231146   6.900   2.679   2.344
10083SOL     OW31147   5.007   1.137   3.382
10083SOL    HW131148   4.945   1.079   3.434
10083SOL    HW231149   4.998   1.232   3.414
10084SOL     OW31150   3.174   0.449   5.755
10084SOL    HW131151   3.139   0.526   5.703
10084SOL    HW231152   3.181   0.369   5.696
10085SOL     OW31153   0.645   4.890   3.057
10085SOL    HW131154   0.737   4.928   3.049
10085SOL    HW231155   0.584   4.937   2.993
10086SOL     OW31156   5.865   5.360   2.521
10086SOL    HW131157   5.811   5.280   2.494
10086SOL    HW231158   5.856   5.375   2.619
10087SOL     OW31159   1.073   1.052   4.051
10087SOL    HW131160   1.149   1.049   4.116
10087SOL    HW231161   1.022   0.966   4.055
10088SOL     OW31162   0.005   6.500   5.597
10088SOL    HW131163   0.013   6.407   5.562
10088SOL    HW231164   6.956   6.548   5.549
10089SOL     OW31165   2.593   1.652   3.583
10089SOL    HW131166   2.602   1.638   3.484
10089SOL    HW231167   2.681   1.682   3.620
10090SOL     OW31168   0.763   4.326   1.045
10090SOL    HW131169   0.711   4.244   1.066
10090SOL    HW231170   0.705   4.392   0.997
10091SOL     OW31171   1.144   3.317   4.977
10091SOL    HW131172   1.165   3.411   4.952
10091SOL    HW231173   1.045   3.306   4.989
10092SOL     OW31174   1.396   4.127   5.094
10092SOL    HW131175   1.400   4.035   5.056
10092SOL    HW231176   1.454   4.133   5.176
10093SOL     OW31177   0.736   5.191   5.080
10093SOL    HW131178   0.808   5.174   5.013
10093SOL    HW231179   0.698   5.103   5.110
10094SOL     OW31180   2.594   0.116   2.336
10094SOL    HW131181   2.646   0.199   2.313
10094SOL    HW231182   2.501   0.141   2.360
10095SOL     OW31183   6.184   1.536   4.784
10095SOL    HW131184   6.122   1.488   4.845
10095SOL    HW231185   6.167   1.508   4.689
10096SOL     OW31186   6.911   5.162   2.763
10096SOL    HW131187   6.852   5.228   2.717
10096SOL    HW231188   6.870   5.071   2.757
10097SOL     OW31189   0.925   1.330   0.272
10097SOL    HW131190   0.834   1.338   0.230
10097SOL    HW231191   0.994   1.363   0.207
10098SOL     OW31192   1.891   6.602   6.033
10098SOL    HW131193   1.863   6.681   5.978
10098SOL    HW231194   1.809   6.552   6.061
10099SOL     OW31195   0.414   4.196   6.369
10099SOL    HW131196   0.470   4.153   6.298
10099SOL    HW231197   0.432   4.294   6.372
10100SOL     OW31198   5.241   6.859   5.403
10100SOL    HW131199   5.154   6.903   5.423
10100SOL    HW231200   5.272   6.886   5.312
10101SOL     OW31201   6.098   4.706   1.747
10101SOL    HW131202   6.183   4.654   1.761
10101SOL    HW231203   6.074   4.705   1.650
10102SOL     OW31204   2.385   0.769   3.221
10102SOL    HW131205   2.290   0.788   3.197
10102SOL    HW231206   2.441   0.849   3.197
10103SOL     OW31207   3.180   1.013   4.845
10103SOL    HW131208   3.220   1.092   4.799
10103SOL    HW231209   3.157   0.943   4.776
10104SOL     OW31210   0.652   3.913   5.282
10104SOL    HW131211   0.684   4.008   5.278
10104SOL    HW231212   0.572   3.907   5.342
10105SOL     OW31213   1.262   1.165   6.187
10105SOL    HW131214   1.168   1.164   6.151
10105SOL    HW231215   1.290   1.260   6.203
10106SOL     OW31216   5.504   4.477   1.240
10106SOL    HW131217   5.488   4.464   1.338
10106SOL    HW231218   5.580   4.541   1.227
10107SOL     OW31219   6.627   1.840   6.224
10107SOL    HW131220   6.632   1.939   6.241
10107SOL    HW231221   6.716   1.799   6.243
10108SOL     OW31222   6.477   6.388   6.966
10108SOL    HW131223   6.490   6.450   0.019
10108SOL    HW231224   6.383   6.353   6.968
10109SOL     OW31225   4.144   6.394   2.855
10109SOL    HW131226   4.221   6.433   2.804
10109SOL    HW231227   4.069   6.459   2.858
10110SOL     OW31228   4.042   6.904   5.548
10110SOL    HW131229   3.965   6.875   5.604
10110SOL    HW231230   4.015   6.982   5.491
10111SOL     OW31231   6.714   3.540   3.190
10111SOL    HW131232   6.779   3.607   3.152
10111SOL    HW231233   6.749   3.448   3.174
10112SOL     OW31234   6.119   3.931   4.871
10112SOL    HW131235   6.140   3.834   4.880
10112SOL    HW231236   6.199   3.986   4.897
10113SOL     OW31237   3.945   1.101   6.899
10113SOL    HW131238   3.912   1.195   6.888
10113SOL    HW231239   3.948   1.056   6.810
10114SOL     OW31240   5.641   0.759   1.218
10114SOL    HW131241   5.580   0.836   1.233
10114SOL    HW231242   5.734   0.792   1.206
10115SOL     OW31243   2.928   2.009   3.287
10115SOL    HW131244   2.885   2.005   3.197
10115SOL    HW231245   2.865   1.973   3.356
10116SOL     OW31246   0.652   6.358   0.884
10116SOL    HW131247   0.610   6.287   0.828
10116SOL    HW231248   0.626   6.448   0.850
10117SOL     OW31249   6.391   0.551   4.571
10117SOL    HW131250   6.418   0.603   4.490
10117SOL    HW231251   6.419   0.600   4.654
10118SOL     OW31252   6.941   4.702   2.670
10118SOL    HW131253   0.010   4.736   2.654
10118SOL    HW231254   6.923   4.625   2.609
10119SOL     OW31255   1.717   6.773   4.553
10119SOL    HW131256   1.784   6.811   4.489
10119SOL    HW231257   1.632   6.754   4.505
10120SOL     OW31258   0.713   2.954   4.065
10120SOL    HW131259   0.709   3.021   4.139
10120SOL    HW231260   0.666   2.989   3.984
10121SOL     OW31261   6.689   5.004   5.009
10121SOL    HW131262   6.748   4.969   4.936
10121SOL    HW231263   6.685   4.937   5.083
10122SOL     OW31264   5.701   2.794   0.301
10122SOL    HW131265   5.613   2.786   0.349
10122SOL    HW231266   5.743   2.704   0.293
10123SOL     OW31267   6.510   6.137   0.397
10123SOL    HW131268   6.531   6.134   0.495
10123SOL    HW231269   6.555   6.061   0.351
10124SOL     OW31270   1.956   4.139   6.698
10124SOL    HW131271   1.878   4.083   6.669
10124SOL    HW231272   2.022   4.081   6.745
10125SOL     OW31273   2.259   0.578   2.507
10125SOL    HW131274   2.196   0.576   2.585
10125SOL    HW231275   2.206   0.574   2.422
10126SOL     OW31276   6.559   6.084   6.361
10126SOL    HW131277   6.528   6.045   6.447
10126SOL    HW231278   6.491   6.067   6.290
10127SOL     OW31279   2.499   5.617   6.013
10127SOL    HW131280   2.454   5.559   5.945
10127SOL    HW231281   2.484   5.579   6.104
10128SOL     OW31282   1.032   1.800   1.282
10128SOL    HW131283   1.039   1.897   1.260
10128SOL    HW231284   1.109   1.751   1.241
10129SOL     OW31285   4.729   2.796   4.008
10129SOL    HW131286   4.695   2.753   3.924
10129SOL    HW231287   4.653   2.818   4.068
10130SOL     OW31288   2.411   4.671   2.992
10130SOL    HW131289   2.419   4.738   2.918
10130SOL    HW231290   2.498   4.666   3.041
10131SOL     OW31291   0.831   1.686   3.149
10131SOL    HW131292   0.787   1.766   3.107
10131SOL    HW231293   0.895   1.647   3.084
10132SOL     OW31294   3.151   6.262   2.887
10132SOL    HW131295   3.135   6.297   2.980
10132SOL    HW231296   3.075   6.203   2.860
10133SOL     OW31297   4.188   6.478   2.410
10133SOL    HW131298   4.233   6.433   2.333
10133SOL    HW231299   4.137   6.558   2.377
10134SOL     OW31300   7.020   0.287   3.762
10134SOL    HW131301   0.091   0.312   3.782
10134SOL    HW231302   6.962   0.310   3.840
10135SOL     OW31303   5.325   3.428   2.982
10135SOL    HW131304   5.373   3.457   2.899
10135SOL    HW231305   5.253   3.493   3.004
10136SOL     OW31306   5.314   0.060   2.759
10136SOL    HW131307   5.380   0.112   2.814
10136SOL    HW231308   5.295   6.997   2.804
10137SOL     OW31309   6.729   5.344   3.831
10137SOL    HW131310   6.672   5.378   3.906
10137SOL    HW231311   6.804   5.408   3.814
10138SOL     OW31312   4.554   2.293   1.132
10138SOL    HW131313   4.608   2.377   1.137
10138SOL    HW231314   4.582   2.239   1.053
10139SOL     OW31315   3.982   3.239   2.882
10139SOL    HW131316   3.982   3.165   2.950
10139SOL    HW231317   4.002   3.200   2.792
10140SOL     OW31318   6.286   5.603   5.901
10140SOL    HW131319   6.204   5.574   5.951
10140SOL    HW231320   6.324   5.684   5.946
10141SOL     OW31321   3.486   1.940   4.492
10141SOL    HW131322   3.555   1.868   4.499
10141SOL    HW231323   3.502   2.009   4.562
10142SOL     OW31324   5.615   6.280   5.214
10142SOL    HW131325   5.604   6.380   5.214
10142SOL    HW231326   5.543   6.239   5.159
10143SOL     OW31327   5.057   0.233   1.523
10143SOL    HW131328   5.056   0.152   1.465
10143SOL    HW231329   5.120   0.301   1.485
10144SOL     OW31330   4.680   6.299   6.439
10144SOL    HW131331   4.656   6.378   6.495
10144SOL    HW231332   4.723   6.230   6.496
10145SOL     OW31333   3.906   6.105   6.002
10145SOL    HW131334   3.935   6.125   5.908
10145SOL    HW231335   3.955   6.025   6.035
10146SOL     OW31336   3.624   5.162   5.495
10146SOL    HW131337   3.652   5.186   5.588
10146SOL    HW231338   3.543   5.214   5.471
10147SOL     OW31339   5.349   4.835   4.350
10147SOL    HW131340   5.388   4.766   4.289
10147SOL    HW231341   5.416   4.859   4.420
10148SOL     OW31342   5.989   4.947   6.920
10148SOL    HW131343   5.900   4.906   6.938
10148SOL    HW231344   6.059   4.902   6.976
10149SOL     OW31345   5.183   1.875   0.842
10149SOL    HW131346   5.188   1.882   0.942
10149SOL    HW231347   5.134   1.954   0.806
10150SOL     OW31348   4.184   4.044   0.264
10150SOL    HW131349   4.153   4.137   0.245
10150SOL    HW231350   4.281   4.036   0.238
10151SOL     OW31351   0.620   0.097   6.349
10151SOL    HW131352   0.591   0.027   6.414
10151SOL    HW231353   0.708   0.135   6.378
10152SOL     OW31354   1.785   5.761   4.274
10152SOL    HW131355   1.781   5.758   4.374
10152SOL    HW231356   1.771   5.855   4.243
10153SOL     OW31357   4.798   5.884   4.471
10153SOL    HW131358   4.795   5.818   4.396
10153SOL    HW231359   4.795   5.835   4.558
10154SOL     OW31360   5.908   6.680   5.277
10154SOL    HW131361   5.949   6.770   5.265
10154SOL    HW231362   5.853   6.657   5.197
10155SOL     OW31363   4.037   1.704   5.642
10155SOL    HW131364   3.991   1.736   5.725
10155SOL    HW231365   4.072   1.611   5.657
10156SOL     OW31366   6.380   0.177   1.966
10156SOL    HW131367   6.320   0.223   2.032
10156SOL    HW231368   6.475   0.201   1.984
10157SOL     OW31369   5.893   2.405   6.116
10157SOL    HW131370   5.845   2.338   6.060
10157SOL    HW231371   5.912   2.488   6.063
10158SOL     OW31372   4.745   3.557   0.077
10158SOL    HW131373   4.810   3.493   0.118
10158SOL    HW231374   4.796   3.633   0.036
10159SOL     OW31375   2.782   3.543   6.164
10159SOL    HW131376   2.857   3.571   6.103
10159SOL    HW231377   2.695   3.559   6.118
10160SOL     OW31378   1.416   3.892   2.186
10160SOL    HW131379   1.465   3.813   2.223
10160SOL    HW231380   1.341   3.917   2.248
10161SOL     OW31381   3.487   4.296   0.342
10161SOL    HW131382   3.464   4.385   0.301
10161SOL    HW231383   3.404   4.255   0.379
10162SOL     OW31384   2.516   4.239   0.553
10162SOL    HW131385   2.495   4.169   0.484
10162SOL    HW231386   2.435   4.297   0.568
10163SOL     OW31387   5.479   4.776   6.769
10163SOL    HW131388   5.520   4.773   6.678
10163SOL    HW231389   5.381   4.760   6.762
10164SOL     OW31390   6.068   3.230   5.065
10164SOL    HW131391   6.109   3.255   4.977
10164SOL    HW231392   6.064   3.311   5.123
10165SOL     OW31393   1.336   2.354   3.601
10165SOL    HW131394   1.413   2.367   3.663
10165SOL    HW231395   1.307   2.258   3.604
10166SOL     OW31396   3.603   1.204   2.293
10166SOL    HW131397   3.697   1.180   2.267
10166SOL    HW231398   3.570   1.139   2.362
10167SOL     OW31399   4.318   2.108   6.197
10167SOL    HW131400   4.251   2.125   6.124
10167SOL    HW231401   4.410   2.122   6.161
10168SOL     OW31402   6.716   3.891   5.051
10168SOL    HW131403   6.617   3.890   5.062
10168SOL    HW231404   6.743   3.971   4.997
10169SOL     OW31405   6.562   3.996   3.161
10169SOL    HW131406   6.650   4.030   3.193
10169SOL    HW231407   6.567   3.978   3.062
10170SOL     OW31408   0.814   4.234   6.007
10170SOL    HW131409   0.718   4.259   6.022
10170SOL    HW231410   0.872   4.284   6.071
10171SOL     OW31411   6.353   3.972   5.914
10171SOL    HW131412   6.260   3.938   5.898
10171SOL    HW231413   6.362   4.064   5.877
10172SOL     OW31414   6.406   6.784   3.933
10172SOL    HW131415   6.353   6.811   4.013
10172SOL    HW231416   6.503   6.797   3.952
10173SOL     OW31417   1.487   2.843   0.904
10173SOL    HW131418   1.509   2.866   0.809
10173SOL    HW231419   1.394   2.807   0.909
10174SOL     OW31420   5.727   5.124   2.408
10174SOL    HW131421   5.714   5.154   2.314
10174SOL    HW231422   5.669   5.045   2.427
10175SOL     OW31423   6.822   2.324   3.635
10175SOL    HW131424   6.870   2.299   3.551
10175SOL    HW231425   6.847   2.417   3.662
10176SOL     OW31426   1.736   3.690   5.969
10176SOL    HW131427   1.738   3.648   6.059
10176SOL    HW231428   1.797   3.641   5.907
10177SOL     OW31429   2.039   0.788   0.328
10177SOL    HW131430   1.981   0.803   0.408
10177SOL    HW231431   2.119   0.848   0.334
10178SOL     OW31432   6.736   2.412   5.067
10178SOL    HW131433   6.677   2.336   5.041
10178SOL    HW231434   6.829   2.379   5.081
10179SOL     OW31435   1.488   1.793   5.924
10179SOL    HW131436   1.446   1.703   5.920
10179SOL    HW231437   1.513   1.822   5.831
10180SOL     OW31438   4.101   6.766   0.180
10180SOL    HW131439   4.026   6.719   0.226
10180SOL    HW231440   4.188   6.727   0.211
10181SOL     OW31441   4.934   3.454   2.128
10181SOL    HW131442   4.886   3.415   2.207
10181SOL    HW231443   4.884   3.533   2.094
10182SOL     OW31444   5.465   1.181   2.136
10182SOL    HW131445   5.500   1.122   2.063
10182SOL    HW231446   5.436   1.269   2.097
10183SOL     OW31447   0.687   1.958   6.400
10183SOL    HW131448   0.715   1.866   6.426
10183SOL    HW231449   0.768   2.014   6.382
10184SOL     OW31450   3.996   0.639   6.147
10184SOL    HW131451   3.916   0.690   6.178
10184SOL    HW231452   4.073   0.658   6.209
10185SOL     OW31453   5.704   5.846   1.636
10185SOL    HW131454   5.701   5.882   1.730
10185SOL    HW231455   5.643   5.899   1.578
10186SOL     OW31456   5.870   3.298   2.586
10186SOL    HW131457   5.917   3.335   2.666
10186SOL    HW231458   5.836   3.374   2.529
10187SOL     OW31459   0.864   2.645   1.310
10187SOL    HW131460   0.796   2.681   1.247
10187SOL    HW231461   0.889   2.716   1.376
10188SOL     OW31462   3.924   6.343   0.960
10188SOL    HW131463   3.827   6.325   0.978
10188SOL    HW231464   3.932   6.422   0.900
10189SOL     OW31465   1.820   0.714   5.295
10189SOL    HW131466   1.734   0.762   5.280
10189SOL    HW231467   1.845   0.719   5.392
10190SOL     OW31468   4.567   3.256   1.435
10190SOL    HW131469   4.518   3.341   1.453
10190SOL    HW231470   4.661   3.277   1.408
10191SOL     OW31471   4.813   4.400   6.753
10191SOL    HW131472   4.754   4.473   6.719
10191SOL    HW231473   4.757   4.330   6.798
10192SOL     OW31474   4.538   0.790   5.737
10192SOL    HW131475   4.555   0.875   5.687
10192SOL    HW231476   4.533   0.810   5.835
10193SOL     OW31477   4.173   3.611   1.892
10193SOL    HW131478   4.233   3.532   1.883
10193SOL    HW231479   4.137   3.614   1.986
10194SOL     OW31480   5.997   4.191   5.128
10194SOL    HW131481   5.901   4.203   5.103
10194SOL    HW231482   6.055   4.240   5.062
10195SOL     OW31483   5.945   4.969   1.031
10195SOL    HW131484   5.993   5.036   1.087
10195SOL    HW231485   6.004   4.942   0.954
10196SOL     OW31486   5.000   1.699   4.689
10196SOL    HW131487   5.003   1.797   4.709
10196SOL    HW231488   4.988   1.649   4.775
10197SOL     OW31489   6.926   1.906   4.608
10197SOL    HW131490   6.912   1.960   4.525
10197SOL    HW231491   6.925   1.809   4.585
10198SOL     OW31492   3.437   0.696   1.775
10198SOL    HW131493   3.504   0.703   1.701
10198SOL    HW231494   3.434   0.783   1.825
10199SOL     OW31495   2.458   3.093   6.016
10199SOL    HW131496   2.547   3.134   5.999
10199SOL    HW231497   2.404   3.092   5.932
10200SOL     OW31498   4.734   2.179   0.961
10200SOL    HW131499   4.813   2.119   0.950
10200SOL    HW231500   4.708   2.216   0.871
10201SOL     OW31501   0.846   4.659   0.753
10201SOL    HW131502   0.801   4.597   0.689
10201SOL    HW231503   0.784   4.734   0.777
10202SOL     OW31504   3.570   2.446   6.446
10202SOL    HW131505   3.543   2.508   6.372
10202SOL    HW231506   3.564   2.352   6.413
10203SOL     OW31507   5.711   2.925   3.973
10203SOL    HW131508   5.785   2.858   3.962
10203SOL    HW231509   5.630   2.894   3.924
10204SOL     OW31510   5.524   0.112   6.613
10204SOL    HW131511   5.598   0.061   6.568
10204SOL    HW231512   5.447   0.050   6.629
10205SOL     OW31513   0.927   1.146   0.801
10205SOL    HW131514   1.005   1.107   0.752
10205SOL    HW231515   0.958   1.222   0.857
10206SOL     OW31516   0.476   0.606   5.845
10206SOL    HW131517   0.568   0.591   5.882
10206SOL    HW231518   0.469   0.566   5.754
10207SOL     OW31519   1.189   1.727   6.281
10207SOL    HW131520   1.228   1.816   6.256
10207SOL    HW231521   1.090   1.736   6.294
10208SOL     OW31522   6.060   4.913   3.960
10208SOL    HW131523   6.076   4.959   4.047
10208SOL    HW231524   6.024   4.821   3.976
10209SOL     OW31525   6.794   0.007   6.356
10209SOL    HW131526   6.748   0.009   6.445
10209SOL    HW231527   6.892   0.021   6.369
10210SOL     OW31528   4.897   6.455   1.462
10210SOL    HW131529   4.913   6.540   1.412
10210SOL    HW231530   4.871   6.476   1.556
10211SOL     OW31531   4.025   6.801   4.423
10211SOL    HW131532   4.026   6.845   4.513
10211SOL    HW231533   4.017   6.702   4.434
10212SOL     OW31534   1.061   0.788   5.121
10212SOL    HW131535   1.149   0.805   5.165
10212SOL    HW231536   0.993   0.764   5.190
10213SOL     OW31537   4.241   2.770   1.234
10213SOL    HW131538   4.143   2.759   1.244
10213SOL    HW231539   4.263   2.867   1.221
10214SOL     OW31540   0.950   2.509   1.777
10214SOL    HW131541   0.991   2.556   1.856
10214SOL    HW231542   1.016   2.506   1.702
10215SOL     OW31543   4.020   3.109   3.345
10215SOL    HW131544   3.936   3.145   3.386
10215SOL    HW231545   4.099   3.157   3.382
10216SOL     OW31546   0.140   1.110   1.121
10216SOL    HW131547   0.189   1.116   1.207
10216SOL    HW231548   0.061   1.172   1.124
10217SOL     OW31549   2.498   1.056   3.178
10217SOL    HW131550   2.513   1.082   3.082
10217SOL    HW231551   2.405   1.078   3.204
10218SOL     OW31552   1.067   3.311   1.956
10218SOL    HW131553   1.033   3.309   1.862
10218SOL    HW231554   1.154   3.360   1.960
10219SOL     OW31555   0.401   1.811   2.982
10219SOL    HW131556   0.431   1.770   3.068
10219SOL    HW231557   0.423   1.909   2.983
10220SOL     OW31558   3.815   2.889   1.146
10220SOL    HW131559   3.764   2.975   1.152
10220SOL    HW231560   3.799   2.835   1.229
10221SOL     OW31561   0.714   5.731   3.281
10221SOL    HW131562   0.739   5.828   3.282
10221SOL    HW231563   0.762   5.684   3.355
10222SOL     OW31564   2.837   3.316   5.209
10222SOL    HW131565   2.849   3.222   5.239
10222SOL    HW231566   2.786   3.367   5.279
10223SOL     OW31567   0.365   4.701   1.297
10223SOL    HW131568   0.322   4.791   1.307
10223SOL    HW231569   0.455   4.712   1.253
10224SOL     OW31570   6.210   3.159   3.484
10224SOL    HW131571   6.152   3.103   3.425
10224SOL    HW231572   6.294   3.109   3.505
10225SOL     OW31573   1.826   4.153   6.184
10225SOL    HW131574   1.762   4.228   6.171
10225SOL    HW231575   1.806   4.080   6.118
10226SOL     OW31576   3.983   0.717   6.833
10226SOL    HW131577   3.970   0.660   6.914
10226SOL    HW231578   4.065   0.773   6.845
10227SOL     OW31579   4.951   4.064   0.594
10227SOL    HW131580   4.894   4.141   0.622
10227SOL    HW231581   5.046   4.093   0.590
10228SOL     OW31582   6.751   6.984   0.996
10228SOL    HW131583   6.770   0.057   0.976
10228SOL    HW231584   6.668   6.976   1.051
10229SOL     OW31585   0.973   3.625   5.119
10229SOL    HW131586   0.997   3.563   5.045
10229SOL    HW231587   0.906   3.692   5.086
10230SOL     OW31588   6.612   5.646   2.729
10230SOL    HW131589   6.527   5.608   2.768
10230SOL    HW231590   6.682   5.649   2.800
10231SOL     OW31591   1.589   6.208   4.394
10231SOL    HW131592   1.520   6.245   4.456
10231SOL    HW231593   1.564   6.232   4.299
10232SOL     OW31594   2.608   0.944   3.384
10232SOL    HW131595   2.676   0.878   3.351
10232SOL    HW231596   2.569   0.992   3.306
10233SOL     OW31597   3.746   3.960   5.364
10233SOL    HW131598   3.759   3.861   5.358
10233SOL    HW231599   3.816   4.000   5.423
10234SOL     OW31600   6.095   6.856   1.616
10234SOL    HW131601   6.168   6.872   1.550
10234SOL    HW231602   6.106   6.918   1.694
10235SOL     OW31603   1.338   1.896   2.305
10235SOL    HW131604   1.278   1.835   2.253
10235SOL    HW231605   1.322   1.990   2.277
10236SOL     OW31606   2.325   6.241   0.085
10236SOL    HW131607   2.405   6.301   0.095
10236SOL    HW231608   2.306   6.195   0.171
10237SOL     OW31609   0.353   3.475   6.983
10237SOL    HW131610   0.387   3.533   0.033
10237SOL    HW231611   0.256   3.455   6.998
10238SOL     OW31612   4.199   4.896   0.999
10238SOL    HW131613   4.136   4.818   1.002
10238SOL    HW231614   4.275   4.879   1.062
10239SOL     OW31615   1.195   2.915   4.834
10239SOL    HW131616   1.236   2.846   4.893
10239SOL    HW231617   1.095   2.913   4.844
10240SOL     OW31618   2.693   6.835   1.677
10240SOL    HW131619   2.617   6.775   1.653
10240SOL    HW231620   2.767   6.780   1.717
10241SOL     OW31621   5.081   1.975   2.086
10241SOL    HW131622   5.012   1.973   2.013
10241SOL    HW231623   5.066   2.055   2.144
10242SOL     OW31624   0.330   2.180   0.537
10242SOL    HW131625   0.233   2.204   0.547
10242SOL    HW231626   0.337   2.087   0.500
10243SOL     OW31627   2.429   4.609   1.255
10243SOL    HW131628   2.473   4.675   1.315
10243SOL    HW231629   2.331   4.629   1.250
10244SOL     OW31630   2.220   3.939   1.214
10244SOL    HW131631   2.214   3.868   1.284
10244SOL    HW231632   2.245   3.897   1.126
10245SOL     OW31633   3.522   3.852   1.407
10245SOL    HW131634   3.584   3.781   1.375
10245SOL    HW231635   3.510   3.844   1.506
10246SOL     OW31636   2.970   3.269   4.158
10246SOL    HW131637   2.937   3.363   4.153
10246SOL    HW231638   2.970   3.229   4.066
10247SOL     OW31639   0.763   4.170   5.233
10247SOL    HW131640   0.828   4.198   5.162
10247SOL    HW231641   0.808   4.174   5.322
10248SOL     OW31642   1.223   0.097   3.601
10248SOL    HW131643   1.223   0.196   3.591
10248SOL    HW231644   1.306   0.059   3.560
10249SOL     OW31645   1.784   4.672   0.107
10249SOL    HW131646   1.752   4.688   0.201
10249SOL    HW231647   1.867   4.616   0.109
10250SOL     OW31648   6.503   3.565   0.247
10250SOL    HW131649   6.539   3.626   0.318
10250SOL    HW231650   6.485   3.475   0.287
10251SOL     OW31651   1.941   0.935   4.174
10251SOL    HW131652   1.863   0.884   4.209
10251SOL    HW231653   1.988   0.881   4.104
10252SOL     OW31654   4.472   3.520   5.545
10252SOL    HW131655   4.468   3.515   5.445
10252SOL    HW231656   4.482   3.427   5.582
10253SOL     OW31657   3.997   6.562   0.807
10253SOL    HW131658   3.983   6.652   0.849
10253SOL    HW231659   4.070   6.567   0.740
10254SOL     OW31660   4.588   1.290   5.371
10254SOL    HW131661   4.680   1.323   5.393
10254SOL    HW231662   4.593   1.221   5.299
10255SOL     OW31663   2.252   6.518   1.138
10255SOL    HW131664   2.230   6.572   1.056
10255SOL    HW231665   2.167   6.483   1.179
10256SOL     OW31666   5.053   0.868   1.738
10256SOL    HW131667   5.059   0.772   1.765
10256SOL    HW231668   5.130   0.919   1.777
10257SOL     OW31669   2.672   4.609   3.745
10257SOL    HW131670   2.718   4.645   3.664
10257SOL    HW231671   2.616   4.530   3.719
10258SOL     OW31672   3.570   1.923   3.184
10258SOL    HW131673   3.504   1.858   3.221
10258SOL    HW231674   3.654   1.875   3.160
10259SOL     OW31675   1.117   4.161   3.890
10259SOL    HW131676   1.144   4.218   3.967
10259SOL    HW231677   1.017   4.153   3.888
10260SOL     OW31678   1.175   1.659   3.599
10260SOL    HW131679   1.186   1.605   3.683
10260SOL    HW231680   1.153   1.598   3.523
10261SOL     OW31681   0.347   4.235   0.559
10261SOL    HW131682   0.299   4.306   0.507
10261SOL    HW231683   0.385   4.275   0.643
10262SOL     OW31684   3.623   0.163   6.512
10262SOL    HW131685   3.717   0.193   6.494
10262SOL    HW231686   3.606   0.077   6.463
10263SOL     OW31687   5.656   0.848   0.211
10263SOL    HW131688   5.572   0.891   0.246
10263SOL    HW231689   5.679   0.890   0.123
10264SOL     OW31690   5.946   4.796   6.699
10264SOL    HW131691   5.870   4.832   6.645
10264SOL    HW231692   5.974   4.865   6.766
10265SOL     OW31693   2.545   2.411   0.394
10265SOL    HW131694   2.599   2.474   0.339
10265SOL    HW231695   2.452   2.405   0.357
10266SOL     OW31696   3.331   2.914   2.846
10266SOL    HW131697   3.376   2.851   2.910
10266SOL    HW231698   3.278   2.981   2.898
10267SOL     OW31699   5.267   1.015   0.876
10267SOL    HW131700   5.350   1.040   0.927
10267SOL    HW231701   5.267   1.063   0.788
10268SOL     OW31702   5.695   6.543   1.974
10268SOL    HW131703   5.714   6.637   1.946
10268SOL    HW231704   5.706   6.482   1.894
10269SOL     OW31705   1.245   2.869   6.714
10269SOL    HW131706   1.200   2.849   6.802
10269SOL    HW231707   1.341   2.888   6.730
10270SOL     OW31708   3.553   6.094   2.469
10270SOL    HW131709   3.631   6.032   2.474
10270SOL    HW231710   3.532   6.114   2.373
10271SOL     OW31711   3.088   2.704   0.349
10271SOL    HW131712   3.093   2.636   0.423
10271SOL    HW231713   3.028   2.669   0.277
10272SOL     OW31714   0.369   1.214   3.869
10272SOL    HW131715   0.439   1.253   3.928
10272SOL    HW231716   0.282   1.261   3.885
10273SOL     OW31717   2.948   4.977   4.409
10273SOL    HW131718   2.940   4.931   4.321
10273SOL    HW231719   2.981   5.070   4.394
10274SOL     OW31720   0.962   5.226   5.853
10274SOL    HW131721   1.039   5.284   5.878
10274SOL    HW231722   0.993   5.152   5.794
10275SOL     OW31723   7.022   0.424   2.370
10275SOL    HW131724   6.936   0.406   2.323
10275SOL    HW231725   0.050   0.339   2.379
10276SOL     OW31726   4.618   5.787   5.744
10276SOL    HW131727   4.530   5.752   5.713
10276SOL    HW231728   4.679   5.710   5.766
10277SOL     OW31729   0.977   0.084   4.067
10277SOL    HW131730   1.062   0.122   4.031
10277SOL    HW231731   0.963   7.016   4.030
10278SOL     OW31732   0.218   0.644   4.429
10278SOL    HW131733   0.223   0.737   4.466
10278SOL    HW231734   0.122   0.617   4.419
10279SOL     OW31735   2.765   5.670   3.707
10279SOL    HW131736   2.754   5.575   3.678
10279SOL    HW231737   2.678   5.718   3.698
10280SOL     OW31738   5.298   3.312   6.876
10280SOL    HW131739   5.319   3.406   6.900
10280SOL    HW231740   5.305   3.300   6.777
10281SOL     OW31741   0.247   2.524   3.038
10281SOL    HW131742   0.226   2.607   3.089
10281SOL    HW231743   0.339   2.530   3.000
10282SOL     OW31744   5.005   3.160   3.265
10282SOL    HW131745   4.928   3.110   3.303
10282SOL    HW231746   5.080   3.161   3.331
10283SOL     OW31747   0.872   2.935   0.506
10283SOL    HW131748   0.800   2.912   0.572
10283SOL    HW231749   0.958   2.893   0.535
10284SOL     OW31750   6.481   2.172   4.088
10284SOL    HW131751   6.431   2.089   4.066
10284SOL    HW231752   6.561   2.181   4.029
10285SOL     OW31753   3.917   6.743   3.221
10285SOL    HW131754   3.987   6.721   3.289
10285SOL    HW231755   3.890   6.659   3.173
10286SOL     OW31756   3.523   0.309   4.207
10286SOL    HW131757   3.510   0.222   4.159
10286SOL    HW231758   3.609   0.351   4.176
10287SOL     OW31759   1.861   5.957   1.978
10287SOL    HW131760   1.773   5.942   2.022
10287SOL    HW231761   1.927   5.891   2.012
10288SOL     OW31762   3.688   6.932   4.603
10288SOL    HW131763   3.720   7.024   4.625
10288SOL    HW231764   3.637   6.934   4.517
10289SOL     OW31765   3.322   6.303   1.045
10289SOL    HW131766   3.302   6.321   1.141
10289SOL    HW231767   3.251   6.243   1.007
10290SOL     OW31768   2.894   3.293   2.446
10290SOL    HW131769   2.842   3.217   2.406
10290SOL    HW231770   2.977   3.256   2.490
10291SOL     OW31771   3.616   1.519   3.430
10291SOL    HW131772   3.694   1.488   3.376
10291SOL    HW231773   3.598   1.454   3.504
10292SOL     OW31774   0.726   1.339   6.017
10292SOL    HW131775   0.687   1.415   6.069
10292SOL    HW231776   0.761   1.373   5.930
10293SOL     OW31777   0.724   3.130   3.660
10293SOL    HW131778   0.771   3.042   3.653
10293SOL    HW231779   0.733   3.180   3.575
10294SOL     OW31780   4.014   1.795   3.067
10294SOL    HW131781   4.007   1.783   2.968
10294SOL    HW231782   4.106   1.768   3.097
10295SOL     OW31783   1.324   2.403   6.123
10295SOL    HW131784   1.384   2.349   6.183
10295SOL    HW231785   1.375   2.480   6.085
10296SOL     OW31786   5.921   0.932   5.730
10296SOL    HW131787   5.851   1.004   5.733
10296SOL    HW231788   5.941   0.901   5.823
10297SOL     OW31789   2.113   1.464   6.734
10297SOL    HW131790   2.055   1.546   6.736
10297SOL    HW231791   2.202   1.488   6.695
10298SOL     OW31792   1.479   4.703   2.054
10298SOL    HW131793   1.439   4.619   2.019
10298SOL    HW231794   1.563   4.682   2.105
10299SOL     OW31795   4.047   6.696   2.335
10299SOL    HW131796   3.995   6.744   2.405
10299SOL    HW231797   3.987   6.633   2.286
10300SOL     OW31798   1.064   4.243   1.785
10300SOL    HW131799   1.061   4.327   1.730
10300SOL    HW231800   0.980   4.191   1.771
10301SOL     OW31801   4.485   1.565   5.399
10301SOL    HW131802   4.571   1.615   5.411
10301SOL    HW231803   4.504   1.471   5.371
10302SOL     OW31804   2.454   6.196   3.625
10302SOL    HW131805   2.403   6.183   3.539
10302SOL    HW231806   2.511   6.117   3.642
10303SOL     OW31807   1.324   5.663   4.007
10303SOL    HW131808   1.287   5.708   4.088
10303SOL    HW231809   1.253   5.655   3.938
10304SOL     OW31810   6.126   0.455   0.961
10304SOL    HW131811   6.051   0.458   1.027
10304SOL    HW231812   6.200   0.515   0.993
10305SOL     OW31813   2.773   4.255   6.119
10305SOL    HW131814   2.770   4.355   6.106
10305SOL    HW231815   2.842   4.216   6.058
10306SOL     OW31816   5.417   5.942   0.372
10306SOL    HW131817   5.401   5.962   0.276
10306SOL    HW231818   5.491   5.999   0.407
10307SOL     OW31819   3.368   1.550   4.661
10307SOL    HW131820   3.307   1.593   4.728
10307SOL    HW231821   3.350   1.588   4.570
10308SOL     OW31822   2.340   4.317   2.244
10308SOL    HW131823   2.299   4.281   2.328
10308SOL    HW231824   2.331   4.249   2.171
10309SOL     OW31825   6.493   1.317   5.943
10309SOL    HW131826   6.566   1.269   5.894
10309SOL    HW231827   6.509   1.312   6.041
10310SOL     OW31828   3.401   3.501   0.039
10310SOL    HW131829   3.421   3.598   0.053
10310SOL    HW231830   3.425   3.450   0.122
10311SOL     OW31831   6.726   5.697   0.141
10311SOL    HW131832   6.656   5.646   0.190
10311SOL    HW231833   6.689   5.729   0.053
10312SOL     OW31834   4.282   0.328   2.754
10312SOL    HW131835   4.229   0.408   2.781
10312SOL    HW231836   4.321   0.344   2.663
10313SOL     OW31837   3.779   5.925   2.461
10313SOL    HW131838   3.760   5.827   2.464
10313SOL    HW231839   3.852   5.947   2.525
10314SOL     OW31840   6.873   0.358   0.290
10314SOL    HW131841   6.859   0.283   0.355
10314SOL    HW231842   6.798   0.424   0.299
10315SOL     OW31843   5.341   6.388   4.143
10315SOL    HW131844   5.434   6.400   4.108
10315SOL    HW231845   5.338   6.307   4.201
10316SOL     OW31846   6.607   2.545   6.030
10316SOL    HW131847   6.549   2.565   5.950
10316SOL    HW231848   6.604   2.447   6.049
10317SOL     OW31849   4.140   6.402   6.341
10317SOL    HW131850   4.072   6.334   6.311
10317SOL    HW231851   4.179   6.447   6.261
10318SOL     OW31852   4.843   1.095   6.230
10318SOL    HW131853   4.884   1.026   6.171
10318SOL    HW231854   4.746   1.106   6.206
10319SOL     OW31855   0.887   4.501   5.273
10319SOL    HW131856   0.858   4.488   5.368
10319SOL    HW231857   0.971   4.450   5.257
10320SOL     OW31858   0.327   6.265   3.105
10320SOL    HW131859   0.359   6.180   3.147
10320SOL    HW231860   0.309   6.250   3.008
10321SOL     OW31861   5.999   1.800   2.149
10321SOL    HW131862   5.982   1.860   2.227
10321SOL    HW231863   5.956   1.712   2.165
10322SOL     OW31864   4.147   5.086   5.279
10322SOL    HW131865   4.088   5.083   5.360
10322SOL    HW231866   4.179   5.180   5.264
10323SOL     OW31867   6.441   4.719   5.003
10323SOL    HW131868   6.445   4.726   5.102
10323SOL    HW231869   6.527   4.680   4.969
10324SOL     OW31870   3.377   3.246   3.239
10324SOL    HW131871   3.467   3.219   3.274
10324SOL    HW231872   3.387   3.290   3.150
10325SOL     OW31873   0.356   4.937   2.510
10325SOL    HW131874   0.423   5.004   2.543
10325SOL    HW231875   0.392   4.891   2.429
10326SOL     OW31876   6.009   3.893   6.729
10326SOL    HW131877   5.946   3.846   6.790
10326SOL    HW231878   5.979   3.988   6.718
10327SOL     OW31879   2.426   3.025   1.693
10327SOL    HW131880   2.378   3.111   1.711
10327SOL    HW231881   2.384   2.979   1.614
10328SOL     OW31882   6.078   2.381   1.356
10328SOL    HW131883   6.123   2.421   1.277
10328SOL    HW231884   6.014   2.448   1.395
10329SOL     OW31885   2.467   1.241   2.880
10329SOL    HW131886   2.400   1.169   2.896
10329SOL    HW231887   2.473   1.300   2.961
10330SOL     OW31888   4.153   0.570   1.762
10330SOL    HW131889   4.174   0.603   1.669
10330SOL    HW231890   4.238   0.562   1.814
10331SOL     OW31891   6.126   6.105   6.451
10331SOL    HW131892   6.092   6.149   6.368
10331SOL    HW231893   6.061   6.034   6.479
10332SOL     OW31894   6.937   0.109   6.688
10332SOL    HW131895   6.920   0.033   6.626
10332SOL    HW231896   0.011   0.124   6.696
10333SOL     OW31897   0.553   5.729   5.011
10333SOL    HW131898   0.460   5.696   5.027
10333SOL    HW231899   0.607   5.658   4.967
10334SOL     OW31900   3.102   0.400   4.367
10334SOL    HW131901   3.182   0.453   4.339
10334SOL    HW231902   3.019   0.444   4.333
10335SOL     OW31903   1.148   3.967   6.777
10335SOL    HW131904   1.140   3.955   6.876
10335SOL    HW231905   1.228   3.918   6.744
10336SOL     OW31906   6.361   0.136   2.449
10336SOL    HW131907   6.395   0.043   2.441
10336SOL    HW231908   6.439   0.200   2.450
10337SOL     OW31909   0.572   5.967   6.698
10337SOL    HW131910   0.512   5.933   6.626
10337SOL    HW231911   0.655   5.910   6.702
10338SOL     OW31912   1.625   6.317   2.135
10338SOL    HW131913   1.688   6.330   2.059
10338SOL    HW231914   1.585   6.406   2.160
10339SOL     OW31915   6.104   3.504   5.898
10339SOL    HW131916   6.078   3.458   5.813
10339SOL    HW231917   6.036   3.574   5.920
10340SOL     OW31918   1.986   3.098   6.971
10340SOL    HW131919   1.900   3.089   7.021
10340SOL    HW231920   1.997   3.192   6.941
10341SOL     OW31921   2.090   3.546   2.201
10341SOL    HW131922   2.065   3.479   2.272
10341SOL    HW231923   2.141   3.500   2.129
10342SOL     OW31924   1.803   0.411   3.789
10342SOL    HW131925   1.898   0.432   3.764
10342SOL    HW231926   1.800   0.325   3.840
10343SOL     OW31927   2.551   5.443   0.113
10343SOL    HW131928   2.514   5.479   0.028
10343SOL    HW231929   2.606   5.361   0.094
10344SOL     OW31930   3.838   4.000   0.064
10344SOL    HW131931   3.779   4.064   0.112
10344SOL    HW231932   3.926   3.993   0.112
10345SOL     OW31933   1.822   3.035   5.680
10345SOL    HW131934   1.832   3.106   5.750
10345SOL    HW231935   1.831   2.945   5.721
10346SOL     OW31936   0.321   5.555   1.279
10346SOL    HW131937   0.418   5.553   1.255
10346SOL    HW231938   0.268   5.579   1.198
10347SOL     OW31939   5.086   0.997   3.177
10347SOL    HW131940   5.119   0.909   3.212
10347SOL    HW231941   5.034   1.044   3.248
10348SOL     OW31942   6.468   2.568   0.233
10348SOL    HW131943   6.408   2.554   0.154
10348SOL    HW231944   6.558   2.597   0.202
10349SOL     OW31945   0.936   0.625   6.822
10349SOL    HW131946   1.007   0.556   6.840
10349SOL    HW231947   0.969   0.715   6.850
10350SOL     OW31948   2.803   5.293   5.034
10350SOL    HW131949   2.804   5.195   5.015
10350SOL    HW231950   2.710   5.321   5.057
10351SOL     OW31951   4.797   5.278   0.003
10351SOL    HW131952   4.839   5.195   6.989
10351SOL    HW231953   4.698   5.275   7.011
10352SOL     OW31954   2.981   0.688   6.378
10352SOL    HW131955   3.024   0.670   6.290
10352SOL    HW231956   2.920   0.612   6.402
10353SOL     OW31957   6.685   2.914   4.536
10353SOL    HW131958   6.746   2.969   4.593
10353SOL    HW231959   6.739   2.858   4.474
10354SOL     OW31960   5.671   1.443   1.412
10354SOL    HW131961   5.661   1.537   1.444
10354SOL    HW231962   5.710   1.443   1.320
10355SOL     OW31963   2.605   6.405   1.679
10355SOL    HW131964   2.582   6.497   1.646
10355SOL    HW231965   2.559   6.337   1.622
10356SOL     OW31966   0.208   4.539   6.238
10356SOL    HW131967   0.156   4.473   6.184
10356SOL    HW231968   0.146   4.601   6.286
10357SOL     OW31969   2.089   2.782   6.531
10357SOL    HW131970   1.998   2.796   6.492
10357SOL    HW231971   2.133   2.870   6.546
10358SOL     OW31972   0.330   2.362   2.779
10358SOL    HW131973   0.378   2.447   2.802
10358SOL    HW231974   0.238   2.365   2.817
10359SOL     OW31975   0.679   1.371   0.848
10359SOL    HW131976   0.762   1.425   0.837
10359SOL    HW231977   0.647   1.376   0.943
10360SOL     OW31978   4.505   4.978   3.151
10360SOL    HW131979   4.499   4.878   3.152
10360SOL    HW231980   4.427   5.016   3.102
10361SOL     OW31981   2.638   6.652   2.395
10361SOL    HW131982   2.656   6.567   2.446
10361SOL    HW231983   2.615   6.724   2.460
10362SOL     OW31984   1.767   4.800   4.648
10362SOL    HW131985   1.766   4.705   4.614
10362SOL    HW231986   1.862   4.828   4.665
10363SOL     OW31987   4.592   0.764   3.287
10363SOL    HW131988   4.581   0.814   3.200
10363SOL    HW231989   4.522   0.795   3.352
10364SOL     OW31990   2.984   3.687   1.583
10364SOL    HW131991   3.004   3.729   1.672
10364SOL    HW231992   2.933   3.752   1.527
10365SOL     OW31993   3.844   5.919   0.583
10365SOL    HW131994   3.825   6.016   0.600
10365SOL    HW231995   3.866   5.906   0.486
10366SOL     OW31996   2.708   0.288   4.098
10366SOL    HW131997   2.614   0.255   4.109
10366SOL    HW231998   2.735   0.340   4.180
10367SOL     OW31999   5.752   2.021   2.496
10367SOL    HW132000   5.682   2.062   2.437
10367SOL    HW232001   5.708   1.958   2.560
10368SOL     OW32002   2.750   0.745   1.383
10368SOL    HW132003   2.781   0.827   1.430
10368SOL    HW232004   2.767   0.754   1.285
10369SOL     OW32005   4.091   0.957   0.620
10369SOL    HW132006   4.131   0.870   0.649
10369SOL    HW232007   4.159   1.009   0.567
10370SOL     OW32008   4.438   0.834   5.100
10370SOL    HW132009   4.531   0.871   5.096
10370SOL    HW232010   4.429   0.760   5.034
10371SOL     OW32011   3.213   5.748   5.805
10371SOL    HW132012   3.248   5.693   5.880
10371SOL    HW232013   3.120   5.780   5.827
10372SOL     OW32014   2.562   0.927   5.080
10372SOL    HW132015   2.624   0.883   5.015
10372SOL    HW232016   2.541   1.020   5.050
10373SOL     OW32017   1.476   6.535   4.732
10373SOL    HW132018   1.408   6.504   4.665
10373SOL    HW232019   1.543   6.463   4.747
10374SOL     OW32020   2.907   1.492   3.494
10374SOL    HW132021   2.911   1.588   3.523
10374SOL    HW232022   2.998   1.453   3.498
10375SOL     OW32023   5.087   2.276   0.361
10375SOL    HW132024   5.172   2.234   0.393
10375SOL    HW232025   5.023   2.204   0.331
10376SOL     OW32026   0.893   0.825   4.031
10376SOL    HW132027   0.840   0.785   4.106
10376SOL    HW232028   0.969   0.765   4.009
10377SOL     OW32029   0.383   0.483   3.604
10377SOL    HW132030   0.325   0.454   3.680
10377SOL    HW232031   0.379   0.583   3.595
10378SOL     OW32032   0.046   0.982   5.963
10378SOL    HW132033   0.011   1.069   5.996
10378SOL    HW232034   6.999   0.934   5.911
10379SOL     OW32035   5.393   0.296   5.381
10379SOL    HW132036   5.447   0.221   5.344
10379SOL    HW232037   5.301   0.292   5.342
10380SOL     OW32038   5.709   0.621   2.585
10380SOL    HW132039   5.699   0.714   2.620
10380SOL    HW232040   5.805   0.605   2.560
10381SOL     OW32041   4.711   5.312   6.156
10381SOL    HW132042   4.639   5.372   6.192
10381SOL    HW232043   4.775   5.291   6.230
10382SOL     OW32044   2.522   5.490   6.243
10382SOL    HW132045   2.614   5.458   6.266
10382SOL    HW232046   2.458   5.413   6.247
10383SOL     OW32047   1.703   3.552   0.481
10383SOL    HW132048   1.725   3.456   0.465
10383SOL    HW232049   1.708   3.602   0.394
10384SOL     OW32050   6.836   0.242   0.960
10384SOL    HW132051   6.872   0.212   1.048
10384SOL    HW232052   6.911   0.249   0.894
10385SOL     OW32053   5.949   0.226   6.161
10385SOL    HW132054   6.026   0.192   6.106
10385SOL    HW232055   5.931   0.162   6.236
10386SOL     OW32056   6.343   3.463   4.876
10386SOL    HW132057   6.380   3.440   4.966
10386SOL    HW232058   6.296   3.384   4.838
10387SOL     OW32059   2.643   2.357   3.170
10387SOL    HW132060   2.739   2.332   3.185
10387SOL    HW232061   2.609   2.309   3.089
10388SOL     OW32062   0.864   5.186   3.204
10388SOL    HW132063   0.950   5.192   3.254
10388SOL    HW232064   0.817   5.274   3.208
10389SOL     OW32065   0.693   4.772   3.334
10389SOL    HW132066   0.677   4.823   3.250
10389SOL    HW232067   0.786   4.734   3.333
10390SOL     OW32068   1.810   3.839   2.860
10390SOL    HW132069   1.864   3.894   2.796
10390SOL    HW232070   1.867   3.809   2.936
10391SOL     OW32071   1.602   6.020   6.346
10391SOL    HW132072   1.660   6.100   6.359
10391SOL    HW232073   1.598   5.997   6.249
10392SOL     OW32074   5.708   4.834   0.184
10392SOL    HW132075   5.670   4.788   0.104
10392SOL    HW232076   5.782   4.778   0.222
10393SOL     OW32077   0.990   1.306   3.803
10393SOL    HW132078   0.899   1.292   3.763
10393SOL    HW232079   1.045   1.224   3.791
10394SOL     OW32080   2.163   6.516   6.826
10394SOL    HW132081   2.135   6.565   6.909
10394SOL    HW232082   2.134   6.421   6.831
10395SOL     OW32083   0.103   0.787   3.972
10395SOL    HW132084   0.180   0.839   3.936
10395SOL    HW232085   0.023   0.801   3.914
10396SOL     OW32086   0.810   0.233   3.783
10396SOL    HW132087   0.876   0.162   3.758
10396SOL    HW232088   0.828   0.316   3.730
10397SOL     OW32089   4.001   0.963   3.146
10397SOL    HW132090   4.026   0.958   3.050
10397SOL    HW232091   3.987   1.059   3.172
10398SOL     OW32092   6.448   2.898   1.353
10398SOL    HW132093   6.408   2.958   1.283
10398SOL    HW232094   6.493   2.954   1.423
10399SOL     OW32095   4.443   2.255   5.698
10399SOL    HW132096   4.411   2.163   5.675
10399SOL    HW232097   4.474   2.301   5.615
10400SOL     OW32098   2.508   5.717   2.715
10400SOL    HW132099   2.454   5.799   2.733
10400SOL    HW232100   2.447   5.638   2.710
10401SOL     OW32101   6.743   5.707   2.347
10401SOL    HW132102   6.697   5.747   2.426
10401SOL    HW232103   6.785   5.780   2.293
10402SOL     OW32104   0.949   3.486   5.365
10402SOL    HW132105   1.001   3.529   5.438
10402SOL    HW232106   0.951   3.545   5.284
10403SOL     OW32107   5.347   1.439   2.098
10403SOL    HW132108   5.335   1.457   2.000
10403SOL    HW232109   5.269   1.474   2.148
10404SOL     OW32110   0.410   6.685   4.049
10404SOL    HW132111   0.321   6.669   4.007
10404SOL    HW232112   0.451   6.767   4.009
10405SOL     OW32113   1.947   6.275   5.660
10405SOL    HW132114   1.976   6.182   5.683
10405SOL    HW232115   2.009   6.341   5.702
10406SOL     OW32116   2.781   4.590   6.361
10406SOL    HW132117   2.860   4.603   6.301
10406SOL    HW232118   2.709   4.543   6.311
10407SOL     OW32119   1.266   1.962   6.138
10407SOL    HW132120   1.251   1.934   6.043
10407SOL    HW232121   1.362   1.986   6.151
10408SOL     OW32122   4.668   4.282   3.352
10408SOL    HW132123   4.628   4.244   3.269
10408SOL    HW232124   4.724   4.362   3.330
10409SOL     OW32125   0.431   3.812   2.028
10409SOL    HW132126   0.472   3.755   2.100
10409SOL    HW232127   0.503   3.845   1.967
10410SOL     OW32128   4.645   0.842   1.215
10410SOL    HW132129   4.648   0.874   1.310
10410SOL    HW232130   4.554   0.860   1.177
10411SOL     OW32131   2.365   4.817   3.286
10411SOL    HW132132   2.339   4.757   3.210
10411SOL    HW232133   2.376   4.910   3.252
10412SOL     OW32134   1.594   2.372   0.186
10412SOL    HW132135   1.685   2.385   0.227
10412SOL    HW232136   1.596   2.295   0.123
10413SOL     OW32137   0.359   2.102   6.491
10413SOL    HW132138   0.274   2.074   6.535
10413SOL    HW232139   0.433   2.103   6.559
10414SOL     OW32140   5.406   6.642   6.798
10414SOL    HW132141   5.458   6.644   6.884
10414SOL    HW232142   5.470   6.628   6.722
10415SOL     OW32143   0.307   6.102   3.428
10415SOL    HW132144   0.363   6.108   3.511
10415SOL    HW232145   0.258   6.014   3.427
10416SOL     OW32146   5.790   2.270   4.852
10416SOL    HW132147   5.742   2.210   4.916
10416SOL    HW232148   5.889   2.257   4.862
10417SOL     OW32149   3.991   4.924   3.066
10417SOL    HW132150   3.987   5.024   3.062
10417SOL    HW232151   4.018   4.896   3.158
10418SOL     OW32152   6.782   4.308   6.355
10418SOL    HW132153   6.787   4.270   6.263
10418SOL    HW232154   6.695   4.282   6.397
10419SOL     OW32155   2.774   0.980   5.281
10419SOL    HW132156   2.681   1.009   5.260
10419SOL    HW232157   2.827   0.974   5.196
10420SOL     OW32158   6.831   3.310   3.171
10420SOL    HW132159   6.802   3.241   3.237
10420SOL    HW232160   6.921   3.345   3.196
10421SOL     OW32161   1.056   4.614   3.802
10421SOL    HW132162   1.112   4.695   3.786
10421SOL    HW232163   1.103   4.552   3.865
10422SOL     OW32164   6.845   3.546   4.389
10422SOL    HW132165   6.927   3.511   4.343
10422SOL    HW232166   6.777   3.473   4.397
10423SOL     OW32167   3.823   4.863   3.936
10423SOL    HW132168   3.758   4.936   3.914
10423SOL    HW232169   3.858   4.824   3.850
10424SOL     OW32170   3.756   1.115   6.538
10424SOL    HW132171   3.822   1.189   6.523
10424SOL    HW232172   3.805   1.028   6.541
10425SOL     OW32173   2.504   0.813   0.706
10425SOL    HW132174   2.522   0.911   0.698
10425SOL    HW232175   2.590   0.763   0.698
10426SOL     OW32176   5.691   2.686   5.942
10426SOL    HW132177   5.665   2.771   5.989
10426SOL    HW232178   5.786   2.664   5.964
10427SOL     OW32179   5.938   6.638   4.799
10427SOL    HW132180   5.879   6.607   4.874
10427SOL    HW232181   5.912   6.730   4.772
10428SOL     OW32182   1.916   0.995   3.563
10428SOL    HW132183   1.931   0.896   3.572
10428SOL    HW232184   1.940   1.024   3.471
10429SOL     OW32185   0.876   3.567   2.695
10429SOL    HW132186   0.974   3.582   2.703
10429SOL    HW232187   0.845   3.598   2.605
10430SOL     OW32188   3.529   0.444   3.695
10430SOL    HW132189   3.620   0.480   3.679
10430SOL    HW232190   3.483   0.427   3.608
10431SOL     OW32191   3.169   1.889   3.820
10431SOL    HW132192   3.260   1.863   3.787
10431SOL    HW232193   3.121   1.807   3.850
10432SOL     OW32194   6.894   6.766   6.173
10432SOL    HW132195   6.798   6.791   6.174
10432SOL    HW232196   6.946   6.836   6.124
10433SOL     OW32197   1.564   7.000   2.026
10433SOL    HW132198   1.611   0.045   1.971
10433SOL    HW232199   1.531   0.017   2.111
10434SOL     OW32200   4.555   6.464   5.505
10434SOL    HW132201   4.637   6.479   5.560
10434SOL    HW232202   4.507   6.383   5.537
10435SOL     OW32203   0.958   2.721   6.808
10435SOL    HW132204   1.030   2.737   6.876
10435SOL    HW232205   0.952   2.800   6.747
10436SOL     OW32206   0.180   4.558   5.200
10436SOL    HW132207   0.153   4.482   5.261
10436SOL    HW232208   0.275   4.582   5.218
10437SOL     OW32209   5.677   5.235   5.177
10437SOL    HW132210   5.671   5.142   5.211
10437SOL    HW232211   5.740   5.239   5.100
10438SOL     OW32212   6.750   6.074   6.173
10438SOL    HW132213   6.686   6.073   6.250
10438SOL    HW232214   6.781   6.168   6.157
10439SOL     OW32215   0.024   7.023   4.420
10439SOL    HW132216   6.952   7.014   4.449
10439SOL    HW232217   0.083   7.019   4.500
10440SOL     OW32218   6.716   2.137   6.255
10440SOL    HW132219   6.803   2.126   6.303
10440SOL    HW232220   6.664   2.211   6.297
10441SOL     OW32221   3.863   1.966   0.948
10441SOL    HW132222   3.919   2.034   0.995
10441SOL    HW232223   3.796   2.012   0.890
10442SOL     OW32224   2.331   1.773   5.478
10442SOL    HW132225   2.361   1.860   5.439
10442SOL    HW232226   2.253   1.739   5.426
10443SOL     OW32227   0.414   1.230   3.132
10443SOL    HW132228   0.408   1.329   3.146
10443SOL    HW232229   0.348   1.184   3.190
10444SOL     OW32230   3.943   5.435   4.490
10444SOL    HW132231   3.878   5.418   4.565
10444SOL    HW232232   3.948   5.533   4.472
10445SOL     OW32233   1.856   4.272   2.705
10445SOL    HW132234   1.828   4.334   2.632
10445SOL    HW232235   1.884   4.325   2.785
10446SOL     OW32236   1.745   4.359   5.343
10446SOL    HW132237   1.837   4.385   5.373
10446SOL    HW232238   1.747   4.336   5.246
10447SOL     OW32239   0.150   1.669   3.073
10447SOL    HW132240   0.223   1.737   3.071
10447SOL    HW232241   0.188   1.580   3.100
10448SOL     OW32242   2.498   6.475   2.803
10448SOL    HW132243   2.561   6.553   2.810
10448SOL    HW232244   2.551   6.390   2.809
10449SOL     OW32245   3.588   5.838   6.475
10449SOL    HW132246   3.666   5.804   6.527
10449SOL    HW232247   3.515   5.769   6.476
10450SOL     OW32248   0.036   0.225   6.167
10450SOL    HW132249   0.063   0.292   6.237
10450SOL    HW232250   0.106   0.155   6.158
10451SOL     OW32251   2.213   0.836   3.684
10451SOL    HW132252   2.282   0.887   3.635
10451SOL    HW232253   2.159   0.898   3.741
10452SOL     OW32254   0.063   3.568   4.260
10452SOL    HW132255   0.145   3.561   4.316
10452SOL    HW232256   0.074   3.514   4.177
10453SOL     OW32257   4.478   5.492   3.263
10453SOL    HW132258   4.445   5.580   3.297
10453SOL    HW232259   4.401   5.439   3.226
10454SOL     OW32260   6.597   0.772   5.941
10454SOL    HW132261   6.518   0.810   5.894
10454SOL    HW232262   6.604   0.674   5.922
10455SOL     OW32263   5.985   6.522   4.238
10455SOL    HW132264   5.972   6.432   4.197
10455SOL    HW232265   6.078   6.554   4.219
10456SOL     OW32266   0.378   5.385   0.085
10456SOL    HW132267   0.349   5.406   7.016
10456SOL    HW232268   0.303   5.403   0.149
10457SOL     OW32269   3.931   2.598   0.152
10457SOL    HW132270   3.934   2.676   0.214
10457SOL    HW232271   4.020   2.587   0.108
10458SOL     OW32272   6.742   5.904   6.666
10458SOL    HW132273   6.644   5.888   6.653
10458SOL    HW232274   6.787   5.914   6.577
10459SOL     OW32275   6.935   5.543   0.639
10459SOL    HW132276   6.939   5.450   0.602
10459SOL    HW232277   6.849   5.554   0.690
10460SOL     OW32278   0.698   3.276   0.288
10460SOL    HW132279   0.791   3.238   0.281
10460SOL    HW232280   0.645   3.247   0.208
10461SOL     OW32281   0.157   5.632   5.257
10461SOL    HW132282   0.061   5.627   5.229
10461SOL    HW232283   0.164   5.678   5.345
10462SOL     OW32284   4.150   1.614   0.704
10462SOL    HW132285   4.092   1.630   0.624
10462SOL    HW232286   4.245   1.604   0.675
10463SOL     OW32287   4.940   3.015   6.097
10463SOL    HW132288   4.976   3.104   6.126
10463SOL    HW232289   4.925   3.017   5.998
10464SOL     OW32290   5.986   5.197   3.083
10464SOL    HW132291   5.978   5.148   2.995
10464SOL    HW232292   5.910   5.261   3.092
10465SOL     OW32293   5.892   3.797   2.013
10465SOL    HW132294   5.849   3.874   2.059
10465SOL    HW232295   5.849   3.785   1.923
10466SOL     OW32296   5.726   4.885   6.568
10466SOL    HW132297   5.689   4.805   6.520
10466SOL    HW232298   5.664   4.963   6.555
10467SOL     OW32299   1.730   3.036   0.067
10467SOL    HW132300   1.732   3.015   0.164
10467SOL    HW232301   1.646   3.086   0.046
10468SOL     OW32302   2.969   4.801   3.844
10468SOL    HW132303   3.039   4.841   3.903
10468SOL    HW232304   2.923   4.727   3.893
10469SOL     OW32305   6.094   1.792   5.007
10469SOL    HW132306   6.055   1.706   4.975
10469SOL    HW232307   6.193   1.783   5.016
10470SOL     OW32308   2.584   2.517   4.040
10470SOL    HW132309   2.541   2.473   3.961
10470SOL    HW232310   2.618   2.608   4.013
10471SOL     OW32311   2.917   0.226   0.540
10471SOL    HW132312   3.003   0.190   0.504
10471SOL    HW232313   2.879   0.292   0.474
10472SOL     OW32314   3.415   5.030   0.580
10472SOL    HW132315   3.375   5.090   0.512
10472SOL    HW232316   3.435   5.082   0.663
10473SOL     OW32317   5.350   4.462   6.616
10473SOL    HW132318   5.364   4.456   6.714
10473SOL    HW232319   5.252   4.470   6.596
10474SOL     OW32320   5.580   0.890   3.930
10474SOL    HW132321   5.565   0.989   3.932
10474SOL    HW232322   5.512   0.847   3.871
10475SOL     OW32323   1.181   6.639   1.836
10475SOL    HW132324   1.095   6.644   1.785
10475SOL    HW232325   1.164   6.601   1.927
10476SOL     OW32326   3.964   6.438   0.467
10476SOL    HW132327   3.880   6.394   0.498
10476SOL    HW232328   4.043   6.387   0.501
10477SOL     OW32329   6.303   6.388   3.988
10477SOL    HW132330   6.308   6.307   4.046
10477SOL    HW232331   6.304   6.470   4.046
10478SOL     OW32332   6.333   6.906   0.343
10478SOL    HW132333   6.260   6.909   0.411
10478SOL    HW232334   6.419   6.934   0.385
10479SOL     OW32335   0.167   1.694   2.604
10479SOL    HW132336   0.077   1.655   2.627
10479SOL    HW232337   0.163   1.734   2.513
10480SOL     OW32338   1.305   0.490   2.161
10480SOL    HW132339   1.356   0.567   2.200
10480SOL    HW232340   1.207   0.509   2.166
10481SOL     OW32341   0.452   0.409   3.063
10481SOL    HW132342   0.413   0.327   3.104
10481SOL    HW232343   0.382   0.456   3.010
10482SOL     OW32344   5.370   3.526   3.453
10482SOL    HW132345   5.423   3.607   3.478
10482SOL    HW232346   5.372   3.514   3.354
10483SOL     OW32347   6.185   5.480   0.442
10483SOL    HW132348   6.206   5.426   0.524
10483SOL    HW232349   6.199   5.577   0.462
10484SOL     OW32350   6.601   1.072   1.383
10484SOL    HW132351   6.593   1.035   1.475
10484SOL    HW232352   6.515   1.118   1.358
10485SOL     OW32353   4.930   3.861   5.824
10485SOL    HW132354   4.855   3.893   5.766
10485SOL    HW232355   4.923   3.762   5.836
10486SOL     OW32356   6.075   2.737   0.630
10486SOL    HW132357   6.154   2.685   0.665
10486SOL    HW232358   6.001   2.674   0.608
10487SOL     OW32359   6.012   6.519   1.202
10487SOL    HW132360   6.046   6.470   1.122
10487SOL    HW232361   6.088   6.565   1.248
10488SOL     OW32362   2.903   2.794   6.731
10488SOL    HW132363   2.949   2.769   6.816
10488SOL    HW232364   2.857   2.882   6.742
10489SOL     OW32365   6.953   5.660   6.666
10489SOL    HW132366   6.974   5.738   6.724
10489SOL    HW232367   6.928   5.692   6.574
10490SOL     OW32368   6.760   1.039   3.447
10490SOL    HW132369   6.808   1.123   3.422
10490SOL    HW232370   6.807   0.960   3.407
10491SOL     OW32371   2.103   4.199   6.265
10491SOL    HW132372   2.007   4.191   6.239
10491SOL    HW232373   2.159   4.215   6.184
10492SOL     OW32374   4.750   3.329   5.242
10492SOL    HW132375   4.725   3.422   5.214
10492SOL    HW232376   4.813   3.290   5.175
10493SOL     OW32377   3.650   0.943   1.731
10493SOL    HW132378   3.633   0.867   1.668
10493SOL    HW232379   3.727   0.998   1.696
10494SOL     OW32380   5.626   2.058   4.051
10494SOL    HW132381   5.697   2.043   4.120
10494SOL    HW232382   5.537   2.028   4.087
10495SOL     OW32383   2.342   6.717   0.598
10495SOL    HW132384   2.425   6.710   0.543
10495SOL    HW232385   2.342   6.646   0.669
10496SOL     OW32386   0.040   6.857   6.798
10496SOL    HW132387   0.091   6.792   6.854
10496SOL    HW232388   0.102   6.900   6.732
10497SOL     OW32389   1.362   0.766   0.596
10497SOL    HW132390   1.270   0.729   0.605
10497SOL    HW232391   1.386   0.817   0.679
10498SOL     OW32392   1.828   6.947   6.302
10498SOL    HW132393   1.888   6.926   6.379
10498SOL    HW232394   1.876   6.928   6.216
10499SOL     OW32395   3.020   6.045   3.166
10499SOL    HW132396   3.100   6.105   3.165
10499SOL    HW232397   3.038   5.965   3.223
10500SOL     OW32398   1.142   2.257   5.978
10500SOL    HW132399   1.197   2.316   6.038
10500SOL    HW232400   1.046   2.286   5.981
10501SOL     OW32401   2.325   4.264   2.760
10501SOL    HW132402   2.424   4.268   2.747
10501SOL    HW232403   2.279   4.278   2.672
10502SOL     OW32404   3.240   6.749   0.221
10502SOL    HW132405   3.275   6.736   0.314
10502SOL    HW232406   3.313   6.783   0.162
10503SOL     OW32407   3.917   2.777   0.378
10503SOL    HW132408   3.840   2.775   0.442
10503SOL    HW232409   3.973   2.858   0.396
10504SOL     OW32410   2.722   2.761   0.109
10504SOL    HW132411   2.671   2.774   0.194
10504SOL    HW232412   2.658   2.745   0.034
10505SOL     OW32413   6.267   6.113   1.095
10505SOL    HW132414   6.206   6.147   1.024
10505SOL    HW232415   6.235   6.143   1.185
10506SOL     OW32416   0.568   4.311   6.085
10506SOL    HW132417   0.550   4.362   6.168
10506SOL    HW232418   0.483   4.298   6.034
10507SOL     OW32419   1.100   0.569   6.397
10507SOL    HW132420   1.020   0.509   6.392
10507SOL    HW232421   1.181   0.519   6.365
10508SOL     OW32422   5.439   4.877   3.624
10508SOL    HW132423   5.436   4.966   3.579
10508SOL    HW232424   5.533   4.854   3.647
10509SOL     OW32425   1.161   6.637   0.092
10509SOL    HW132426   1.199   6.567   0.033
10509SOL    HW232427   1.069   6.610   0.120
10510SOL     OW32428   5.759   5.295   6.417
10510SOL    HW132429   5.692   5.316   6.488
10510SOL    HW232430   5.846   5.271   6.460
10511SOL     OW32431   4.494   3.454   0.386
10511SOL    HW132432   4.479   3.383   0.455
10511SOL    HW232433   4.493   3.413   0.295
10512SOL     OW32434   4.605   0.412   6.479
10512SOL    HW132435   4.544   0.453   6.411
10512SOL    HW232436   4.633   0.321   6.447
10513SOL     OW32437   0.751   2.219   6.212
10513SOL    HW132438   0.797   2.241   6.298
10513SOL    HW232439   0.805   2.153   6.160
10514SOL     OW32440   6.376   4.347   0.176
10514SOL    HW132441   6.360   4.316   0.082
10514SOL    HW232442   6.402   4.443   0.175
10515SOL     OW32443   6.538   1.455   2.790
10515SOL    HW132444   6.564   1.493   2.701
10515SOL    HW232445   6.491   1.368   2.777
10516SOL     OW32446   4.283   0.695   6.476
10516SOL    HW132447   4.335   0.716   6.558
10516SOL    HW232448   4.185   0.691   6.499
10517SOL     OW32449   6.285   1.590   2.692
10517SOL    HW132450   6.307   1.569   2.787
10517SOL    HW232451   6.282   1.689   2.680
10518SOL     OW32452   1.000   5.971   0.236
10518SOL    HW132453   1.070   5.928   0.178
10518SOL    HW232454   0.910   5.952   0.198
10519SOL     OW32455   3.344   2.918   5.654
10519SOL    HW132456   3.258   2.869   5.659
10519SOL    HW232457   3.342   2.996   5.717
10520SOL     OW32458   2.975   2.736   6.284
10520SOL    HW132459   3.038   2.747   6.361
10520SOL    HW232460   2.883   2.767   6.312
10521SOL     OW32461   6.302   6.424   1.415
10521SOL    HW132462   6.244   6.352   1.376
10521SOL    HW232463   6.384   6.384   1.455
10522SOL     OW32464   6.751   1.529   0.637
10522SOL    HW132465   6.658   1.502   0.613
10522SOL    HW232466   6.783   1.598   0.572
10523SOL     OW32467   0.223   5.341   6.140
10523SOL    HW132468   0.142   5.303   6.096
10523SOL    HW232469   0.305   5.300   6.100
10524SOL     OW32470   1.910   6.801   4.344
10524SOL    HW132471   1.865   6.887   4.320
10524SOL    HW232472   1.870   6.726   4.291
10525SOL     OW32473   1.680   6.870   5.250
10525SOL    HW132474   1.656   6.793   5.309
10525SOL    HW232475   1.738   6.839   5.175
10526SOL     OW32476   0.744   0.720   2.431
10526SOL    HW132477   0.670   0.717   2.364
10526SOL    HW232478   0.717   0.778   2.508
10527SOL     OW32479   0.618   2.664   4.765
10527SOL    HW132480   0.518   2.659   4.770
10527SOL    HW232481   0.655   2.686   4.855
10528SOL     OW32482   0.506   5.141   4.683
10528SOL    HW132483   0.423   5.192   4.705
10528SOL    HW232484   0.585   5.201   4.691
10529SOL     OW32485   0.733   6.349   3.561
10529SOL    HW132486   0.697   6.442   3.555
10529SOL    HW232487   0.691   6.292   3.489
10530SOL     OW32488   2.594   2.055   6.274
10530SOL    HW132489   2.638   2.002   6.202
10530SOL    HW232490   2.571   2.146   6.239
10531SOL     OW32491   1.656   3.457   4.629
10531SOL    HW132492   1.755   3.442   4.620
10531SOL    HW232493   1.638   3.518   4.706
10532SOL     OW32494   3.050   2.711   6.941
10532SOL    HW132495   3.129   2.673   6.893
10532SOL    HW232496   3.011   2.641   7.001
10533SOL     OW32497   3.360   1.382   5.263
10533SOL    HW132498   3.314   1.469   5.279
10533SOL    HW232499   3.444   1.397   5.211
10534SOL     OW32500   6.953   6.211   0.888
10534SOL    HW132501   6.963   6.298   0.936
10534SOL    HW232502   6.866   6.211   0.838
10535SOL     OW32503   0.367   1.202   2.506
10535SOL    HW132504   0.306   1.150   2.565
10535SOL    HW232505   0.462   1.190   2.536
10536SOL     OW32506   4.724   0.213   3.422
10536SOL    HW132507   4.754   0.199   3.517
10536SOL    HW232508   4.754   0.135   3.367
10537SOL     OW32509   2.997   5.508   3.127
10537SOL    HW132510   3.034   5.416   3.119
10537SOL    HW232511   2.933   5.512   3.203
10538SOL     OW32512   4.144   3.846   6.786
10538SOL    HW132513   4.156   3.787   6.706
10538SOL    HW232514   4.107   3.793   6.862
10539SOL     OW32515   0.536   3.478   6.122
10539SOL    HW132516   0.614   3.427   6.086
10539SOL    HW232517   0.504   3.434   6.207
10540SOL     OW32518   1.409   0.946   5.664
10540SOL    HW132519   1.316   0.972   5.637
10540SOL    HW232520   1.424   0.849   5.644
10541SOL     OW32521   3.918   3.539   1.035
10541SOL    HW132522   3.845   3.544   0.967
10541SOL    HW232523   3.880   3.510   1.123
10542SOL     OW32524   0.617   2.145   0.001
10542SOL    HW132525   0.625   2.090   6.942
10542SOL    HW232526   0.620   2.085   0.081
10543SOL     OW32527   0.358   1.831   5.830
10543SOL    HW132528   0.273   1.853   5.781
10543SOL    HW232529   0.394   1.914   5.873
10544SOL     OW32530   2.528   2.246   2.917
10544SOL    HW132531   2.626   2.233   2.908
10544SOL    HW232532   2.486   2.162   2.952
10545SOL     OW32533   6.845   0.105   2.599
10545SOL    HW132534   6.834   0.179   2.666
10545SOL    HW232535   6.887   0.026   2.643
10546SOL     OW32536   1.936   0.003   4.614
10546SOL    HW132537   1.948   0.053   4.529
10546SOL    HW232538   2.013   6.965   4.628
10547SOL     OW32539   4.334   1.104   1.861
10547SOL    HW132540   4.382   1.108   1.948
10547SOL    HW232541   4.298   1.195   1.838
10548SOL     OW32542   5.368   3.899   4.226
10548SOL    HW132543   5.317   3.879   4.310
10548SOL    HW232544   5.328   3.847   4.150
10549SOL     OW32545   0.719   0.418   2.247
10549SOL    HW132546   0.779   0.495   2.269
10549SOL    HW232547   0.682   0.380   2.332
10550SOL     OW32548   5.362   6.945   4.259
10550SOL    HW132549   5.293   6.971   4.191
10550SOL    HW232550   5.349   6.850   4.286
10551SOL     OW32551   1.417   2.119   5.322
10551SOL    HW132552   1.410   2.167   5.234
10551SOL    HW232553   1.326   2.104   5.359
10552SOL     OW32554   4.191   1.977   5.807
10552SOL    HW132555   4.268   1.981   5.743
10552SOL    HW232556   4.110   1.941   5.761
10553SOL     OW32557   0.915   5.408   0.774
10553SOL    HW132558   1.002   5.401   0.822
10553SOL    HW232559   0.858   5.328   0.796
10554SOL     OW32560   6.360   4.816   6.869
10554SOL    HW132561   6.358   4.916   6.867
10554SOL    HW232562   6.406   4.782   6.787
10555SOL     OW32563   3.424   1.658   1.949
10555SOL    HW132564   3.446   1.613   2.036
10555SOL    HW232565   3.475   1.744   1.942
10556SOL     OW32566   2.041   3.424   5.024
10556SOL    HW132567   1.989   3.490   5.080
10556SOL    HW232568   2.071   3.469   4.940
10557SOL     OW32569   0.458   2.584   2.856
10557SOL    HW132570   0.494   2.650   2.922
10557SOL    HW232571   0.494   2.604   2.765
10558SOL     OW32572   4.983   6.456   5.383
10558SOL    HW132573   4.918   6.529   5.405
10558SOL    HW232574   5.076   6.487   5.404
10559SOL     OW32575   4.016   1.742   0.954
10559SOL    HW132576   4.072   1.701   0.882
10559SOL    HW232577   3.957   1.813   0.916
10560SOL     OW32578   1.523   4.830   5.191
10560SOL    HW132579   1.431   4.863   5.173
10560SOL    HW232580   1.564   4.798   5.106
10561SOL     OW32581   1.804   4.952   0.005
10561SOL    HW132582   1.806   4.880   0.074
10561SOL    HW232583   1.723   4.942   6.972
10562SOL     OW32584   4.722   0.193   0.867
10562SOL    HW132585   4.690   0.258   0.798
10562SOL    HW232586   4.682   0.103   0.851
10563SOL     OW32587   1.895   1.581   5.006
10563SOL    HW132588   1.927   1.486   4.997
10563SOL    HW232589   1.914   1.631   4.922
10564SOL     OW32590   6.137   0.705   1.569
10564SOL    HW132591   6.100   0.797   1.556
10564SOL    HW232592   6.237   0.711   1.581
10565SOL     OW32593   6.640   1.176   5.520
10565SOL    HW132594   6.692   1.098   5.483
10565SOL    HW232595   6.547   1.174   5.482
10566SOL     OW32596   3.397   4.010   6.285
10566SOL    HW132597   3.408   3.969   6.194
10566SOL    HW232598   3.398   4.110   6.276
10567SOL     OW32599   1.779   3.124   4.456
10567SOL    HW132600   1.751   3.170   4.371
10567SOL    HW232601   1.857   3.172   4.496
10568SOL     OW32602   5.994   1.133   2.258
10568SOL    HW132603   6.060   1.120   2.185
10568SOL    HW232604   5.919   1.191   2.227
10569SOL     OW32605   6.055   3.165   2.410
10569SOL    HW132606   6.011   3.207   2.490
10569SOL    HW232607   5.991   3.164   2.333
10570SOL     OW32608   1.948   4.636   2.562
10570SOL    HW132609   2.012   4.565   2.532
10570SOL    HW232610   1.877   4.594   2.619
10571SOL     OW32611   6.706   5.408   3.407
10571SOL    HW132612   6.660   5.495   3.427
10571SOL    HW232613   6.784   5.425   3.347
10572SOL     OW32614   5.738   3.631   2.651
10572SOL    HW132615   5.781   3.593   2.570
10572SOL    HW232616   5.648   3.667   2.627
10573SOL     OW32617   5.850   5.914   3.647
10573SOL    HW132618   5.855   5.832   3.590
10573SOL    HW232619   5.758   5.923   3.684
10574SOL     OW32620   1.624   2.169   3.726
10574SOL    HW132621   1.606   2.265   3.704
10574SOL    HW232622   1.678   2.128   3.653
10575SOL     OW32623   0.703   0.642   4.250
10575SOL    HW132624   0.758   0.709   4.300
10575SOL    HW232625   0.621   0.620   4.304
10576SOL     OW32626   1.642   5.938   5.422
10576SOL    HW132627   1.630   6.014   5.486
10576SOL    HW232628   1.736   5.905   5.426
10577SOL     OW32629   1.975   3.038   6.314
10577SOL    HW132630   1.914   3.109   6.278
10577SOL    HW232631   2.069   3.060   6.288
10578SOL     OW32632   5.627   0.493   5.336
10578SOL    HW132633   5.588   0.560   5.398
10578SOL    HW232634   5.591   0.402   5.357
10579SOL     OW32635   4.058   1.341   0.818
10579SOL    HW132636   4.026   1.381   0.732
10579SOL    HW232637   4.016   1.252   0.832
10580SOL     OW32638   6.367   6.409   6.464
10580SOL    HW132639   6.297   6.339   6.480
10580SOL    HW232640   6.458   6.371   6.481
10581SOL     OW32641   6.094   0.537   3.202
10581SOL    HW132642   6.154   0.462   3.227
10581SOL    HW232643   6.071   0.591   3.283
10582SOL     OW32644   3.215   5.137   0.336
10582SOL    HW132645   3.178   5.113   0.247
10582SOL    HW232646   3.280   5.211   0.327
10583SOL     OW32647   3.824   0.868   6.700
10583SOL    HW132648   3.889   0.819   6.759
10583SOL    HW232649   3.737   0.876   6.748
10584SOL     OW32650   5.657   6.081   1.401
10584SOL    HW132651   5.732   6.024   1.368
10584SOL    HW232652   5.681   6.118   1.491
10585SOL     OW32653   1.398   3.318   5.838
10585SOL    HW132654   1.307   3.322   5.881
10585SOL    HW232655   1.443   3.406   5.847
10586SOL     OW32656   2.538   6.051   5.819
10586SOL    HW132657   2.628   6.018   5.845
10586SOL    HW232658   2.469   6.008   5.878
10587SOL     OW32659   6.231   3.411   0.210
10587SOL    HW132660   6.186   3.383   0.126
10587SOL    HW232661   6.304   3.347   0.232
10588SOL     OW32662   0.844   4.718   2.314
10588SOL    HW132663   0.894   4.710   2.400
10588SOL    HW232664   0.780   4.641   2.306
10589SOL     OW32665   5.643   2.619   4.136
10589SOL    HW132666   5.704   2.642   4.212
10589SOL    HW232667   5.649   2.521   4.118
10590SOL     OW32668   1.282   6.831   2.987
10590SOL    HW132669   1.340   6.770   2.934
10590SOL    HW232670   1.279   6.921   2.943
10591SOL     OW32671   1.701   1.768   5.571
10591SOL    HW132672   1.614   1.725   5.547
10591SOL    HW232673   1.729   1.738   5.662
10592SOL     OW32674   6.700   1.364   0.006
10592SOL    HW132675   6.613   1.335   0.047
10592SOL    HW232676   6.774   1.350   0.072
10593SOL     OW32677   2.410   5.751   1.732
10593SOL    HW132678   2.484   5.765   1.665
10593SOL    HW232679   2.391   5.653   1.740
10594SOL     OW32680   6.193   1.993   3.544
10594SOL    HW132681   6.113   1.935   3.561
10594SOL    HW232682   6.276   1.938   3.555
10595SOL     OW32683   3.339   6.863   6.005
10595SOL    HW132684   3.293   6.795   6.062
10595SOL    HW232685   3.318   6.846   5.909
10596SOL     OW32686   3.982   6.795   2.020
10596SOL    HW132687   3.997   6.825   2.114
10596SOL    HW232688   3.890   6.819   1.991
10597SOL     OW32689   2.473   1.314   4.617
10597SOL    HW132690   2.442   1.316   4.712
10597SOL    HW232691   2.572   1.301   4.614
10598SOL     OW32692   2.026   2.562   0.164
10598SOL    HW132693   2.056   2.468   0.150
10598SOL    HW232694   1.960   2.587   0.093
10599SOL     OW32695   6.350   1.387   6.942
10599SOL    HW132696   6.415   1.375   6.867
10599SOL    HW232697   6.367   1.317   7.012
10600SOL     OW32698   2.709   3.111   6.493
10600SOL    HW132699   2.756   3.174   6.432
10600SOL    HW232700   2.716   3.018   6.456
10601SOL     OW32701   2.817   6.386   6.276
10601SOL    HW132702   2.721   6.386   6.304
10601SOL    HW232703   2.822   6.397   6.176
10602SOL     OW32704   4.728   1.199   1.420
10602SOL    HW132705   4.774   1.188   1.332
10602SOL    HW232706   4.672   1.118   1.437
10603SOL     OW32707   1.382   6.034   3.939
10603SOL    HW132708   1.291   6.063   3.966
10603SOL    HW232709   1.424   5.982   4.014
10604SOL     OW32710   6.590   4.190   4.630
10604SOL    HW132711   6.591   4.097   4.667
10604SOL    HW232712   6.643   4.250   4.689
10605SOL     OW32713   1.051   5.188   0.535
10605SOL    HW132714   0.995   5.192   0.618
10605SOL    HW232715   1.145   5.166   0.559
10606SOL     OW32716   0.147   0.766   1.495
10606SOL    HW132717   0.079   0.813   1.438
10606SOL    HW232718   0.218   0.831   1.521
10607SOL     OW32719   4.423   4.635   6.337
10607SOL    HW132720   4.386   4.718   6.376
10607SOL    HW232721   4.349   4.574   6.309
10608SOL     OW32722   6.026   1.627   4.406
10608SOL    HW132723   6.094   1.678   4.353
10608SOL    HW232724   5.938   1.633   4.360
10609SOL     OW32725   4.045   5.982   1.339
10609SOL    HW132726   4.139   5.970   1.308
10609SOL    HW232727   4.034   5.939   1.428
10610SOL     OW32728   1.431   3.543   6.206
10610SOL    HW132729   1.469   3.628   6.170
10610SOL    HW232730   1.332   3.553   6.217
10611SOL     OW32731   5.290   2.646   6.013
10611SOL    HW132732   5.241   2.730   5.992
10611SOL    HW232733   5.275   2.580   5.939
10612SOL     OW32734   2.573   0.340   6.169
10612SOL    HW132735   2.541   0.267   6.109
10612SOL    HW232736   2.579   0.426   6.118
10613SOL     OW32737   0.362   0.008   5.443
10613SOL    HW132738   0.398   6.986   5.361
10613SOL    HW232739   0.327   6.964   5.507
10614SOL     OW32740   6.429   0.999   4.386
10614SOL    HW132741   6.466   0.981   4.477
10614SOL    HW232742   6.391   0.914   4.349
10615SOL     OW32743   4.716   5.537   5.096
10615SOL    HW132744   4.739   5.515   5.191
10615SOL    HW232745   4.792   5.588   5.055
10616SOL     OW32746   2.932   6.014   0.770
10616SOL    HW132747   2.836   6.034   0.789
10616SOL    HW232748   2.988   6.045   0.847
10617SOL     OW32749   2.318   2.442   0.250
10617SOL    HW132750   2.287   2.500   0.174
10617SOL    HW232751   2.241   2.385   0.281
10618SOL     OW32752   6.248   2.315   0.510
10618SOL    HW132753   6.259   2.216   0.522
10618SOL    HW232754   6.180   2.332   0.438
10619SOL     OW32755   0.752   4.043   3.061
10619SOL    HW132756   0.749   4.128   3.009
10619SOL    HW232757   0.808   3.976   3.011
10620SOL     OW32758   1.443   6.339   5.326
10620SOL    HW132759   1.398   6.292   5.250
10620SOL    HW232760   1.486   6.423   5.293
10621SOL     OW32761   1.203   5.819   6.791
10621SOL    HW132762   1.148   5.781   6.717
10621SOL    HW232763   1.170   5.911   6.813
10622SOL     OW32764   4.050   0.307   2.064
10622SOL    HW132765   4.059   0.265   1.974
10622SOL    HW232766   4.132   0.360   2.085
10623SOL     OW32767   5.867   2.490   3.654
10623SOL    HW132768   5.798   2.529   3.713
10623SOL    HW232769   5.892   2.398   3.687
10624SOL     OW32770   1.785   0.926   4.672
10624SOL    HW132771   1.740   1.015   4.672
10624SOL    HW232772   1.720   0.857   4.705
10625SOL     OW32773   0.564   3.608   6.710
10625SOL    HW132774   0.514   3.693   6.725
10625SOL    HW232775   0.605   3.578   6.796
10626SOL     OW32776   1.156   2.153   1.972
10626SOL    HW132777   1.163   2.175   1.875
10626SOL    HW232778   1.060   2.139   1.996
10627SOL     OW32779   6.594   6.598   2.655
10627SOL    HW132780   6.595   6.549   2.742
10627SOL    HW232781   6.609   6.695   2.671
10628SOL     OW32782   6.428   5.026   4.944
10628SOL    HW132783   6.525   5.032   4.969
10628SOL    HW232784   6.372   5.059   5.021
10629SOL     OW32785   2.220   4.865   5.891
10629SOL    HW132786   2.288   4.809   5.844
10629SOL    HW232787   2.128   4.831   5.870
10630SOL     OW32788   6.263   0.712   3.048
10630SOL    HW132789   6.195   0.644   3.075
10630SOL    HW232790   6.244   0.798   3.095
10631SOL     OW32791   0.446   6.897   3.765
10631SOL    HW132792   0.522   6.872   3.705
10631SOL    HW232793   0.475   6.890   3.860
10632SOL     OW32794   6.413   2.585   4.472
10632SOL    HW132795   6.451   2.494   4.452
10632SOL    HW232796   6.332   2.600   4.416
10633SOL     OW32797   2.509   4.793   1.459
10633SOL    HW132798   2.433   4.788   1.523
10633SOL    HW232799   2.536   4.889   1.447
10634SOL     OW32800   3.063   5.861   1.076
10634SOL    HW132801   2.995   5.911   1.131
10634SOL    HW232802   3.105   5.790   1.132
10635SOL     OW32803   2.987   0.679   0.906
10635SOL    HW132804   3.054   0.658   0.977
10635SOL    HW232805   3.026   0.742   0.839
10636SOL     OW32806   0.914   1.856   1.697
10636SOL    HW132807   0.842   1.817   1.640
10636SOL    HW232808   0.956   1.934   1.649
10637SOL     OW32809   3.330   4.146   5.202
10637SOL    HW132810   3.277   4.126   5.285
10637SOL    HW232811   3.288   4.099   5.124
10638SOL     OW32812   6.764   6.358   4.474
10638SOL    HW132813   6.742   6.433   4.412
10638SOL    HW232814   6.741   6.271   4.431
10639SOL     OW32815   0.630   0.968   4.742
10639SOL    HW132816   0.536   0.936   4.733
10639SOL    HW232817   0.660   0.954   4.837
10640SOL     OW32818   5.037   0.625   0.199
10640SOL    HW132819   5.068   0.545   0.147
10640SOL    HW232820   5.101   0.643   0.273
10641SOL     OW32821   5.046   1.753   6.998
10641SOL    HW132822   5.020   1.771   0.069
10641SOL    HW232823   5.076   1.839   6.955
10642SOL     OW32824   0.606   2.060   1.837
10642SOL    HW132825   0.638   2.154   1.824
10642SOL    HW232826   0.660   2.016   1.909
10643SOL     OW32827   2.315   3.725   5.219
10643SOL    HW132828   2.342   3.820   5.201
10643SOL    HW232829   2.383   3.682   5.278
10644SOL     OW32830   4.556   1.478   4.024
10644SOL    HW132831   4.600   1.442   4.105
10644SOL    HW232832   4.471   1.525   4.050
10645SOL     OW32833   1.478   0.403   4.705
10645SOL    HW132834   1.417   0.333   4.741
10645SOL    HW232835   1.440   0.438   4.619
10646SOL     OW32836   1.101   2.674   5.568
10646SOL    HW132837   1.149   2.629   5.643
10646SOL    HW232838   1.080   2.769   5.594
10647SOL     OW32839   6.420   4.785   0.460
10647SOL    HW132840   6.421   4.729   0.543
10647SOL    HW232841   6.335   4.839   0.458
10648SOL     OW32842   4.460   3.128   6.382
10648SOL    HW132843   4.489   3.150   6.288
10648SOL    HW232844   4.522   3.173   6.446
10649SOL     OW32845   0.112   5.184   5.689
10649SOL    HW132846   0.207   5.192   5.717
10649SOL    HW232847   0.106   5.191   5.589
10650SOL     OW32848   2.289   6.021   4.013
10650SOL    HW132849   2.257   5.931   4.042
10650SOL    HW232850   2.367   6.048   4.070
10651SOL     OW32851   4.715   6.724   5.754
10651SOL    HW132852   4.641   6.705   5.818
10651SOL    HW232853   4.777   6.645   5.750
10652SOL     OW32854   3.405   0.479   6.262
10652SOL    HW132855   3.365   0.560   6.220
10652SOL    HW232856   3.371   0.396   6.217
10653SOL     OW32857   5.109   4.568   4.025
10653SOL    HW132858   5.117   4.578   4.124
10653SOL    HW232859   5.015   4.588   3.997
10654SOL     OW32860   2.833   0.510   1.521
10654SOL    HW132861   2.820   0.432   1.460
10654SOL    HW232862   2.788   0.591   1.481
10655SOL     OW32863   3.307   6.218   1.929
10655SOL    HW132864   3.244   6.295   1.920
10655SOL    HW232865   3.279   6.145   1.867
10656SOL     OW32866   6.146   2.193   0.235
10656SOL    HW132867   6.241   2.166   0.248
10656SOL    HW232868   6.086   2.120   0.267
10657SOL     OW32869   5.458   0.114   0.875
10657SOL    HW132870   5.554   0.122   0.901
10657SOL    HW232871   5.400   0.135   0.953
10658SOL     OW32872   1.073   5.378   3.996
10658SOL    HW132873   1.147   5.446   4.005
10658SOL    HW232874   1.059   5.357   3.899
10659SOL     OW32875   5.828   0.171   0.668
10659SOL    HW132876   5.882   0.127   0.739
10659SOL    HW232877   5.815   0.267   0.691
10660SOL     OW32878   4.088   3.770   5.607
10660SOL    HW132879   4.088   3.781   5.507
10660SOL    HW232880   4.182   3.760   5.638
10661SOL     OW32881   0.577   6.455   2.023
10661SOL    HW132882   0.620   6.473   1.935
10661SOL    HW232883   0.548   6.541   2.064
10662SOL     OW32884   6.780   1.789   0.475
10662SOL    HW132885   6.757   1.834   0.388
10662SOL    HW232886   6.876   1.762   0.474
10663SOL     OW32887   0.568   0.391   0.997
10663SOL    HW132888   0.596   0.472   0.947
10663SOL    HW232889   0.554   0.315   0.933
10664SOL     OW32890   1.927   4.884   0.318
10664SOL    HW132891   1.891   4.977   0.316
10664SOL    HW232892   1.863   4.825   0.369
10665SOL     OW32893   0.068   2.307   0.588
10665SOL    HW132894   0.020   2.255   0.519
10665SOL    HW232895   0.031   2.285   0.679
10666SOL     OW32896   2.507   5.837   0.181
10666SOL    HW132897   2.483   5.934   0.176
10666SOL    HW232898   2.427   5.781   0.159
10667SOL     OW32899   3.895   1.839   5.849
10667SOL    HW132900   3.860   1.908   5.785
10667SOL    HW232901   3.819   1.794   5.894
10668SOL     OW32902   1.465   2.015   6.548
10668SOL    HW132903   1.458   1.925   6.504
10668SOL    HW232904   1.393   2.023   6.618
10669SOL     OW32905   1.641   6.939   0.076
10669SOL    HW132906   1.552   6.968   0.042
10669SOL    HW232907   1.711   7.002   0.046
10670SOL     OW32908   5.500   4.515   5.625
10670SOL    HW132909   5.510   4.416   5.640
10670SOL    HW232910   5.439   4.553   5.695
10671SOL     OW32911   2.448   2.605   3.075
10671SOL    HW132912   2.488   2.536   3.016
10671SOL    HW232913   2.397   2.671   3.019
10672SOL     OW32914   0.490   2.463   1.413
10672SOL    HW132915   0.462   2.550   1.453
10672SOL    HW232916   0.472   2.464   1.315
10673SOL     OW32917   2.768   3.028   5.340
10673SOL    HW132918   2.775   2.932   5.368
10673SOL    HW232919   2.689   3.039   5.280
10674SOL     OW32920   4.065   3.363   1.550
10674SOL    HW132921   4.018   3.296   1.607
10674SOL    HW232922   4.163   3.341   1.547
10675SOL     OW32923   0.213   6.866   5.579
10675SOL    HW132924   0.166   6.878   5.666
10675SOL    HW232925   0.258   6.777   5.576
10676SOL     OW32926   5.974   0.083   6.461
10676SOL    HW132927   5.907   0.023   6.506
10676SOL    HW232928   6.053   0.029   6.432
10677SOL     OW32929   0.160   0.444   1.333
10677SOL    HW132930   0.227   0.415   1.265
10677SOL    HW232931   0.190   0.416   1.424
10678SOL     OW32932   2.330   5.950   2.347
10678SOL    HW132933   2.279   5.984   2.268
10678SOL    HW232934   2.266   5.919   2.418
10679SOL     OW32935   5.522   5.282   3.971
10679SOL    HW132936   5.464   5.218   4.022
10679SOL    HW232937   5.468   5.325   3.898
10680SOL     OW32938   1.186   3.511   2.637
10680SOL    HW132939   1.208   3.601   2.600
10680SOL    HW232940   1.194   3.513   2.737
10681SOL     OW32941   6.433   2.567   5.816
10681SOL    HW132942   6.351   2.537   5.865
10681SOL    HW232943   6.435   2.526   5.725
10682SOL     OW32944   0.170   1.147   2.305
10682SOL    HW132945   0.181   1.242   2.334
10682SOL    HW232946   0.083   1.136   2.257
10683SOL     OW32947   1.704   1.909   4.514
10683SOL    HW132948   1.760   1.826   4.525
10683SOL    HW232949   1.652   1.902   4.429
10684SOL     OW32950   6.402   4.549   0.002
10684SOL    HW132951   6.407   4.646   7.002
10684SOL    HW232952   6.307   4.518   7.019
10685SOL     OW32953   0.296   2.960   3.457
10685SOL    HW132954   0.203   2.972   3.493
10685SOL    HW232955   0.347   2.898   3.515
10686SOL     OW32956   2.990   5.608   0.663
10686SOL    HW132957   2.989   5.554   0.747
10686SOL    HW232958   3.054   5.567   0.598
10687SOL     OW32959   0.165   4.769   2.632
10687SOL    HW132960   0.214   4.842   2.586
10687SOL    HW232961   0.172   4.780   2.731
10688SOL     OW32962   6.844   4.857   1.915
10688SOL    HW132963   6.823   4.922   1.988
10688SOL    HW232964   6.790   4.774   1.928
10689SOL     OW32965   0.308   0.583   2.475
10689SOL    HW132966   0.328   0.487   2.458
10689SOL    HW232967   0.370   0.618   2.546
10690SOL     OW32968   4.691   4.986   2.044
10690SOL    HW132969   4.750   5.049   2.094
10690SOL    HW232970   4.707   4.893   2.076
10691SOL     OW32971   6.758   1.498   1.523
10691SOL    HW132972   6.807   1.585   1.523
10691SOL    HW232973   6.782   1.446   1.604
10692SOL     OW32974   3.523   5.619   3.638
10692SOL    HW132975   3.593   5.684   3.668
10692SOL    HW232976   3.568   5.537   3.601
10693SOL     OW32977   6.576   1.697   1.646
10693SOL    HW132978   6.637   1.729   1.719
10693SOL    HW232979   6.579   1.597   1.642
10694SOL     OW32980   4.559   6.238   0.768
10694SOL    HW132981   4.546   6.274   0.860
10694SOL    HW232982   4.650   6.262   0.735
10695SOL     OW32983   6.933   2.166   4.043
10695SOL    HW132984   6.844   2.195   4.078
10695SOL    HW232985   6.930   2.163   3.943
10696SOL     OW32986   6.984   5.989   1.515
10696SOL    HW132987   0.045   5.955   1.554
10696SOL    HW232988   6.915   5.916   1.515
10697SOL     OW32989   1.064   6.360   4.692
10697SOL    HW132990   1.057   6.304   4.775
10697SOL    HW232991   0.974   6.371   4.651
10698SOL     OW32992   2.855   0.035   3.946
10698SOL    HW132993   2.800   7.023   4.022
10698SOL    HW232994   2.836   0.132   3.935
10699SOL     OW32995   3.191   1.938   2.846
10699SOL    HW132996   3.278   1.985   2.858
10699SOL    HW232997   3.128   1.966   2.919
10700SOL     OW32998   6.988   6.546   1.225
10700SOL    HW132999   6.930   6.626   1.212
10700SOL    HW233000   7.009   6.505   1.137
10701SOL     OW33001   2.907   6.416   0.531
10701SOL    HW133002   2.947   6.346   0.473
10701SOL    HW233003   2.813   6.391   0.555
10702SOL     OW33004   5.847   2.548   0.591
10702SOL    HW133005   5.880   2.457   0.617
10702SOL    HW233006   5.851   2.558   0.492
10703SOL     OW33007   4.023   3.869   3.774
10703SOL    HW133008   4.122   3.864   3.790
10703SOL    HW233009   3.975   3.873   3.861
10704SOL     OW33010   4.919   0.255   2.504
10704SOL    HW133011   4.862   0.183   2.463
10704SOL    HW233012   4.961   0.220   2.588
10705SOL     OW33013   6.947   3.158   6.098
10705SOL    HW133014   6.854   3.189   6.081
10705SOL    HW233015   6.973   3.183   6.192
10706SOL     OW33016   3.131   0.780   2.562
10706SOL    HW133017   3.037   0.813   2.555
10706SOL    HW233018   3.157   0.775   2.659
10707SOL     OW33019   6.151   0.101   6.020
10707SOL    HW133020   6.107   0.048   5.947
10707SOL    HW233021   6.183   0.039   6.091
10708SOL     OW33022   4.310   1.039   0.424
10708SOL    HW133023   4.335   1.051   0.328
10708SOL    HW233024   4.348   0.952   0.457
10709SOL     OW33025   6.046   6.628   5.655
10709SOL    HW133026   5.973   6.675   5.704
10709SOL    HW233027   6.025   6.530   5.650
10710SOL     OW33028   6.254   5.204   3.509
10710SOL    HW133029   6.332   5.152   3.475
10710SOL    HW233030   6.228   5.170   3.600
10711SOL     OW33031   1.561   0.144   3.784
10711SOL    HW133032   1.473   0.099   3.766
10711SOL    HW233033   1.561   0.180   3.878
10712SOL     OW33034   3.549   1.056   5.300
10712SOL    HW133035   3.463   1.012   5.276
10712SOL    HW233036   3.594   1.091   5.218
10713SOL     OW33037   1.349   6.000   1.395
10713SOL    HW133038   1.311   5.935   1.328
10713SOL    HW233039   1.274   6.050   1.438
10714SOL     OW33040   0.249   5.435   5.486
10714SOL    HW133041   0.190   5.360   5.454
10714SOL    HW233042   0.235   5.515   5.428
10715SOL     OW33043   4.940   2.025   4.548
10715SOL    HW133044   4.969   1.995   4.639
10715SOL    HW233045   4.843   2.007   4.537
10716SOL     OW33046   6.646   0.432   4.004
10716SOL    HW133047   6.572   0.387   4.053
10716SOL    HW233048   6.722   0.368   3.992
10717SOL     OW33049   0.215   0.366   1.573
10717SOL    HW133050   0.172   0.437   1.628
10717SOL    HW233051   0.183   0.276   1.604
10718SOL     OW33052   6.140   5.175   6.873
10718SOL    HW133053   6.082   5.099   6.904
10718SOL    HW233054   6.225   5.138   6.836
10719SOL     OW33055   5.620   0.778   1.980
10719SOL    HW133056   5.550   0.707   1.975
10719SOL    HW233057   5.587   0.854   2.036
10720SOL     OW33058   0.162   3.819   6.375
10720SOL    HW133059   0.097   3.765   6.428
10720SOL    HW233060   0.231   3.758   6.335
10721SOL     OW33061   5.108   2.681   5.014
10721SOL    HW133062   5.199   2.664   4.976
10721SOL    HW233063   5.105   2.771   5.057
10722SOL     OW33064   0.073   3.487   0.002
10722SOL    HW133065   0.057   3.439   6.939
10722SOL    HW233066   0.059   3.585   7.012
10723SOL     OW33067   5.689   3.727   6.645
10723SOL    HW133068   5.654   3.806   6.695
10723SOL    HW233069   5.715   3.656   6.711
10724SOL     OW33070   4.331   6.313   6.527
10724SOL    HW133071   4.269   6.359   6.465
10724SOL    HW233072   4.282   6.241   6.577
10725SOL     OW33073   6.913   6.057   5.134
10725SOL    HW133074   6.833   6.088   5.084
10725SOL    HW233075   6.979   6.017   5.071
10726SOL     OW33076   4.821   0.920   4.392
10726SOL    HW133077   4.875   0.902   4.474
10726SOL    HW233078   4.724   0.921   4.416
10727SOL     OW33079   2.411   6.545   5.708
10727SOL    HW133080   2.396   6.464   5.765
10727SOL    HW233081   2.408   6.519   5.611
10728SOL     OW33082   4.954   6.023   3.241
10728SOL    HW133083   4.890   6.099   3.228
10728SOL    HW233084   5.041   6.045   3.197
10729SOL     OW33085   5.800   2.696   2.869
10729SOL    HW133086   5.773   2.781   2.824
10729SOL    HW233087   5.718   2.644   2.892
10730SOL     OW33088   2.101   6.779   2.846
10730SOL    HW133089   2.019   6.725   2.865
10730SOL    HW233090   2.081   6.846   2.774
10731SOL     OW33091   3.265   6.934   6.526
10731SOL    HW133092   3.251   6.950   6.624
10731SOL    HW233093   3.362   6.945   6.504
10732SOL     OW33094   5.892   5.874   3.339
10732SOL    HW133095   5.821   5.824   3.390
10732SOL    HW233096   5.982   5.848   3.373
10733SOL     OW33097   0.078   0.481   5.830
10733SOL    HW133098   7.020   0.532   5.857
10733SOL    HW233099   0.138   0.469   5.909
10734SOL     OW33100   1.425   1.262   5.470
10734SOL    HW133101   1.383   1.194   5.531
10734SOL    HW233102   1.480   1.215   5.401
10735SOL     OW33103   1.324   5.327   1.817
10735SOL    HW133104   1.244   5.309   1.759
10735SOL    HW233105   1.397   5.263   1.795
10736SOL     OW33106   5.985   0.221   3.922
10736SOL    HW133107   5.897   0.253   3.957
10736SOL    HW233108   5.989   0.235   3.823
10737SOL     OW33109   6.730   1.426   1.831
10737SOL    HW133110   6.665   1.355   1.857
10737SOL    HW233111   6.795   1.440   1.906
10738SOL     OW33112   3.213   0.721   1.557
10738SOL    HW133113   3.268   0.642   1.586
10738SOL    HW233114   3.221   0.793   1.626
10739SOL     OW33115   6.033   2.502   2.929
10739SOL    HW133116   6.074   2.497   2.838
10739SOL    HW233117   5.950   2.559   2.924
10740SOL     OW33118   1.231   6.702   6.189
10740SOL    HW133119   1.296   6.626   6.185
10740SOL    HW233120   1.169   6.688   6.266
10741SOL     OW33121   2.638   2.490   3.627
10741SOL    HW133122   2.582   2.562   3.668
10741SOL    HW233123   2.705   2.458   3.694
10742SOL     OW33124   6.085   6.085   3.115
10742SOL    HW133125   6.101   5.987   3.101
10742SOL    HW233126   5.990   6.100   3.140
10743SOL     OW33127   3.715   1.017   6.021
10743SOL    HW133128   3.650   1.088   6.048
10743SOL    HW233129   3.764   1.046   5.939
10744SOL     OW33130   1.820   0.320   0.229
10744SOL    HW133131   1.729   0.314   0.271
10744SOL    HW233132   1.887   0.276   0.288
10745SOL     OW33133   2.195   4.770   1.347
10745SOL    HW133134   2.105   4.732   1.324
10745SOL    HW233135   2.193   4.807   1.440
10746SOL     OW33136   1.657   6.413   6.153
10746SOL    HW133137   1.629   6.326   6.114
10746SOL    HW233138   1.658   6.406   6.253
10747SOL     OW33139   6.373   1.684   4.670
10747SOL    HW133140   6.317   1.643   4.742
10747SOL    HW233141   6.417   1.612   4.617
10748SOL     OW33142   4.138   6.231   1.287
10748SOL    HW133143   4.082   6.305   1.325
10748SOL    HW233144   4.095   6.143   1.307
10749SOL     OW33145   5.509   5.403   2.716
10749SOL    HW133146   5.410   5.416   2.728
10749SOL    HW233147   5.529   5.305   2.710
10750SOL     OW33148   4.818   2.542   4.270
10750SOL    HW133149   4.764   2.626   4.278
10750SOL    HW233150   4.835   2.524   4.173
10751SOL     OW33151   0.605   4.981   5.177
10751SOL    HW133152   0.536   4.952   5.110
10751SOL    HW233153   0.613   4.912   5.248
10752SOL     OW33154   6.221   6.540   0.868
10752SOL    HW133155   6.138   6.498   0.903
10752SOL    HW233156   6.281   6.468   0.831
10753SOL     OW33157   4.879   6.073   3.913
10753SOL    HW133158   4.945   6.145   3.893
10753SOL    HW233159   4.840   6.088   4.004
10754SOL     OW33160   1.377   3.617   1.511
10754SOL    HW133161   1.461   3.607   1.457
10754SOL    HW233162   1.389   3.570   1.599
10755SOL     OW33163   6.289   3.151   1.237
10755SOL    HW133164   6.343   3.235   1.232
10755SOL    HW233165   6.240   3.148   1.325
10756SOL     OW33166   0.394   2.460   1.097
10756SOL    HW133167   0.336   2.378   1.103
10756SOL    HW233168   0.419   2.475   1.001
10757SOL     OW33169   6.898   4.075   1.597
10757SOL    HW133170   6.874   4.129   1.678
10757SOL    HW233171   6.995   4.053   1.600
10758SOL     OW33172   0.839   0.131   6.820
10758SOL    HW133173   0.763   0.184   6.858
10758SOL    HW233174   0.900   0.191   6.769
10759SOL     OW33175   2.515   2.370   6.305
10759SOL    HW133176   2.571   2.346   6.384
10759SOL    HW233177   2.419   2.348   6.324
10760SOL     OW33178   0.451   5.254   0.360
10760SOL    HW133179   0.472   5.326   0.427
10760SOL    HW233180   0.421   5.295   0.274
10761SOL     OW33181   0.591   1.588   6.016
10761SOL    HW133182   0.527   1.664   6.019
10761SOL    HW233183   0.665   1.609   5.952
10762SOL     OW33184   3.634   6.583   6.206
10762SOL    HW133185   3.616   6.615   6.114
10762SOL    HW233186   3.693   6.502   6.203
10763SOL     OW33187   5.496   0.453   2.959
10763SOL    HW133188   5.498   0.407   2.871
10763SOL    HW233189   5.433   0.405   3.020
10764SOL     OW33190   3.970   0.818   4.804
10764SOL    HW133191   3.948   0.807   4.901
10764SOL    HW233192   4.005   0.910   4.788
10765SOL     OW33193   6.884   1.575   2.894
10765SOL    HW133194   6.880   1.666   2.854
10765SOL    HW233195   6.979   1.553   2.917
10766SOL     OW33196   1.851   4.946   6.025
10766SOL    HW133197   1.891   5.006   6.094
10766SOL    HW233198   1.846   4.994   5.937
10767SOL     OW33199   1.729   5.869   0.787
10767SOL    HW133200   1.705   5.924   0.707
10767SOL    HW233201   1.768   5.782   0.757
10768SOL     OW33202   5.919   5.684   0.430
10768SOL    HW133203   5.911   5.588   0.403
10768SOL    HW233204   5.892   5.743   0.353
10769SOL     OW33205   3.161   3.347   4.833
10769SOL    HW133206   3.075   3.369   4.881
10769SOL    HW233207   3.189   3.425   4.778
10770SOL     OW33208   5.196   6.827   3.861
10770SOL    HW133209   5.165   6.800   3.953
10770SOL    HW233210   5.131   6.893   3.822
10771SOL     OW33211   4.956   6.092   5.794
10771SOL    HW133212   5.043   6.078   5.747
10771SOL    HW233213   4.965   6.064   5.890
10772SOL     OW33214   5.696   4.756   2.753
10772SOL    HW133215   5.689   4.671   2.701
10772SOL    HW233216   5.776   4.808   2.722
10773SOL     OW33217   6.587   4.777   1.007
10773SOL    HW133218   6.498   4.736   1.025
10773SOL    HW233219   6.594   4.799   0.910
10774SOL     OW33220   1.497   3.204   0.643
10774SOL    HW133221   1.430   3.131   0.629
10774SOL    HW233222   1.589   3.165   0.643
10775SOL     OW33223   1.018   4.268   1.178
10775SOL    HW133224   0.955   4.271   1.101
10775SOL    HW233225   0.991   4.337   1.246
10776SOL     OW33226   1.154   1.836   3.196
10776SOL    HW133227   1.206   1.915   3.163
10776SOL    HW233228   1.131   1.776   3.119
10777SOL     OW33229   3.456   1.476   2.196
10777SOL    HW133230   3.471   1.498   2.293
10777SOL    HW233231   3.517   1.402   2.168
10778SOL     OW33232   6.123   6.224   3.645
10778SOL    HW133233   6.116   6.245   3.547
10778SOL    HW233234   6.069   6.290   3.697
10779SOL     OW33235   5.405   4.167   4.274
10779SOL    HW133236   5.446   4.174   4.365
10779SOL    HW233237   5.403   4.071   4.246
10780SOL     OW33238   1.470   5.850   4.997
10780SOL    HW133239   1.399   5.861   4.928
10780SOL    HW233240   1.547   5.910   4.975
10781SOL     OW33241   5.804   2.040   5.592
10781SOL    HW133242   5.750   1.965   5.556
10781SOL    HW233243   5.780   2.125   5.545
10782SOL     OW33244   1.283   2.760   5.056
10782SOL    HW133245   1.269   2.669   5.017
10782SOL    HW233246   1.228   2.771   5.138
10783SOL     OW33247   1.232   2.948   2.961
10783SOL    HW133248   1.216   3.021   2.894
10783SOL    HW233249   1.274   2.870   2.916
10784SOL     OW33250   3.720   6.313   2.318
10784SOL    HW133251   3.624   6.332   2.299
10784SOL    HW233252   3.737   6.322   2.417
10785SOL     OW33253   1.685   6.155   2.367
10785SOL    HW133254   1.672   6.208   2.283
10785SOL    HW233255   1.775   6.176   2.406
10786SOL     OW33256   3.975   1.073   1.872
10786SOL    HW133257   3.930   0.989   1.901
10786SOL    HW233258   3.976   1.078   1.772
10787SOL     OW33259   3.802   1.193   3.494
10787SOL    HW133260   3.712   1.178   3.535
10787SOL    HW233261   3.873   1.181   3.563
10788SOL     OW33262   0.703   4.896   0.901
10788SOL    HW133263   0.662   4.960   0.966
10788SOL    HW233264   0.634   4.865   0.836
10789SOL     OW33265   6.572   1.608   0.279
10789SOL    HW133266   6.656   1.618   0.224
10789SOL    HW233267   6.566   1.515   0.314
10790SOL     OW33268   0.368   2.366   4.963
10790SOL    HW133269   0.276   2.328   4.949
10790SOL    HW233270   0.427   2.295   5.002
10791SOL     OW33271   1.801   1.578   3.402
10791SOL    HW133272   1.711   1.621   3.410
10791SOL    HW233273   1.828   1.575   3.305
10792SOL     OW33274   3.694   1.990   1.248
10792SOL    HW133275   3.768   2.031   1.300
10792SOL    HW233276   3.633   1.940   1.310
10793SOL     OW33277   4.524   1.296   5.000
10793SOL    HW133278   4.573   1.259   4.921
10793SOL    HW233279   4.585   1.354   5.053
10794SOL     OW33280   4.451   3.258   0.635
10794SOL    HW133281   4.358   3.225   0.650
10794SOL    HW233282   4.494   3.206   0.561
10795SOL     OW33283   0.241   3.577   3.246
10795SOL    HW133284   0.248   3.630   3.161
10795SOL    HW233285   0.326   3.525   3.260
10796SOL     OW33286   6.944   6.799   0.068
10796SOL    HW133287   6.902   6.836   0.151
10796SOL    HW233288   6.967   6.874   0.006
10797SOL     OW33289   4.042   3.819   0.330
10797SOL    HW133290   4.073   3.809   0.424
10797SOL    HW233291   4.090   3.897   0.288
10798SOL     OW33292   2.427   0.030   6.348
10798SOL    HW133293   2.482   0.013   6.266
10798SOL    HW233294   2.486   0.070   6.419
10799SOL     OW33295   2.873   1.774   2.799
10799SOL    HW133296   2.799   1.709   2.781
10799SOL    HW233297   2.857   1.859   2.749
10800SOL     OW33298   1.438   0.323   5.386
10800SOL    HW133299   1.441   0.294   5.481
10800SOL    HW233300   1.373   0.398   5.375
10801SOL     OW33301   2.886   6.426   6.014
10801SOL    HW133302   2.844   6.395   5.928
10801SOL    HW233303   2.931   6.514   5.999
10802SOL     OW33304   0.479   4.239   4.863
10802SOL    HW133305   0.519   4.277   4.947
10802SOL    HW233306   0.476   4.310   4.793
10803SOL     OW33307   6.773   4.446   5.202
10803SOL    HW133308   6.778   4.513   5.128
10803SOL    HW233309   6.718   4.482   5.277
10804SOL     OW33310   5.141   4.695   1.648
10804SOL    HW133311   5.125   4.789   1.618
10804SOL    HW233312   5.080   4.634   1.597
10805SOL     OW33313   4.567   6.984   0.858
10805SOL    HW133314   4.590   6.909   0.919
10805SOL    HW233315   4.498   6.953   0.792
10806SOL     OW33316   5.045   3.729   0.141
10806SOL    HW133317   4.989   3.757   0.063
10806SOL    HW233318   5.121   3.673   0.108
10807SOL     OW33319   4.065   6.484   3.557
10807SOL    HW133320   3.992   6.435   3.606
10807SOL    HW233321   4.152   6.466   3.602
10808SOL     OW33322   0.022   2.878   6.200
10808SOL    HW133323   0.120   2.880   6.180
10808SOL    HW233324   7.004   2.962   6.166
10809SOL     OW33325   2.492   0.562   3.374
10809SOL    HW133326   2.464   0.631   3.308
10809SOL    HW233327   2.566   0.599   3.431
10810SOL     OW33328   6.726   1.299   5.273
10810SOL    HW133329   6.729   1.270   5.368
10810SOL    HW233330   6.791   1.245   5.219
10811SOL     OW33331   4.471   4.759   5.618
10811SOL    HW133332   4.552   4.751   5.677
10811SOL    HW233333   4.408   4.684   5.637
10812SOL     OW33334   6.776   2.275   3.021
10812SOL    HW133335   6.708   2.321   2.964
10812SOL    HW233336   6.831   2.215   2.963
10813SOL     OW33337   2.800   6.137   1.646
10813SOL    HW133338   2.753   6.214   1.690
10813SOL    HW233339   2.898   6.143   1.664
10814SOL     OW33340   1.606   0.005   4.811
10814SOL    HW133341   1.637   6.934   4.807
10814SOL    HW233342   1.685   0.066   4.805
10815SOL     OW33343   5.148   2.879   3.081
10815SOL    HW133344   5.098   2.959   3.050
10815SOL    HW233345   5.087   2.820   3.134
10816SOL     OW33346   2.341   1.694   2.116
10816SOL    HW133347   2.276   1.749   2.064
10816SOL    HW233348   2.302   1.672   2.206
10817SOL     OW33349   4.276   6.753   1.707
10817SOL    HW133350   4.254   6.703   1.791
10817SOL    HW233351   4.255   6.850   1.719
10818SOL     OW33352   4.624   3.233   6.580
10818SOL    HW133353   4.597   3.189   6.665
10818SOL    HW233354   4.573   3.317   6.567
10819SOL     OW33355   6.993   4.127   6.509
10819SOL    HW133356   0.035   4.165   6.574
10819SOL    HW233357   0.016   4.106   6.423
10820SOL     OW33358   0.119   6.383   4.735
10820SOL    HW133359   0.053   6.432   4.791
10820SOL    HW233360   0.175   6.324   4.793
10821SOL     OW33361   6.713   0.664   0.757
10821SOL    HW133362   6.641   0.717   0.801
10821SOL    HW233363   6.725   0.577   0.805
10822SOL     OW33364   0.820   4.113   1.779
10822SOL    HW133365   0.867   4.061   1.850
10822SOL    HW233366   0.741   4.061   1.747
10823SOL     OW33367   1.543   0.393   0.738
10823SOL    HW133368   1.597   0.311   0.760
10823SOL    HW233369   1.446   0.370   0.736
10824SOL     OW33370   5.583   0.370   2.631
10824SOL    HW133371   5.661   0.315   2.601
10824SOL    HW233372   5.599   0.466   2.607
10825SOL     OW33373   3.474   1.213   0.910
10825SOL    HW133374   3.428   1.193   0.997
10825SOL    HW233375   3.422   1.281   0.859
10826SOL     OW33376   6.335   3.023   2.100
10826SOL    HW133377   6.351   3.063   2.190
10826SOL    HW233378   6.390   3.072   2.032
10827SOL     OW33379   6.877   2.461   4.287
10827SOL    HW133380   6.912   2.464   4.193
10827SOL    HW233381   6.867   2.554   4.322
10828SOL     OW33382   1.013   5.954   0.539
10828SOL    HW133383   1.014   5.970   0.440
10828SOL    HW233384   0.936   6.003   0.580
10829SOL     OW33385   3.101   3.527   1.396
10829SOL    HW133386   3.167   3.587   1.352
10829SOL    HW233387   3.037   3.581   1.450
10830SOL     OW33388   4.679   2.799   4.325
10830SOL    HW133389   4.731   2.884   4.322
10830SOL    HW233390   4.671   2.767   4.419
10831SOL     OW33391   5.324   1.825   2.863
10831SOL    HW133392   5.281   1.772   2.790
10831SOL    HW233393   5.276   1.808   2.949
10832SOL     OW33394   0.262   1.824   0.725
10832SOL    HW133395   0.301   1.732   0.728
10832SOL    HW233396   0.271   1.867   0.815
10833SOL     OW33397   3.314   6.880   4.868
10833SOL    HW133398   3.385   6.825   4.825
10833SOL    HW233399   3.253   6.917   4.798
10834SOL     OW33400   0.866   1.461   4.865
10834SOL    HW133401   0.918   1.488   4.784
10834SOL    HW233402   0.768   1.475   4.848
10835SOL     OW33403   6.746   1.526   2.343
10835SOL    HW133404   6.779   1.618   2.321
10835SOL    HW233405   6.652   1.532   2.376
10836SOL     OW33406   1.915   2.635   6.801
10836SOL    HW133407   1.952   2.726   6.817
10836SOL    HW233408   1.972   2.586   6.735
10837SOL     OW33409   0.818   5.139   0.712
10837SOL    HW133410   0.810   5.080   0.792
10837SOL    HW233411   0.817   5.083   0.629
10838SOL     OW33412   5.694   6.945   7.020
10838SOL    HW133413   5.786   6.934   6.983
10838SOL    HW233414   5.698   7.001   0.079
10839SOL     OW33415   2.272   1.779   0.574
10839SOL    HW133416   2.343   1.788   0.504
10839SOL    HW233417   2.259   1.868   0.619
10840SOL     OW33418   4.022   5.522   1.911
10840SOL    HW133419   4.115   5.553   1.896
10840SOL    HW233420   4.020   5.455   1.984
10841SOL     OW33421   3.632   4.826   6.521
10841SOL    HW133422   3.699   4.838   6.447
10841SOL    HW233423   3.544   4.801   6.482
10842SOL     OW33424   6.179   2.773   1.374
10842SOL    HW133425   6.187   2.685   1.421
10842SOL    HW233426   6.269   2.814   1.364
10843SOL     OW33427   0.223   1.579   1.793
10843SOL    HW133428   0.201   1.518   1.869
10843SOL    HW233429   0.319   1.608   1.801
10844SOL     OW33430   4.708   6.713   3.935
10844SOL    HW133431   4.684   6.640   3.998
10844SOL    HW233432   4.625   6.744   3.887
10845SOL     OW33433   1.702   2.419   0.781
10845SOL    HW133434   1.602   2.421   0.783
10845SOL    HW233435   1.738   2.503   0.821
10846SOL     OW33436   4.013   1.713   1.670
10846SOL    HW133437   4.073   1.674   1.740
10846SOL    HW233438   3.998   1.810   1.690
10847SOL     OW33439   4.046   2.828   6.454
10847SOL    HW133440   4.000   2.825   6.543
10847SOL    HW233441   4.108   2.906   6.451
10848SOL     OW33442   1.372   0.611   6.512
10848SOL    HW133443   1.383   0.516   6.541
10848SOL    HW233444   1.404   0.622   6.418
10849SOL     OW33445   2.876   4.836   4.181
10849SOL    HW133446   2.953   4.867   4.125
10849SOL    HW233447   2.800   4.809   4.121
10850SOL     OW33448   5.248   6.707   0.569
10850SOL    HW133449   5.275   6.776   0.502
10850SOL    HW233450   5.309   6.710   0.647
10851SOL     OW33451   3.996   2.180   6.476
10851SOL    HW133452   3.966   2.182   6.571
10851SOL    HW233453   3.991   2.272   6.437
10852SOL     OW33454   0.285   0.451   6.011
10852SOL    HW133455   0.314   0.356   6.017
10852SOL    HW233456   0.337   0.497   5.939
10853SOL     OW33457   2.098   1.465   4.641
10853SOL    HW133458   2.136   1.493   4.553
10853SOL    HW233459   2.169   1.466   4.710
10854SOL     OW33460   6.926   6.317   0.184
10854SOL    HW133461   6.885   6.395   0.137
10854SOL    HW233462   6.903   6.322   0.281
10855SOL     OW33463   1.292   6.259   0.828
10855SOL    HW133464   1.203   6.214   0.828
10855SOL    HW233465   1.312   6.295   0.738
10856SOL     OW33466   6.331   6.678   6.589
10856SOL    HW133467   6.349   6.687   6.687
10856SOL    HW233468   6.360   6.588   6.558
10857SOL     OW33469   5.901   1.332   3.915
10857SOL    HW133470   5.913   1.340   4.014
10857SOL    HW233471   5.814   1.374   3.889
10858SOL     OW33472   2.027   2.005   0.340
10858SOL    HW133473   2.049   1.926   0.283
10858SOL    HW233474   2.037   1.979   0.437
10859SOL     OW33475   0.881   4.568   1.932
10859SOL    HW133476   0.817   4.588   1.859
10859SOL    HW233477   0.864   4.476   1.968
10860SOL     OW33478   6.413   2.197   0.177
10860SOL    HW133479   6.412   2.102   0.147
10860SOL    HW233480   6.485   2.247   0.129
10861SOL     OW33481   3.283   2.892   2.058
10861SOL    HW133482   3.250   2.972   2.108
10861SOL    HW233483   3.382   2.885   2.069
10862SOL     OW33484   3.768   3.012   5.561
10862SOL    HW133485   3.689   3.037   5.617
10862SOL    HW233486   3.751   3.041   5.466
10863SOL     OW33487   2.217   1.694   2.877
10863SOL    HW133488   2.220   1.613   2.818
10863SOL    HW233489   2.291   1.688   2.945
10864SOL     OW33490   3.036   4.824   1.978
10864SOL    HW133491   3.105   4.803   1.909
10864SOL    HW233492   2.967   4.751   1.979
10865SOL     OW33493   3.914   1.561   3.345
10865SOL    HW133494   3.921   1.584   3.442
10865SOL    HW233495   4.005   1.554   3.305
10866SOL     OW33496   0.127   3.901   3.162
10866SOL    HW133497   0.085   3.853   3.239
10866SOL    HW233498   0.190   3.840   3.114
10867SOL     OW33499   4.385   3.689   0.409
10867SOL    HW133500   4.285   3.682   0.405
10867SOL    HW233501   4.425   3.598   0.407
10868SOL     OW33502   1.272   1.320   4.534
10868SOL    HW133503   1.294   1.411   4.571
10868SOL    HW233504   1.174   1.303   4.544
10869NA      NA33505   6.744   2.507   5.672
10870NA      NA33506   4.288   4.685   5.191
10871NA      NA33507   1.027   4.710   2.783
10872NA      NA33508   5.777   4.084   3.357
10873NA      NA33509   4.017   2.105   5.311
10874NA      NA33510   2.403   5.012   0.425
10875NA      NA33511   0.946   5.079   6.861
10876NA      NA33512   3.469   4.052   1.267
10877NA      NA33513   4.321   5.208   0.855
10878NA      NA33514   3.136   0.799   6.540
10879NA      NA33515   5.600   6.490   2.174
10880NA      NA33516   1.634   6.830   5.580
10881NA      NA33517   4.201   4.999   1.882
10882NA      NA33518   3.376   3.311   6.669
   7.02388   7.02388   7.02388
